Membrane in water
40344
    1TMC1    C1    1   1.118   4.047  11.307  0.1161  0.2638  0.2304
    1TMC1    C2    2   1.209   4.130  11.257  0.2973  0.4102 -0.1207
    1TMC1    C3    3   1.258   4.221  11.336 -0.0768  0.1742 -1.1147
    1TMC1    C4    4   1.085   4.042  11.436  0.1125 -0.1839 -0.5143
    1TMC1    C5    5   1.137   4.135  11.519 -0.0386  0.0587 -0.7574
    1TMC1    C6    6   1.225   4.234  11.467  0.5530 -0.1215  0.2227
    1TMC1     C    7   1.064   3.942  11.225 -0.3913 -0.1578  0.2905
    1TMC1     O    8   0.966   3.881  11.269 -0.5793 -0.5972 -0.2114
    1TMC1     H    9   1.228   4.131  11.151  0.1742  1.2529 -0.1366
    1TMC1    H1   10   1.018   3.961  11.464 -0.1992  0.1474 -0.2976
    1TMC1    H2   11   1.269   4.310  11.530 -1.3657  1.1358  0.0605
    1TMC1    C7   12   1.069   4.167  11.637  0.2303 -0.0332  0.0872
    1TMC1    C8   13   1.347   4.321  11.279  0.1520 -1.2445  0.0425
    1TMC1    O1   14   1.068   4.281  11.680  0.7079 -0.4966  0.2424
    1TMC1    O2   15   1.322   4.393  11.181 -0.0449 -0.1718 -0.3554
    1TMC1    O3   16   1.059   4.054  11.708 -0.7863 -0.5079  0.1909
    1TMC1    H3   17   1.117   3.979  11.682 -0.2611  0.4686 -1.4778
    1TMC1    O5   18   1.444   4.348  11.370  0.4625  0.0137 -0.1477
    1TMC1    H5   19   1.447   4.276  11.438 -0.5482  0.4087  0.3062
    2MPD2     C   20   1.174   3.535  10.926  0.4556  0.4136  0.9032
    2MPD2    C1   21   1.086   3.548  11.032 -0.2293 -0.4110 -0.3222
    2MPD2    C2   22   1.071   3.668  11.102 -0.0392 -0.0238 -0.0863
    2MPD2    C3   23   1.146   3.779  11.055 -1.0836 -0.1641 -0.2096
    2MPD2    C4   24   1.229   3.761  10.943  0.1157 -0.2929 -0.2188
    2MPD2    C5   25   1.241   3.642  10.875 -0.2941 -0.4031 -1.0805
    2MPD2     H   26   1.003   3.671  11.186  1.7435 -0.3136  1.3630
    2MPD2    H1   27   1.282   3.849  10.910 -2.5530  2.1610  2.0403
    2MPD2    H2   28   1.180   3.438  10.878  2.9894  1.9781 -1.8978
    2MPD2    H3   29   1.310   3.638  10.791 -0.2039  0.1415 -1.0317
    2MPD2     N   30   1.146   3.905  11.121  0.4441 -1.0968 -0.1940
    2MPD2    H5   31   1.223   3.960  11.082 -0.6263  1.2713  1.0558
    2MPD2    N1   32   1.027   3.444  11.097 -0.3865 -0.1857 -0.1160
    2MPD2    H7   33   0.963   3.480  11.168 -2.6000  0.6433 -2.5579
    3TMC1    C1   34   0.148   3.842  10.524  0.2808 -0.3699 -0.0240
    3TMC1    C2   35   0.202   3.964  10.509 -0.3241  0.6789 -0.0801
    3TMC1    C3   36   0.275   3.986  10.392 -1.2555 -0.0681  0.5719
    3TMC1    C4   37   0.169   3.742  10.437  0.2822 -0.3676  0.7582
    3TMC1    C5   38   0.238   3.768  10.327  0.5367  0.1071  0.8175
    3TMC1    C6   39   0.293   3.889  10.301  0.4140  0.3636 -0.4054
    3TMC1     C   40   0.082   3.800  10.652  0.3022 -0.1820 -0.5014
    3TMC1     O   41   0.039   3.688  10.659 -0.0827 -0.3017 -0.4840
    3TMC1     H   42   0.184   4.049  10.573  0.5014  0.7204  0.0985
    3TMC1    H1   43   0.114   3.649  10.448 -2.2411  1.1684  0.8689
    3TMC1    H2   44   0.330   3.915  10.203  0.1194  3.7958  0.4198
    3TMC1    C7   45   0.249   3.670  10.225  0.3233  0.2549 -1.0871
    3TMC1    C8   46   0.354   4.110  10.379  0.3199 -0.9184 -0.2215
    3TMC1    O1   47   0.179   3.569  10.233 -0.2803 -0.2921 -0.1465
    3TMC1    O2   48   0.318   4.220  10.420  0.6122  0.2955 -0.2393
    3TMC1    O3   49   0.379   3.675  10.192  0.5640 -0.2516 -0.2990
    3TMC1    H3   50   0.430   3.744  10.240  2.5966 -2.3058  0.4248
    3TMC1    O5   51   0.474   4.076  10.323 -0.3942  0.6201 -0.4035
    3TMC1    H5   52   0.476   3.978  10.316  2.5169  0.5479  1.1512
    4MPD2     C   53   4.701   3.928  11.123 -0.5779  0.3405 -0.0100
    4MPD2    C1   54   0.043   4.026  11.069  0.2973  0.0333  0.2860
    4MPD2    C2   55   0.078   4.013  10.939  0.3073 -0.4356  0.2589
    4MPD2    C3   56   0.057   3.902  10.872 -0.2157  0.7003  0.0278
    4MPD2    C4   57   4.723   3.802  10.930 -0.5997 -0.8391 -0.1998
    4MPD2    C5   58   4.680   3.809  11.057  0.1073  0.1358  0.0897
    4MPD2     H   59   0.131   4.093  10.888 -1.6917  2.0812  2.1408
    4MPD2    H1   60   4.691   3.712  10.878  1.4307 -2.6087  1.6503
    4MPD2    H2   61   4.646   3.939  11.216  1.6606 -0.5198  1.3965
    4MPD2    H3   62   4.613   3.735  11.100 -2.0679 -0.0007 -3.5373
    4MPD2     N   63   0.099   3.897  10.747 -0.2043 -0.3574  0.7423
    4MPD2    H5   64   0.156   3.976  10.717 -1.1815  0.1847  0.3081
    4MPD2    N1   65   0.059   4.155  11.126  0.3423 -0.0387 -0.3297
    4MPD2    H7   66   0.116   4.222  11.076 -0.3197  0.4677 -0.4126
    5TCq1    O1   67   0.931   1.379  12.028 -0.6606  0.0202 -0.5980
    5TCq1    C1   68   0.814   1.440  12.063  0.1008  0.0649  0.4935
    5TCq1    O2   69   0.788   1.476  12.178 -0.4826  1.0024  0.1018
    5TCq1    C2   70   0.768   1.498  11.936  0.4124 -0.4486  0.2674
    5TCq1    C3   71   0.714   1.627  11.937 -0.1281  0.1282  0.7448
    5TCq1    C4   72   0.689   1.696  11.830  0.4331 -0.0556  0.6824
    5TCq1    C5   73   0.710   1.631  11.704 -0.0203  0.5406  0.5842
    5TCq1    C6   74   0.756   1.503  11.697  0.7641 -0.3389  0.1352
    5TCq1    C7   75   0.802   1.446  11.810 -0.1615 -0.3899  0.7021
    5TCq1    C8   76   0.819   1.450  11.577  0.5186 -0.0561 -0.0382
    5TCq1    O4   77   0.893   1.355  11.591 -0.0215  0.4051 -0.1671
    5TCq1    C9   78   0.623   1.826  11.835  0.3315  0.1920 -0.4104
    5TCq1    O5   79   0.607   1.888  11.730  0.2488  0.3650 -0.3057
    5TCq1    O6   80   0.611   1.871  11.951 -0.1440  0.1519 -0.4269
    5TCq1    H1   81   0.951   1.375  11.931  1.7472  1.6460 -0.1705
    5TCq1    H2   82   0.687   1.665  12.034  0.1393 -1.3903  1.4196
    5TCq1    H3   83   0.665   1.685  11.621 -0.6398  1.6450  1.6391
    5TCq1    H4   84   0.854   1.351  11.808  1.5559  0.5393  1.0004
    6MPD2     C   85   0.874   1.622  11.259 -0.2189  0.0983  0.0431
    6MPD2    C1   86   0.866   1.516  11.345  0.3583 -0.1813  1.1191
    6MPD2    C2   87   0.918   1.395  11.303 -0.1213  0.2160  0.8418
    6MPD2    C3   88   0.962   1.381  11.177  0.7323 -0.3741  0.0731
    6MPD2    C4   89   0.963   1.483  11.089  0.2610  0.0739 -0.2875
    6MPD2    C5   90   0.927   1.612  11.132  0.2678  0.2206  0.2756
    6MPD2     H   91   0.908   1.302  11.357 -1.6202  0.3020  0.7153
    6MPD2    H1   92   0.991   1.482  10.984  2.2164 -0.1776  0.2374
    6MPD2    H2   93   0.863   1.725  11.291 -2.1996 -0.2593  0.5245
    6MPD2    H3   94   0.943   1.700  11.071  0.3681  0.2139  0.2927
    6MPD2     N   95   0.999   1.252  11.125  0.3965  0.2344 -0.6310
    6MPD2    H5   96   0.994   1.176  11.191  0.4670  0.1958 -0.6698
    6MPD2    N1   97   0.807   1.529  11.467 -0.2224 -0.3245  0.4751
    6MPD2    H7   98   0.758   1.617  11.481 -0.3494 -0.3818  0.3996
    7TCq1    O1   99   3.203   0.653  13.488 -0.5678 -0.7047 -0.1550
    7TCq1    C1  100   3.114   0.704  13.408  0.2130  0.1234 -0.0743
    7TCq1    O2  101   3.132   0.799  13.334 -0.0004 -0.4333 -0.2814
    7TCq1    C2  102   2.998   0.618  13.411  0.1457  0.6043 -0.6701
    7TCq1    C3  103   2.883   0.663  13.355  0.3300  0.6446 -0.4085
    7TCq1    C4  104   2.786   0.574  13.323 -0.0282  0.3397  0.2868
    7TCq1    C5  105   2.803   0.439  13.340  0.2511 -0.0081  0.1125
    7TCq1    C6  106   2.917   0.393  13.402 -0.0763  0.0866  0.2728
    7TCq1    C7  107   3.015   0.482  13.432  0.5487 -0.1357  0.1706
    7TCq1    C8  108   2.935   0.258  13.446  0.2040 -0.0967  0.3535
    7TCq1    O4  109   3.042   0.232  13.502  0.0708  0.2030  0.3696
    7TCq1    C9  110   2.656   0.616  13.278 -0.2005  0.5953  0.0788
    7TCq1    O5  111   2.650   0.743  13.256 -1.2313 -0.0746 -0.1799
    7TCq1    O6  112   2.558   0.535  13.258  0.1486 -0.1443  0.0718
    7TCq1    H1  113   3.157   0.586  13.542 -0.6108 -0.2167  0.4073
    7TCq1    H2  114   2.872   0.769  13.334 -0.2557  0.6293 -0.1596
    7TCq1    H3  115   2.728   0.373  13.299 -0.8447  0.8851  0.6675
    7TCq1    H4  116   3.116   0.445  13.449  0.4988 -0.1885  0.3455
    8MPD2     C  117   2.771   4.524  13.519  0.0649 -0.4364  0.3847
    8MPD2    C1  118   2.872   4.594  13.574  0.1269 -0.6732  0.4111
    8MPD2    C2  119   2.890   4.724  13.539 -0.3920  0.5811 -0.0605
    8MPD2    C3  120   2.820   0.044  13.435 -0.2053 -0.7472 -0.2207
    8MPD2    C4  121   2.715   4.716  13.384 -0.0426 -0.1066 -0.3347
    8MPD2    C5  122   2.693   4.585  13.424 -0.3433 -0.3136  0.2300
    8MPD2     H  123   2.965   0.044  13.589  0.8725 -2.3990  1.6041
    8MPD2    H1  124   2.645   0.013  13.311 -2.8341 -3.3652  0.6716
    8MPD2    H2  125   2.752   4.419  13.537 -0.2728 -0.1595  1.6740
    8MPD2    H3  126   2.608   4.531  13.385 -0.6312  0.3442 -0.0414
    8MPD2     N  127   2.837   0.179  13.391  0.3634 -0.4180  0.1500
    8MPD2    H5  128   2.776   0.228  13.327 -1.3498 -1.0079  1.3283
    8MPD2    N1  129   2.962   4.524  13.659 -0.5059 -0.4237  0.4168
    8MPD2    H7  130   2.965   4.423  13.646 -1.3813 -0.4403  0.3741
    9TMC1    C1  131   0.830   4.174  10.843 -0.0292  0.2949 -0.0201
    9TMC1    C2  132   0.701   4.139  10.859 -0.6853  0.6685 -0.2053
    9TMC1    C3  133   0.621   4.149  10.753  0.3389 -0.0645  0.9490
    9TMC1    C4  134   0.876   4.216  10.722  0.0339  0.4765  0.5493
    9TMC1    C5  135   0.794   4.209  10.612  0.2654 -0.2549 -0.0541
    9TMC1    C6  136   0.661   4.173  10.625  0.1167 -0.5625  0.1363
    9TMC1     C  137   0.894   4.258  10.944  0.4578  0.4164  0.1275
    9TMC1     O  138   0.971   4.343  10.898 -0.7680  0.2754  0.2829
    9TMC1     H  139   0.660   4.133  10.960 -2.1955  0.7702 -0.8217
    9TMC1    H1  140   0.982   4.240  10.712 -0.1369  0.4459 -1.2585
    9TMC1    H2  141   0.589   4.190  10.546 -0.7190  1.1773  1.2538
    9TMC1    C7  142   0.860   4.221  10.483  0.2656 -0.5410 -0.4068
    9TMC1    C8  143   0.487   4.110  10.764 -0.3127 -0.3699  0.5885
    9TMC1    O1  144   0.978   4.188  10.478  0.7591  0.9914 -0.1431
    9TMC1    O2  145   0.415   4.095  10.664  0.0405  1.2656 -0.2678
    9TMC1    O3  146   0.764   4.196  10.384  0.0949 -0.2481  0.1616
    9TMC1    H3  147   0.682   4.238  10.416  1.5968  0.1842  3.4436
    9TMC1    O5  148   0.449   4.189  10.872 -0.7964  0.2411  0.6897
    9TMC1    H5  149   0.517   4.233  10.927 -0.6081 -0.9230  1.3841
   10MPD2     C  150   0.957   4.405  11.188  0.2875 -0.9387 -0.3070
   10MPD2    C1  151   0.878   4.299  11.190  0.0164  0.2443  0.0731
   10MPD2    C2  152   0.819   4.245  11.302 -0.4636 -0.0151  0.6039
   10MPD2    C3  153   0.846   4.300  11.429  0.3901  0.3754 -0.6714
   10MPD2    C4  154   0.936   4.404  11.433 -0.1346  0.3957 -0.0575
   10MPD2    C5  155   0.990   4.454  11.314  0.1142 -0.3923  0.6629
   10MPD2     H  156   0.755   4.158  11.303  0.1942 -0.5346 -2.3943
   10MPD2    H1  157   0.952   4.452  11.529  0.5718  1.0165 -0.4908
   10MPD2    H2  158   0.979   4.454  11.094  0.2959  0.3287  0.3581
   10MPD2    H3  159   1.055   4.538  11.332  0.8668 -1.2058  1.7254
   10MPD2     N  160   0.803   4.242  11.551 -0.0279 -0.2065  0.3096
   10MPD2    H5  161   0.843   4.278  11.637  2.2183 -1.9124 -0.0233
   10MPD2    N1  162   0.856   4.225  11.073 -0.0597  0.1176 -0.1888
   10MPD2    H7  163   0.808   4.136  11.082 -1.0130  0.7537  1.1271
   11TCq1    O1  164   1.228   4.275  14.181  0.1572 -0.4452  0.7051
   11TCq1    C1  165   1.295   4.166  14.136 -0.0178 -0.0618  0.5038
   11TCq1    O2  166   1.283   4.127  14.021  0.0916 -0.1692 -0.1588
   11TCq1    C2  167   1.309   4.085  14.247 -0.6070  0.5446  0.1467
   11TCq1    C3  168   1.349   4.125  14.365 -0.3282 -0.3555  0.5030
   11TCq1    C4  169   1.315   4.057  14.479 -0.4282  0.3494 -1.0803
   11TCq1    C5  170   1.256   3.935  14.473 -0.0870 -1.1630  0.3660
   11TCq1    C6  171   1.221   3.892  14.348 -0.5044  0.1009  1.0732
   11TCq1    C7  172   1.241   3.965  14.234 -0.3340 -0.1252 -0.1116
   11TCq1    C8  173   1.138   3.772  14.342  0.6173 -0.2939 -0.2628
   11TCq1    O4  174   1.060   3.751  14.436 -0.3407 -0.4295  0.4290
   11TCq1    C9  175   1.332   4.120  14.606  0.1130 -0.1214 -0.0381
   11TCq1    O5  176   1.330   4.245  14.608  0.1679 -1.0791 -0.2427
   11TCq1    O6  177   1.316   4.044  14.709 -0.7243  0.3728 -0.0778
   11TCq1    H1  178   1.212   4.268  14.278  0.5844 -1.1769  0.7163
   11TCq1    H2  179   1.397   4.219  14.388 -2.2276  1.0298 -1.2835
   11TCq1    H3  180   1.225   3.881  14.561  0.9032 -0.4208  1.1815
   11TCq1    H4  181   1.209   3.937  14.134 -1.1836  0.6507 -0.0627
   12MPD2     C  182   1.026   3.497  14.300 -0.2700  0.1447  0.6150
   12MPD2    C1  183   1.118   3.565  14.215  0.1054  0.1386 -0.2320
   12MPD2    C2  184   1.187   3.489  14.122  0.5742 -0.3760  0.3734
   12MPD2    C3  185   1.170   3.350  14.115 -0.9805  0.5794 -0.0486
   12MPD2    C4  186   1.077   3.285  14.195  0.0954 -0.2390 -0.3752
   12MPD2    C5  187   1.003   3.363  14.285  0.6270 -0.1403  0.0729
   12MPD2     H  188   1.258   3.537  14.055  0.0646 -1.4359 -0.9262
   12MPD2    H1  189   1.063   3.177  14.196 -3.0625  0.1848  0.9757
   12MPD2    H2  190   0.977   3.550  14.381  0.0497  0.8259  0.3640
   12MPD2    H3  191   0.944   3.316  14.362  1.7872  0.0724  1.0890
   12MPD2     N  192   1.239   3.273  14.018  0.5432 -0.1332  0.3711
   12MPD2    H5  193   1.239   3.172  14.024 -0.1828 -0.0595  1.5253
   12MPD2    N1  194   1.171   3.693  14.234  0.2444 -0.3781  0.0569
   12MPD2    H7  195   1.227   3.732  14.160 -0.5687 -1.3078 -1.0458
   13TCq1    O1  196   1.162   3.753  10.454  0.3491 -0.4120 -0.2492
   13TCq1    C1  197   1.072   3.682  10.521 -0.4892 -0.0014 -0.4482
   13TCq1    O2  198   1.098   3.587  10.599  0.2779 -0.0778 -0.4911
   13TCq1    C2  199   0.960   3.765  10.521  0.5435 -0.1464  0.4763
   13TCq1    C3  200   0.900   3.801  10.400  0.7715  0.5789 -0.0032
   13TCq1    C4  201   0.765   3.835  10.406  0.1866  0.3344  0.2252
   13TCq1    C5  202   0.688   3.839  10.519 -0.4666  0.0382  0.2828
   13TCq1    C6  203   0.748   3.796  10.635 -0.5134 -0.5308 -0.5050
   13TCq1    C7  204   0.880   3.755  10.633 -0.0080 -0.2458 -0.5150
   13TCq1    C8  205   0.675   3.788  10.759 -0.3234 -0.7192  0.1172
   13TCq1    O4  206   0.727   3.821  10.864 -0.2995  0.3989 -0.5601
   13TCq1    C9  207   0.699   3.851  10.280  0.3006 -0.3772 -0.2875
   13TCq1    O5  208   0.767   3.881  10.179 -0.7316  0.0602 -0.1905
   13TCq1    O6  209   0.572   3.833  10.283 -0.0660 -0.6275 -0.5575
   13TCq1    H1  210   1.112   3.826  10.414 -1.0396 -0.7689  0.8447
   13TCq1    H2  211   0.944   3.785  10.303  0.9925  0.9757  0.0304
   13TCq1    H3  212   0.581   3.856  10.514 -0.5408 -0.0319  1.6500
   13TCq1    H4  213   0.930   3.715  10.720  2.2029  2.9546 -0.3379
   14MPD2     C  214   0.348   3.607  10.788 -0.4894  0.0455  0.0481
   14MPD2    C1  215   0.449   3.694  10.829  0.8303  0.3188 -0.1300
   14MPD2    C2  216   0.444   3.739  10.956 -0.0281  0.6036  0.5396
   14MPD2    C3  217   0.344   3.699  11.042  0.0385  0.3778 -0.4885
   14MPD2    C4  218   0.252   3.610  11.006 -0.4383 -0.7038 -0.1959
   14MPD2    C5  219   0.249   3.565  10.876 -0.2414 -0.3299  0.4291
   14MPD2     H  220   0.521   3.806  10.992  0.5569  0.4085 -0.3637
   14MPD2    H1  221   0.166   3.578  11.064  0.1184 -1.0014  0.4625
   14MPD2    H2  222   0.343   3.567  10.687  0.2116 -1.3278  0.5489
   14MPD2    H3  223   0.170   3.498  10.843  0.1454 -1.1970  1.2589
   14MPD2     N  224   0.353   3.751  11.171  0.5090  0.3652 -0.5998
   14MPD2    H5  225   0.432   3.812  11.189  0.5169  0.0799  0.3167
   14MPD2    N1  226   0.553   3.722  10.741  1.1421 -0.7861  0.2177
   14MPD2    H7  227   0.529   3.690  10.647 -1.1999  0.2817  0.4383
   15TCq1    O1  228   2.787   2.803   1.035 -0.2771  0.3614 -0.0387
   15TCq1    C1  229   2.859   2.752   0.936  0.8937  0.0893 -0.0591
   15TCq1    O2  230   2.873   2.811   0.828  0.1387  0.4992 -0.1293
   15TCq1    C2  231   2.955   2.652   0.991  0.3829 -0.5974 -0.3963
   15TCq1    C3  232   2.981   2.632   1.124  0.3479 -0.3071  0.5805
   15TCq1    C4  233   3.070   2.532   1.163 -0.1467 -0.0093  0.1786
   15TCq1    C5  234   3.127   2.456   1.072 -0.7861 -0.5787  0.0237
   15TCq1    C6  235   3.113   2.477   0.939  0.6752 -0.0609 -0.2589
   15TCq1    C7  236   3.023   2.583   0.899 -0.3303  0.7021 -0.0725
   15TCq1    C8  237   3.164   2.385   0.837  0.2180 -0.4515  0.3079
   15TCq1    O4  238   3.247   2.301   0.879 -0.0724  0.0111 -0.3852
   15TCq1    C9  239   3.097   2.511   1.304 -0.4272 -0.2439  0.0788
   15TCq1    O5  240   3.042   2.583   1.391  0.1255  0.0391  0.4441
   15TCq1    O6  241   3.185   2.422   1.333 -0.1601  0.3803  0.2745
   15TCq1    H1  242   2.769   2.741   1.109  1.7123 -0.8890 -0.6028
   15TCq1    H2  243   2.931   2.691   1.199  1.5387  2.5172 -0.8454
   15TCq1    H3  244   3.205   2.385   1.100  0.2497  0.4332 -0.2837
   15TCq1    H4  245   3.014   2.614   0.796 -1.9632  0.5622  0.0342
   16MPD2     C  246   3.117   2.371   0.470 -0.6987  0.2916  0.0223
   16MPD2    C1  247   3.173   2.343   0.595 -0.2342  0.1505 -0.4040
   16MPD2    C2  248   3.270   2.243   0.593 -0.6232 -0.3501 -0.2914
   16MPD2    C3  249   3.303   2.168   0.482 -0.8438 -0.8878 -0.2797
   16MPD2    C4  250   3.242   2.198   0.360  0.4160  0.0010 -0.0775
   16MPD2    C5  251   3.146   2.294   0.361 -0.3463  0.0722  0.1420
   16MPD2     H  252   3.317   2.217   0.687  2.3391  4.7211 -0.3489
   16MPD2    H1  253   3.275   2.141   0.274  2.2672  1.0677 -0.0838
   16MPD2    H2  254   3.033   2.439   0.465 -0.0975  0.8508 -2.6010
   16MPD2    H3  255   3.092   2.295   0.267 -0.8360 -0.5979  0.4202
   16MPD2     N  256   3.402   2.067   0.496  0.0571 -0.5860 -0.4449
   16MPD2    H5  257   3.459   2.076   0.579 -0.5126  3.6599 -0.5047
   16MPD2    N1  258   3.129   2.411   0.708  0.4081  0.1775 -0.4945
   16MPD2    H7  259   3.043   2.464   0.697 -0.3510 -0.6211  1.5165
   17TMC1    C1  260   0.209   2.958  11.053 -0.0212  0.7412 -0.3660
   17TMC1    C2  261   0.099   2.967  11.136  0.2207  0.3008 -0.1960
   17TMC1    C3  262   4.720   2.993  11.080 -0.0330 -0.3430 -0.5807
   17TMC1    C4  263   0.205   2.990  10.926 -0.3484 -0.3789 -0.1771
   17TMC1    C5  264   0.084   3.016  10.875 -0.5170  0.0001  0.0104
   17TMC1    C6  265   4.707   3.020  10.945 -0.0275 -0.5011 -0.3743
   17TMC1     C  266   0.342   2.926  11.116  0.3765 -0.3430  0.2619
   17TMC1     O  267   0.346   2.882  11.232  0.3358  0.1366 -0.2281
   17TMC1     H  268   0.101   2.924  11.235 -0.4466  1.9188  0.5122
   17TMC1    H1  269   0.288   2.975  10.857 -0.2336 -0.7893  0.0471
   17TMC1    H2  270   4.617   3.061  10.901  0.8175  0.4945 -1.1852
   17TMC1    C7  271   0.090   3.091  10.748  0.2138  0.0379 -0.6844
   17TMC1    C8  272   4.611   3.013  11.172  0.0461  0.4746 -0.1691
   17TMC1    O1  273   0.173   3.178  10.726  0.4359  0.0634  0.7379
   17TMC1    O2  274   4.631   3.010  11.292 -0.1116  0.4083  0.9614
   17TMC1    O3  275   4.721   3.058  10.671 -0.5021 -0.3416  0.0263
   17TMC1    H3  276   4.690   2.969  10.698 -1.2903 -0.3135 -0.7938
   17TMC1    O5  277   4.496   3.007  11.104 -0.1534  0.2478 -0.4535
   17TMC1    H5  278   4.500   2.993  11.007 -3.1369  0.1516 -0.5671
   18MPD2     C  279   0.631   2.860  11.144  0.0487 -0.1658  0.2901
   18MPD2    C1  280   0.576   2.922  11.038 -0.7038 -1.0733  0.5019
   18MPD2    C2  281   0.658   2.953  10.935 -0.0082 -0.2937  0.1145
   18MPD2    C3  282   0.790   2.919  10.922 -0.2243  0.7472 -0.2930
   18MPD2    C4  283   0.849   2.861  11.028  0.3896 -0.0455 -0.6310
   18MPD2    C5  284   0.767   2.836  11.143  0.3596 -0.0880  0.3189
   18MPD2     H  285   0.608   3.007  10.855 -0.7886 -0.9514  0.1564
   18MPD2    H1  286   0.956   2.845  11.028  0.2414 -1.0253  2.6524
   18MPD2    H2  287   0.578   2.831  11.234 -1.8885  0.0677 -0.7808
   18MPD2    H3  288   0.812   2.789  11.230 -1.6833 -0.3144  1.2617
   18MPD2     N  289   0.874   2.951  10.819  0.2735  0.0596 -0.1691
   18MPD2    H5  290   0.971   2.927  10.836 -0.0808 -0.3020  1.3237
   18MPD2    N1  291   0.439   2.952  11.026 -0.2108  0.3908 -0.0167
   18MPD2    H7  292   0.410   2.999  10.941  0.4775 -0.1856 -0.5654
   19TMC2    C1  293   2.470   4.408  14.129 -0.3077 -0.8305 -0.7639
   19TMC2    C2  294   2.431   4.474  14.021  0.2109  0.6630 -0.2762
   19TMC2    C3  295   2.363   4.398  13.928 -1.1195 -0.7872  0.9806
   19TMC2    C4  296   2.444   4.278  14.156  0.1343  0.2180  0.4238
   19TMC2    C5  297   2.377   4.210  14.063 -0.3830 -0.3151 -0.9651
   19TMC2    C6  298   2.323   4.268  13.950 -0.2445 -0.3049 -0.8281
   19TMC2     C  299   2.567   4.485  14.205 -0.3837  0.0452  0.3736
   19TMC2     O  300   2.563   4.608  14.205  0.0403 -0.3843 -0.1896
   19TMC2     H  301   2.454   4.579  14.007  2.2472  0.5665  2.4097
   19TMC2    H1  302   2.468   4.221  14.245 -0.3103 -0.1617  0.2996
   19TMC2    H2  303   2.279   4.215  13.867 -2.1300 -2.2426  1.4001
   19TMC2    C7  304   2.352   4.068  14.092  0.2729 -0.0630 -0.4238
   19TMC2    C8  305   2.277   4.477  13.844 -1.1604  0.2509  0.0543
   19TMC2    O1  306   2.393   4.011  14.195  0.3681  0.5510  0.0541
   19TMC2    O2  307   2.158   4.460  13.838 -0.0358  1.0689  0.1271
   19TMC2    O5  308   2.349   4.570  13.780  0.4121  0.0828 -0.3368
   19TMC2    H5  309   2.446   4.554  13.787  0.0175 -1.8227  0.7407
   20MPD2     C  310   2.764   4.557  14.419 -0.3300  0.7594  0.3838
   20MPD2    C1  311   2.747   4.431  14.370  0.5821 -0.0092  0.8855
   20MPD2    C2  312   2.822   4.327  14.413  0.4970  0.1826 -0.3834
   20MPD2    C3  313   2.918   4.340  14.515 -0.0641  0.6346 -0.5508
   20MPD2    C4  314   2.938   4.470  14.559 -0.1529  0.5033 -0.1675
   20MPD2    C5  315   2.867   4.580  14.507  0.5085 -1.0680 -0.2915
   20MPD2     H  316   2.787   4.233  14.371 -1.4956  1.3363 -1.2990
   20MPD2    H1  317   3.004   4.490  14.643  0.6150  1.3053 -0.9585
   20MPD2    H2  318   2.705   4.645  14.395  1.0686  1.4850 -0.3728
   20MPD2    H3  319   2.887   4.676  14.554  1.7751 -1.8378  0.7100
   20MPD2     N  320   3.009   4.240  14.550  0.1158 -0.7014 -0.6648
   20MPD2    H5  321   3.078   4.277  14.613 -0.1093  0.7163 -1.2471
   20MPD2    N1  322   2.646   4.406  14.274 -0.1394  1.0417 -0.0049
   20MPD2    H7  323   2.635   4.310  14.240  2.7093  1.9771 -3.6178
   21TMC2    C1  324   0.127   4.178  14.075 -0.2155  0.7530  0.0642
   21TMC2    C2  325   0.200   4.067  14.074  0.2197 -0.5233  0.3996
   21TMC2    C3  326   0.198   3.988  14.190 -0.0703  0.6069 -0.3297
   21TMC2    C4  327   0.042   4.207  14.178  0.3077  0.2013  0.1404
   21TMC2    C5  328   0.051   4.133  14.296 -0.2006  0.9304  0.5813
   21TMC2    C6  329   0.125   4.025  14.300 -0.8268  0.5619  0.4556
   21TMC2     C  330   0.126   4.266  13.962  0.6179  0.0545 -0.4164
   21TMC2     O  331   0.142   4.225  13.847  1.0336 -0.9007 -0.3934
   21TMC2     H  332   0.261   4.030  13.993  1.6244 -1.0049  1.6629
   21TMC2    H1  333   4.716   4.292  14.166 -0.6887 -0.8087 -1.4978
   21TMC2    H2  334   0.140   3.975  14.396 -0.1897 -1.1129 -0.5188
   21TMC2    C7  335   0.078   4.219  14.410  0.4869  0.4711 -0.0095
   21TMC2    C8  336   0.269   3.861  14.179  0.0340 -0.1995 -0.5056
   21TMC2    O1  337   0.173   4.199  14.482 -0.3279  0.8457  0.1731
   21TMC2    O2  338   0.385   3.855  14.141 -0.1302  0.5876  0.0042
   21TMC2    O5  339   0.208   3.776  14.257 -0.4944 -0.5119  0.0409
   21TMC2    H5  340   0.118   3.797  14.291  0.1007  0.3814  1.0767
   22MPD2     C  341   0.195   4.661  14.290  0.0069  0.2827  0.0674
   22MPD2    C1  342   0.261   4.542  14.280  0.3244 -0.0779 -0.0173
   22MPD2    C2  343   0.233   4.455  14.181 -1.0175 -0.6108 -0.3500
   22MPD2    C3  344   0.138   4.487  14.092 -0.8449  0.4964 -0.4751
   22MPD2    C4  345   0.068   4.605  14.098 -0.0695 -0.5065  0.3115
   22MPD2    C5  346   0.098   4.691  14.201 -0.5175 -0.5702  0.3795
   22MPD2     H  347   0.281   4.357  14.183  1.9057  0.8560  1.5470
   22MPD2    H1  348   4.723   4.628  14.035 -0.0116  0.7705  0.7036
   22MPD2    H2  349   0.220   4.740  14.360  2.1427  0.5698 -1.0169
   22MPD2    H3  350   0.038   0.040  14.216 -0.2586 -0.0884 -1.4653
   22MPD2     N  351   0.099   4.401  13.987  0.3879 -0.2455  0.1470
   22MPD2    H5  352   0.042   4.450  13.919  0.8062 -1.7277 -1.2635
   22MPD2    N1  353   0.354   4.510  14.383  0.0179 -0.4677 -0.0168
   22MPD2    H7  354   0.388   4.415  14.394 -0.0473 -0.2493  2.0329
   23TMC2    C1  355   1.279   0.819  14.698 -0.1565  0.8663 -0.0778
   23TMC2    C2  356   1.213   0.924  14.642 -0.5704 -0.1485  0.1859
   23TMC2    C3  357   1.101   0.901  14.575 -0.2138 -0.3264  0.3926
   23TMC2    C4  358   1.233   0.690  14.686  0.1045  0.0468  0.3157
   23TMC2    C5  359   1.117   0.674  14.625 -0.1942 -0.9596 -1.3449
   23TMC2    C6  360   1.050   0.776  14.563  0.1664  0.3934  0.1992
   23TMC2     C  361   1.381   0.842  14.803  0.4477  0.4758  1.3828
   23TMC2     O  362   1.440   0.742  14.837  0.1214 -0.1095  0.2021
   23TMC2     H  363   1.260   1.022  14.648 -0.2612 -0.3097  0.4092
   23TMC2    H1  364   1.289   0.611  14.736 -0.9713 -1.3204 -0.6484
   23TMC2    H2  365   0.975   0.754  14.488 -0.1582  1.2827  0.2700
   23TMC2    C7  366   1.071   0.546  14.592 -0.2491  0.4265  0.0044
   23TMC2    C8  367   1.031   1.009  14.502  0.0277  0.8046  0.0750
   23TMC2    O1  368   1.154   0.460  14.590  0.1721 -0.0397  0.2081
   23TMC2    O2  369   0.932   0.989  14.435 -0.4973  0.1901 -0.4067
   23TMC2    O5  370   1.076   1.134  14.535 -0.1541 -0.3578 -0.1956
   23TMC2    H5  371   1.123   1.136  14.620 -0.3991  0.1569 -0.0724
   24MPD2     C  372   1.675   1.158  15.089  0.4099  0.2895  0.4656
   24MPD2    C1  373   1.667   1.016  15.090  0.5381 -0.1613 -0.0697
   24MPD2    C2  374   1.570   0.952  15.014  0.3324 -0.1390  0.3524
   24MPD2    C3  375   1.478   1.024  14.938  0.5017 -1.3807  0.2688
   24MPD2    C4  376   1.471   1.159  14.953  0.2279 -0.2386  0.0790
   24MPD2    C5  377   1.571   1.222  15.028 -0.7101 -0.6606 -0.9388
   24MPD2     H  378   1.570   0.844  15.020 -2.0512  0.0924  4.0458
   24MPD2    H1  379   1.402   1.230  14.909  0.7245  0.1795 -0.0246
   24MPD2    H2  380   1.756   1.216  15.134  3.1035 -1.3891 -2.2403
   24MPD2    H3  381   1.576   1.330  15.028  0.4414 -0.7178  1.5741
   24MPD2     N  382   1.385   0.967  14.846 -0.4283  0.2095  0.1687
   24MPD2    H5  383   1.312   1.034  14.821  0.5640  1.2708  0.0994
   24MPD2    N1  384   1.756   0.940  15.171 -0.0276  0.2158 -0.1428
   24MPD2    H7  385   1.738   0.840  15.167 -1.5279  0.4519  0.7641
   25TMC2    C1  386   0.645   2.744  11.608 -0.8269  0.7593  0.6516
   25TMC2    C2  387   0.730   2.834  11.662  0.1091 -0.4746  0.3966
   25TMC2    C3  388   0.692   2.891  11.782 -0.3244 -0.1895  0.4894
   25TMC2    C4  389   0.522   2.709  11.654 -0.1456 -0.1698  0.1579
   25TMC2    C5  390   0.487   2.772  11.768  0.1952  0.4195 -0.3836
   25TMC2    C6  391   0.571   2.859  11.834  0.6603  0.6423  0.4156
   25TMC2     C  392   0.711   2.654  11.513  0.0275  0.9783  0.9998
   25TMC2     O  393   0.831   2.626  11.544 -0.3883 -0.1299 -0.2727
   25TMC2     H  394   0.820   2.861  11.609 -0.2321 -0.6549 -0.2740
   25TMC2    H1  395   0.457   2.632  11.615  1.3708  0.2208 -3.1970
   25TMC2    H2  396   0.535   2.913  11.920  1.4175 -0.9107  1.6968
   25TMC2    C7  397   0.374   2.717  11.833 -0.3982 -0.4431  0.4369
   25TMC2    C8  398   0.758   3.013  11.811 -0.8404 -0.4008  0.9117
   25TMC2    O1  399   0.313   2.804  11.891 -0.0109 -0.6413  0.2850
   25TMC2    O2  400   0.848   3.051  11.742  0.2841  0.0368  0.0252
   25TMC2    O5  401   0.746   3.041  11.942  0.4329  0.0628  0.2691
   25TMC2    H5  402   0.683   2.981  11.988 -1.3530  1.0542 -0.8885
   26MPD2     C  403   0.734   2.361  11.095  0.5910  0.1013 -0.2722
   26MPD2    C1  404   0.603   2.393  11.123 -0.1458  0.4908 -0.4538
   26MPD2    C2  405   0.566   2.479  11.226  0.4686 -0.0847 -0.0090
   26MPD2    C3  406   0.663   2.516  11.310  0.4739 -0.3171 -0.2447
   26MPD2    C4  407   0.793   2.481  11.288 -0.1124  0.3320 -0.4674
   26MPD2    C5  408   0.832   2.406  11.184 -0.2333  0.2535  0.4299
   26MPD2     H  409   0.463   2.508  11.241  0.6030  1.6020 -2.4380
   26MPD2    H1  410   0.873   2.517  11.351  1.1709 -1.1379 -1.2493
   26MPD2    H2  411   0.761   2.301  11.009 -2.9187 -1.6471 -0.0973
   26MPD2    H3  412   0.937   2.386  11.165 -0.7696 -1.4441 -0.6913
   26MPD2     N  413   0.628   2.602  11.417  0.2946  0.2458  0.1231
   26MPD2    H5  414   0.533   2.638  11.421  0.0507 -0.4483  0.5377
   26MPD2    N1  415   0.504   2.340  11.032  0.0258 -0.7219 -0.3278
   26MPD2    H7  416   0.530   2.285  10.951 -2.1344  0.9787 -2.1771
   27TMC2    C1  417   3.740   4.194  11.971  0.6123  0.0985 -0.7074
   27TMC2    C2  418   3.739   4.155  11.843 -0.1916 -0.2939  1.0383
   27TMC2    C3  419   3.793   4.232  11.749  0.3804  0.0908 -0.0315
   27TMC2    C4  420   3.810   4.304  12.007  0.0871  0.1008  0.5044
   27TMC2    C5  421   3.852   4.391  11.907 -0.1183 -0.2515  0.7370
   27TMC2    C6  422   3.848   4.356  11.776  0.9665 -0.4690 -0.3761
   27TMC2     C  423   3.696   4.103  12.071  0.7499  0.5864 -0.1976
   27TMC2     O  424   3.684   3.985  12.045  0.3306  0.3962  0.1105
   27TMC2     H  425   3.700   4.056  11.825  0.5844  0.2070 -3.4782
   27TMC2    H1  426   3.808   4.342  12.109 -0.9345 -0.9778  0.8761
   27TMC2    H2  427   3.885   4.424  11.699  1.5386  1.1783  1.3477
   27TMC2    C7  428   3.893   4.523  11.941 -0.4283 -1.1062  0.1368
   27TMC2    C8  429   3.737   4.217  11.621 -0.1130  0.3379  0.3540
   27TMC2    O1  430   3.945   4.534  12.053  0.0262  0.3795  0.6373
   27TMC2    O2  431   3.626   4.167  11.600 -0.4388  0.2160  0.7211
   27TMC2    O5  432   3.831   4.238  11.531 -0.2271 -0.1564  0.4800
   27TMC2    H5  433   3.922   4.259  11.560 -0.4615 -0.5212  1.4827
   28MPD2     C  434   3.559   4.003  12.556 -0.1847 -0.4703 -0.2836
   28MPD2    C1  435   3.510   4.125  12.527  0.5385 -0.1398 -0.2100
   28MPD2    C2  436   3.537   4.177  12.398  0.1738  0.4854  0.6807
   28MPD2    C3  437   3.623   4.112  12.310 -0.4017  0.3517  0.2465
   28MPD2    C4  438   3.679   3.990  12.349  0.4451 -0.1237  0.2417
   28MPD2    C5  439   3.641   3.937  12.465  0.9215  0.2945  0.1266
   28MPD2     H  440   3.500   4.278  12.383 -0.4808  0.2256  0.5627
   28MPD2    H1  441   3.755   3.944  12.287 -1.1817 -2.0122 -0.3175
   28MPD2    H2  442   3.532   3.950  12.646  2.2802  1.9962  1.8924
   28MPD2    H3  443   3.667   3.836  12.495  3.3079  0.9257  0.1934
   28MPD2     N  444   3.658   4.177  12.186 -0.2411  0.2163 -0.0852
   28MPD2    H5  445   3.649   4.277  12.181 -1.0864  0.2167  1.4126
   28MPD2    N1  446   3.435   4.192  12.630  0.4045  0.7266  0.1233
   28MPD2    H7  447   3.419   4.138  12.715  0.5203  0.6675  0.1082
   29TMC2    C1  448   3.510   2.720  14.598 -0.1210  0.2369  0.4223
   29TMC2    C2  449   3.523   2.696  14.727 -0.0469  0.8913  0.1151
   29TMC2    C3  450   3.547   2.801  14.813  0.5235 -0.4529 -0.0426
   29TMC2    C4  451   3.530   2.844  14.548  0.6598  0.3469  0.7953
   29TMC2    C5  452   3.568   2.943  14.630  0.6897  0.1301  0.3945
   29TMC2    C6  453   3.578   2.922  14.768  0.3639  0.0879  0.0467
   29TMC2     C  454   3.504   2.600  14.512 -0.2565  0.5506 -0.2066
   29TMC2     O  455   3.491   2.487  14.561  0.0254  0.6537 -0.0890
   29TMC2     H  456   3.488   2.600  14.764  2.3121  0.6893  1.7808
   29TMC2    H1  457   3.528   2.863  14.441 -1.5807 -1.0197  0.5974
   29TMC2    H2  458   3.594   3.011  14.828 -3.8194  0.4304  0.6476
   29TMC2    C7  459   3.544   3.081  14.588  0.1723 -0.2776  0.4657
   29TMC2    C8  460   3.580   2.785  14.953 -0.4726 -0.6613 -0.3716
   29TMC2    O1  461   3.455   3.101  14.505 -0.1563  0.0933 -0.1610
   29TMC2    O2  462   3.542   2.856  15.042 -0.1771  0.1941 -0.2052
   29TMC2    O5  463   3.714   2.749  14.935  0.1120 -0.6247 -0.1020
   29TMC2    H5  464   3.731   2.691  14.858 -0.8946  0.2879 -1.0195
   30MPD2     C  465   3.462   2.388  14.047  0.2955  0.4698  0.0688
   30MPD2    C1  466   3.496   2.322  14.166  0.4817 -0.0401  0.5735
   30MPD2    C2  467   3.506   2.415  14.277  0.5098 -0.0764 -0.2521
   30MPD2    C3  468   3.477   2.546  14.265  0.6226  0.2307 -0.1455
   30MPD2    C4  469   3.431   2.598  14.151  0.4077  0.1274 -0.3391
   30MPD2    C5  470   3.429   2.521  14.040 -0.2814 -0.1503  0.3089
   30MPD2     H  471   3.539   2.366  14.368  0.8762 -0.0248 -0.3572
   30MPD2    H1  472   3.400   2.701  14.140  1.5218  0.4814 -0.1800
   30MPD2    H2  473   3.452   2.331  13.955 -0.2905 -0.7121  0.8639
   30MPD2    H3  474   3.409   2.568  13.944  2.3264 -1.9619 -1.1195
   30MPD2     N  475   3.473   2.629  14.382  0.5264 -0.3195 -0.0204
   30MPD2    H5  476   3.448   2.726  14.363 -1.8608 -0.8974  0.0760
   30MPD2    N1  477   3.537   2.186  14.179  0.2490 -0.1903 -0.0660
   30MPD2    H7  478   3.569   2.159  14.272 -1.8747  2.0986  1.3077
   31TMC2    C1  479   1.596   1.411  15.422  0.1145 -0.0265 -0.5293
   31TMC2    C2  480   1.477   1.470  15.469 -0.4890  0.1046  0.2744
   31TMC2    C3  481   1.457   1.449  15.601  0.3710  0.1665  0.0635
   31TMC2    C4  482   1.682   1.333  15.505 -0.1779 -0.7244 -0.1153
   31TMC2    C5  483   1.644   1.302  15.626 -0.6765  0.4710 -0.0232
   31TMC2    C6  484   1.533   1.366  15.683 -0.2951 -0.4249  0.0379
   31TMC2     C  485   1.636   1.464  15.295  0.1215  0.2740 -0.2704
   31TMC2     O  486   1.541   1.501  15.223  0.4610 -0.0903 -0.4584
   31TMC2     H  487   1.399   1.525  15.417  0.5500 -0.1653 -1.5719
   31TMC2    H1  488   1.773   1.295  15.459  0.2896 -0.4824  0.6035
   31TMC2    H2  489   1.497   1.345  15.783 -0.2280  1.3330  0.4201
   31TMC2    C7  490   1.732   1.221  15.713  0.5158 -0.0633  0.8523
   31TMC2    C8  491   1.320   1.482  15.635  0.7399  0.7538  0.0121
   31TMC2    O1  492   1.836   1.171  15.668  0.2780  0.1819 -0.3435
   31TMC2    O2  493   1.230   1.488  15.556 -1.0623  0.0792 -0.3280
   31TMC2    O5  494   1.320   1.554  15.750 -0.5048 -1.0647  0.0446
   31TMC2    H5  495   1.403   1.558  15.803 -0.6249  5.4539 -0.3605
   32MPD2     C  496   1.952   1.531  14.896  0.3132 -0.2498  0.3529
   32MPD2    C1  497   1.814   1.550  14.898 -0.5947 -0.1552  0.6064
   32MPD2    C2  498   1.748   1.529  15.017  0.1856 -0.4371  0.5132
   32MPD2    C3  499   1.814   1.469  15.132 -0.3260  0.8241 -0.0017
   32MPD2    C4  500   1.947   1.443  15.111 -0.0456 -0.4827 -0.1664
   32MPD2    C5  501   2.016   1.477  14.994 -1.1451 -0.0332  0.3805
   32MPD2     H  502   1.643   1.556  15.029  0.5540  0.2922  2.0728
   32MPD2    H1  503   2.010   1.395  15.185 -1.3501 -0.3381  1.0328
   32MPD2    H2  504   2.013   1.559  14.811 -1.1774  1.3480 -0.1902
   32MPD2    H3  505   2.115   1.434  14.980 -2.4938 -3.2787  0.6140
   32MPD2     N  506   1.765   1.436  15.261  0.5433 -0.6789 -0.0671
   32MPD2    H5  507   1.828   1.397  15.330 -0.0709 -0.8143  0.4135
   32MPD2    N1  508   1.751   1.604  14.780 -0.0484  0.5578  0.6287
   32MPD2    H7  509   1.809   1.620  14.698  1.0089 -0.0529  1.2635
   33TMC2    C1  510   0.743   3.725   9.873  0.5995 -0.2681  0.5673
   33TMC2    C2  511   0.615   3.757   9.920 -0.2001 -0.2521 -0.0893
   33TMC2    C3  512   0.555   3.868   9.871 -1.1029 -0.3955  0.5561
   33TMC2    C4  513   0.808   3.823   9.794 -0.0253 -0.4338 -0.0647
   33TMC2    C5  514   0.747   3.933   9.748  0.1584  0.1180  0.0716
   33TMC2    C6  515   0.622   3.960   9.797 -0.1597 -0.4816 -0.0889
   33TMC2     C  516   0.820   3.635   9.957  0.0826 -0.5310  0.0054
   33TMC2     O  517   0.767   3.535  10.002  0.1907  0.2816 -0.1510
   33TMC2     H  518   0.564   3.684   9.982  1.6384  0.0598  1.7737
   33TMC2    H1  519   0.912   3.808   9.768 -0.0185 -0.9493  0.2539
   33TMC2    H2  520   0.579   4.055   9.770  0.9426  0.1099  0.2299
   33TMC2    C7  521   0.831   4.046   9.738  0.1379  0.7634 -0.0174
   33TMC2    C8  522   0.415   3.877   9.880  0.0368 -0.1230 -0.2725
   33TMC2    O1  523   0.938   4.028   9.680  0.3370 -0.0260  0.0629
   33TMC2    O2  524   0.333   3.794   9.846 -0.3419  0.0694  0.1760
   33TMC2    O5  525   0.395   3.998   9.923 -0.2655 -0.4943  0.2346
   33TMC2    H5  526   0.473   4.026   9.975  0.1416 -1.3751  0.0984
   34MPD2     C  527   1.251   3.518  10.231 -1.1495 -0.0384 -0.7308
   34MPD2    C1  528   1.126   3.454  10.231  0.3418 -0.1701  0.0641
   34MPD2    C2  529   1.026   3.501  10.149  0.0786  0.0083 -0.7157
   34MPD2    C3  530   1.043   3.623  10.082 -0.0634 -0.4686  0.5403
   34MPD2    C4  531   1.156   3.690  10.102  0.5763 -0.5140 -0.5422
   34MPD2    C5  532   1.263   3.639  10.172 -0.3090 -0.3963 -1.1628
   34MPD2     H  533   0.934   3.446  10.134 -0.9265  1.7058 -0.8223
   34MPD2    H1  534   1.182   3.775  10.040 -1.9349  1.3570  0.9691
   34MPD2    H2  535   1.331   3.496  10.300 -2.1767  0.5651  0.6547
   34MPD2    H3  536   1.356   3.693  10.183 -0.5251 -0.9976  3.6502
   34MPD2     N  537   0.945   3.678   9.987  0.4677  0.6119 -0.9303
   34MPD2    H5  538   0.965   3.773   9.957 -1.0194  0.1166 -3.5056
   34MPD2    N1  539   1.117   3.339  10.308 -0.4225  0.5157 -0.7521
   34MPD2    H7  540   1.200   3.301  10.353 -0.9007  1.4586  0.9019
   35TMC2    C1  541   2.875   4.508  11.579  0.3533 -0.7647  0.6233
   35TMC2    C2  542   2.858   4.547  11.449  0.0264 -0.3282  0.4324
   35TMC2    C3  543   2.742   4.502  11.386  0.0618 -0.0768  0.6643
   35TMC2    C4  544   2.782   4.428  11.645 -0.2916  0.6212 -0.6192
   35TMC2    C5  545   2.672   4.391  11.578  0.6613  0.2843 -0.3767
   35TMC2    C6  546   2.651   4.425  11.450 -0.1026  0.4539 -0.3479
   35TMC2     C  547   2.983   4.575  11.658  0.1281  0.1190  1.3164
   35TMC2     O  548   3.024   4.684  11.616  0.0308  0.3035  0.8776
   35TMC2     H  549   2.937   4.597  11.395 -2.9101  1.9466 -1.7465
   35TMC2    H1  550   2.799   4.410  11.751 -0.7783  1.5554 -0.3827
   35TMC2    H2  551   2.565   4.395  11.391  1.3375 -0.3217 -2.0450
   35TMC2    C7  552   2.593   4.290  11.638  0.2999 -0.0948  0.1319
   35TMC2    C8  553   2.729   4.516  11.243  0.0153 -0.2787 -0.4257
   35TMC2    O1  554   2.545   4.207  11.560  0.1377  0.5006  0.2285
   35TMC2    O2  555   2.689   4.421  11.179 -0.4057  0.4215 -0.4537
   35TMC2    O5  556   2.798   4.625  11.205  0.1456 -0.2639  0.2607
   35TMC2    H5  557   2.804   4.692  11.276  0.4800 -1.2737  1.1871
   36MPD2     C  558   3.155   4.710  12.130  0.4489  0.2528  0.1974
   36MPD2    C1  559   3.116   4.582  12.131 -0.7108 -0.2008 -0.0192
   36MPD2    C2  560   3.074   4.521  12.016 -0.2509 -0.1321  0.2142
   36MPD2    C3  561   3.060   4.589  11.900 -0.3022 -0.0976 -0.2682
   36MPD2    C4  562   3.101   4.722  11.898  0.0806  0.2878 -0.3306
   36MPD2    C5  563   3.141   0.045  12.018 -0.3306  0.1334  0.2688
   36MPD2     H  564   3.049   4.415  12.008  0.0854 -0.1951 -0.0141
   36MPD2    H1  565   3.092   0.048  11.812 -2.7313  0.4918  0.1318
   36MPD2    H2  566   3.179   0.020  12.223 -0.2172  0.4548  0.2619
   36MPD2    H3  567   3.160   0.151  12.020 -0.9315  0.2484 -0.1636
   36MPD2     N  568   3.007   4.515  11.787  0.2119 -0.3150 -0.4395
   36MPD2    H5  569   2.973   4.421  11.801  1.9827 -0.8655  0.1092
   36MPD2    N1  570   3.117   4.519  12.256  0.2838 -0.0598 -0.0970
   36MPD2    H7  571   3.161   4.579  12.325  0.6585  1.2379 -1.4693
   37TMC2    C1  572   0.548   0.666  11.827  0.3754  0.2022 -1.0243
   37TMC2    C2  573   0.635   0.561  11.838 -0.2960 -0.1435  0.2116
   37TMC2    C3  574   0.740   0.550  11.747 -0.3930  0.2402 -0.1323
   37TMC2    C4  575   0.566   0.775  11.748 -0.3552  0.7149 -0.6890
   37TMC2    C5  576   0.672   0.764  11.658 -0.1261  0.3053  0.8724
   37TMC2    C6  577   0.750   0.647  11.647 -0.6065 -0.7844 -0.3912
   37TMC2     C  578   0.436   0.658  11.912 -0.3947 -0.2854  0.0809
   37TMC2     O  579   0.345   0.727  11.875 -0.5311 -0.0977 -0.1186
   37TMC2     H  580   0.604   0.470  11.888  1.3328  0.4323  2.2856
   37TMC2    H1  581   0.502   0.860  11.765 -1.9407 -0.3998 -1.0968
   37TMC2    H2  582   0.830   0.643  11.575  0.1684  1.1585  0.3471
   37TMC2    C7  583   0.703   0.877  11.569  0.5635 -0.6156  0.1207
   37TMC2    C8  584   0.788   0.415  11.707  0.1230 -0.5989  0.3704
   37TMC2    O1  585   0.786   0.869  11.481 -0.2938  0.2775  0.4110
   37TMC2    O2  586   0.905   0.391  11.679  0.0582  0.2041 -0.1375
   37TMC2    O5  587   0.684   0.342  11.666  0.1073  0.4150  0.2574
   37TMC2    H5  588   0.595   0.381  11.649  0.4786  0.5155 -1.4607
   38MPD2     C  589   0.164   0.490  12.320 -0.8629 -0.1195 -0.6488
   38MPD2    C1  590   0.295   0.466  12.338 -0.8412  0.4372 -0.2852
   38MPD2    C2  591   0.384   0.492  12.243  0.3908 -0.5802 -0.6751
   38MPD2    C3  592   0.345   0.558  12.121 -0.0259  0.9810 -0.0073
   38MPD2    C4  593   0.211   0.581  12.105 -0.0061 -0.2055 -0.4699
   38MPD2    C5  594   0.130   0.549  12.211  0.4886 -0.2119 -1.0061
   38MPD2     H  595   0.484   0.454  12.257  0.3900  0.2666  1.6008
   38MPD2    H1  596   0.175   0.642  12.024 -0.7392 -0.9433 -0.6993
   38MPD2    H2  597   0.090   0.460  12.393  2.2047  2.1173  3.4012
   38MPD2    H3  598   0.023   0.566  12.201  0.7626  1.9781 -0.1868
   38MPD2     N  599   0.448   0.582  12.024  0.4203  0.1740  0.3963
   38MPD2    H5  600   0.539   0.545  12.049  1.2822  0.9543 -1.6475
   38MPD2    N1  601   0.346   0.385  12.443  0.4503  0.9121 -0.9281
   38MPD2    H7  602   0.429   0.331  12.418 -0.5814 -1.2907  0.4114
   39TMC2    C1  603   4.002   1.777   1.090  0.1675 -0.3764 -0.3088
   39TMC2    C2  604   3.981   1.670   1.010 -0.3241  0.6573  0.1711
   39TMC2    C3  605   4.074   1.647   0.912  0.1589 -0.0800 -1.2950
   39TMC2    C4  606   4.109   1.856   1.088 -0.2662 -0.2901  0.4056
   39TMC2    C5  607   4.206   1.828   0.994  0.0935 -0.4178 -0.1176
   39TMC2    C6  608   4.184   1.728   0.901  0.3461  0.2003 -0.0157
   39TMC2     C  609   3.883   1.826   1.160  0.5634  0.4404  0.0727
   39TMC2     O  610   3.900   1.884   1.264 -0.1466 -0.4152 -0.1709
   39TMC2     H  611   3.915   1.587   1.033 -0.6911  0.0450 -3.1046
   39TMC2    H1  612   4.113   1.937   1.160 -0.8023 -0.7659  0.9716
   39TMC2    H2  613   4.248   1.716   0.814 -0.4921  0.2704 -0.6429
   39TMC2    C7  614   4.302   1.934   0.961  0.2030 -0.0134 -0.3245
   39TMC2    C8  615   4.057   1.524   0.840 -0.2539 -0.4812  1.2184
   39TMC2    O1  616   4.357   1.921   0.848 -0.2218  0.1737 -0.4120
   39TMC2    O2  617   3.943   1.487   0.810 -0.5859  0.5777 -0.4173
   39TMC2    O5  618   4.176   1.472   0.797 -0.0013  0.4689  0.6732
   39TMC2    H5  619   4.253   1.520   0.834  0.5638  0.4475 -0.4493
   40MPD2     C  620   3.599   1.864   1.243 -0.3950  0.0153  0.0002
   40MPD2    C1  621   3.633   1.832   1.114 -0.2597 -0.1210  0.2992
   40MPD2    C2  622   3.539   1.826   1.014  0.1151  0.0563  0.3550
   40MPD2    C3  623   3.405   1.845   1.038  0.5392  0.6332  0.0790
   40MPD2    C4  624   3.376   1.889   1.167 -1.0401  0.4624  0.3326
   40MPD2    C5  625   3.467   1.893   1.267 -0.1436  0.1028  0.8971
   40MPD2     H  626   3.577   1.787   0.920  0.5577  1.6194 -0.1108
   40MPD2    H1  627   3.272   1.890   1.198 -1.2790 -0.9671 -0.4321
   40MPD2    H2  628   3.677   1.872   1.317  0.6024 -0.7369 -0.9644
   40MPD2    H3  629   3.437   1.920   1.368  0.7671 -0.9888  1.4630
   40MPD2     N  630   3.297   1.835   0.943  0.4221 -0.1374  0.1381
   40MPD2    H5  631   3.202   1.850   0.975  0.3528  0.6541 -0.4170
   40MPD2    N1  632   3.769   1.809   1.076 -0.2559 -0.2184  0.1726
   40MPD2    H7  633   3.780   1.782   0.978  0.0664  0.4201  0.0312
   41TMC2    C1  634   2.046   0.217  13.538  0.1348  0.2219  0.5522
   41TMC2    C2  635   1.954   0.127  13.494 -0.9339  0.3059 -0.2834
   41TMC2    C3  636   1.902   0.138  13.366 -1.3399 -1.0564 -0.4571
   41TMC2    C4  637   2.104   0.305  13.445 -1.1779  0.0370  0.3505
   41TMC2    C5  638   2.057   0.304  13.314  0.3795  1.0533  0.0525
   41TMC2    C6  639   1.956   0.223  13.274  0.4307  0.2664  0.1116
   41TMC2     C  640   2.108   0.190  13.663 -0.3292  0.6657  0.6330
   41TMC2     O  641   2.093   0.076  13.702 -0.3656 -0.5331  0.2323
   41TMC2     H  642   1.902   0.059  13.561 -0.9513 -1.0116 -1.6227
   41TMC2    H1  643   2.196   0.357  13.467 -0.8434 -1.5871  2.8066
   41TMC2    H2  644   1.926   0.227  13.170  1.4098  0.4631 -0.1603
   41TMC2    C7  645   2.133   0.367  13.216  0.2625 -0.0039  0.7098
   41TMC2    C8  646   1.812   0.028  13.321 -0.4307 -0.4060 -0.6712
   41TMC2    O1  647   2.171   0.483  13.231 -0.0198  0.0358  0.5652
   41TMC2    O2  648   1.731   0.047  13.233 -0.0231 -0.1647  0.3430
   41TMC2    O5  649   1.840   4.650  13.388  0.1308 -0.4234 -0.4613
   41TMC2    H5  650   1.931   4.655  13.424 -1.2756  0.8027  2.9247
   42MPD2     C  651   2.277   0.146  13.904 -0.2374 -0.2501 -0.6549
   42MPD2    C1  652   2.232   0.271  13.860  0.4080  1.3915  0.1852
   42MPD2    C2  653   2.236   0.379  13.941 -0.2322 -0.1922 -0.2080
   42MPD2    C3  654   2.276   0.369  14.070 -0.3515 -0.6330  0.1625
   42MPD2    C4  655   2.320   0.247  14.114 -0.2393  0.0920  0.0322
   42MPD2    C5  656   2.319   0.135  14.031  0.1101  0.4070 -0.2743
   42MPD2     H  657   2.193   0.470  13.900  2.3000 -0.5579 -3.5908
   42MPD2    H1  658   2.348   0.242  14.219 -0.8845 -1.1781  0.1393
   42MPD2    H2  659   2.277   0.058  13.840  0.5760 -1.5597  1.1335
   42MPD2    H3  660   2.353   0.042  14.075  3.1523  1.7057  0.1682
   42MPD2     N  661   2.259   0.477  14.165 -0.1624  1.0735  0.2221
   42MPD2    H5  662   2.258   0.441  14.260 -1.7860  0.9716  0.1682
   42MPD2    N1  663   2.171   0.294  13.730  0.2253 -0.0589  0.0469
   42MPD2    H7  664   2.167   0.387  13.689 -1.5880 -0.2863 -0.3130
   43TMC2    C1  665   3.756   3.397   0.343  0.7266 -0.5769 -0.1257
   43TMC2    C2  666   3.635   3.372   0.391 -0.0303 -0.4123 -0.1467
   43TMC2    C3  667   3.610   3.413   0.516  0.0799  0.4671 -0.0683
   43TMC2    C4  668   3.859   3.433   0.430  0.0232  0.1989  1.0297
   43TMC2    C5  669   3.832   3.443   0.567 -0.9821 -0.1279  0.2962
   43TMC2    C6  670   3.700   3.448   0.613  0.4519 -0.5399 -0.1538
   43TMC2     C  671   3.781   3.372   0.198 -0.9550 -0.6780  0.3856
   43TMC2     O  672   3.900   3.376   0.168  0.0036  0.6930 -0.0924
   43TMC2     H  673   3.549   3.329   0.341  0.1631  0.3892 -1.1563
   43TMC2    H1  674   3.962   3.424   0.397  0.1037 -1.2311  1.6593
   43TMC2    H2  675   3.675   3.461   0.718  0.8208  0.5517 -0.2033
   43TMC2    C7  676   3.927   3.511   0.645  0.6361 -1.0018  0.5965
   43TMC2    C8  677   3.468   3.456   0.533 -0.4935  0.1610  0.5719
   43TMC2    O1  678   4.013   3.575   0.582 -0.0388 -0.0884 -0.1729
   43TMC2    O2  679   3.384   3.434   0.447 -0.2029 -0.1904 -0.2720
   43TMC2    O5  680   3.459   3.555   0.627  0.5912 -0.3116 -0.6887
   43TMC2    H5  681   3.544   3.596   0.654 -0.8891  1.3921  1.4078
   44MPD2     C  682   3.646   3.216  17.500 -0.6117  0.2785  0.2709
   44MPD2    C1  683   3.752   3.185  17.574  0.0271 -0.7903  0.0835
   44MPD2    C2  684   3.772   3.249  17.692 -0.3465  0.2783  0.2368
   44MPD2    C3  685   3.670   3.335  17.740  0.1148 -0.5387  0.3140
   44MPD2    C4  686   3.560   3.373  17.659 -0.0884 -0.0497  0.8765
   44MPD2    C5  687   3.555   3.306  17.545  0.1137 -0.7723 -0.1888
   44MPD2     H  688   3.860   3.228  17.752 -0.8700  1.2727  1.3383
   44MPD2    H1  689   3.481   3.438  17.695 -1.1969 -2.5020  2.8888
   44MPD2    H2  690   3.640   3.186  17.396  1.4815 -0.4769  0.3743
   44MPD2    H3  691   3.476   3.318  17.471 -0.0958  2.2924  0.5430
   44MPD2     N  692   3.671   3.382   0.118  0.2009 -0.2566 -0.5596
   44MPD2    H5  693   3.582   3.408   0.159  0.4144  0.4012 -0.5163
   44MPD2    N1  694   3.851   3.084  17.541  0.0469  0.7166  0.4037
   44MPD2    H7  695   3.934   3.080  17.598  1.4265  0.7327 -1.6010
   45TMC2    C1  696   0.117   0.138   9.898 -1.0033  0.1692 -0.1552
   45TMC2    C2  697   0.198   0.063   9.982  0.1663 -0.1383  0.1751
   45TMC2    C3  698   0.250   0.127  10.095 -0.9559 -0.3744 -1.1301
   45TMC2    C4  699   0.077   0.257   9.935  0.9437  0.2581  0.2722
   45TMC2    C5  700   0.139   0.320  10.039 -0.5163  0.3511  0.2147
   45TMC2    C6  701   0.229   0.259  10.117 -0.0531 -0.2173 -1.0573
   45TMC2     C  702   0.044   0.061   9.795  0.0499 -0.5779 -0.0169
   45TMC2     O  703   0.108   4.710   9.750  0.1560 -0.6002 -0.1918
   45TMC2     H  704   0.209   4.698   9.961  0.9022 -0.1750  0.7584
   45TMC2    H1  705   0.001   0.312   9.879  0.5357 -0.9260 -0.3402
   45TMC2    H2  706   0.273   0.325  10.191  0.1417 -0.0031 -1.3609
   45TMC2    C7  707   0.141   0.468  10.041 -0.4818 -0.8260 -0.1402
   45TMC2    C8  708   0.331   0.037  10.181  0.2116  0.8961 -0.7468
   45TMC2    O1  709   0.151   0.517  10.150  0.2258 -0.5524 -0.4992
   45TMC2    O2  710   0.411   4.699  10.133 -0.3802  0.3792  1.5699
   45TMC2    O5  711   0.359   0.113  10.287  0.5850  0.0751 -0.7405
   45TMC2    H5  712   0.277   0.156  10.319  1.6334 -0.1153  2.1632
   46MPD2     C  713   4.602   4.684   9.597 -0.1526 -0.0452  0.2247
   46MPD2    C1  714   4.562   0.039   9.690 -0.2900  0.4457  0.4273
   46MPD2    C2  715   4.426   0.058   9.704 -0.2583 -0.4221  0.5348
   46MPD2    C3  716   4.337   0.004   9.619 -0.2167  0.0060 -0.6770
   46MPD2    C4  717   4.374   4.642   9.531 -0.4298 -0.4749  0.2016
   46MPD2    C5  718   4.508   4.618   9.526  0.6585  0.0463  0.1104
   46MPD2     H  719   4.393   0.135   9.771  3.0161 -1.1361  3.0011
   46MPD2    H1  720   4.306   4.601   9.458 -0.8481 -0.1482  0.4036
   46MPD2    H2  721   4.707   4.668   9.575 -0.1717  0.3174 -0.1134
   46MPD2    H3  722   4.540   4.556   9.443 -0.9868  0.2708 -0.7091
   46MPD2     N  723   4.202   0.059   9.632  0.4115  1.0847 -0.8430
   46MPD2    H5  724   4.192   0.123   9.709 -0.2364 -1.5831  1.2704
   46MPD2    N1  725   4.654   0.101   9.775 -0.6311  0.2419  0.2093
   46MPD2    H7  726   4.618   0.161   9.849 -0.2597  0.6849  0.0284
   47TMC2    C1  727   1.292   0.440  10.141  0.1845  0.1006 -0.3991
   47TMC2    C2  728   1.254   0.500  10.024 -0.2930 -0.5059 -0.3969
   47TMC2    C3  729   1.127   0.487   9.980 -0.5718 -0.2936  0.9563
   47TMC2    C4  730   1.214   0.352  10.205  0.2123  0.1761  0.5032
   47TMC2    C5  731   1.098   0.319  10.145 -0.8056 -0.5329  0.2397
   47TMC2    C6  732   1.048   0.391  10.038  0.2183 -0.2031 -0.9368
   47TMC2     C  733   1.420   0.472  10.197  0.3683  0.2507  0.0188
   47TMC2     O  734   1.498   0.527  10.122  0.2381 -0.6583 -0.0031
   47TMC2     H  735   1.317   0.580   9.985 -2.1371  0.3475 -1.6284
   47TMC2    H1  736   1.256   0.290  10.283 -0.3928  0.4835  1.0787
   47TMC2    H2  737   0.946   0.386  10.002 -0.5625 -2.8111  1.6269
   47TMC2    C7  738   1.017   0.219  10.207 -0.4000  0.9828  0.3429
   47TMC2    C8  739   1.090   0.527   9.844 -0.3309  0.6794  0.2269
   47TMC2    O1  740   1.053   0.188  10.318 -0.4400  0.1372  0.4501
   47TMC2    O2  741   0.975   0.525   9.806  0.1914  0.1486 -0.1191
   47TMC2    O5  742   1.200   0.542   9.770  0.0380 -0.0840  0.0956
   47TMC2    H5  743   1.270   0.496   9.821 -0.3102 -0.9561 -0.2191
   48MPD2     C  744   1.570   0.395  10.532 -0.3181 -0.3864  0.4724
   48MPD2    C1  745   1.571   0.424  10.400  0.5096 -0.0054 -0.2107
   48MPD2    C2  746   1.692   0.447  10.340 -0.3121  0.2770  0.1737
   48MPD2    C3  747   1.813   0.436  10.410 -0.6744 -0.4054 -0.4192
   48MPD2    C4  748   1.805   0.398  10.542  0.8624  0.5628 -0.0175
   48MPD2    C5  749   1.687   0.380  10.603  0.4360  0.1229 -0.0988
   48MPD2     H  750   1.700   0.473  10.235  1.2091 -1.1322 -0.0768
   48MPD2    H1  751   1.896   0.366  10.592  0.1861  0.5343  1.1916
   48MPD2    H2  752   1.474   0.367  10.574 -0.1952 -0.5614  0.6339
   48MPD2    H3  753   1.688   0.345  10.705 -1.1691  1.0223  0.2302
   48MPD2     N  754   1.932   0.454  10.334  0.6755  0.5828  0.2215
   48MPD2    H5  755   1.927   0.459  10.232  1.0506 -2.0095  0.0879
   48MPD2    N1  756   1.446   0.425  10.329  0.1628  0.4815  0.0024
   48MPD2    H7  757   1.362   0.400  10.380 -0.8265  2.8769 -0.4102
   49TMC2    C1  758   0.241   3.198  10.338  0.0905 -0.4169  0.4262
   49TMC2    C2  759   0.201   3.082  10.388 -0.1702 -0.2556  0.6739
   49TMC2    C3  760   0.093   3.023  10.317  0.0214  0.4512  0.3264
   49TMC2    C4  761   0.207   3.239  10.219  0.6680 -0.8599 -0.1790
   49TMC2    C5  762   0.102   3.178  10.152 -0.0762  0.3896  0.2674
   49TMC2    C6  763   0.037   3.069  10.196  0.2316  0.2434  0.0538
   49TMC2     C  764   0.363   3.255  10.403  0.0288  0.4274  0.1042
   49TMC2     O  765   0.443   3.306  10.330  0.1713  0.5882  0.2271
   49TMC2     H  766   0.244   3.038  10.477  3.2778 -0.3451 -1.0578
   49TMC2    H1  767   0.255   3.329  10.181 -1.7248 -0.2215 -1.6787
   49TMC2    H2  768   4.706   3.022  10.129 -0.4412  0.1352  0.8402
   49TMC2    C7  769   0.048   3.240  10.032 -0.0918 -0.2095  0.3208
   49TMC2    C8  770   0.061   2.883  10.339 -0.5238 -1.2332  0.0622
   49TMC2    O1  771   4.685   3.191   9.992  0.2284 -0.4380 -0.1949
   49TMC2    O2  772   4.694   2.840  10.301 -0.6953 -0.2019  0.3176
   49TMC2    O5  773   0.159   2.809  10.395  0.0663 -0.5035 -0.2423
   49TMC2    H5  774   0.250   2.845  10.393  0.3995 -1.3147  0.3169
   50MPD2     C  775   0.606   3.330  10.558 -0.3355 -0.2400 -0.4484
   50MPD2    C1  776   0.494   3.277  10.612 -0.0209  0.2476  0.8421
   50MPD2    C2  777   0.491   3.269  10.753  0.6923 -0.0236 -0.6927
   50MPD2    C3  778   0.590   3.324  10.839  0.3194 -0.0813 -0.2825
   50MPD2    C4  779   0.699   3.380  10.776 -0.4832  0.2089 -0.7007
   50MPD2    C5  780   0.712   3.370  10.635 -0.5136 -0.4510  0.1966
   50MPD2     H  781   0.410   3.213  10.799  2.3104 -1.1568  0.7558
   50MPD2    H1  782   0.784   3.421  10.829 -0.5607 -0.3275 -0.1504
   50MPD2    H2  783   0.617   3.324  10.450  0.0828 -1.2359 -0.3476
   50MPD2    H3  784   0.800   3.409  10.586  0.8555 -2.7906  0.7930
   50MPD2     N  785   0.591   3.319  10.979  0.3575  0.1906 -0.0606
   50MPD2    H5  786   0.662   3.370  11.030 -0.4522  0.7220  0.5458
   50MPD2    N1  787   0.380   3.234  10.536  0.2474  0.5762  0.3032
   50MPD2    H7  788   0.303   3.195  10.589  0.9266 -0.3749  0.5961
   51TMC2    C1  789   1.038   2.111   1.888 -0.0492  0.0951 -0.0710
   51TMC2    C2  790   0.958   2.208   1.936 -0.4504  0.1872  0.2329
   51TMC2    C3  791   0.985   2.338   1.908  0.4343  0.2273 -0.2247
   51TMC2    C4  792   1.137   2.143   1.799 -0.6055 -0.2147  0.1210
   51TMC2    C5  793   1.156   2.274   1.769  0.0465 -0.1505 -0.3069
   51TMC2    C6  794   1.086   2.373   1.825  0.2940 -0.8812  0.6491
   51TMC2     C  795   1.020   1.980   1.895  0.0393  0.2816  0.3768
   51TMC2     O  796   1.116   1.904   1.898  0.1738 -0.3593  0.1229
   51TMC2     H  797   0.878   2.188   2.007 -1.9007  1.5026 -1.0349
   51TMC2    H1  798   1.190   2.065   1.745 -0.6826  0.3948 -0.8405
   51TMC2    H2  799   1.098   2.476   1.797  0.7990 -1.8148 -2.5633
   51TMC2    C7  800   1.227   2.299   1.643 -0.6193 -0.1684 -0.0517
   51TMC2    C8  801   0.901   2.441   1.974 -0.8087 -0.7718 -0.3505
   51TMC2    O1  802   1.311   2.217   1.611  0.8038  0.0177  0.7291
   51TMC2    O2  803   0.802   2.415   2.041 -0.0216 -0.3432 -0.9446
   51TMC2    O5  804   0.973   2.548   1.999  0.4243 -0.3386  0.1064
   51TMC2    H5  805   1.060   2.557   1.956  0.9478  0.5512  1.3387
   52MPD2     C  806   0.725   1.575   1.884 -0.1590  0.4197  0.1296
   52MPD2    C1  807   0.853   1.592   1.828 -0.3831 -0.4544  0.3556
   52MPD2    C2  808   0.899   1.720   1.836 -0.4168 -0.2253 -0.5391
   52MPD2    C3  809   0.827   1.821   1.897  0.5675 -0.2071 -0.0895
   52MPD2    C4  810   0.700   1.808   1.936  0.5534 -0.2077  0.3752
   52MPD2    C5  811   0.650   1.680   1.933  0.0586 -1.0756  0.2474
   52MPD2     H  812   0.999   1.736   1.797  0.2588 -2.0619  0.4239
   52MPD2    H1  813   0.643   1.893   1.973  2.1676  1.0173  0.0238
   52MPD2    H2  814   0.671   1.482   1.868  0.0792  0.8877 -3.3565
   52MPD2    H3  815   0.550   1.658   1.969 -0.6462 -1.1114 -1.7238
   52MPD2     N  816   0.889   1.948   1.917 -0.0514  0.4533 -0.5708
   52MPD2    H5  817   0.824   2.021   1.944  1.3198  1.3500  0.3374
   52MPD2    N1  818   0.939   1.499   1.766 -0.3510 -0.3724 -0.0699
   52MPD2    H7  819   1.026   1.533   1.726 -1.7033  0.4663 -2.3436
   53TMC2    C1  820   0.347   1.636  11.677 -0.5405 -0.7659 -0.1505
   53TMC2    C2  821   0.353   1.771  11.667  0.0267  0.8043  0.1273
   53TMC2    C3  822   0.276   1.853  11.754  1.3469 -0.3816 -0.9995
   53TMC2    C4  823   0.280   1.576  11.778 -0.3382  0.2901 -0.0534
   53TMC2    C5  824   0.188   1.657  11.853 -0.0865  0.0153  0.6984
   53TMC2    C6  825   0.188   1.798  11.848  0.2127 -0.0193  0.3859
   53TMC2     C  826   0.414   1.555  11.577  0.2657 -0.1696  0.3903
   53TMC2     O  827   0.450   1.622  11.476 -0.7851  0.2867  0.3631
   53TMC2     H  828   0.407   1.812  11.582  0.3608  0.4043  0.1451
   53TMC2    H1  829   0.284   1.468  11.784  0.4696  0.4355  1.9467
   53TMC2    H2  830   0.135   1.868  11.911 -1.4236  0.9124 -2.0241
   53TMC2    C7  831   0.137   1.591  11.979  0.5574 -0.1880 -0.3228
   53TMC2    C8  832   0.316   1.980  11.801 -0.2806  0.2123  0.6102
   53TMC2    O1  833   0.100   1.476  11.972  0.1257  0.2275  0.8161
   53TMC2    O2  834   0.232   2.047  11.857 -0.1193 -0.2782 -0.2276
   53TMC2    O5  835   0.398   2.014  11.698  0.2452  0.2969 -0.0476
   53TMC2    H5  836   0.476   1.954  11.690  1.5574  1.8910  0.7917
   54MPD2     C  837   0.546   1.347  11.412 -0.6251 -0.5593  0.1108
   54MPD2    C1  838   0.497   1.323  11.537 -0.0292 -0.4133  0.5010
   54MPD2    C2  839   0.528   1.199  11.598 -0.1404 -0.0075 -0.1103
   54MPD2    C3  840   0.599   1.098  11.534 -0.1869  0.1758  0.3557
   54MPD2    C4  841   0.637   1.124  11.407  0.6183 -0.4907  0.1698
   54MPD2    C5  842   0.604   1.238  11.342  0.0613  0.1708 -0.4341
   54MPD2     H  843   0.497   1.190  11.702  1.3033  0.6356  0.3845
   54MPD2    H1  844   0.696   1.051  11.355 -1.8165  0.4139 -3.8501
   54MPD2    H2  845   0.526   1.437  11.355 -1.2590 -0.1700  0.9472
   54MPD2    H3  846   0.638   1.242  11.239  0.8002 -0.9293 -0.2382
   54MPD2     N  847   0.626   0.983  11.607  0.2831  0.4690  0.5988
   54MPD2    H5  848   0.582   0.993  11.699 -1.8496 -2.0265 -0.1656
   54MPD2    N1  849   0.443   1.421  11.618  0.4275  0.0809  0.2531
   54MPD2    H7  850   0.434   1.396  11.716  1.9058  2.3567  0.9590
   55TMC2    C1  851   1.928   3.023  17.318  0.5194 -0.1667  0.2196
   55TMC2    C2  852   1.950   3.013  17.184  0.6594 -0.3628 -0.4425
   55TMC2    C3  853   1.946   2.890  17.126 -0.1799  0.2054 -0.3333
   55TMC2    C4  854   1.921   2.904  17.397 -0.5399  0.1638  0.1569
   55TMC2    C5  855   1.931   2.780  17.332 -0.0475 -0.6841 -0.1164
   55TMC2    C6  856   1.933   2.771  17.193  0.6022 -0.4277 -0.1034
   55TMC2     C  857   1.930   3.158  17.390  0.1678 -0.3482  0.0151
   55TMC2     O  858   1.903   3.156  17.513  0.3077  0.7457 -0.3824
   55TMC2     H  859   1.946   3.099  17.118 -0.0629  1.5937  2.1744
   55TMC2    H1  860   1.933   2.932  17.501 -1.6355 -0.9009  0.5701
   55TMC2    H2  861   1.936   2.676  17.141 -1.5675 -0.3217 -0.4425
   55TMC2    C7  862   1.922   2.660  17.412 -0.2241 -0.0412  0.0744
   55TMC2    C8  863   1.910   2.882  16.986 -0.7885 -0.0092 -0.2207
   55TMC2    O1  864   1.951   2.556  17.347 -0.1305  0.2661 -0.0283
   55TMC2    O2  865   1.932   2.776  16.927  0.0965  0.2644  0.4962
   55TMC2    O5  866   1.783   2.936  16.991  0.5778 -0.3476  0.6712
   55TMC2    H5  867   1.757   3.005  17.055  1.3459 -0.1977  0.8139
   56MPD2     C  868   1.940   3.508  17.261  0.3690 -1.0263 -0.8144
   56MPD2    C1  869   1.929   3.409  17.356 -0.0925  0.4010 -0.0060
   56MPD2    C2  870   1.915   3.443  17.490 -0.3269 -0.6034 -0.5002
   56MPD2    C3  871   1.910   3.577  17.527  0.3326 -0.1977 -0.0866
   56MPD2    C4  872   1.927   3.674  17.432  0.0059 -0.2919  0.3088
   56MPD2    C5  873   1.933   3.638  17.299  0.3471  0.3002  0.1591
   56MPD2     H  874   1.900   3.367  17.566 -0.2069 -1.3244 -1.2068
   56MPD2    H1  875   1.913   3.779  17.458  1.3490  0.1099 -0.5953
   56MPD2    H2  876   1.951   3.498  17.153  1.2996 -0.2161 -0.7849
   56MPD2    H3  877   1.942   3.716  17.224  0.6449 -0.8119 -0.9708
   56MPD2     N  878   1.890   3.604  17.666  0.2469  0.3243  0.2288
   56MPD2    H5  879   1.879   3.525  17.729  0.9743 -1.0051 -1.2953
   56MPD2    N1  880   1.927   3.270  17.308  0.4499 -0.4752 -0.6544
   56MPD2    H7  881   1.959   3.259  17.213 -0.0706 -3.6733 -0.4765
   57TMC2    C1  882   0.600   3.693  13.801  0.2832  0.1441  0.0732
   57TMC2    C2  883   0.567   3.637  13.925 -0.2086 -0.2362  0.6537
   57TMC2    C3  884   0.586   3.503  13.923 -0.4131 -0.5772 -0.1420
   57TMC2    C4  885   0.653   3.623  13.693  0.3325 -0.6709 -0.4208
   57TMC2    C5  886   0.663   3.488  13.703  0.7763 -0.7935 -0.5228
   57TMC2    C6  887   0.631   3.422  13.820 -0.5405 -0.1349  0.6998
   57TMC2     C  888   0.571   3.837  13.780 -1.0397  0.6686  0.2269
   57TMC2     O  889   0.580   3.885  13.666  0.3867 -0.3396  0.4038
   57TMC2     H  890   0.525   3.688  14.010 -0.8992 -2.0709  1.4223
   57TMC2    H1  891   0.657   3.681  13.601  0.1358  1.1065  0.6886
   57TMC2    H2  892   0.646   3.315  13.832 -0.0416 -0.4039 -2.2508
   57TMC2    C7  893   0.673   3.421  13.582  0.0847  0.2087 -0.5028
   57TMC2    C8  894   0.578   3.434  14.052  0.8820  0.4040  0.0207
   57TMC2    O1  895   0.602   3.323  13.568  0.9281  0.0127  0.0903
   57TMC2    O2  896   0.513   3.478  14.145 -0.1849  0.7698 -0.3304
   57TMC2    O5  897   0.702   3.385  14.077 -0.6099 -0.3980  0.3591
   57TMC2    H5  898   0.770   3.375  14.007 -0.0475  2.0472  0.5421
   58MPD2     C  899   0.476   4.293  13.946  0.9781 -0.3036  0.2733
   58MPD2    C1  900   0.474   4.249  13.815 -0.6867 -0.2144 -1.2496
   58MPD2    C2  901   0.486   4.112  13.793  0.8286 -0.3043 -0.0397
   58MPD2    C3  902   0.526   4.032  13.898  0.8636 -0.2765 -0.2353
   58MPD2    C4  903   0.544   4.083  14.023 -0.0685 -0.9269 -0.1368
   58MPD2    C5  904   0.505   4.212  14.051 -1.0737 -0.1888  0.4603
   58MPD2     H  905   0.476   4.074  13.692  0.6660  0.7129 -0.4065
   58MPD2    H1  906   0.569   4.024  14.111 -0.0611 -0.3368  0.2539
   58MPD2    H2  907   0.466   4.398  13.971  1.8332 -0.0887 -0.3012
   58MPD2    H3  908   0.513   4.242  14.155 -1.7262 -1.9022  1.0098
   58MPD2     N  909   0.544   3.900  13.894 -0.1234 -0.1920 -0.5194
   58MPD2    H5  910   0.566   3.855  13.983  0.9162  0.0461 -0.6491
   58MPD2    N1  911   0.434   4.332  13.713 -0.5231  0.3466  0.1661
   58MPD2    H7  912   0.390   4.288  13.633  0.4084  4.0560 -2.4137
   59TMC2    C1  913   3.139   3.933  13.353 -0.2766 -0.6345 -0.3941
   59TMC2    C2  914   3.084   3.831  13.419 -0.6878 -0.0338  0.4837
   59TMC2    C3  915   3.143   3.713  13.403  0.4664 -0.0862 -0.0136
   59TMC2    C4  916   3.246   3.922  13.268 -0.1452  0.6791  0.0815
   59TMC2    C5  917   3.290   3.797  13.236  0.4910  1.1502 -0.3900
   59TMC2    C6  918   3.237   3.694  13.310  0.4156  0.4676 -1.1500
   59TMC2     C  919   3.086   4.064  13.381  0.0686 -0.1904  0.1392
   59TMC2     O  920   2.963   4.082  13.398 -0.6244 -0.3088 -0.0991
   59TMC2     H  921   3.014   3.850  13.499  0.5854 -1.3961  1.9180
   59TMC2    H1  922   3.301   4.002  13.220  0.1864 -0.3291 -1.2307
   59TMC2    H2  923   3.278   3.594  13.301  1.2703  0.6750  0.4043
   59TMC2    C7  924   3.339   3.763  13.105 -0.5689 -0.0475 -0.4604
   59TMC2    C8  925   3.120   3.605  13.497 -0.1123  0.4029 -0.9848
   59TMC2    O1  926   3.395   3.656  13.090  0.0493  0.3928 -0.5267
   59TMC2    O2  927   3.190   3.510  13.520  0.4802  0.3637 -0.2726
   59TMC2    O5  928   2.984   3.597  13.514  0.8417 -0.3728  0.4119
   59TMC2    H5  929   2.922   3.662  13.475  1.9974 -0.2422 -1.2220
   60MPD2     C  930   3.050   4.356  13.344  0.6419 -0.0699 -0.4682
   60MPD2    C1  931   3.169   4.295  13.394  0.1157  0.2896 -0.7922
   60MPD2    C2  932   3.277   4.368  13.435  0.0321  1.0015  0.1109
   60MPD2    C3  933   3.268   4.502  13.423 -0.3143 -0.1192  0.2697
   60MPD2    C4  934   3.163   4.559  13.355 -0.4029 -0.1358 -0.3319
   60MPD2    C5  935   3.046   4.493  13.331  0.0589  0.3665  0.6059
   60MPD2     H  936   3.359   4.323  13.490 -0.4932  1.1691  1.0429
   60MPD2    H1  937   3.156   4.666  13.338  1.3683 -0.1640 -1.1908
   60MPD2    H2  938   2.961   4.306  13.310  0.3519  0.4465 -0.4700
   60MPD2    H3  939   2.962   4.548  13.292  2.0099  2.2859 -0.9261
   60MPD2     N  940   3.360   4.596  13.477 -0.6541 -0.0232  0.0136
   60MPD2    H5  941   3.321   4.689  13.465 -1.4158 -0.2546  0.7074
   60MPD2    N1  942   3.187   4.151  13.389  0.6084 -0.3078  0.6701
   60MPD2    H7  943   3.285   4.124  13.389  0.5933 -0.3497  0.3086
   61TMC2    C1  944   2.308   1.286  15.471 -0.6363  0.0399 -0.2583
   61TMC2    C2  945   2.176   1.313  15.502 -0.3061  0.4280 -0.5353
   61TMC2    C3  946   2.144   1.409  15.590  0.3801 -0.3797  0.7239
   61TMC2    C4  947   2.412   1.353  15.530  0.7610 -0.0581 -0.6811
   61TMC2    C5  948   2.377   1.460  15.603  0.3987 -0.1920 -0.3009
   61TMC2    C6  949   2.245   1.500  15.627  0.5289 -0.6462 -0.6169
   61TMC2     C  950   2.331   1.198  15.360  0.3875 -0.5655  0.3234
   61TMC2     O  951   2.242   1.123  15.325  0.4252 -0.1689 -0.1553
   61TMC2     H  952   2.097   1.264  15.446  0.1060 -1.8034  0.8494
   61TMC2    H1  953   2.516   1.323  15.521  0.1668 -1.6903 -2.0369
   61TMC2    H2  954   2.227   1.597  15.671  1.2274 -0.7747 -0.0560
   61TMC2    C7  955   2.472   1.561  15.557 -0.3823  0.1635 -0.1295
   61TMC2    C8  956   2.016   1.472  15.577 -0.1079 -0.4480 -0.1826
   61TMC2    O1  957   2.529   1.545  15.452 -0.5043  0.0631  0.3829
   61TMC2    O2  958   1.969   1.490  15.464 -0.5710 -0.0760  0.1419
   61TMC2    O5  959   1.985   1.529  15.696 -0.3188  0.4730 -0.1393
   61TMC2    H5  960   2.048   1.518  15.771 -0.8476 -0.3413  0.1865
   62MPD2     C  961   2.481   1.034  15.162 -0.1568  0.0568  0.3855
   62MPD2    C1  962   2.508   1.168  15.193  0.1369  0.0697 -0.6661
   62MPD2    C2  963   2.605   1.240  15.129 -0.0703 -0.3558  0.4462
   62MPD2    C3  964   2.657   1.183  15.016 -0.2382 -0.4627 -0.3031
   62MPD2    C4  965   2.625   1.053  14.982  0.3495 -0.0681  0.6573
   62MPD2    C5  966   2.539   0.977  15.049 -0.2815  1.1073  0.7332
   62MPD2     H  967   2.624   1.345  15.149  0.0167  0.1808 -2.4587
   62MPD2    H1  968   2.674   1.010  14.895 -1.1639 -1.2000  0.3586
   62MPD2    H2  969   2.420   0.970  15.225 -1.0445  1.4277  0.9121
   62MPD2    H3  970   2.523   0.872  15.030  1.0140  0.8570  0.9937
   62MPD2     N  971   2.732   1.255  14.921 -0.3376  0.4466  0.2023
   62MPD2    H5  972   2.756   1.204  14.837 -0.3733  1.3039 -0.3245
   62MPD2    N1  973   2.446   1.235  15.305  0.2521 -0.1097 -0.7200
   62MPD2    H7  974   2.486   1.320  15.345  0.5317 -1.0066  0.9096
   63TMC2    C1  975   2.040   0.047  11.553  0.4862  0.4078 -0.5005
   63TMC2    C2  976   2.122   0.080  11.663  0.5505 -0.1501 -0.3559
   63TMC2    C3  977   2.193   0.199  11.651  0.9384  0.8154  0.9040
   63TMC2    C4  978   2.016   0.133  11.443  1.4259  0.0793 -0.7870
   63TMC2    C5  979   2.094   0.241  11.445  0.6751 -0.6416  0.7508
   63TMC2    C6  980   2.175   0.283  11.544  0.3071 -0.1660  0.1720
   63TMC2     C  981   1.981   4.660  11.547 -0.6498 -0.0842 -0.2121
   63TMC2     O  982   1.932   4.622  11.655  0.2315 -0.0156 -0.0226
   63TMC2     H  983   2.144   0.010  11.742  0.0177  0.3588  0.2431
   63TMC2    H1  984   1.956   0.106  11.358 -0.4517 -2.5274  1.3636
   63TMC2    H2  985   2.235   0.373  11.535 -2.1732  1.4305 -0.4983
   63TMC2    C7  986   2.087   0.316  11.317 -0.2027  0.3561  0.0309
   63TMC2    C8  987   2.276   0.237  11.762  0.0370 -0.4898  0.0820
   63TMC2    O1  988   1.977   0.310  11.266 -0.2563  0.1049  0.5554
   63TMC2    O2  989   2.364   0.324  11.747 -0.3149  0.0688  0.3305
   63TMC2    O5  990   2.235   0.193  11.880  1.5389  0.1270  0.3002
   63TMC2    H5  991   2.164   0.125  11.878  0.9165  0.7934 -0.2088
   64MPD2     C  992   1.746   4.301  11.263  0.8320 -0.3275  0.4055
   64MPD2    C1  993   1.812   4.389  11.184 -0.8291 -0.2904  0.2070
   64MPD2    C2  994   1.899   4.482  11.238 -0.1079 -0.0842  0.1138
   64MPD2    C3  995   1.892   4.501  11.376  0.7379  0.0286  0.8343
   64MPD2    C4  996   1.821   4.413  11.458 -0.4233  0.2341  0.3439
   64MPD2    C5  997   1.759   4.309  11.394 -0.1589  0.0862 -0.3484
   64MPD2     H  998   1.958   4.544  11.171 -0.1259 -0.6229 -0.3953
   64MPD2    H1  999   1.813   4.435  11.564 -0.0316 -1.6354  0.7627
   64MPD2    H2 1000   1.688   4.223  11.214 -0.1516  1.7610 -1.7646
   64MPD2    H3 1001   1.706   4.238  11.456 -1.2821  0.3198 -1.0427
   64MPD2     N 1002   1.964   4.612  11.414  0.1005 -0.6017  0.0361
   64MPD2    H5 1003   1.986   4.675  11.339  0.1044 -0.6050  0.0345
   64MPD2    N1 1004   1.803   4.395  11.042 -0.2945  0.0450  0.1152
   64MPD2    H7 1005   1.867   4.463  11.003  0.6349 -0.0985  1.4155
   65TMC2    C1 1006   3.461   1.198  15.704 -0.6788  0.5490 -0.7699
   65TMC2    C2 1007   3.536   1.086  15.668  0.5751 -0.4258  0.2390
   65TMC2    C3 1008   3.567   1.000  15.769 -0.4114  0.5805 -0.4750
   65TMC2    C4 1009   3.408   1.205  15.829  0.2051 -0.2774 -0.5454
   65TMC2    C5 1010   3.458   1.124  15.925 -0.3568 -0.3093  0.3979
   65TMC2    C6 1011   3.539   1.025  15.905  0.7255  0.2098 -0.2214
   65TMC2     C 1012   3.371   1.256  15.605  0.9705 -0.5428 -0.2330
   65TMC2     O 1013   3.319   1.361  15.633 -0.4568 -0.0295 -0.0318
   65TMC2     H 1014   3.570   1.072  15.565  3.3079 -0.1224  1.0931
   65TMC2    H1 1015   3.320   1.268  15.837  0.1635 -0.2353 -1.3417
   65TMC2    H2 1016   3.579   0.960  15.982  1.6602 -1.6889 -2.3152
   65TMC2    C7 1017   3.391   1.127  16.055 -1.0130  0.5206 -0.1097
   65TMC2    C8 1018   3.664   0.890  15.748 -0.4519  0.7721  0.4305
   65TMC2    O1 1019   3.429   1.055  16.144 -1.2899 -0.3246  0.3749
   65TMC2    O2 1020   3.722   0.837  15.844 -0.0484  0.6823  0.2449
   65TMC2    O5 1021   3.651   0.844  15.624  0.4711 -0.3347  0.7094
   65TMC2    H5 1022   3.583   0.891  15.571  2.2735  1.6770  0.2058
   66MPD2     C 1023   3.202   1.307  15.370  0.4183  0.8215  0.2070
   66MPD2    C1 1024   3.276   1.190  15.389  0.2597 -1.0808  0.7167
   66MPD2    C2 1025   3.264   1.087  15.298  0.0830  0.0975 -0.1195
   66MPD2    C3 1026   3.199   1.103  15.180  0.4544  0.3662 -0.0991
   66MPD2    C4 1027   3.125   1.216  15.161  0.4023  0.5030 -0.7503
   66MPD2    C5 1028   3.128   1.321  15.254  0.2800  0.2046  0.0422
   66MPD2     H 1029   3.319   0.997  15.323  0.6593  0.3961 -0.3164
   66MPD2    H1 1030   3.058   1.224  15.076  1.4091 -0.4166 -1.6254
   66MPD2    H2 1031   3.207   1.397  15.431  0.1295  1.0881 -0.1696
   66MPD2    H3 1032   3.074   1.412  15.230 -0.2546  0.1168  0.8917
   66MPD2     N 1033   3.184   1.002  15.080 -0.0963 -0.9658  0.3173
   66MPD2    H5 1034   3.123   1.023  15.002  0.2049  0.5519  0.4893
   66MPD2    N1 1035   3.359   1.174  15.494 -0.3577  0.6903  0.0520
   66MPD2    H7 1036   3.402   1.082  15.497  1.9083  1.7507  0.4079
   67TMC2    C1 1037   3.369   4.602  14.729 -0.2035  0.2002  0.5011
   67TMC2    C2 1038   3.341   4.564  14.855  0.9040 -0.2177  0.2473
   67TMC2    C3 1039   3.393   4.639  14.958 -0.4006  0.0302  0.0418
   67TMC2    C4 1040   3.449   4.715  14.704 -0.2431  0.1727 -0.4062
   67TMC2    C5 1041   3.502   0.039  14.814 -0.4184 -0.0488 -0.2202
   67TMC2    C6 1042   3.476   0.008  14.942  0.3207  0.1917  0.0140
   67TMC2     C 1043   3.317   4.513  14.619  0.1010 -0.0649 -1.0884
   67TMC2     O 1044   3.272   4.407  14.655 -0.0566 -0.4619 -0.0103
   67TMC2     H 1045   3.289   4.474  14.884 -0.4469  0.0988 -1.1754
   67TMC2    H1 1046   3.485   4.735  14.604 -1.7143  1.2324 -0.7381
   67TMC2    H2 1047   3.521   0.058  15.027  0.4659  2.0539 -1.1647
   67TMC2    C7 1048   3.598   0.137  14.777 -0.2071  0.1260 -1.1110
   67TMC2    C8 1049   3.388   4.587  15.090 -0.1551 -0.6425  0.7294
   67TMC2    O1 1050   3.594   0.181  14.659  0.1981 -0.2245 -0.2346
   67TMC2    O2 1051   3.481   4.592  15.167 -0.3642  0.4954 -0.0025
   67TMC2    O5 1052   3.258   4.545  15.125 -0.6566 -0.3123 -0.6701
   67TMC2    H5 1053   3.190   4.558  15.056 -0.5209  1.8591 -0.3896
   68MPD2     C 1054   3.248   4.408  14.353  0.6062  0.6753 -0.0446
   68MPD2    C1 1055   3.237   4.539  14.384  0.4712  0.5565  0.5687
   68MPD2    C2 1056   3.161   4.619  14.298 -0.5554  0.2701  1.0354
   68MPD2    C3 1057   3.071   4.565  14.206 -0.1447  0.0876  0.1382
   68MPD2    C4 1058   3.070   4.426  14.190 -0.3569 -0.6179  0.0795
   68MPD2    C5 1059   3.161   4.352  14.259  0.2851 -0.7648  1.1996
   68MPD2     H 1060   3.170   4.725  14.318 -0.1090  0.6941 -1.4188
   68MPD2    H1 1061   3.003   4.382  14.117  0.6998  1.0327 -1.8978
   68MPD2    H2 1062   3.318   4.348  14.411 -1.7660 -2.0133  0.0041
   68MPD2    H3 1063   3.163   4.244  14.244 -0.2871 -0.4133 -1.4097
   68MPD2     N 1064   2.987   4.633  14.120 -0.4487  0.1218 -0.2245
   68MPD2    H5 1065   2.924   4.576  14.065 -0.7112 -0.2307  0.4427
   68MPD2    N1 1066   3.292   4.588  14.503 -0.0134 -0.5370 -0.5926
   68MPD2    H7 1067   3.286   4.687  14.522  0.2987 -0.7633  0.6764
   69TMC2    C1 1068   4.738   0.956  12.012  0.1506  0.5444 -0.7378
   69TMC2    C2 1069   4.633   1.042  12.036  0.4059 -0.0021 -0.5791
   69TMC2    C3 1070   4.639   1.165  11.974  0.1055  0.2325  0.4028
   69TMC2    C4 1071   0.085   0.981  11.909  0.7506  0.3680 -0.7060
   69TMC2    C5 1072   0.088   1.107  11.854  0.1711 -0.1592 -0.8920
   69TMC2    C6 1073   4.739   1.201  11.884  0.7962  0.1662  0.3054
   69TMC2     C 1074   0.058   0.900  12.132  0.9104  0.3503  0.6561
   69TMC2     O 1075   4.717   0.875  12.219 -0.0096  0.1390  0.1819
   69TMC2     H 1076   4.560   1.019  12.112  0.1653  2.4358 -0.0709
   69TMC2    H1 1077   0.166   0.915  11.883  0.4218 -0.2029 -0.2856
   69TMC2    H2 1078   0.009   1.297  11.836 -0.1840 -0.7528 -1.7174
   69TMC2    C7 1079   0.223   1.151  11.865 -0.0352  0.9193  0.2210
   69TMC2    C8 1080   4.587   1.270  12.050  0.3580 -0.4470 -0.2485
   69TMC2    O1 1081   0.305   1.083  11.799 -0.0726  0.4587 -0.1736
   69TMC2    O2 1082   4.561   1.265  12.169  0.0463 -0.4408 -0.2707
   69TMC2    O5 1083   4.570   1.378  11.973  0.4386 -0.2085 -0.1825
   69TMC2    H5 1084   4.581   1.370  11.876 -0.8781  1.9414 -0.5015
   70MPD2     C 1085   0.412   0.885  12.225  0.0662 -0.0092 -0.5421
   70MPD2    C1 1086   0.275   0.869  12.240  0.2254 -0.0222 -0.0254
   70MPD2    C2 1087   0.230   0.808  12.351  0.1851  0.2734  0.0321
   70MPD2    C3 1088   0.318   0.780  12.455  0.4155 -0.6372  0.6535
   70MPD2    C4 1089   0.446   0.784  12.427 -0.2167 -0.3944 -0.1996
   70MPD2    C5 1090   0.494   0.833  12.317  0.5361  0.1922 -0.5593
   70MPD2     H 1091   0.123   0.796  12.365 -0.1994 -0.5710 -3.7646
   70MPD2    H1 1092   0.515   0.748  12.502  1.2028  1.5367 -0.5669
   70MPD2    H2 1093   0.463   0.927  12.138  0.9683  1.8769  0.8797
   70MPD2    H3 1094   0.602   0.835  12.302  0.5724 -0.8613 -0.4178
   70MPD2     N 1095   0.279   0.744  12.585  0.4960  0.0688 -0.0531
   70MPD2    H5 1096   0.360   0.733  12.645  0.4539 -2.0725 -0.3688
   70MPD2    N1 1097   0.200   0.910  12.131 -0.7363  0.0086 -0.4921
   70MPD2    H7 1098   0.253   0.942  12.051  1.7554 -2.3363  0.2119
   71TMC2    C1 1099   3.130   0.611   1.418  0.8356  0.3370 -0.5889
   71TMC2    C2 1100   3.224   0.676   1.496  0.2456 -0.4490  0.4847
   71TMC2    C3 1101   3.228   0.684   1.630  0.7242 -0.8137  0.3097
   71TMC2    C4 1102   3.024   0.560   1.492  0.5618  0.3415 -0.4288
   71TMC2    C5 1103   3.022   0.575   1.628 -0.2624 -0.4437  0.8851
   71TMC2    C6 1104   3.126   0.633   1.702  0.2417 -0.0056 -0.3037
   71TMC2     C 1105   3.144   0.606   1.271  0.0513  0.8485  0.6690
   71TMC2     O 1106   3.233   0.683   1.240 -0.1922 -0.2030  0.5980
   71TMC2     H 1107   3.315   0.703   1.445  0.5548 -0.2653  1.1307
   71TMC2    H1 1108   2.952   0.499   1.437  0.2263 -0.2107  0.6179
   71TMC2    H2 1109   3.110   0.630   1.809  0.6948  0.8387 -0.2054
   71TMC2    C7 1110   2.897   0.539   1.697  0.7178  0.4886  0.0710
   71TMC2    C8 1111   3.359   0.714   1.694 -0.4488 -1.4945  0.0082
   71TMC2    O1 1112   2.907   0.500   1.812 -0.1280 -0.0613  0.4804
   71TMC2    O2 1113   3.461   0.678   1.639 -0.0243  0.3818  0.7173
   71TMC2    O5 1114   3.335   0.712   1.828  0.7136 -0.3526  0.1012
   71TMC2    H5 1115   3.247   0.747   1.854 -0.0664 -0.0798 -2.9337
   72MPD2     C 1116   2.966   0.545   0.792  0.6323  0.2166 -0.1876
   72MPD2    C1 1117   3.090   0.595   0.837 -0.6882  0.4494  0.2879
   72MPD2    C2 1118   3.112   0.601   0.971 -0.1367  0.3752 -0.4106
   72MPD2    C3 1119   3.019   0.561   1.066  0.2135 -0.6266 -0.7355
   72MPD2    C4 1120   2.899   0.517   1.010  0.1327  0.2756 -0.7788
   72MPD2    C5 1121   2.869   0.508   0.878  0.3458 -0.3699 -0.3435
   72MPD2     H 1122   3.205   0.642   1.007  0.2559  0.6460 -1.7291
   72MPD2    H1 1123   2.818   0.488   1.077  0.4431 -1.8598 -1.3366
   72MPD2    H2 1124   2.937   0.532   0.689 -1.0960  2.6923 -0.0119
   72MPD2    H3 1125   2.769   0.476   0.852  0.0937  0.1995 -0.0791
   72MPD2     N 1126   3.030   0.566   1.202  0.4043 -0.1510  0.2306
   72MPD2    H5 1127   2.955   0.524   1.258 -0.9166  2.2121  0.2381
   72MPD2    N1 1128   3.196   0.643   0.748 -0.2228  0.0708  0.4621
   72MPD2    H7 1129   3.281   0.673   0.793 -0.2100  3.1424 -1.5846
   73TMC2    C1 1130   2.692   3.758  14.156 -0.3291  0.3480  0.2526
   73TMC2    C2 1131   2.709   3.887  14.111 -0.2759  0.3441  0.2601
   73TMC2    C3 1132   2.825   3.952  14.136  0.6299 -0.0406  0.0921
   73TMC2    C4 1133   2.792   3.695  14.224 -0.1697  0.3248  0.0749
   73TMC2    C5 1134   2.916   3.757  14.234  0.2484  0.1915 -0.2874
   73TMC2    C6 1135   2.936   3.888  14.197  0.1362 -0.3942  0.0500
   73TMC2     C 1136   2.661   3.657  14.053  0.6584 -1.0738 -0.6229
   73TMC2     O 1137   2.712   3.548  14.062  0.5860  0.0073  0.4938
   73TMC2     H 1138   2.626   3.937  14.062 -1.6239 -1.9786  0.1447
   73TMC2    H1 1139   2.782   3.596  14.265 -1.4100 -0.4978 -2.2332
   73TMC2    H2 1140   3.034   3.930  14.213 -0.8500  1.4073  1.3924
   73TMC2    C7 1141   3.029   3.664  14.237  0.4891  0.2801 -0.2463
   73TMC2    C8 1142   2.816   4.094  14.110  0.9337  0.7810 -0.0483
   73TMC2    O1 1143   3.140   3.695  14.283  0.3359  0.4850 -0.0846
   73TMC2    O2 1144   2.719   4.167  14.110  0.4570 -0.0186  0.3837
   73TMC2    O5 1145   2.948   4.132  14.105  0.5900 -0.7048 -0.0001
   73TMC2    H5 1146   3.022   4.067  14.101  2.5582  1.5032  0.8885
   74MPD2     C 1147   2.514   3.507  13.599  0.5955 -0.4603 -0.3783
   74MPD2    C1 1148   2.609   3.459  13.679 -0.3304  0.2072 -0.4146
   74MPD2    C2 1149   2.616   3.506  13.807  0.1177 -0.2257  0.3471
   74MPD2    C3 1150   2.538   3.612  13.849 -0.1695  0.0501  0.4073
   74MPD2    C4 1151   2.432   3.649  13.775  0.2072 -0.2458  0.4740
   74MPD2    C5 1152   2.416   3.590  13.649 -0.1404 -0.6784  0.2415
   74MPD2     H 1153   2.711   3.485  13.854  0.7589 -1.0728 -1.3301
   74MPD2    H1 1154   2.367   3.728  13.810 -1.8834 -1.4905 -0.5651
   74MPD2    H2 1155   2.503   3.477  13.495  0.5797 -0.0342 -0.4999
   74MPD2    H3 1156   2.329   3.616  13.590  1.4181  0.8900 -1.4032
   74MPD2     N 1157   2.570   3.697  13.958 -0.1180 -0.3954  0.1828
   74MPD2    H5 1158   2.523   3.783  13.985  0.5585 -0.0174  0.1650
   74MPD2    N1 1159   2.710   3.377  13.633 -0.2273  0.1092 -0.1387
   74MPD2    H7 1160   2.776   3.336  13.698 -0.4082 -0.6849 -0.4606
   75TMC2    C1 1161   2.840   0.084  14.089  0.5473 -0.8076  0.2540
   75TMC2    C2 1162   2.822   0.213  14.125  0.4512  0.6924  0.2602
   75TMC2    C3 1163   2.726   0.282  14.046 -0.7843  0.3327 -0.6146
   75TMC2    C4 1164   2.775   0.021  13.983 -0.0176  0.4195  0.3737
   75TMC2    C5 1165   2.694   0.100  13.909  0.1835 -0.6321  0.2453
   75TMC2    C6 1166   2.659   0.229  13.942  0.2193  0.4410 -0.0411
   75TMC2     C 1167   2.968   0.029  14.132  0.7396  0.8365 -0.1129
   75TMC2     O 1168   3.039   0.117  14.189  0.1347 -0.0068  0.4064
   75TMC2     H 1169   2.879   0.257  14.206  0.4062 -0.5781  0.9762
   75TMC2    H1 1170   2.783   4.656  13.956 -1.8656  0.1088  1.0633
   75TMC2    H2 1171   2.569   0.279  13.908 -0.1851 -0.2480  0.0227
   75TMC2    C7 1172   2.620   0.047  13.795  0.4369 -0.5881 -0.1665
   75TMC2    C8 1173   2.674   0.404  14.108 -0.4042  0.3550 -0.1632
   75TMC2    O1 1174   2.596   4.667  13.796 -0.5338  0.6356  0.0310
   75TMC2    O2 1175   2.666   0.514  14.052 -0.2837 -0.0769 -0.2886
   75TMC2    O5 1176   2.651   0.379  14.237  0.2742  0.7079 -0.4757
   75TMC2    H5 1177   2.651   0.282  14.250  0.3608  0.2976 -3.6186
   76TMC2    C1 1178   1.461   0.089  11.954  0.0160 -0.2120  0.1644
   76TMC2    C2 1179   1.540   0.147  11.864  0.0717 -0.1257 -0.1056
   76TMC2    C3 1180   1.664   0.101  11.867  0.0801 -0.3004 -0.1263
   76TMC2    C4 1181   1.493   4.719  12.035 -0.0252  0.5569 -0.3238
   76TMC2    C5 1182   1.623   4.671  12.024 -0.4897 -0.6029 -0.1072
   76TMC2    C6 1183   1.712   4.734  11.941  0.2418  0.0977 -0.8923
   76TMC2     C 1184   1.328   0.151  11.959  0.5495 -0.2876  0.4074
   76TMC2     O 1185   1.291   0.222  11.866  0.4128 -0.0062  0.4112
   76TMC2     H 1186   1.519   0.237  11.808 -1.7919 -1.2556 -1.2351
   76TMC2    H1 1187   1.424   4.677  12.108  0.3980  1.1577  0.4120
   76TMC2    H2 1188   1.814   4.703  11.924  0.9498  1.9364 -0.0735
   76TMC2    C7 1189   1.653   4.552  12.090  0.3907 -0.4105 -0.4656
   76TMC2    C8 1190   1.755   0.158  11.770 -0.5589  0.6411 -0.0695
   76TMC2    O1 1191   1.557   4.472  12.103 -0.1418 -0.0532  0.2007
   76TMC2    O2 1192   1.703   0.203  11.665 -0.0366  0.5754  0.3298
   76TMC2    O5 1193   1.860   0.209  11.841 -0.1579  0.0156 -0.1267
   76TMC2    H5 1194   1.858   0.206  11.939 -1.1519 -1.8705 -0.2130
   77MPD2     C 1195   1.050   0.452  12.265  0.0382  0.0314  0.1067
   77MPD2    C1 1196   1.108   0.474  12.142  0.1033  0.4889  0.1386
   77MPD2    C2 1197   1.184   0.377  12.076  0.4069  0.3583  0.0448
   77MPD2    C3 1198   1.221   0.263  12.149  0.3445  0.1229 -0.0262
   77MPD2    C4 1199   1.159   0.247  12.273  0.7299  0.3108  0.0153
   77MPD2    C5 1200   1.071   0.335  12.329  0.6129 -0.5667  0.5935
   77MPD2     H 1201   1.226   0.403  11.979  2.2545 -0.0742  0.7342
   77MPD2    H1 1202   1.183   0.158  12.330 -2.4036  0.0910  0.9847
   77MPD2    H2 1203   0.993   0.523  12.323 -1.1785 -0.8015 -0.0786
   77MPD2    H3 1204   1.034   0.311  12.428 -2.3053  0.3405 -0.2950
   77MPD2     N 1205   1.299   0.157  12.097 -0.1329  0.3098  0.4274
   77MPD2    H5 1206   1.321   0.074  12.151  2.5322  1.4926  1.1250
   77MPD2    N1 1207   1.082   0.597  12.076 -0.0910  0.1453 -0.4972
   77MPD2    H7 1208   1.124   0.611  11.984  0.0988 -1.7695 -0.6876
   78TMC2    C1 1209   3.698   0.304   1.605  0.1166 -0.4251  0.6332
   78TMC2    C2 1210   3.661   0.405   1.688  0.3531  0.2150  0.5353
   78TMC2    C3 1211   3.749   0.512   1.693 -0.1484  0.2290  0.3208
   78TMC2    C4 1212   3.815   0.303   1.536 -0.5532 -0.1480 -0.0265
   78TMC2    C5 1213   3.897   0.417   1.540 -0.4416 -0.0269 -0.5424
   78TMC2    C6 1214   3.858   0.520   1.614 -0.9468  0.2144 -0.0799
   78TMC2     C 1215   3.618   0.184   1.620  0.3110  0.8161 -1.0320
   78TMC2     O 1216   3.528   0.196   1.705 -0.1426 -0.0058 -0.0431
   78TMC2     H 1217   3.564   0.410   1.737 -0.2796 -1.6341 -0.5253
   78TMC2    H1 1218   3.836   0.220   1.469 -0.7874 -0.4561  0.2820
   78TMC2    H2 1219   3.932   0.600   1.615  0.1227 -0.7705 -0.0161
   78TMC2    C7 1220   4.035   0.415   1.497  0.0554 -0.3839  0.5098
   78TMC2    C8 1221   3.735   0.610   1.797  0.0594  0.6547  0.3526
   78TMC2    O1 1222   4.095   0.518   1.482  0.1640 -0.3226 -0.4953
   78TMC2    O2 1223   3.800   0.713   1.800  0.2525  0.2114 -0.0428
   78TMC2    O5 1224   3.711   0.537   1.905  0.4076  0.3804 -0.3115
   78TMC2    H5 1225   3.687   0.443   1.894 -1.2919  0.7143  0.5051
   79MPD1     C 1226   3.486   4.438   1.508 -0.2266  0.2355  0.1503
   79MPD1    C1 1227   3.415   4.538   1.565 -0.2023 -0.1294 -0.4227
   79MPD1    C2 1228   3.471   4.664   1.587  0.2890  0.0506 -0.1870
   79MPD1    C3 1229   3.595   4.686   1.535  0.9130 -0.0662 -0.2067
   79MPD1    C4 1230   3.670   4.590   1.471  0.1292 -0.3191 -0.8927
   79MPD1    C5 1231   3.617   4.465   1.464 -0.5916 -0.3966 -0.6389
   79MPD1     H 1232   3.411   0.002   1.632 -1.4031 -1.1581 -0.3578
   79MPD1    H1 1233   3.771   4.615   1.443 -0.6559  2.4553 -1.3332
   79MPD1    H2 1234   3.449   4.337   1.501 -1.6710  0.8524 -1.1531
   79MPD1    H3 1235   3.671   4.388   1.410  2.2878  0.6408  0.7506
   79MPD1     N 1236   3.660   0.072   1.544  1.0722 -0.0167 -0.2164
   79MPD1    H5 1237   3.742   0.088   1.485  0.7909  0.8259 -0.3873
   79MPD1    N1 1238   3.294   4.502   1.629 -0.4682 -0.0079  0.4920
   79MPD1    H6 1239   3.250   4.419   1.590  0.3669 -0.2455  0.0527
   79MPD1    H7 1240   3.233   4.582   1.650  0.5881  1.0953 -0.6380
   80TMC2    C1 1241   1.073   4.544  12.019 -0.2798  0.4426 -0.0380
   80TMC2    C2 1242   1.184   4.517  11.943  1.0743 -0.1944  0.0131
   80TMC2    C3 1243   1.173   4.542  11.804 -0.1523 -0.0175 -0.1588
   80TMC2    C4 1244   0.954   4.588  11.965 -0.3029  0.6020 -0.0971
   80TMC2    C5 1245   0.946   4.610  11.832  0.5018 -0.1696  0.6525
   80TMC2    C6 1246   1.051   4.591  11.749  0.0343 -0.0256 -0.1512
   80TMC2     C 1247   1.081   4.546  12.162  0.1617 -0.2378 -0.4694
   80TMC2     O 1248   1.188   4.507  12.209 -0.4151  0.3943  0.5080
   80TMC2     H 1249   1.276   4.484  11.991  1.3559  0.8890  0.2083
   80TMC2    H1 1250   0.869   4.619  12.025  0.9066  1.4191  1.1912
   80TMC2    H2 1251   1.040   4.611  11.643  1.3785 -0.1115 -0.3107
   80TMC2    C7 1252   0.818   4.576  11.772 -0.9433 -0.4682  0.3284
   80TMC2    C8 1253   1.290   4.510  11.729  1.1601 -0.2285  0.0090
   80TMC2    O1 1254   0.795   4.619  11.659 -1.0287  0.3441 -0.9303
   80TMC2    O2 1255   1.379   4.438  11.771  0.3344  0.2613  0.3794
   80TMC2    O5 1256   1.286   4.568  11.608  0.1511  0.4178  0.3457
   80TMC2    H5 1257   1.220   4.640  11.620 -0.2034  0.2512 -0.6635
   81MPD2     C 1258   1.019   4.501  12.443 -0.3007 -0.2829  0.5955
   81MPD2    C1 1259   0.951   4.599  12.366  0.0761  0.2270  0.8262
   81MPD2    C2 1260   0.852   4.678  12.421 -0.3051  0.1025  0.3978
   81MPD2    C3 1261   0.817   4.656  12.555  0.1840  0.0737  0.1867
   81MPD2    C4 1262   0.877   4.557  12.628  0.5691 -0.0745  0.0017
   81MPD2    C5 1263   0.983   4.483  12.575  0.3874  0.6503 -0.2296
   81MPD2     H 1264   0.808   0.022  12.369  1.5357  0.4769 -0.5527
   81MPD2    H1 1265   0.842   4.559  12.730  0.1259  1.4346 -0.1905
   81MPD2    H2 1266   1.099   4.437  12.407 -0.5799  0.4879 -1.3963
   81MPD2    H3 1267   1.029   4.404  12.632  2.2633  1.8125 -0.1424
   81MPD2     N 1268   0.719   4.729  12.638  0.1350  0.3343 -0.1084
   81MPD2    H5 1269   0.686   4.691  12.726 -0.3149  0.2483 -0.3126
   81MPD2    N1 1270   0.981   4.615  12.230  0.3131  0.4764  0.0282
   81MPD2    H7 1271   0.927   4.680  12.172 -1.4567 -1.8956 -0.9709
   82TMC2    C1 1272   3.412   3.949  10.879 -0.2889  0.0359  0.2445
   82TMC2    C2 1273   3.543   3.982  10.885 -0.0908 -0.5148 -0.0732
   82TMC2    C3 1274   3.620   3.899  10.957  0.1712  0.6583 -0.3203
   82TMC2    C4 1275   3.351   3.848  10.945  0.1369  0.5132  0.0847
   82TMC2    C5 1276   3.428   3.769  11.026 -0.2592 -0.5068  0.9956
   82TMC2    C6 1277   3.562   3.793  11.032 -0.2753 -0.3240  0.0237
   82TMC2     C 1278   3.327   4.016  10.772 -0.2568 -0.2736  0.3835
   82TMC2     O 1279   3.206   4.023  10.795 -0.0749 -0.0654  0.2226
   82TMC2     H 1280   3.583   4.081  10.867 -0.3134 -0.3053  0.5761
   82TMC2    H1 1281   3.243   3.841  10.939 -0.0693  2.6467  1.1504
   82TMC2    H2 1282   3.627   3.741  11.102 -0.7519 -1.4094 -0.3311
   82TMC2    C7 1283   3.366   3.681  11.118 -0.4258 -0.2179  0.2399
   82TMC2    C8 1284   3.759   3.934  10.963 -0.6085 -0.3717  0.1535
   82TMC2    O1 1285   3.441   3.629  11.195  0.6863 -0.1576  0.1608
   82TMC2    O2 1286   3.809   4.012  10.877 -0.1823 -0.0669  0.9753
   82TMC2    O5 1287   3.837   3.850  11.042  0.1584  0.5163 -0.8008
   82TMC2    H5 1288   3.800   3.794  11.113 -1.5851 -0.7088 -2.6471
   83MPD2     C 1289   3.242   4.271  10.344  0.0434  0.1211 -0.2639
   83MPD2    C1 1290   3.172   4.167  10.396  0.2000  0.8913  0.2952
   83MPD2    C2 1291   3.215   4.107  10.517 -0.1380  0.3485  0.2979
   83MPD2    C3 1292   3.345   4.133  10.569 -0.1435  0.3405 -1.0882
   83MPD2    C4 1293   3.428   4.224  10.499  0.6675 -0.1809 -0.1330
   83MPD2    C5 1294   3.372   4.290  10.392  0.3140  0.1291  0.1439
   83MPD2     H 1295   3.154   4.027  10.558 -0.2926 -0.3730 -1.3379
   83MPD2    H1 1296   3.528   4.240  10.540  0.5308 -0.5157  0.3342
   83MPD2    H2 1297   3.210   4.337  10.265  1.9741  0.0230 -1.1435
   83MPD2    H3 1298   3.434   4.368  10.349  0.9638 -0.0302  0.7883
   83MPD2     N 1299   3.404   4.072  10.676 -0.0298 -1.2637  0.5643
   83MPD2    H5 1300   3.505   4.079  10.690 -0.3799  1.6196  1.6093
   83MPD2    N1 1301   3.044   4.143  10.336  0.1618 -0.4974  0.6534
   83MPD2    H7 1302   3.016   4.223  10.280 -1.8849 -2.1273 -0.6694
   84TMC2    C1 1303   0.281   3.287  11.309 -0.2564 -0.1241 -0.2665
   84TMC2    C2 1304   0.326   3.181  11.386  0.0702 -0.0031 -0.1642
   84TMC2    C3 1305   0.451   3.144  11.351  0.3701 -0.2787  0.3379
   84TMC2    C4 1306   0.362   3.357  11.224 -0.1936  0.5369  0.4075
   84TMC2    C5 1307   0.483   3.308  11.189 -0.3237  0.5828 -0.3755
   84TMC2    C6 1308   0.529   3.192  11.246  0.2346 -0.0082  0.5353
   84TMC2     C 1309   0.142   3.281  11.272  0.0298  1.1167 -0.7310
   84TMC2     O 1310   0.061   3.270  11.365 -0.1228  0.1365 -1.0138
   84TMC2     H 1311   0.255   3.126  11.447 -0.1042 -1.0623 -1.3177
   84TMC2    H1 1312   0.331   3.445  11.169 -0.0226  2.1432  2.8506
   84TMC2    H2 1313   0.609   3.132  11.204 -0.6056  0.4076 -1.6545
   84TMC2    C7 1314   0.475   3.280  11.050  0.1202 -0.2034  0.3330
   84TMC2    C8 1315   0.526   3.060  11.448 -0.1807  0.2629  0.7468
   84TMC2    O1 1316   0.371   3.238  11.011 -0.1822  0.1836 -0.1784
   84TMC2    O2 1317   0.636   3.027  11.409  0.5561 -0.1010 -0.0338
   84TMC2    O5 1318   0.470   3.088  11.570 -0.1178  0.1314 -0.1501
   84TMC2    H5 1319   0.375   3.113  11.573 -0.5580 -1.5668 -0.2239
   85TMC2    C1 1320   0.933   2.004  16.226  0.4125  0.0096 -0.2958
   85TMC2    C2 1321   0.830   1.983  16.141 -0.1704  0.1552 -0.5230
   85TMC2    C3 1322   0.833   2.039  16.017  0.0639  0.3799  0.5272
   85TMC2    C4 1323   1.036   2.091  16.190  0.2580 -0.6576  0.2041
   85TMC2    C5 1324   1.028   2.154  16.069  0.1239 -0.4735 -0.0597
   85TMC2    C6 1325   0.929   2.125  15.980 -0.3763  0.0322  0.6056
   85TMC2     C 1326   0.945   1.935  16.357  0.7571  0.3400  0.5828
   85TMC2     O 1327   1.010   1.995  16.445 -0.3716  0.2090 -0.6695
   85TMC2     H 1328   0.750   1.912  16.161  0.9781 -0.8943  0.3932
   85TMC2    H1 1329   1.132   2.096  16.240  0.2904  1.5135 -0.0903
   85TMC2    H2 1330   0.915   2.174  15.884  0.1894  0.4041  0.7146
   85TMC2    C7 1331   1.126   2.247  16.017 -0.4205 -0.0578 -0.2917
   85TMC2    C8 1332   0.708   2.040  15.942  0.4180  0.4622  0.1029
   85TMC2    O1 1333   1.101   2.300  15.907 -0.2569 -0.1631  0.0072
   85TMC2    O2 1334   0.698   2.061  15.821  0.6912 -0.0238 -0.6765
   85TMC2    O5 1335   0.602   2.055  16.024 -0.2251 -0.1252  0.0504
   85TMC2    H5 1336   0.614   2.062  16.121  2.0992 -0.2339 -0.2288
   86MPD2     C 1337   0.903   1.538  16.670  0.1590  0.2161  0.2628
   86MPD2    C1 1338   0.820   1.508  16.566  0.6909 -0.7133 -0.3502
   86MPD2    C2 1339   0.812   1.609  16.468  0.1248  0.4297 -0.1208
   86MPD2    C3 1340   0.885   1.731  16.470 -0.5780  0.2229  0.1011
   86MPD2    C4 1341   0.971   1.751  16.578  0.0261  0.0385  0.0112
   86MPD2    C5 1342   0.973   1.655  16.681 -0.5809 -0.2770  0.2949
   86MPD2     H 1343   0.757   1.584  16.378 -1.2314 -0.6876  1.0305
   86MPD2    H1 1344   1.040   1.833  16.592  0.1936  0.2073 -1.8654
   86MPD2    H2 1345   0.920   1.464  16.748 -1.9216  1.0920  1.5414
   86MPD2    H3 1346   1.039   1.663  16.767 -1.5012  0.0392  0.9762
   86MPD2     N 1347   0.867   1.823  16.372 -0.3327 -0.4575 -0.5939
   86MPD2    H5 1348   0.807   1.784  16.299 -0.3240 -0.6645 -0.4917
   86MPD2    N1 1349   0.743   1.393  16.553  0.5372  0.3823  0.0060
   86MPD2    H7 1350   0.676   1.382  16.478 -0.7465 -2.4006  1.5380
   87TMC2    C1 1351   4.310   4.219   1.008  0.4511 -0.2754  0.7447
   87TMC2    C2 1352   4.376   4.166   1.111 -0.4663 -0.2640 -0.4983
   87TMC2    C3 1353   4.440   4.252   1.197 -0.3212  0.4892 -0.6777
   87TMC2    C4 1354   4.311   4.354   0.983  0.8475  0.2859  0.1200
   87TMC2    C5 1355   4.390   4.435   1.062 -0.0948  0.1455  0.1197
   87TMC2    C6 1356   4.450   4.385   1.172 -0.1271 -0.2065 -0.4487
   87TMC2     C 1357   4.202   4.147   0.949 -0.2079 -0.3951  0.5428
   87TMC2     O 1358   4.174   4.181   0.839 -0.2362 -0.0178 -0.0295
   87TMC2     H 1359   4.380   4.060   1.137 -1.1961 -0.3743 -0.8393
   87TMC2    H1 1360   4.265   4.396   0.894 -1.6770 -0.5956  1.0215
   87TMC2    H2 1361   4.487   4.448   1.251 -0.1953 -0.4961 -0.1875
   87TMC2    C7 1362   4.353   4.566   1.064 -0.1098 -0.5261  0.1559
   87TMC2    C8 1363   4.520   4.192   1.302  0.1065  0.5395  0.7713
   87TMC2    O1 1364   4.230   4.587   1.066  0.2148 -0.1719 -0.0179
   87TMC2    O2 1365   4.639   4.211   1.320  0.7849 -0.2827 -0.4808
   87TMC2    O5 1366   4.448   4.095   1.363 -0.4009 -0.0161 -0.0950
   87TMC2    H5 1367   4.357   4.086   1.328 -0.4663  1.0384 -0.1923
   88MPD2     C 1368   4.572   0.128   1.069 -0.2975  0.0832 -0.5539
   88MPD2    C1 1369   4.452   0.057   1.066  0.0793 -0.0546 -0.1721
   88MPD2    C2 1370   4.329   0.121   1.064  0.2996 -0.8911 -0.1253
   88MPD2    C3 1371   4.325   0.261   1.081 -0.0105 -0.5303 -0.1890
   88MPD2    C4 1372   4.442   0.329   1.090 -0.2354 -0.1469  0.8582
   88MPD2    C5 1373   4.561   0.263   1.084  0.4229 -0.7212 -0.1646
   88MPD2     H 1374   4.229   0.081   1.058 -0.1095  0.4792 -2.5605
   88MPD2    H1 1375   4.434   0.436   1.102 -0.4897 -0.0568 -0.1660
   88MPD2    H2 1376   4.669   0.080   1.073 -1.0346 -1.3888 -0.0639
   88MPD2    H3 1377   4.656   0.314   1.093  0.2181 -0.1769 -1.1663
   88MPD2     N 1378   4.208   0.341   1.077  0.2016 -0.2887 -0.5853
   88MPD2    H5 1379   4.216   0.442   1.078  1.1042 -0.3959  1.8066
   88MPD2    N1 1380   4.464   4.653   1.082  0.4327  0.6241 -0.2399
   88MPD2    H7 1381   4.560   4.621   1.092  0.0729  0.5672  2.9694
   89TMC2    C1 1382   4.243   2.603   1.377 -0.4368 -0.2968 -0.6262
   89TMC2    C2 1383   4.217   2.605   1.514  0.1576  0.2009 -0.1603
   89TMC2    C3 1384   4.164   2.721   1.562 -0.3404  0.0735  0.5495
   89TMC2    C4 1385   4.211   2.707   1.293 -0.9379 -0.0991 -0.5047
   89TMC2    C5 1386   4.149   2.810   1.348  0.4470 -0.0858 -0.0772
   89TMC2    C6 1387   4.128   2.825   1.481 -0.1084 -0.2787 -0.4160
   89TMC2     C 1388   4.289   2.475   1.323  1.1648  1.0672 -0.5511
   89TMC2     O 1389   4.246   2.375   1.380 -0.4913  0.7297  0.1586
   89TMC2     H 1390   4.268   2.533   1.578  1.1568  0.5441 -0.5604
   89TMC2    H1 1391   4.219   2.687   1.187  1.2371  0.3432 -0.4176
   89TMC2    H2 1392   4.078   2.909   1.529 -1.6152  0.0070 -2.4800
   89TMC2    C7 1393   4.079   2.901   1.258  0.4313 -0.3878 -0.1913
   89TMC2    C8 1394   4.213   2.761   1.690 -1.0433 -0.4236 -0.5520
   89TMC2    O1 1395   3.970   2.946   1.291  0.0720  0.0876  0.1198
   89TMC2    O2 1396   4.305   2.845   1.692 -0.8182  0.3912 -0.2735
   89TMC2    O5 1397   4.192   2.658   1.769 -0.2591  0.5382  0.2486
   89TMC2    H5 1398   4.114   2.602   1.747 -0.1920  0.3144  0.5674
   90MPD2     C 1399   4.452   2.197   0.921  0.2781 -0.1680 -0.5688
   90MPD2    C1 1400   4.373   2.163   1.030  0.1500 -0.1925  0.3996
   90MPD2    C2 1401   4.347   2.259   1.127 -0.3906 -0.1830 -0.1708
   90MPD2    C3 1402   4.404   2.386   1.120  0.3878 -0.6399 -0.3150
   90MPD2    C4 1403   4.493   2.415   1.015 -0.7037  0.1290 -0.3816
   90MPD2    C5 1404   4.520   2.318   0.923  0.7704 -0.7622  0.3510
   90MPD2     H 1405   4.276   2.229   1.203 -2.8730 -0.5840 -2.6482
   90MPD2    H1 1406   4.550   2.507   1.014  0.1836 -0.4093  1.8311
   90MPD2    H2 1407   4.484   2.123   0.848 -0.0714 -0.3458 -0.5440
   90MPD2    H3 1408   4.598   2.349   0.854 -0.4880  1.7988  0.0709
   90MPD2     N 1409   4.372   2.484   1.214  0.0257  0.3137  0.1498
   90MPD2    H5 1410   4.396   2.578   1.184  1.9681 -0.1093  0.3666
   90MPD2    N1 1411   4.311   2.038   1.051 -0.4319 -0.8937 -0.7336
   90MPD2    H7 1412   4.275   2.028   1.145  0.4383 -2.2391 -0.5436
   91TMC2    C1 1413   0.770   2.512  15.865  0.9929 -0.1898 -0.6052
   91TMC2    C2 1414   0.846   2.487  15.978 -0.2492  0.0212  0.6784
   91TMC2    C3 1415   0.765   2.453  16.084 -0.3707  0.7132  0.5364
   91TMC2    C4 1416   0.631   2.495  15.851  0.6659  0.0306  0.3767
   91TMC2    C5 1417   0.569   2.444  15.960 -0.2119 -0.5506  0.6057
   91TMC2    C6 1418   0.630   2.422  16.077  0.6981 -0.4614 -0.0152
   91TMC2     C 1419   0.828   2.573  15.755  0.0003 -0.4378  0.0748
   91TMC2     O 1420   0.778   2.564  15.645 -0.5698  0.8928  0.1143
   91TMC2     H 1421   0.955   2.485  15.975 -0.3073 -1.4494 -0.1675
   91TMC2    H1 1422   0.590   2.479  15.751 -0.9963  0.8684  0.9356
   91TMC2    H2 1423   0.573   2.385  16.161  0.1101 -2.5009 -1.3091
   91TMC2    C7 1424   0.420   2.421  15.960 -0.4649 -0.7404  0.6421
   91TMC2    C8 1425   0.836   2.394  16.200  0.1748 -0.3739  0.3250
   91TMC2    O1 1426   0.382   2.349  16.048 -0.3985  0.3704 -1.0675
   91TMC2    O2 1427   0.780   2.327  16.288 -0.5465  0.6028  0.3990
   91TMC2    O5 1428   0.958   2.450  16.206  0.2826 -0.4606  0.6769
   91TMC2    H5 1429   0.969   2.539  16.165 -0.0303 -1.0537 -0.7035
   92MPD2     C 1430   1.043   2.653  15.557 -0.0639  0.0019 -0.5991
   92MPD2    C1 1431   1.052   2.677  15.692 -0.5664 -0.1436  0.1487
   92MPD2    C2 1432   1.168   2.736  15.745  0.1840  0.0080 -0.2168
   92MPD2    C3 1433   1.275   2.769  15.662  0.5695 -0.2695  0.2955
   92MPD2    C4 1434   1.266   2.739  15.530  0.2136 -0.0183  0.4768
   92MPD2    C5 1435   1.153   2.684  15.481 -0.2112 -0.8082 -0.0206
   92MPD2     H 1436   1.173   2.738  15.854 -0.6736 -1.4089 -0.1486
   92MPD2    H1 1437   1.351   2.756  15.466 -0.1010 -0.3095 -0.0194
   92MPD2    H2 1438   0.953   2.617  15.509 -0.9667  0.7761  0.4993
   92MPD2    H3 1439   1.152   2.666  15.374 -0.6936 -0.1247 -0.1363
   92MPD2     N 1440   1.398   2.828  15.715 -0.3034 -0.3133 -0.5378
   92MPD2    H5 1441   1.477   2.826  15.651  0.1004 -1.3941 -0.0087
   92MPD2    N1 1442   0.950   2.644  15.781 -0.6074 -0.7302 -0.0210
   92MPD2    H7 1443   0.974   2.654  15.879  0.2003 -0.0751 -0.2835
   93TMC2    C1 1444   3.065   1.878  13.141  0.2569  0.5849  0.1171
   93TMC2    C2 1445   3.005   1.946  13.040  0.5120 -0.6239 -0.8558
   93TMC2    C3 1446   3.061   2.068  13.010 -0.1433 -0.3776 -0.3517
   93TMC2    C4 1447   3.184   1.900  13.199  0.3346  0.9130 -0.1183
   93TMC2    C5 1448   3.226   2.029  13.170  0.1313  0.6379  0.3495
   93TMC2    C6 1449   3.167   2.116  13.086  0.3350  0.2326  1.0018
   93TMC2     C 1450   2.979   1.775  13.209  0.6057 -0.1843  0.0181
   93TMC2     O 1451   3.032   1.683  13.264  0.4355  0.3903 -0.1726
   93TMC2     H 1452   2.902   1.922  13.017  0.2155 -0.5336  0.3814
   93TMC2    H1 1453   3.222   1.856  13.289 -0.4719  0.8251  0.1827
   93TMC2    H2 1454   3.204   2.216  13.067  0.7580  0.2906  2.1581
   93TMC2    C7 1455   3.298   2.089  13.278 -0.5768 -0.7207 -0.5971
   93TMC2    C8 1456   3.017   2.161  12.908  0.4307 -0.0333 -0.0154
   93TMC2    O1 1457   3.396   2.028  13.319  0.0411 -0.2583  0.1726
   93TMC2    O2 1458   2.998   2.277  12.925  0.0838  0.0542 -0.0974
   93TMC2    O5 1459   2.969   2.081  12.811 -0.0288  0.3580 -0.4087
   93TMC2    H5 1460   3.013   1.994  12.806  4.0740  2.5060 -1.7910
   94MPD2     C 1461   2.734   1.617  13.318 -0.3160 -0.3013  0.5557
   94MPD2    C1 1462   2.753   1.752  13.309 -0.7559  0.7305 -0.4024
   94MPD2    C2 1463   2.652   1.832  13.360  0.2763  0.1304 -0.4219
   94MPD2    C3 1464   2.539   1.787  13.434  0.7575 -0.7272 -0.7251
   94MPD2    C4 1465   2.529   1.649  13.438 -0.0872 -0.4843 -0.4280
   94MPD2    C5 1466   2.626   1.568  13.382  0.5833  0.1921 -0.9551
   94MPD2     H 1467   2.687   1.934  13.370 -0.1541  0.2002  0.3326
   94MPD2    H1 1468   2.444   1.594  13.477  1.2062 -0.0364  3.0653
   94MPD2    H2 1469   2.808   1.552  13.272 -0.8515  0.9689 -2.1184
   94MPD2    H3 1470   2.604   1.461  13.380 -1.5998  0.6280 -0.4719
   94MPD2     N 1471   2.447   1.868  13.500  0.2607  0.4358 -0.1949
   94MPD2    H5 1472   2.362   1.832  13.540  0.8965 -0.1907  0.5941
   94MPD2    N1 1473   2.861   1.827  13.254  0.0498  0.3586 -0.4051
   94MPD2    H7 1474   2.841   1.924  13.230 -3.0980 -0.0618  0.5630
   95TMC2    C1 1475   3.350   0.005  15.486  0.6099  0.3286 -0.9750
   95TMC2    C2 1476   3.225   4.704  15.513  1.1688  0.3706  0.2610
   95TMC2    C3 1477   3.207   4.626  15.625  0.1560  0.2639  0.0136
   95TMC2    C4 1478   3.459   4.721  15.569  0.3772 -0.3991 -1.0823
   95TMC2    C5 1479   3.441   4.640  15.677  0.0302 -0.3920  0.6037
   95TMC2    C6 1480   3.311   4.595  15.710 -0.4793 -0.4725 -0.0932
   95TMC2     C 1481   3.358   0.088  15.366  0.8824  1.0931  0.3877
   95TMC2     O 1482   3.268   0.092  15.282  0.1504 -0.4559  0.0246
   95TMC2     H 1483   3.140   4.736  15.455 -0.8112 -3.1363  1.2667
   95TMC2    H1 1484   3.554   0.030  15.553  0.8642 -0.7818  0.6173
   95TMC2    H2 1485   3.287   4.538  15.799 -0.3240 -1.6441 -0.7961
   95TMC2    C7 1486   3.564   4.587  15.736 -0.8768 -0.0028  0.4133
   95TMC2    C8 1487   3.076   4.592  15.662  0.6839 -0.2563  0.4558
   95TMC2    O1 1488   3.667   4.607  15.674 -0.6132 -0.1851  0.3851
   95TMC2    O2 1489   2.983   4.666  15.640 -0.0839  0.1331  0.2040
   95TMC2    O5 1490   3.071   4.460  15.666  0.2773 -0.0138 -0.3190
   95TMC2    H5 1491   3.155   4.409  15.667 -0.3362 -1.0143  0.0427
   96MPD2     C 1492   3.638   0.419  15.076 -0.4477  0.1372 -0.0087
   96MPD2    C1 1493   3.504   0.383  15.066  0.0931 -0.7071 -0.2898
   96MPD2    C2 1494   3.448   0.284  15.147 -0.1851 -0.2631 -0.3608
   96MPD2    C3 1495   3.530   0.228  15.250 -0.5582  0.4925 -1.3593
   96MPD2    C4 1496   3.661   0.270  15.269 -0.4232 -0.2749  0.4707
   96MPD2    C5 1497   3.712   0.361  15.179 -0.1251  0.4430 -0.1206
   96MPD2     H 1498   3.341   0.267  15.146  0.3665 -3.6710 -0.1714
   96MPD2    H1 1499   3.724   0.227  15.346  1.1900  0.5106 -0.3931
   96MPD2    H2 1500   3.681   0.500  15.017 -2.7253 -0.7258 -2.8615
   96MPD2    H3 1501   3.813   0.400  15.189  1.2785 -3.3490  0.5108
   96MPD2     N 1502   3.479   0.146  15.355 -0.4020 -0.5612 -0.5755
   96MPD2    H5 1503   3.539   0.122  15.433  1.2929  0.4431 -1.5937
   96MPD2    N1 1504   3.422   0.459  14.983 -0.0635 -0.4141 -0.4437
   96MPD2    H7 1505   3.474   0.527  14.928 -1.7698 -1.0981 -2.9206
   97TMC2    C1 1506   0.381   2.316  17.402 -0.0652  0.2691  0.1644
   97TMC2    C2 1507   0.297   2.314  17.291 -0.5874 -0.7884 -0.0098
   97TMC2    C3 1508   0.294   2.425  17.208 -0.6207 -0.0316  0.0406
   97TMC2    C4 1509   0.471   2.416  17.416  0.7207  0.2896  0.8120
   97TMC2    C5 1510   0.462   2.517  17.328 -0.0073 -0.6333 -0.1305
   97TMC2    C6 1511   0.366   2.532  17.231  0.2097  0.3214 -0.4263
   97TMC2     C 1512   0.348   2.277  17.536  0.0907 -0.1326 -0.4836
   97TMC2     O 1513   0.438   2.267  17.615  0.0940  0.5054  0.2584
   97TMC2     H 1514   0.228   2.231  17.283 -0.3669 -1.0250  0.5826
   97TMC2    H1 1515   0.531   2.422  17.506 -1.0438  1.1100  1.9620
   97TMC2    H2 1516   0.362   2.626  17.177  1.6123  0.3499 -0.4843
   97TMC2    C7 1517   0.525   2.635  17.378  0.4478 -0.1558  0.1621
   97TMC2    C8 1518   0.188   2.439  17.110  0.4866  0.3127 -0.1900
   97TMC2    O1 1519   0.552   2.634  17.501  0.3062  0.5673  0.2153
   97TMC2    O2 1520   0.208   2.528  17.028 -0.1873 -0.7232 -0.2723
   97TMC2    O5 1521   0.073   2.434  17.184  0.4481 -0.2992 -0.1052
   97TMC2    H5 1522   0.065   2.362  17.249 -2.0897  0.1153  0.0656
   98MPD2     C 1523   0.043   2.298   0.173  0.1221 -0.9867 -0.6942
   98MPD2    C1 1524   0.185   2.314   0.163  0.2235  0.3216 -0.1534
   98MPD2    C2 1525   0.239   2.311   0.043  0.1259 -0.6283 -0.0466
   98MPD2    C3 1526   0.158   2.287  17.691  0.1948  0.0745 -0.0406
   98MPD2    C4 1527   0.021   2.268  17.701  0.0557  0.2895  0.0452
   98MPD2    C5 1528   4.703   2.270   0.063  0.1404 -0.7210  0.2804
   98MPD2     H 1529   0.346   2.326   0.046 -0.3447  2.4185  1.2014
   98MPD2    H1 1530   4.703   2.266  17.609  2.7116  1.1402 -1.6540
   98MPD2    H2 1531   4.731   2.313   0.267 -0.2787  0.2547 -1.1182
   98MPD2    H3 1532   4.596   2.268   0.074  0.2268 -1.5718  0.9445
   98MPD2     N 1533   0.215   2.283  17.562  0.0416  0.0936  0.7104
   98MPD2    H5 1534   0.153   2.276  17.482  0.2306 -1.5405  0.7078
   98MPD2    N1 1535   0.257   2.318   0.284 -0.6967  0.1653 -0.4012
   98MPD2    H7 1536   0.202   2.322   0.369 -0.1301 -0.0739 -0.0300
   99TMC2    C1 1537   4.212   3.246   1.400  0.9993 -0.3591  0.2034
   99TMC2    C2 1538   4.323   3.190   1.447 -0.4150 -0.2926 -0.5108
   99TMC2    C3 1539   4.322   3.144   1.578  0.1019  1.2198  0.7988
   99TMC2    C4 1540   4.094   3.245   1.468  0.1916  0.6073  0.1030
   99TMC2    C5 1541   4.095   3.197   1.597 -0.5458  0.4654  0.2031
   99TMC2    C6 1542   4.208   3.146   1.656  0.8647  0.1577  0.4188
   99TMC2     C 1543   4.235   3.313   1.267  0.4005  0.0512 -0.4276
   99TMC2     O 1544   4.353   3.332   1.247  0.3204  0.0462 -0.3539
   99TMC2     H 1545   4.418   3.186   1.395 -0.1750 -0.6792 -0.0495
   99TMC2    H1 1546   4.014   3.300   1.418  0.2669 -0.1385 -0.8318
   99TMC2    H2 1547   4.213   3.091   1.750 -0.9274  0.3646  0.6484
   99TMC2    C7 1548   3.972   3.192   1.674 -0.5418  0.1615  0.5223
   99TMC2    C8 1549   4.448   3.156   1.649  0.4784 -0.3332  0.4423
   99TMC2    O1 1550   3.977   3.191   1.797  0.1098 -0.3350 -0.4025
   99TMC2    O2 1551   4.546   3.091   1.609  0.2123 -0.7940 -0.1365
   99TMC2    O5 1552   4.413   3.174   1.778  0.3939 -0.0388 -0.0262
   99TMC2    H5 1553   4.351   3.248   1.797  1.2453  0.9842 -1.1804
  100MPD2     C 1554   4.230   3.514   1.061 -0.3013  1.1369  0.0718
  100MPD2    C1 1555   4.137   3.418   1.081 -0.0171  0.2963  0.6239
  100MPD2    C2 1556   4.037   3.413   0.989 -1.1570  0.1864  0.9583
  100MPD2    C3 1557   4.036   3.482   0.867 -0.1628 -1.2149 -0.2586
  100MPD2    C4 1558   4.138   3.571   0.847  0.3436 -0.2033 -0.3464
  100MPD2    C5 1559   4.233   3.588   0.950 -0.2958 -0.3761  0.4546
  100MPD2     H 1560   3.958   3.339   1.001 -0.0202 -1.1051  0.4740
  100MPD2    H1 1561   4.148   3.635   0.760  0.8072 -1.0950 -0.9388
  100MPD2    H2 1562   4.308   3.543   1.130 -0.2369 -1.0132  0.9212
  100MPD2    H3 1563   4.300   3.673   0.950 -0.0162 -0.6026 -1.1850
  100MPD2     N 1564   3.934   3.457   0.772 -0.1320 -0.3128 -0.1215
  100MPD2    H5 1565   3.862   3.388   0.793 -0.3265 -0.3965 -1.0888
  100MPD2    N1 1566   4.121   3.343   1.200 -0.3706  0.4234 -0.0538
  100MPD2    H7 1567   4.045   3.276   1.202  0.3519 -0.4377 -0.9102
  101TMC2    C1 1568   4.331   0.600  13.502 -1.6335  0.2781 -0.5716
  101TMC2    C2 1569   4.411   0.517  13.580 -0.2150  0.1828 -0.5338
  101TMC2    C3 1570   4.545   0.514  13.541 -0.7817  0.0123  0.2706
  101TMC2    C4 1571   4.384   0.653  13.383  0.3903 -0.2919 -0.0963
  101TMC2    C5 1572   4.511   0.623  13.347 -0.4219  0.6154  0.7030
  101TMC2    C6 1573   4.600   0.558  13.429 -0.7997 -0.0284 -0.0883
  101TMC2     C 1574   4.199   0.547  13.491  0.9438  0.2346  0.3712
  101TMC2     O 1575   4.156   0.480  13.585 -0.1067  0.8436  0.4607
  101TMC2     H 1576   4.356   0.445  13.640  1.5171 -0.1927  0.6229
  101TMC2    H1 1577   4.325   0.726  13.329 -0.0106 -0.6477 -0.1372
  101TMC2    H2 1578   4.699   0.529  13.397 -1.1945  0.2084 -1.5304
  101TMC2    C7 1579   4.565   0.686  13.232  0.1351 -0.6911  0.1188
  101TMC2    C8 1580   4.629   0.413  13.606  0.0683  0.2374  0.0444
  101TMC2    O1 1581   4.482   0.741  13.160  0.5260 -1.2596  0.3617
  101TMC2    O2 1582   4.694   0.335  13.539  0.2138 -0.4275  0.0900
  101TMC2    O5 1583   4.568   0.374  13.723 -0.2291  0.3935 -0.3523
  101TMC2    H5 1584   4.515   0.444  13.766 -1.0267 -0.8517  0.6760
  102MPD2     C 1585   3.959   0.606  13.224  0.5183 -0.2165  0.1337
  102MPD2    C1 1586   4.010   0.550  13.335 -0.4845 -0.2258 -0.4809
  102MPD2    C2 1587   3.941   0.443  13.388  0.0781  0.4135 -0.5837
  102MPD2    C3 1588   3.830   0.394  13.326  0.0771  0.6076  0.6283
  102MPD2    C4 1589   3.781   0.451  13.208  0.1602 -0.6540 -0.5828
  102MPD2    C5 1590   3.851   0.561  13.163 -0.1720 -0.0187 -0.3387
  102MPD2     H 1591   3.980   0.381  13.468  2.8282 -0.7042 -2.7883
  102MPD2    H1 1592   3.696   0.418  13.150 -1.3279 -0.4167  1.4372
  102MPD2    H2 1593   4.009   0.692  13.181  0.3239  0.7594  1.8804
  102MPD2    H3 1594   3.810   0.617  13.081  0.2167 -0.6627 -0.9746
  102MPD2     N 1595   3.766   0.295  13.398 -0.0149  0.1293 -0.0474
  102MPD2    H5 1596   3.800   0.269  13.490  1.0619  0.0647 -0.4755
  102MPD2    N1 1597   4.131   0.600  13.386 -0.1994  0.2215 -0.2989
  102MPD2    H7 1598   4.176   0.681  13.344 -0.9839  1.2060  0.7488
  103TMC2    C1 1599   2.357   4.495  12.470 -0.0265  0.7222 -0.0114
  103TMC2    C2 1600   2.411   4.376  12.492  0.3559  0.4169  0.1250
  103TMC2    C3 1601   2.476   4.360  12.617  0.2057  0.4577 -0.1323
  103TMC2    C4 1602   2.364   4.597  12.557 -0.4395  0.4582  0.2775
  103TMC2    C5 1603   2.417   4.576  12.678 -0.4520 -0.2685 -0.1777
  103TMC2    C6 1604   2.471   4.457  12.714  1.0805 -0.0814  0.6989
  103TMC2     C 1605   2.247   4.500  12.373  0.4755  0.6831  0.2965
  103TMC2     O 1606   2.229   4.606  12.322  0.3927 -0.2880 -0.7896
  103TMC2     H 1607   2.399   4.301  12.415 -0.7285  1.0726 -0.3463
  103TMC2    H1 1608   2.330   4.695  12.525  0.0097  0.0266 -1.5692
  103TMC2    H2 1609   2.525   4.440  12.807  3.5556 -1.8499 -1.0607
  103TMC2    C7 1610   2.392   4.675  12.782  0.1870  0.0168 -0.1864
  103TMC2    C8 1611   2.536   4.241  12.644  1.0221  0.4944 -0.2415
  103TMC2    O1 1612   2.364   4.627  12.895 -0.3075 -0.0299 -0.1786
  103TMC2    O2 1613   2.557   4.202  12.753 -0.7347  0.1543  0.3904
  103TMC2    O5 1614   2.571   4.175  12.536 -0.6097 -0.2238  0.2311
  103TMC2    H5 1615   2.570   4.217  12.448 -3.7710  0.4160  0.5562
  104MPD2     C 1616   1.986   4.236  12.316  0.0958  0.0065 -0.4957
  104MPD2    C1 1617   2.046   4.360  12.312  0.3521 -0.8675 -0.5200
  104MPD2    C2 1618   1.969   4.462  12.251  0.2395 -0.7760  0.2221
  104MPD2    C3 1619   1.840   4.438  12.197 -0.8274 -0.7158  0.3272
  104MPD2    C4 1620   1.793   4.307  12.205  0.3558 -0.0148 -0.6621
  104MPD2    C5 1621   1.870   4.206  12.268  0.2464 -0.5052  0.8687
  104MPD2     H 1622   2.010   4.562  12.240 -2.1397 -0.2855 -4.0836
  104MPD2    H1 1623   1.701   4.276  12.155 -0.3393 -1.7438  1.7130
  104MPD2    H2 1624   2.043   4.166  12.376  1.3504  1.4832  0.0342
  104MPD2    H3 1625   1.821   4.110  12.281 -0.4877  0.0892  2.4551
  104MPD2     N 1626   1.779   4.544  12.130 -0.2803 -0.3145  0.2762
  104MPD2    H5 1627   1.829   4.633  12.125  0.1011 -0.3828  2.7030
  104MPD2    N1 1628   2.174   4.381  12.371  0.9773  0.0034  0.0173
  104MPD2    H7 1629   2.214   4.298  12.414  0.9177  0.6638  1.3424
  105TMC2    C1 1630   3.545   3.930   0.347  0.8371 -0.0210  0.2703
  105TMC2    C2 1631   3.561   4.065   0.333  0.6948  0.2034 -0.8006
  105TMC2    C3 1632   3.605   4.128   0.452  0.2058  0.3503 -0.2456
  105TMC2    C4 1633   3.561   3.859   0.465  0.3591 -0.4758  0.4249
  105TMC2    C5 1634   3.610   3.926   0.574  0.1025  0.2080  0.7237
  105TMC2    C6 1635   3.628   4.062   0.570 -0.2230 -0.1943 -0.3312
  105TMC2     C 1636   3.563   3.843   0.232 -0.4407 -0.2985  0.9167
  105TMC2     O 1637   3.549   3.721   0.243 -0.1258 -0.7128 -0.3393
  105TMC2     H 1638   3.540   4.124   0.244 -1.9695  0.0727 -0.2584
  105TMC2    H1 1639   3.538   3.755   0.480  0.7648 -0.3413  2.0354
  105TMC2    H2 1640   3.651   4.131   0.650  1.4427  0.9933 -1.8384
  105TMC2    C7 1641   3.672   3.849   0.676 -0.5567 -0.2011 -0.6375
  105TMC2    C8 1642   3.636   4.273   0.453 -0.8098  0.6244  0.3601
  105TMC2    O1 1643   3.648   3.730   0.697  0.6192 -0.2557  0.4694
  105TMC2    O2 1644   3.720   4.333   0.518 -0.0253  0.3596  0.3668
  105TMC2    O5 1645   3.529   4.341   0.417 -0.1918  0.1171  0.6590
  105TMC2    H5 1646   3.460   4.273   0.402  0.0135  0.2917 -0.9919
  106MPD2     C 1647   3.839   3.773  17.551 -0.3391  0.1274  0.0514
  106MPD2    C1 1648   3.854   3.905  17.598  1.3897 -0.1041  0.2938
  106MPD2    C2 1649   3.795   3.937  17.719  0.1985 -0.2399  0.0165
  106MPD2    C3 1650   3.713   3.851   0.041  0.5539 -0.8364  0.2248
  106MPD2    C4 1651   3.700   3.723  17.747  0.2056  0.1000  0.0331
  106MPD2    C5 1652   3.761   3.688  17.625  0.1789  0.7477  0.8397
  106MPD2     H 1653   3.809   4.037   0.002 -0.3360 -0.2898  0.3252
  106MPD2    H1 1654   3.628   3.652   0.028  2.0615 -2.0750 -0.5181
  106MPD2    H2 1655   3.867   3.748  17.449 -0.3253  0.3721 -0.0050
  106MPD2    H3 1656   3.730   3.593  17.584 -1.3395  0.7832  1.8885
  106MPD2     N 1657   3.635   3.913   0.142 -0.1744 -0.7513  0.3861
  106MPD2    H5 1658   3.654   4.009   0.169 -3.8058 -0.4384  1.7188
  106MPD2    N1 1659   3.937   3.998  17.542  0.4906 -0.6798 -0.1014
  106MPD2    H7 1660   3.955   4.081  17.597  2.2304 -1.7340  0.9376
  107TMC2    C1 1661   4.124   3.562  11.418  0.2868 -0.3605 -0.4550
  107TMC2    C2 1662   3.994   3.573  11.393 -0.3986  0.5190 -0.9842
  107TMC2    C3 1663   3.947   3.515  11.280 -0.1229  0.3651  0.0226
  107TMC2    C4 1664   4.211   3.516  11.326 -0.0854  0.0834 -0.4511
  107TMC2    C5 1665   4.165   3.465  11.214 -0.2170 -0.6864  0.1730
  107TMC2    C6 1666   4.030   3.465  11.189  1.1602 -0.0157  0.3019
  107TMC2     C 1667   4.158   3.568  11.563 -0.5581 -0.1063  0.7467
  107TMC2     O 1668   4.064   3.531  11.640  0.4138  0.1394  0.7980
  107TMC2     H 1669   3.925   3.608  11.469  1.1505 -0.4796  0.8588
  107TMC2    H1 1670   4.316   3.502  11.347 -0.4171 -0.6275  0.7459
  107TMC2    H2 1671   3.995   3.419  11.097  0.4211 -1.8530  1.4979
  107TMC2    C7 1672   4.255   3.391  11.123 -0.2691 -0.0827 -0.9748
  107TMC2    C8 1673   3.817   3.546  11.239 -0.0332 -1.1394 -0.1938
  107TMC2    O1 1674   4.208   3.334  11.025  0.4561 -0.1077 -0.6164
  107TMC2    O2 1675   3.785   3.663  11.263  0.0857 -0.4853 -0.1356
  107TMC2    O5 1676   3.784   3.469  11.131  0.3595 -0.1765  0.6755
  107TMC2    H5 1677   3.812   3.378  11.152 -0.8431 -0.4185  1.2082
  108MPD2     C 1678   4.486   3.623  11.710  0.3318 -0.3447  0.0034
  108MPD2    C1 1679   4.350   3.614  11.711 -0.0371  0.2520 -0.3276
  108MPD2    C2 1680   4.287   3.597  11.836  0.6151 -0.7362 -0.1636
  108MPD2    C3 1681   4.358   3.595  11.957  0.2148  0.2601  0.6612
  108MPD2    C4 1682   4.490   3.609  11.946 -0.0555 -0.8759  0.5584
  108MPD2    C5 1683   4.545   3.625  11.829 -0.2305  0.4100 -0.3564
  108MPD2     H 1684   4.180   3.589  11.846  0.5738  1.8221  1.3175
  108MPD2    H1 1685   4.547   3.616  12.038  0.4533  2.4299  0.0158
  108MPD2    H2 1686   4.544   3.612  11.619  3.1938 -1.9775  2.0326
  108MPD2    H3 1687   4.652   3.635  11.817 -0.1931 -1.0301 -1.1517
  108MPD2     N 1688   4.300   3.578  12.082  0.0110 -0.5232  0.0009
  108MPD2    H5 1689   4.363   3.565  12.161 -0.8746 -0.8557  0.6520
  108MPD2    N1 1690   4.286   3.601  11.583 -0.5058  0.2448 -0.4831
  108MPD2    H7 1691   4.338   3.607  11.496 -0.8840  1.6208 -0.6041
  109TMC2    C1 1692   0.510   1.394   0.991  0.9837  0.1671  0.9668
  109TMC2    C2 1693   0.621   1.332   1.043 -0.1755 -0.2861 -0.7351
  109TMC2    C3 1694   0.733   1.409   1.063 -0.0059  0.1361 -0.0809
  109TMC2    C4 1695   0.512   1.522   0.947  0.7214 -0.4585  0.1888
  109TMC2    C5 1696   0.625   1.598   0.978 -0.2878  0.5028 -0.0170
  109TMC2    C6 1697   0.732   1.541   1.040 -0.0478 -0.3852 -0.5703
  109TMC2     C 1698   0.415   1.310   0.935  0.6434 -0.0747  0.6698
  109TMC2     O 1699   0.408   1.322   0.811 -0.0741 -0.2393 -0.6722
  109TMC2     H 1700   0.627   1.225   1.060 -1.6882 -0.4820 -1.3918
  109TMC2    H1 1701   0.423   1.569   0.907  0.2652 -1.0670  0.4951
  109TMC2    H2 1702   0.820   1.599   1.066  0.1198 -0.6028 -0.6426
  109TMC2    C7 1703   0.619   1.739   0.953  0.3451  0.5349 -0.2795
  109TMC2    C8 1704   0.863   1.357   1.106  0.1511  0.3063 -0.1436
  109TMC2    O1 1705   0.546   1.776   0.862  0.1234  0.2038 -0.2109
  109TMC2    O2 1706   0.876   1.241   1.132 -0.5746  0.1489 -0.0069
  109TMC2    O5 1707   0.961   1.422   1.031 -0.3494  0.9946  0.7577
  109TMC2    H5 1708   0.914   1.476   0.963  1.1638  0.9607 -0.3108
  110MPD2     C 1709   0.122   0.886   0.938  0.0725 -0.0950  1.0319
  110MPD2    C1 1710   0.151   0.920   1.070  0.0171 -0.0205  0.1721
  110MPD2    C2 1711   0.237   1.027   1.090 -0.0750 -0.0104  0.3011
  110MPD2    C3 1712   0.286   1.108   0.989  0.0330 -0.2453  0.2685
  110MPD2    C4 1713   0.259   1.066   0.863 -0.2532  0.1730 -0.0566
  110MPD2    C5 1714   0.176   0.960   0.839 -0.3908 -0.0617 -0.0784
  110MPD2     H 1715   0.244   1.083   1.183 -0.1235 -0.2071  0.4224
  110MPD2    H1 1716   0.300   1.126   0.782 -1.2004 -1.5284 -1.7837
  110MPD2    H2 1717   0.062   0.801   0.908 -1.0053  1.2596 -0.6372
  110MPD2    H3 1718   0.153   0.943   0.734  0.0360  0.5420 -0.2632
  110MPD2     N 1719   0.378   1.210   1.019 -0.0681 -0.5964 -0.4897
  110MPD2    H5 1720   0.402   1.220   1.117  0.0107 -2.5947 -0.3108
  110MPD2    N1 1721   0.108   0.835   1.174  0.1973 -0.3443 -0.1817
  110MPD2    H7 1722   0.057   0.753   1.142  1.2495 -1.0935  0.0826
  111TMC2    C1 1723   4.211   0.435  11.695 -0.1249 -0.1848  0.5943
  111TMC2    C2 1724   4.184   0.318  11.755 -0.3081  0.2352 -0.0099
  111TMC2    C3 1725   4.203   0.307  11.894 -0.3778 -0.4965  0.2692
  111TMC2    C4 1726   4.217   0.550  11.767  0.5777 -0.4157  1.0458
  111TMC2    C5 1727   4.226   0.539  11.907 -0.5576 -0.5691  0.3516
  111TMC2    C6 1728   4.230   0.419  11.969 -0.0948 -0.5193  0.2787
  111TMC2     C 1729   4.171   0.457  11.554 -0.8051  0.1576 -0.7684
  111TMC2     O 1730   4.130   0.569  11.528  0.0624 -0.2033 -1.0070
  111TMC2     H 1731   4.148   0.232  11.699 -0.9362  1.4398 -1.4741
  111TMC2    H1 1732   4.218   0.647  11.719 -2.7588 -2.0953 -2.4486
  111TMC2    H2 1733   4.243   0.416  12.076  4.1127  0.0033 -0.2000
  111TMC2    C7 1734   4.200   0.648  11.998  0.0972 -0.2777 -0.4593
  111TMC2    C8 1735   4.240   0.175  11.940  0.7671  0.0920 -0.2774
  111TMC2    O1 1736   4.209   0.621  12.115  0.3915  0.6469  0.2410
  111TMC2    O2 1737   4.264   0.081  11.865 -0.0386 -0.1472 -0.2019
  111TMC2    O5 1738   4.306   0.181  12.058  0.0077 -0.1101  0.0072
  111TMC2    H5 1739   4.286   0.258  12.116  2.5026 -0.4243  1.2873
  112MPD2     C 1740   4.254   0.329  11.059  0.6487 -0.0205  0.7562
  112MPD2    C1 1741   4.210   0.448  11.121 -0.1990 -0.8348 -0.4887
  112MPD2    C2 1742   4.168   0.450  11.253 -0.6163  0.4124 -0.9118
  112MPD2    C3 1743   4.209   0.343  11.330 -0.6709  0.2287  0.3716
  112MPD2    C4 1744   4.260   0.226  11.278  0.0794  0.3367  0.3566
  112MPD2    C5 1745   4.282   0.219  11.145 -0.0442  0.7190  0.5245
  112MPD2     H 1746   4.143   0.541  11.306  0.6484 -0.0172  0.4276
  112MPD2    H1 1747   4.282   0.144  11.346 -1.1653  0.8776  1.4129
  112MPD2    H2 1748   4.289   0.317  10.957 -0.5552 -0.0179  0.3416
  112MPD2    H3 1749   4.325   0.130  11.102  1.0197  0.7775  1.4860
  112MPD2     N 1750   4.201   0.341  11.472 -0.5540  0.5802  0.2588
  112MPD2    H5 1751   4.238   0.260  11.521 -2.8554 -0.6715 -0.0936
  112MPD2    N1 1752   4.186   0.562  11.046  0.1142  0.2960 -0.0121
  112MPD2    H7 1753   4.174   0.643  11.106 -0.1124  1.3393 -1.4630
  113TMC2    C1 1754   2.937   3.670   1.088  1.0927 -0.0620  0.6096
  113TMC2    C2 1755   2.865   3.763   1.158 -0.1237 -0.9414 -0.3950
  113TMC2    C3 1756   2.769   3.830   1.093  0.7710  0.5022 -0.2452
  113TMC2    C4 1757   2.917   3.637   0.957  0.9580  0.3335  0.0009
  113TMC2    C5 1758   2.820   3.711   0.895 -1.1206 -0.5392  0.0233
  113TMC2    C6 1759   2.742   3.801   0.964  0.8036  0.3258  0.4310
  113TMC2     C 1760   3.063   3.628   1.148  1.0540  0.3497 -0.3680
  113TMC2     O 1761   3.108   3.705   1.231 -0.4564  0.6890 -0.3049
  113TMC2     H 1762   2.878   3.773   1.265 -2.0353  1.4668 -0.3943
  113TMC2    H1 1763   2.983   3.571   0.902  1.4792 -0.6915  1.8591
  113TMC2    H2 1764   2.666   3.854   0.908  0.6590  0.9398  1.1945
  113TMC2    C7 1765   2.754   3.662   0.774  0.1675  0.5312 -0.3572
  113TMC2    C8 1766   2.689   3.902   1.185  0.4842 -0.2484 -0.3014
  113TMC2    O1 1767   2.682   3.738   0.714  0.0928  0.2517  0.4509
  113TMC2    O2 1768   2.726   3.974   1.280  0.3541 -0.1707 -0.3267
  113TMC2    O5 1769   2.568   3.848   1.168  0.2019 -0.1311 -0.5397
  113TMC2    H5 1770   2.573   3.780   1.097  1.2865  0.6723 -1.2398
  114MPD2     C 1771   3.490   3.351   1.145 -0.2052  0.1332 -0.5503
  114MPD2    C1 1772   3.445   3.455   1.228  0.1746 -0.1387 -0.6477
  114MPD2    C2 1773   3.318   3.506   1.214  0.3466  0.4137  0.4548
  114MPD2    C3 1774   3.246   3.462   1.104  0.2412 -0.4585 -0.1889
  114MPD2    C4 1775   3.298   3.374   1.012  0.4195  0.6462 -0.7730
  114MPD2    C5 1776   3.420   3.323   1.030 -0.6724  0.1563  0.4365
  114MPD2     H 1777   3.280   3.580   1.283  1.1832 -0.1597  1.5435
  114MPD2    H1 1778   3.238   3.354   0.923 -0.1944  1.0052 -0.4388
  114MPD2    H2 1779   3.583   3.296   1.153  0.1383  0.9171  0.7529
  114MPD2    H3 1780   3.470   3.257   0.960 -0.4160 -0.3466  1.0933
  114MPD2     N 1781   3.114   3.510   1.090  0.2967 -0.4996 -0.1399
  114MPD2    H5 1782   3.060   3.464   1.017 -2.1642 -0.0838  1.4141
  114MPD2    N1 1783   3.525   3.514   1.330 -0.0533 -0.2423  0.0140
  114MPD2    H7 1784   3.490   3.598   1.376  1.8657  0.5225  0.0726
  115TMC2    C1 1785   4.112   1.754   0.046  0.0380  0.2367 -0.0261
  115TMC2    C2 1786   4.214   1.841   0.035  0.2255 -0.2405 -0.0151
  115TMC2    C3 1787   4.180   1.973   0.020  0.4917 -0.0574  0.3844
  115TMC2    C4 1788   3.975   1.788   0.067  0.1971 -0.4962 -0.6561
  115TMC2    C5 1789   3.954   1.922   0.074  0.9369 -0.5415  0.5384
  115TMC2    C6 1790   4.052   2.017   0.044 -0.8610  0.2858 -0.0389
  115TMC2     C 1791   4.145   1.612   0.073  0.3757  0.2243 -0.4851
  115TMC2     O 1792   4.251   1.582   0.123 -0.0480 -0.1461 -0.6687
  115TMC2     H 1793   4.315   1.813   0.010  0.7666  1.2144  0.5527
  115TMC2    H1 1794   3.891   1.724   0.092 -0.3148 -0.5338 -2.5243
  115TMC2    H2 1795   4.034   2.124   0.040 -0.9076  0.2397 -1.0552
  115TMC2    C7 1796   3.816   1.954   0.074  0.6094 -0.0206  1.2506
  115TMC2    C8 1797   4.281   2.061  17.721 -0.4944  0.5261  0.0445
  115TMC2    O1 1798   3.743   1.892   0.153 -0.1706 -0.0417 -0.5096
  115TMC2    O2 1799   4.264   2.132  17.622  0.0042 -0.2962 -0.0738
  115TMC2    O5 1800   4.387   2.052   0.039  0.6428 -0.2279 -0.4154
  115TMC2    H5 1801   4.370   1.999   0.119 -0.3929  2.2737  0.9888
  116MPD2     C 1802   4.020   1.127  17.725 -0.1478  0.2463  0.1037
  116MPD2    C1 1803   3.929   1.216  17.671 -0.7408  0.2762 -0.0178
  116MPD2    C2 1804   3.945   1.350  17.681 -0.6395 -0.0005  0.5600
  116MPD2    C3 1805   4.043   1.395   0.007  0.1353 -0.3131 -0.0955
  116MPD2    C4 1806   4.131   1.313   0.065  0.1030  0.3894  0.6285
  116MPD2    C5 1807   4.125   1.174   0.038  0.4720  0.7144 -0.2629
  116MPD2     H 1808   3.882   1.419  17.627 -1.1563  0.0694  1.2553
  116MPD2    H1 1809   4.210   1.347   0.131  1.4027  2.2787 -1.8871
  116MPD2    H2 1810   4.001   1.020  17.718 -0.6593  0.5043 -2.2661
  116MPD2    H3 1811   4.195   1.106   0.084 -1.8609 -0.4021  1.5936
  116MPD2     N 1812   4.046   1.536   0.016  0.1049 -0.4422 -0.6322
  116MPD2    H5 1813   3.971   1.584  17.724 -1.2828 -2.1358 -0.1737
  116MPD2    N1 1814   3.811   1.157  17.606  0.4008 -0.0968  0.4003
  116MPD2    H7 1815   3.805   1.055  17.612 -0.8218  0.0681  1.8517
  117TMC2    C1 1816   2.353   3.159  14.278 -0.0466  0.0474  0.1308
  117TMC2    C2 1817   2.446   3.138  14.374 -0.5386 -0.3865 -0.3685
  117TMC2    C3 1818   2.528   3.241  14.407 -0.9980 -0.2000  0.3650
  117TMC2    C4 1819   2.343   3.276  14.218 -0.6866 -0.2363  0.1534
  117TMC2    C5 1820   2.413   3.387  14.258 -0.0717 -0.6079  0.3474
  117TMC2    C6 1821   2.503   3.367  14.355  0.1208  0.1756  0.2231
  117TMC2     C 1822   2.300   3.041  14.209  0.3377 -0.4863  0.2387
  117TMC2     O 1823   2.388   2.955  14.193 -0.5453 -0.0303 -0.4096
  117TMC2     H 1824   2.466   3.038  14.413  0.0051 -0.8223 -1.7646
  117TMC2    H1 1825   2.282   3.277  14.129 -0.4951 -0.8144  0.0198
  117TMC2    H2 1826   2.568   3.451  14.377  2.5562 -1.3675 -0.9968
  117TMC2    C7 1827   2.379   3.524  14.222 -0.4905 -0.4549  0.5795
  117TMC2    C8 1828   2.648   3.212  14.475 -0.1257  0.3018 -0.0396
  117TMC2    O1 1829   2.445   3.611  14.270 -0.0354  0.1772  0.3623
  117TMC2    O2 1830   2.650   3.163  14.586  0.1846 -0.3330 -0.4724
  117TMC2    O5 1831   2.756   3.241  14.402 -0.2763 -0.2538 -0.5225
  117TMC2    H5 1832   2.736   3.263  14.309 -1.0354 -1.1250 -0.5675
  118MPD2     C 1833   2.119   3.621  13.984 -0.5463  1.2810  0.1301
  118MPD2    C1 1834   2.220   3.647  14.071  0.2200  0.7201 -0.5742
  118MPD2    C2 1835   2.274   3.775  14.090  0.1016 -0.4594 -0.0967
  118MPD2    C3 1836   2.227   3.878  14.012 -0.2369 -0.7905  0.0236
  118MPD2    C4 1837   2.137   3.841  13.915  0.6080  0.5707 -0.1975
  118MPD2    C5 1838   2.091   3.714  13.897  0.0273  0.4025  1.0566
  118MPD2     H 1839   2.350   3.790  14.166  1.4627  0.2524 -1.6045
  118MPD2    H1 1840   2.097   3.916  13.847 -2.5204  0.3748  1.4389
  118MPD2    H2 1841   2.083   3.521  13.965  1.6882  1.1677 -3.5460
  118MPD2    H3 1842   2.019   3.692  13.820  1.5058  1.0800 -0.5116
  118MPD2     N 1843   2.268   4.010  14.007 -0.0914 -0.1345  0.1064
  118MPD2    H5 1844   2.224   4.070  13.938 -0.5672  0.6544  1.0954
  118MPD2    N1 1845   2.271   3.528  14.138 -0.5493 -0.6316 -0.6796
  118MPD2    H7 1846   2.227   3.440  14.114 -0.0459 -1.7467  2.5008
  119TMC2    C1 1847   0.530   4.113  13.356 -0.5409 -0.3583  0.3697
  119TMC2    C2 1848   0.650   4.035  13.357  0.3299  0.6041  0.1291
  119TMC2    C3 1849   0.636   3.905  13.374 -0.1728  0.3652 -0.0460
  119TMC2    C4 1850   0.411   4.057  13.370  0.1259  0.3345 -0.3405
  119TMC2    C5 1851   0.404   3.913  13.391  0.1895  1.2809  0.5365
  119TMC2    C6 1852   0.517   3.841  13.392  0.3208  0.2555 -0.1308
  119TMC2     C 1853   0.532   4.258  13.341 -0.6135  0.2251  0.1648
  119TMC2     O 1854   0.420   4.311  13.321 -0.2593 -0.2007  0.2018
  119TMC2     H 1855   0.748   4.070  13.328  0.4902  0.0422  0.0074
  119TMC2    H1 1856   0.324   4.121  13.362 -1.5651 -1.8030  0.8914
  119TMC2    H2 1857   0.509   3.733  13.397 -0.9275  0.4893  2.5306
  119TMC2    C7 1858   0.275   3.849  13.382  0.2260 -0.7556 -0.3828
  119TMC2    C8 1859   0.758   3.824  13.384  0.2047 -0.1783 -0.2443
  119TMC2    O1 1860   0.274   3.727  13.361 -0.2854  0.1467 -0.2060
  119TMC2    O2 1861   0.775   3.722  13.324  0.0129 -0.3923 -0.3932
  119TMC2    O5 1862   0.823   3.877  13.487  0.2418 -0.0212  0.2451
  119TMC2    H5 1863   0.781   3.952  13.534  0.5096  0.3958 -0.1766
  120MPD2     C 1864   0.764   4.717  13.363  0.0936  0.1007  0.4343
  120MPD2    C1 1865   0.630   4.682  13.351 -0.4431 -0.4894  0.6626
  120MPD2    C2 1866   0.592   4.547  13.339  0.2321  1.0315 -0.2184
  120MPD2    C3 1867   0.694   4.450  13.355  0.1534 -0.6046 -0.5957
  120MPD2    C4 1868   0.824   4.488  13.367 -0.4349  0.2315 -0.7525
  120MPD2    C5 1869   0.861   4.618  13.372 -0.1340 -0.6374  1.0483
  120MPD2     H 1870   0.490   4.528  13.308 -0.5773  2.2179  1.6829
  120MPD2    H1 1871   0.902   4.413  13.370  1.1482  1.8740 -0.6386
  120MPD2    H2 1872   0.797   0.080  13.374 -2.6364  1.2452 -2.0954
  120MPD2    H3 1873   0.965   4.645  13.387 -0.3053  1.0985 -0.8039
  120MPD2     N 1874   0.659   4.308  13.344  0.2585 -0.3887 -0.1020
  120MPD2    H5 1875   0.738   4.244  13.343  0.8977  0.4015 -0.5626
  120MPD2    N1 1876   0.538   0.044  13.352 -0.3597  0.0734  0.0924
  120MPD2    H7 1877   0.585   0.134  13.347  0.7067 -0.5517 -1.2621
  121TMC2    C1 1878   1.790   1.279  14.533 -0.2185 -0.0326 -0.2923
  121TMC2    C2 1879   1.856   1.264  14.653 -0.0411 -0.3154 -0.2262
  121TMC2    C3 1880   1.832   1.154  14.723  0.1366  0.5330  0.6521
  121TMC2    C4 1881   1.696   1.192  14.487  0.3374 -0.4089 -0.0577
  121TMC2    C5 1882   1.669   1.085  14.568 -0.4484  0.6337  0.0524
  121TMC2    C6 1883   1.743   1.058  14.679  1.4517 -0.5100  0.1195
  121TMC2     C 1884   1.822   1.396  14.460 -0.0799 -0.4823 -0.1094
  121TMC2     O 1885   1.855   1.502  14.519 -0.0774 -0.5622  0.1347
  121TMC2     H 1886   1.929   1.328  14.700  1.6051 -1.8338 -0.7073
  121TMC2    H1 1887   1.626   1.220  14.409  1.8896 -0.1537 -1.3640
  121TMC2    H2 1888   1.741   0.966  14.737  0.9000 -1.3989 -1.3282
  121TMC2    C7 1889   1.574   0.979  14.524 -0.8301  0.8848 -0.3153
  121TMC2    C8 1890   1.948   1.103  14.798 -0.4538  0.3303 -0.7387
  121TMC2    O1 1891   1.588   0.867  14.581  0.2442 -0.2788  0.0257
  121TMC2    O2 1892   1.931   0.998  14.849 -0.6796  0.0524 -0.3897
  121TMC2    O5 1893   2.068   1.134  14.726 -0.1386 -0.5588  0.0604
  121TMC2    H5 1894   2.075   1.216  14.671 -1.7004 -1.4410 -1.4578
  122MPD2     C 1895   1.864   1.587  14.235 -0.0013 -0.0087  0.1258
  122MPD2    C1 1896   1.834   1.454  14.215  0.1895 -0.4204  0.2027
  122MPD2    C2 1897   1.816   1.402  14.089  0.1783 -0.0960 -0.1394
  122MPD2    C3 1898   1.847   1.482  13.978  0.6619  0.4857 -0.6392
  122MPD2    C4 1899   1.874   1.612  14.000  0.7586 -1.4663  0.1104
  122MPD2    C5 1900   1.886   1.665  14.126  0.4676  0.2086 -0.1417
  122MPD2     H 1901   1.790   1.297  14.079  1.4902 -0.6206  1.8814
  122MPD2    H1 1902   1.910   1.680  13.923 -3.3152 -1.0620 -1.4196
  122MPD2    H2 1903   1.874   1.625  14.336  0.2397  0.7160 -0.1724
  122MPD2    H3 1904   1.915   1.768  14.145 -0.5518  0.5198 -0.2839
  122MPD2     N 1905   1.825   1.444  13.841  0.1965  0.2142 -0.5749
  122MPD2    H5 1906   1.836   1.521  13.776 -0.8773  0.4705 -0.4559
  122MPD2    N1 1907   1.811   1.363  14.324 -0.0473 -0.2047  0.7580
  122MPD2    H7 1908   1.800   1.268  14.287 -0.7639  0.5060 -0.8538
  123TMC2    C1 1909   4.534   4.231  10.793  1.0072 -0.0582  0.0885
  123TMC2    C2 1910   4.535   4.354  10.847 -0.0610  0.6734 -0.0970
  123TMC2    C3 1911   4.584   4.457  10.771 -0.5014 -0.1805 -1.1547
  123TMC2    C4 1912   4.571   4.208  10.660  0.8722  0.2777  0.5558
  123TMC2    C5 1913   4.623   4.313  10.590 -0.1798 -1.2254  0.4476
  123TMC2    C6 1914   4.623   4.440  10.642  0.1146  0.3588  0.4833
  123TMC2     C 1915   4.496   4.120  10.886 -0.0345  0.7319  0.6673
  123TMC2     O 1916   4.473   4.158  11.002 -0.5216 -0.2976  0.2592
  123TMC2     H 1917   4.501   4.372  10.948 -1.1529 -1.0528 -0.1553
  123TMC2    H1 1918   4.578   4.107  10.623  0.7899  0.0517  1.1460
  123TMC2    H2 1919   4.671   4.523  10.593 -0.7900 -0.4495 -1.7866
  123TMC2    C7 1920   4.697   4.301  10.469 -0.7418 -0.5033 -0.0872
  123TMC2    C8 1921   4.625   4.576  10.844 -0.5765 -0.3027  0.2652
  123TMC2    O1 1922   0.027   4.392  10.442  0.3781 -0.0565  0.0848
  123TMC2    O2 1923   4.714   4.650  10.808  0.3735  0.4163  0.3881
  123TMC2    O5 1924   4.527   4.616  10.921 -0.2537  0.4190 -0.5734
  123TMC2    H5 1925   4.448   4.559  10.931  1.8983 -1.9041  3.3559
  124MPD2     C 1926   4.246   3.670  10.914 -0.7629  0.2841 -0.2799
  124MPD2    C1 1927   4.290   3.690  10.785 -0.0879 -0.3475  0.9017
  124MPD2    C2 1928   4.375   3.797  10.763 -0.3025 -0.1208  0.3560
  124MPD2    C3 1929   4.403   3.890  10.858 -0.5015  0.5055  0.1034
  124MPD2    C4 1930   4.351   3.875  10.983  0.0086 -0.4952  0.6479
  124MPD2    C5 1931   4.282   3.759  11.013  0.4767  0.3778  0.6969
  124MPD2     H 1932   4.432   3.802  10.671 -1.2444  0.8774 -0.1764
  124MPD2    H1 1933   4.358   3.953  11.058  0.0617 -0.0550  0.1841
  124MPD2    H2 1934   4.179   3.590  10.941 -0.1029 -0.3871 -0.6519
  124MPD2    H3 1935   4.248   3.734  11.113 -0.5802  1.1927  0.5385
  124MPD2     N 1936   4.475   4.004  10.814 -0.4664  0.6652 -0.1217
  124MPD2    H5 1937   4.517   3.989  10.722 -2.8647 -0.7453 -0.9819
  124MPD2    N1 1938   4.247   3.606  10.670  0.1123 -0.1150  0.1608
  124MPD2    H7 1939   4.191   3.522  10.674 -2.4167  1.6215  1.5257
  125TMC2    C1 1940   0.360   4.718  10.650  0.3403  0.2193 -0.8793
  125TMC2    C2 1941   0.281   4.621  10.713 -0.7882 -0.2817  0.0170
  125TMC2    C3 1942   0.310   4.487  10.687 -0.0062  0.2861 -0.5217
  125TMC2    C4 1943   0.455   4.685  10.558  0.4477  0.2957  0.3483
  125TMC2    C5 1944   0.475   4.552  10.529 -1.0743 -0.7829  0.1935
  125TMC2    C6 1945   0.402   4.448  10.593 -0.2294  0.3671 -0.3259
  125TMC2     C 1946   0.325   0.115  10.677 -0.8280 -0.4912  0.0234
  125TMC2     O 1947   0.233   0.125  10.754  0.1037 -0.0058  0.1067
  125TMC2     H 1948   0.204   4.648  10.783 -0.7668  0.0498 -0.0887
  125TMC2    H1 1949   0.513   0.019  10.505 -0.8238  0.8861 -0.2098
  125TMC2    H2 1950   0.425   4.344  10.576  0.5459  0.0714  2.4891
  125TMC2    C7 1951   0.571   4.508  10.429  0.0870  0.3415  0.4111
  125TMC2    C8 1952   0.230   4.394  10.752 -0.0439  0.0539 -0.0559
  125TMC2    O1 1953   0.586   4.390  10.398  0.0533  0.0693 -0.3485
  125TMC2    O2 1954   0.166   4.408  10.859 -0.3038 -0.4565 -0.3382
  125TMC2    O5 1955   0.198   4.297  10.656 -0.2378 -0.1167  0.0522
  125TMC2    H5 1956   0.256   4.282  10.578 -1.0841 -0.7443 -0.4436
  126MPD1     C 1957   0.364   0.618  10.604  0.4147  0.2347  0.1579
  126MPD1    C1 1958   0.450   0.558  10.514 -0.2217  0.5697  0.0835
  126MPD1    C2 1959   0.441   0.419  10.502  0.0061 -0.0647  0.5080
  126MPD1    C3 1960   0.368   0.347  10.594 -0.2127  0.6613 -0.2777
  126MPD1    C4 1961   0.283   0.411  10.679  0.1079 -0.5829  1.2963
  126MPD1    C5 1962   0.285   0.543  10.687 -0.7497  0.3580  0.7942
  126MPD1     H 1963   0.494   0.373  10.420 -1.4498 -0.9148  0.0427
  126MPD1    H1 1964   0.227   0.361  10.757  0.8864 -3.0675  0.2681
  126MPD1    H2 1965   0.363   0.725  10.618  0.4056  0.5773 -2.5925
  126MPD1    H3 1966   0.218   0.593  10.757  0.0745 -0.1768  1.9666
  126MPD1     N 1967   0.384   0.205  10.593 -0.6191 -0.1206  0.0229
  126MPD1    H5 1968   0.463   0.176  10.537 -2.2337 -2.2720 -1.1053
  126MPD1    N1 1969   0.519   0.629  10.418  0.0671  0.0148  0.1146
  126MPD1    H6 1970   0.553   0.722  10.445  0.3735  0.0650 -0.4511
  126MPD1    H7 1971   0.592   0.580  10.367 -1.2210 -2.9384  1.1230
  127TMC2    C1 1972   1.617   4.641   9.694 -0.3053  0.4900 -0.1672
  127TMC2    C2 1973   1.581   4.661   9.562 -0.7119  0.6498 -0.5060
  127TMC2    C3 1974   1.460   4.609   9.525 -0.0778  0.0022  0.6137
  127TMC2    C4 1975   1.537   4.575   9.785 -0.1976 -0.0404  0.7572
  127TMC2    C5 1976   1.420   4.518   9.747  0.0442 -0.0852 -0.2530
  127TMC2    C6 1977   1.373   4.545   9.613  0.7063 -0.6679  0.4361
  127TMC2     C 1978   1.743   4.695   9.738 -0.7301 -0.7888  0.5160
  127TMC2     O 1979   1.764   4.694   9.857  0.2711  1.0473 -0.1629
  127TMC2     H 1980   1.646   4.714   9.494 -0.5259  1.0885  0.0146
  127TMC2    H1 1981   1.584   4.563   9.881  0.0636 -1.9593  0.3757
  127TMC2    H2 1982   1.290   4.483   9.583 -0.5245  0.9854  0.3892
  127TMC2    C7 1983   1.342   4.454   9.848 -0.5952  0.1538  0.3571
  127TMC2    C8 1984   1.417   4.608   9.387  0.1751  0.5535 -0.4618
  127TMC2    O1 1985   1.379   4.468   9.965 -0.0040  0.3611 -0.1922
  127TMC2    O2 1986   1.303   4.613   9.358  0.4257 -0.8959  0.0950
  127TMC2    O5 1987   1.514   4.556   9.315 -0.3061 -0.2107  0.0375
  127TMC2    H5 1988   1.599   4.550   9.364 -0.2800  1.5626  0.1849
  128MPD2     C 1989   2.030   0.076   9.559 -0.6046 -0.3666  0.0150
  128MPD2    C1 1990   1.946   0.070   9.667  0.8079  0.5213 -0.1552
  128MPD2    C2 1991   1.982   0.135   9.786 -0.8959 -0.2890  0.1321
  128MPD2    C3 1992   2.106   0.191   9.804 -0.6840 -0.3551  0.1071
  128MPD2    C4 1993   2.186   0.196   9.695 -0.0684 -0.0747  0.3401
  128MPD2    C5 1994   2.143   0.141   9.575 -0.6605  0.1260  0.2202
  128MPD2     H 1995   1.914   0.121   9.870 -0.2237 -1.5463  0.4566
  128MPD2    H1 1996   2.285   0.239   9.700  0.0292 -0.3913  1.1810
  128MPD2    H2 1997   2.009   0.037   9.460  0.9030  0.1596 -0.5173
  128MPD2    H3 1998   2.212   0.162   9.493 -0.8431  0.1752  0.0794
  128MPD2     N 1999   2.133   0.258   9.921 -0.5471  0.0094  0.3510
  128MPD2    H5 2000   2.055   0.277   9.983 -2.1262  0.8534 -1.8783
  128MPD2    N1 2001   1.827   0.003   9.642 -0.3466  0.5932  0.0623
  128MPD2    H7 2002   1.814   4.726   9.543  1.1628 -0.2922  0.0094
  129TMC2    C1 2003   1.323   0.252   1.716 -0.4141  0.4696  0.5773
  129TMC2    C2 2004   1.227   0.291   1.811  0.3478  0.3880  0.0706
  129TMC2    C3 2005   1.144   0.199   1.870 -0.4065 -0.2516 -0.2556
  129TMC2    C4 2006   1.322   0.131   1.662 -0.3441  0.2775 -0.2768
  129TMC2    C5 2007   1.230   0.041   1.713  0.5952  0.1045  0.0055
  129TMC2    C6 2008   1.143   0.074   1.812 -0.1704 -0.2094  0.0760
  129TMC2     C 2009   1.420   0.353   1.673 -0.0005 -0.3315 -0.4958
  129TMC2     O 2010   1.529   0.314   1.636 -0.2598  0.5786  0.0317
  129TMC2     H 2011   1.228   0.388   1.858 -2.3643  0.3212  0.2553
  129TMC2    H1 2012   1.390   0.109   1.581  1.7263  0.3219  1.4680
  129TMC2    H2 2013   1.061   0.005   1.828 -1.4168  0.7873 -1.9381
  129TMC2    C7 2014   1.215   4.650   1.662 -0.0108 -0.2146 -0.6677
  129TMC2    C8 2015   1.044   0.239   1.963 -0.5148  0.2663 -0.2561
  129TMC2    O1 2016   1.108   4.597   1.654 -0.2877  0.2968  0.1208
  129TMC2    O2 2017   1.054   0.340   2.033 -0.7125  0.4026  0.8540
  129TMC2    O5 2018   0.926   0.181   1.938 -0.1921  0.5025  0.2445
  129TMC2    H5 2019   0.938   0.142   1.848  2.1258 -1.7540  1.5198
  130MPD2     C 2020   1.530   0.597   1.537  0.0494  0.3482 -0.5058
  130MPD2    C1 2021   1.414   0.599   1.610 -0.4008  0.3838 -0.0091
  130MPD2    C2 2022   1.345   0.718   1.622  0.6577  0.4331  0.2848
  130MPD2    C3 2023   1.392   0.835   1.565 -0.3708  0.5923  0.1590
  130MPD2    C4 2024   1.507   0.831   1.494 -0.2229  0.2620 -0.4997
  130MPD2    C5 2025   1.569   0.710   1.475  0.3183 -0.1856 -0.1163
  130MPD2     H 2026   1.247   0.724   1.669  0.1621  1.0074 -0.8066
  130MPD2    H1 2027   1.564   0.913   1.453 -1.9538  0.8903 -1.6456
  130MPD2    H2 2028   1.583   0.503   1.525  0.5875  0.6957 -0.8539
  130MPD2    H3 2029   1.662   0.699   1.419  1.3550  0.4106  1.4796
  130MPD2     N 2030   1.325   0.958   1.578  0.5264  0.0464 -0.2503
  130MPD2    H5 2031   1.377   1.029   1.527 -0.4230  2.4273  2.0536
  130MPD2    N1 2032   1.362   0.481   1.666 -0.0195  0.4310  0.0363
  130MPD2    H7 2033   1.264   0.491   1.690 -0.4509  1.2955 -2.0738
  131TMC2    C1 2034   4.382   4.342  10.313  0.6034  0.5299 -0.0288
  131TMC2    C2 2035   4.295   4.364  10.419  0.3337  0.5165 -0.4202
  131TMC2    C3 2036   4.280   4.486  10.472 -0.6287 -1.0307  0.3413
  131TMC2    C4 2037   4.440   4.452  10.246 -0.6513  0.1239  0.2979
  131TMC2    C5 2038   4.424   4.575  10.311  0.6256  0.8228  0.1738
  131TMC2    C6 2039   4.337   4.601  10.419  0.5885 -0.5101 -0.0742
  131TMC2     C 2040   4.379   4.212  10.249  0.6259 -0.3461 -0.2621
  131TMC2     O 2041   4.399   4.123  10.330  0.0003 -0.7566  0.2522
  131TMC2     H 2042   4.264   4.273  10.470 -0.9481  0.8010 -0.6954
  131TMC2    H1 2043   4.506   4.447  10.160  0.2498 -0.4481  1.0248
  131TMC2    H2 2044   4.326   4.701  10.460  2.3349 -0.7342  0.9494
  131TMC2    C7 2045   4.462   4.680  10.224  0.9440  0.2914  0.0423
  131TMC2    C8 2046   4.160   4.516  10.552 -0.2069  0.4533  0.2906
  131TMC2    O1 2047   4.463   4.652  10.106 -0.1545 -0.0242  0.3237
  131TMC2    O2 2048   4.103   4.627  10.545  0.3861 -0.3510  0.9153
  131TMC2    O5 2049   4.095   4.400  10.555 -0.1407 -0.6001 -0.1317
  131TMC2    H5 2050   4.156   4.324  10.568  0.5694 -0.4288 -2.4628
  132MPD2     C 2051   4.258   4.125   9.909 -0.2823  0.5365  0.3175
  132MPD2    C1 2052   4.306   4.113  10.035  0.3754  0.5108 -0.0043
  132MPD2    C2 2053   4.303   3.987  10.092  0.5392  0.6288  0.4607
  132MPD2    C3 2054   4.255   3.871  10.035 -0.4401  0.0774 -0.3456
  132MPD2    C4 2055   4.207   3.887   9.909 -0.3015 -0.0521  0.2465
  132MPD2    C5 2056   4.205   4.010   9.850 -0.5196 -0.3636  0.7735
  132MPD2     H 2057   4.343   3.966  10.191 -1.2172 -2.2512  0.5658
  132MPD2    H1 2058   4.150   3.811   9.858 -1.5900  0.8203  0.3840
  132MPD2    H2 2059   4.257   4.222   9.861  1.9079  0.9478  1.1180
  132MPD2    H3 2060   4.152   4.022   9.756 -1.3435 -1.9229  1.0361
  132MPD2     N 2061   4.237   3.766  10.116 -0.5983 -0.3232 -0.1458
  132MPD2    H5 2062   4.274   3.773  10.210 -3.9225  0.7520  1.0782
  132MPD2    N1 2063   4.332   4.226  10.118 -0.2791 -0.4567  0.0251
  132MPD2    H7 2064   4.324   4.321  10.082  2.1126 -0.4387 -0.4992
  133TMC2    C1 2065   4.149   0.867  10.174  0.1756 -0.1619  0.5561
  133TMC2    C2 2066   4.264   0.813  10.220  1.1015  0.1203  0.0676
  133TMC2    C3 2067   4.330   0.886  10.314  0.3772 -0.7983 -0.4010
  133TMC2    C4 2068   4.103   0.994  10.208 -0.0807 -0.0421  0.1892
  133TMC2    C5 2069   4.180   1.061  10.301 -0.0945 -0.0852  0.4953
  133TMC2    C6 2070   4.292   1.011  10.361 -0.0010 -0.2604  0.1907
  133TMC2     C 2071   4.061   0.782  10.104 -0.7989 -0.5379  0.3433
  133TMC2     O 2072   4.100   0.671  10.076  0.2449 -0.8826  0.1201
  133TMC2     H 2073   4.303   0.726  10.170 -2.6116 -1.0803 -0.7632
  133TMC2    H1 2074   4.016   1.043  10.167  1.8054  1.0793 -2.4149
  133TMC2    H2 2075   4.359   1.062  10.428  0.1891  1.3192 -1.2010
  133TMC2    C7 2076   4.111   1.174  10.353 -0.5382  0.2840  0.7546
  133TMC2    C8 2077   4.464   0.841  10.338 -0.1143 -0.3789 -0.5593
  133TMC2    O1 2078   3.988   1.171  10.344  0.0269  0.2272 -0.1620
  133TMC2    O2 2079   4.515   0.772  10.255 -0.2746 -0.6133 -0.4572
  133TMC2    O5 2080   4.471   0.813  10.471  0.1159 -0.4167 -0.0093
  133TMC2    H5 2081   4.425   0.875  10.531  0.6010 -0.5715  0.5254
  134MPD2     C 2082   3.722   0.840   9.966 -0.5000 -0.0729  0.3488
  134MPD2    C1 2083   3.845   0.783   9.979 -0.0050  0.0513 -0.4261
  134MPD2    C2 2084   3.871   0.668   9.901 -0.2805 -0.5881  0.3241
  134MPD2    C3 2085   3.780   0.609   9.814  0.1284 -0.7635 -0.4461
  134MPD2    C4 2086   3.659   0.669   9.799 -0.0033  0.1126 -0.3049
  134MPD2    C5 2087   3.630   0.780   9.882 -0.0632  0.4691  0.4932
  134MPD2     H 2088   3.967   0.619   9.911 -0.9884 -2.3390 -1.5368
  134MPD2    H1 2089   3.585   0.630   9.729 -2.0618 -0.5329  2.2331
  134MPD2    H2 2090   3.701   0.926  10.029 -1.7135 -1.2844  1.6044
  134MPD2    H3 2091   3.530   0.822   9.870  0.7920  2.1967 -0.5251
  134MPD2     N 2092   3.807   0.503   9.727  0.3522  0.5995  0.2427
  134MPD2    H5 2093   3.726   0.466   9.679  0.1469  1.2933  0.0641
  134MPD2    N1 2094   3.941   0.841  10.061  0.2223 -0.0814 -0.1773
  134MPD2    H7 2095   3.920   0.935  10.092  0.6925 -1.0948  3.2207
  135TMC2    C1 2096   0.896   1.202  10.447 -0.2325 -0.1538 -0.3040
  135TMC2    C2 2097   0.831   1.092  10.413  0.0386  0.0471  0.3496
  135TMC2    C3 2098   0.713   1.067  10.480  0.2308 -0.0356 -0.0646
  135TMC2    C4 2099   0.856   1.279  10.553  0.6014  0.3876  0.1112
  135TMC2    C5 2100   0.735   1.249  10.623  0.5756 -0.0474 -0.6906
  135TMC2    C6 2101   0.656   1.144  10.574 -0.7112 -1.1684 -0.1840
  135TMC2     C 2102   0.991   1.270  10.356  0.6438  0.0591  0.1809
  135TMC2     O 2103   1.005   1.389  10.374  0.1708 -0.0866 -0.4780
  135TMC2     H 2104   0.860   1.028  10.331 -5.8647  0.2173 -1.8263
  135TMC2    H1 2105   0.915   1.365  10.583  0.3758  0.8604 -0.7906
  135TMC2    H2 2106   0.555   1.130  10.609 -0.6752 -1.5313 -0.2288
  135TMC2    C7 2107   0.684   1.338  10.725 -0.1624 -0.1647  0.5622
  135TMC2    C8 2108   0.641   0.945  10.434  0.0780 -0.3160 -0.2187
  135TMC2    O1 2109   0.731   1.450  10.731  0.8964 -0.6027  0.0931
  135TMC2    O2 2110   0.694   0.871  10.349 -0.3509 -0.5160 -0.5793
  135TMC2    O5 2111   0.600   0.893  10.551 -0.3812  0.1021 -0.2869
  135TMC2    H5 2112   0.621   0.946  10.632  0.8327 -0.0677 -0.5011
  136MPD2     C 2113   1.144   1.359  10.121  0.5587  0.0920  0.3635
  136MPD2    C1 2114   1.148   1.226  10.170  0.1416 -0.4216 -1.2951
  136MPD2    C2 2115   1.238   1.138  10.123 -0.4502  0.9661  0.5568
  136MPD2    C3 2116   1.338   1.176  10.035 -0.2058  0.5998  0.5181
  136MPD2    C4 2117   1.342   1.315  10.009 -0.2337 -0.2448  0.5846
  136MPD2    C5 2118   1.241   1.399  10.041 -0.0881 -0.0116  0.5152
  136MPD2     H 2119   1.219   1.034  10.148  1.8182  0.5672  0.6626
  136MPD2    H1 2120   1.417   1.357   9.944  0.7681  0.9248  2.5056
  136MPD2    H2 2121   1.072   1.429  10.161  1.0837 -0.6893  2.6914
  136MPD2    H3 2122   1.248   1.499   9.999 -1.1197  0.7045  2.0378
  136MPD2     N 2123   1.413   1.087   9.957  0.6316 -0.4353  0.3861
  136MPD2    H5 2124   1.481   1.129   9.895  0.1621 -0.6280 -0.2513
  136MPD2    N1 2125   1.066   1.184  10.276 -0.1398  0.2602 -0.9688
  136MPD2    H7 2126   1.059   1.088  10.308 -0.1534  0.2809 -0.9089
  137TMC2    C1 2127   0.800   0.861   9.953 -0.7383 -0.1312  0.2253
  137TMC2    C2 2128   0.913   0.913   9.900 -0.0635  0.1837 -0.2568
  137TMC2    C3 2129   0.928   1.049   9.886 -0.3639 -0.2579  1.1828
  137TMC2    C4 2130   0.706   0.934  10.006  0.2240  0.2352  0.6383
  137TMC2    C5 2131   0.720   1.073   9.993  0.0001  0.2096  0.3492
  137TMC2    C6 2132   0.828   1.131   9.931 -0.5553 -0.5485  0.5529
  137TMC2     C 2133   0.827   0.736  10.010 -0.1240  0.2441 -0.3366
  137TMC2     O 2134   0.931   0.724  10.077  0.2257  0.0934  0.4885
  137TMC2     H 2135   0.991   0.846   9.865  0.2009 -0.9233  2.4953
  137TMC2    H1 2136   0.629   0.886  10.066 -0.9612  0.3041 -0.8194
  137TMC2    H2 2137   0.839   1.239   9.928  0.1426 -0.7342 -3.2282
  137TMC2    C7 2138   0.654   1.152  10.095  0.2814 -0.0159  0.4487
  137TMC2    C8 2139   1.020   1.102   9.795  0.5045  0.5122  0.1345
  137TMC2    O1 2140   0.705   1.259  10.132  0.1213 -0.0094  0.5254
  137TMC2    O2 2141   1.048   1.218   9.789  0.2029 -0.4461 -0.1420
  137TMC2    O5 2142   1.002   1.031   9.683 -0.4721 -0.2979 -0.3834
  137TMC2    H5 2143   0.937   0.958   9.688 -0.3692 -0.4486 -1.3368
  138MPD2     C 2144   0.607   0.432  10.010 -0.2312 -0.5589 -0.2622
  138MPD2    C1 2145   0.698   0.526  10.054 -0.1264  0.0509 -0.0010
  138MPD2    C2 2146   0.750   0.511  10.183 -0.0857 -0.4588  0.7162
  138MPD2    C3 2147   0.718   0.408  10.264  0.2271  0.7109  0.5340
  138MPD2    C4 2148   0.630   0.312  10.213 -0.2055 -0.1199 -0.1047
  138MPD2    C5 2149   0.570   0.332  10.087 -0.0593 -0.3463 -0.3711
  138MPD2     H 2150   0.822   0.584  10.218 -2.2032  1.8015  0.3341
  138MPD2    H1 2151   0.604   0.217  10.259 -1.3313 -0.1301 -0.7694
  138MPD2    H2 2152   0.567   0.433   9.910 -1.6422  1.4790  0.3239
  138MPD2    H3 2153   0.514   0.253  10.038 -0.5819 -0.6551  0.7244
  138MPD2     N 2154   0.777   0.395  10.392 -0.1612  0.6418 -0.7504
  138MPD2    H5 2155   0.829   0.473  10.430 -2.9786  1.3778  1.5901
  138MPD2    N1 2156   0.725   0.644   9.979 -0.0633  0.1256 -0.6187
  138MPD2    H7 2157   0.663   0.672   9.904 -0.4757  1.5311  0.2389
  139TMC2    C1 2158   1.377   3.662  13.591 -0.5343  0.4120 -0.4278
  139TMC2    C2 2159   1.364   3.704  13.463  0.5336  0.1982  0.1914
  139TMC2    C3 2160   1.263   3.791  13.428 -0.5744  0.5156  1.0029
  139TMC2    C4 2161   1.304   3.727  13.693  0.1538 -0.2173  0.1347
  139TMC2    C5 2162   1.188   3.792  13.652  0.3703  0.0760  0.5677
  139TMC2    C6 2163   1.171   3.828  13.522  0.1167  0.4815  0.6070
  139TMC2     C 2164   1.493   3.583  13.628 -0.7834 -0.2293  0.5021
  139TMC2     O 2165   1.550   3.527  13.534 -0.1950  0.8732  0.5382
  139TMC2     H 2166   1.434   3.667  13.388  2.3400  2.0504  0.9815
  139TMC2    H1 2167   1.292   3.695  13.796 -2.6202 -1.2942 -0.5316
  139TMC2    H2 2168   1.086   3.887  13.491  0.1178  0.7671  1.1545
  139TMC2    C7 2169   1.101   3.863  13.744  0.7863  0.3456  0.4827
  139TMC2    C8 2170   1.240   3.820  13.283 -0.7628  0.7623  0.1844
  139TMC2    O1 2171   1.066   3.973  13.711 -0.2074  0.1146 -0.1201
  139TMC2    O2 2172   1.128   3.858  13.247  0.5491  0.0926 -0.0314
  139TMC2    O5 2173   1.357   3.854  13.228  0.1470 -0.3336 -0.3587
  139TMC2    H5 2174   1.428   3.842  13.294  0.7167 -2.5018 -1.3427
  140MPD2     C 2175   1.621   3.498  13.969  0.3875  0.0432 -0.7377
  140MPD2    C1 2176   1.625   3.510  13.830 -0.1313  0.1000  0.5333
  140MPD2    C2 2177   1.729   3.446  13.764  0.3798 -0.2057  0.1160
  140MPD2    C3 2178   1.830   3.378  13.834 -0.4354 -0.0519 -0.2755
  140MPD2    C4 2179   1.831   3.383  13.976 -0.8101  0.2410  0.3264
  140MPD2    C5 2180   1.718   3.436  14.041  0.7993  0.3634  0.4981
  140MPD2     H 2181   1.730   3.449  13.656  0.1973 -0.5988  0.1032
  140MPD2    H1 2182   1.903   3.335  14.040 -0.0365 -2.2337 -2.3939
  140MPD2    H2 2183   1.542   3.554  14.017  1.2667 -1.3287  2.3284
  140MPD2    H3 2184   1.720   3.444  14.149  2.2370  0.5217  0.4530
  140MPD2     N 2185   1.938   3.318  13.769 -0.0783  0.0751  0.0506
  140MPD2    H5 2186   1.931   3.307  13.669  2.3966  1.8852 -0.3297
  140MPD2    N1 2187   1.517   3.573  13.769  0.4765 -0.4504  0.6767
  140MPD2    H7 2188   1.442   3.606  13.829  0.4394 -2.5268  1.7797
  141TMC2    C1 2189   2.160   0.684  14.225  0.4805  0.4658  0.4528
  141TMC2    C2 2190   2.053   0.623  14.289  0.1019  0.3619  0.2068
  141TMC2    C3 2191   1.955   0.709  14.328  0.3216 -1.0237 -0.1465
  141TMC2    C4 2192   2.173   0.819  14.230 -0.5222 -0.4765 -0.1921
  141TMC2    C5 2193   2.070   0.897  14.278  0.6657  0.1185 -0.2274
  141TMC2    C6 2194   1.957   0.843  14.324 -0.4080 -0.2577  0.3283
  141TMC2     C 2195   2.241   0.613  14.132 -0.6872  0.1723 -0.4416
  141TMC2     O 2196   2.283   0.680  14.037  0.2328  0.3540 -0.5726
  141TMC2     H 2197   2.032   0.517  14.279 -2.4705  0.8961  0.1253
  141TMC2    H1 2198   2.258   0.872  14.189 -0.4467 -0.8395 -0.4998
  141TMC2    H2 2199   1.884   0.911  14.366 -3.8167 -2.1278 -2.5731
  141TMC2    C7 2200   2.084   1.037  14.299  0.6678  0.2141  0.1551
  141TMC2    C8 2201   1.825   0.657  14.301 -0.2648  0.1580 -0.1983
  141TMC2    O1 2202   1.983   1.100  14.306  0.5154  0.2225 -0.3534
  141TMC2    O2 2203   1.789   0.618  14.188 -0.1969  0.1734 -0.7364
  141TMC2    O5 2204   1.744   0.695  14.400  0.2304 -0.7103 -0.2077
  141TMC2    H5 2205   1.802   0.741  14.464 -0.8744 -0.0646  0.3284
  142TMC2    C1 2206   4.500   3.447  10.024 -0.7392  0.3724 -0.0830
  142TMC2    C2 2207   4.466   3.467   9.892  0.2949  0.7647 -0.1923
  142TMC2    C3 2208   4.503   3.582   9.825  0.5843 -0.1961 -0.4102
  142TMC2    C4 2209   4.556   3.550  10.097  0.7531  0.5276  0.6749
  142TMC2    C5 2210   4.595   3.661  10.022  0.2695 -0.2658 -1.1619
  142TMC2    C6 2211   4.561   3.684   9.887 -0.6188  0.0829  0.5834
  142TMC2     C 2212   4.434   3.331  10.094 -0.0171 -0.3196 -0.0526
  142TMC2     O 2213   4.349   3.266  10.027  0.3221 -0.1167 -0.2108
  142TMC2     H 2214   4.423   3.385   9.836 -2.5852 -1.0087  4.5648
  142TMC2    H1 2215   4.584   3.551  10.201 -0.6897  0.2067  1.0581
  142TMC2    H2 2216   4.547   3.785   9.851  0.3921  0.8425  2.3334
  142TMC2    C7 2217   4.602   3.776  10.102 -0.1254  0.4475 -0.3937
  142TMC2    C8 2218   4.477   3.596   9.689 -0.3792  0.4283  0.4798
  142TMC2    O1 2219   4.544   3.782  10.207  0.3476 -0.1301 -0.9570
  142TMC2    O2 2220   4.389   3.525   9.632 -0.3505 -0.7355  0.0495
  142TMC2    O5 2221   4.578   3.659   9.639  0.1648 -0.4573  0.5601
  142TMC2    H5 2222   4.652   3.677   9.701 -0.2592  1.3655  0.5545
  143MPD2     C 2223   4.241   3.179  10.539 -0.8055  0.3222  0.3002
  143MPD2    C1 2224   4.191   3.153  10.417 -0.0977  0.3692 -0.1609
  143MPD2    C2 2225   4.268   3.193  10.305  0.8092 -0.3825  0.3299
  143MPD2    C3 2226   4.394   3.251  10.329 -0.0207 -0.4762  0.1700
  143MPD2    C4 2227   4.446   3.264  10.458  0.3450  0.4474  0.0724
  143MPD2    C5 2228   4.370   3.230  10.564  0.5760 -1.0374 -0.5713
  143MPD2     H 2229   4.219   3.199  10.209 -2.2227  0.1710  1.9259
  143MPD2    H1 2230   4.541   3.310  10.481 -0.6019  1.2214  2.4900
  143MPD2    H2 2231   4.178   3.157  10.624  0.9791 -0.2476  1.4776
  143MPD2    H3 2232   4.401   3.240  10.667  0.0895 -1.2143 -0.4044
  143MPD2     N 2233   4.458   3.321  10.227  0.0912 -1.1432 -0.0086
  143MPD2    H5 2234   4.533   3.382  10.259 -0.6638  0.0571 -0.5342
  143MPD2    N1 2235   4.061   3.101  10.411 -0.2019 -0.0791 -0.3636
  143MPD2    H7 2236   4.009   3.086  10.497  1.2927  0.4972  0.6514
  144TMC2    C1 2237   3.408   2.614   0.206 -0.1229  0.2257 -0.2437
  144TMC2    C2 2238   3.498   2.638   0.106  0.5651  0.4899  0.0356
  144TMC2    C3 2239   3.628   2.607   0.137 -0.0881  0.0983  0.3614
  144TMC2    C4 2240   3.436   2.549   0.323  0.6254  0.5206  0.3804
  144TMC2    C5 2241   3.568   2.530   0.352 -0.8865  0.3177  0.5116
  144TMC2    C6 2242   3.667   2.554   0.263 -0.4057 -0.0802 -0.3528
  144TMC2     C 2243   3.276   2.651   0.185  0.9143 -0.3554 -0.7009
  144TMC2     O 2244   3.242   2.677   0.073  0.3634  0.3411  0.1214
  144TMC2     H 2245   3.466   2.681   0.012 -2.3241 -1.6990  0.0199
  144TMC2    H1 2246   3.357   2.510   0.386  0.5518 -0.5358 -0.3653
  144TMC2    H2 2247   3.769   2.531   0.293 -1.1170 -2.4272  0.2810
  144TMC2    C7 2248   3.606   2.477   0.482 -0.1418 -0.0331 -0.6624
  144TMC2    C8 2249   3.724   2.587   0.033  0.0203  1.0462  0.0056
  144TMC2    O1 2250   3.713   2.414   0.484  0.2555 -0.0568 -0.2692
  144TMC2    O2 2251   3.788   2.484   0.024 -0.4015 -0.1865  0.5529
  144TMC2    O5 2252   3.710   2.679  17.697 -0.1077  0.0923  0.1182
  144TMC2    H5 2253   3.651   2.752  17.727  0.6640  0.8311 -0.1431
  145MPD2     C 2254   2.789   2.706   0.360 -0.2456  0.2257 -0.2107
  145MPD2    C1 2255   2.842   2.692   0.231 -0.3122 -0.6410 -0.6877
  145MPD2    C2 2256   2.980   2.668   0.219  0.7694 -0.2254  1.4832
  145MPD2    C3 2257   3.067   2.695   0.325  0.3143  0.6018 -0.1617
  145MPD2    C4 2258   3.016   2.717   0.451  0.3380  0.6125 -0.4577
  145MPD2    C5 2259   2.879   2.710   0.467  0.9117  0.0774  0.0582
  145MPD2     H 2260   3.017   2.655   0.118 -0.4688 -1.2484  1.1689
  145MPD2    H1 2261   3.081   2.725   0.537  0.6182  1.1874 -0.7294
  145MPD2    H2 2262   2.683   2.714   0.378  0.4771  0.3891  3.9047
  145MPD2    H3 2263   2.840   2.715   0.568  2.3805 -1.4365  0.6980
  145MPD2     N 2264   3.206   2.677   0.304 -0.7204 -0.7116 -0.1838
  145MPD2    H5 2265   3.263   2.660   0.387  1.0223 -2.6984 -1.7899
  145MPD2    N1 2266   2.756   2.691   0.121 -0.0419  0.1956 -0.2337
  145MPD2    H7 2267   2.798   2.662   0.033  0.5896 -1.6113  0.6528
  146TMC2    C1 2268   3.746   1.453  12.831 -0.3155  0.0914  0.4099
  146TMC2    C2 2269   3.680   1.488  12.722  0.0065 -0.5276  0.3855
  146TMC2    C3 2270   3.689   1.414  12.606  0.1762 -0.0416 -0.0616
  146TMC2    C4 2271   3.816   1.336  12.832  0.7279  0.5109 -0.3691
  146TMC2    C5 2272   3.808   1.258  12.722 -1.0253  0.0058  1.2470
  146TMC2    C6 2273   3.751   1.290  12.604  0.2744 -0.1927  0.4690
  146TMC2     C 2274   3.765   1.554  12.941  0.4875 -0.3967  0.5376
  146TMC2     O 2275   3.728   1.666  12.916  0.7588  0.0730 -0.2929
  146TMC2     H 2276   3.622   1.580  12.717  1.3155  0.4368  3.0346
  146TMC2    H1 2277   3.870   1.299  12.918  0.1228 -1.3124 -0.7709
  146TMC2    H2 2278   3.736   1.209  12.534  1.3469  0.4288 -0.4887
  146TMC2    C7 2279   3.886   1.143  12.725  0.1493 -0.3969 -0.9640
  146TMC2    C8 2280   3.659   1.470  12.473 -0.0619  0.3837  0.6465
  146TMC2    O1 2281   3.839   1.046  12.675 -0.2405 -0.0906 -0.4380
  146TMC2    O2 2282   3.596   1.574  12.477  0.3675  0.6706 -0.0053
  146TMC2    O5 2283   3.754   1.441  12.384 -0.2208 -0.3085 -0.5171
  146TMC2    H5 2284   3.786   1.349  12.372 -1.4188 -1.0900  2.4185
  147MPD2     C 2285   4.267   0.846  12.920 -0.3365 -0.5765  0.1683
  147MPD2    C1 2286   4.282   0.974  12.967  0.4913 -0.1069 -0.2010
  147MPD2    C2 2287   4.193   1.076  12.918 -0.5807 -0.4904 -0.0893
  147MPD2    C3 2288   4.092   1.042  12.826 -0.4042  0.4153 -0.3999
  147MPD2    C4 2289   4.085   0.914  12.773  0.0520  0.2263 -0.1225
  147MPD2    C5 2290   4.169   0.826  12.823  1.2640  0.0921  0.4824
  147MPD2     H 2291   4.199   1.174  12.964 -0.3540 -0.6828  0.2944
  147MPD2    H1 2292   4.006   0.879  12.707 -0.3420 -0.5457  0.7633
  147MPD2    H2 2293   4.330   0.766  12.958 -0.7112 -0.4370  1.0986
  147MPD2    H3 2294   4.168   0.730  12.773 -0.4572 -0.0829  0.8293
  147MPD2     N 2295   4.006   1.153  12.788  0.7356  0.2514  1.1704
  147MPD2    H5 2296   4.028   1.244  12.826  0.1129  1.1359 -0.5637
  147MPD2    N1 2297   4.378   0.992  13.069  0.6193 -0.8534  0.0855
  147MPD2    H7 2298   4.417   0.909  13.114  0.6824 -1.1420 -0.4961
  148TMC2    C1 2299   4.041   0.190  10.756 -0.9054 -0.0611 -0.1846
  148TMC2    C2 2300   4.153   0.252  10.723  0.4418 -0.1849  0.6383
  148TMC2    C3 2301   4.275   0.188  10.741 -0.4782  0.3629 -0.1982
  148TMC2    C4 2302   4.049   0.066  10.810 -0.0945 -0.1987 -0.2535
  148TMC2    C5 2303   4.173   0.013  10.853  0.1149 -0.3223  0.3233
  148TMC2    C6 2304   4.287   0.069  10.805  0.0853 -0.0363 -0.5331
  148TMC2     C 2305   3.940   0.218  10.656 -0.3767  0.2170 -0.1621
  148TMC2     O 2306   3.902   0.332  10.637  0.2720 -0.1677  0.1432
  148TMC2     H 2307   4.143   0.341  10.661 -4.3356 -1.9422 -1.1451
  148TMC2    H1 2308   3.960   0.008  10.832 -0.2374  0.8873  2.0803
  148TMC2    H2 2309   4.383   0.025  10.826 -1.0531 -3.1663 -1.9823
  148TMC2    C7 2310   4.180   4.611  10.872  0.7202  0.5167  0.3504
  148TMC2    C8 2311   4.382   0.221  10.651  0.2216  0.2731  0.3394
  148TMC2    O1 2312   4.274   4.553  10.830  0.0640  0.2163  0.0914
  148TMC2    O2 2313   4.444   0.137  10.596  0.2267 -0.0796  0.5238
  148TMC2    O5 2314   4.429   0.336  10.700 -0.5805  0.2558  0.1191
  148TMC2    H5 2315   4.359   0.390  10.743 -0.0837  0.1427  1.0501
  149MPD2     C 2316   3.707   0.194  10.477  0.1644 -0.5309  0.3546
  149MPD2    C1 2317   3.792   0.089  10.504 -0.8515  0.1474 -0.5734
  149MPD2    C2 2318   3.779   4.711  10.430  0.0801  0.3899  0.5134
  149MPD2    C3 2319   3.674   4.705  10.338  0.0978  0.9290  0.0843
  149MPD2    C4 2320   3.585   0.069  10.328  0.4097 -0.2382 -0.2741
  149MPD2    C5 2321   3.601   0.182  10.390 -0.3457  0.4690 -0.4502
  149MPD2     H 2322   3.842   4.624  10.443  0.2228  0.5250  0.7380
  149MPD2    H1 2323   3.510   0.065  10.250  0.1220 -0.0451 -0.0067
  149MPD2    H2 2324   3.719   0.293  10.520 -3.6100 -0.2693  0.8105
  149MPD2    H3 2325   3.547   0.275  10.378  0.6802  1.3834  2.0397
  149MPD2     N 2326   3.653   4.594  10.246 -0.0362  0.2063  0.0347
  149MPD2    H5 2327   3.582   4.611  10.176  0.5280 -2.1410 -1.1399
  149MPD2    N1 2328   3.897   0.102  10.601 -0.2778 -0.2015 -0.3362
  149MPD2    H7 2329   3.956   0.020  10.607 -1.7751 -1.2597 -0.0187
  150TMC2    C1 2330   1.502   4.359  12.441 -0.2362 -0.3144 -0.2731
  150TMC2    C2 2331   1.456   4.478  12.389  0.1787  0.2304 -0.6089
  150TMC2    C3 2332   1.516   4.590  12.442 -1.2978 -0.0106  0.5225
  150TMC2    C4 2333   1.613   4.354  12.527 -0.7589 -0.5737  0.5908
  150TMC2    C5 2334   1.682   4.469  12.551 -0.6826 -0.0043 -0.0764
  150TMC2    C6 2335   1.633   4.589  12.516 -0.0067  0.4116 -0.1246
  150TMC2     C 2336   1.402   4.257  12.455 -0.3309  0.0257 -0.6073
  150TMC2     O 2337   1.418   4.171  12.542  0.0724  0.6874  0.8271
  150TMC2     H 2338   1.368   4.478  12.326  0.3620  0.6657 -0.8683
  150TMC2    H1 2339   1.638   4.258  12.569  1.1293  0.4504  1.8414
  150TMC2    H2 2340   1.687   4.682  12.526  0.3785  0.3114 -1.3556
  150TMC2    C7 2341   1.822   4.462  12.593 -0.0227 -0.0642  0.0176
  150TMC2    C8 2342   1.487   4.712  12.379  0.4248 -0.1160 -0.0551
  150TMC2    O1 2343   1.875   4.570  12.616 -0.7107  0.2841 -0.2552
  150TMC2    O2 2344   1.566   0.049  12.333 -0.1377 -0.0506 -0.1444
  150TMC2    O5 2345   1.355   4.721  12.347 -0.2957 -0.3302  0.5917
  150TMC2    H5 2346   1.291   4.676  12.405 -2.3142  1.2088 -0.4525
  151MPD2     C 2347   0.945   4.051  12.360  0.5617 -0.5305 -0.0225
  151MPD2    C1 2348   0.975   4.121  12.249  0.5692 -0.2242  0.1216
  151MPD2    C2 2349   1.099   4.190  12.243 -0.1617  0.0894  0.9236
  151MPD2    C3 2350   1.186   4.177  12.350  0.0659  0.2016 -1.1058
  151MPD2    C4 2351   1.147   4.100  12.462  0.4388  0.0255 -0.4787
  151MPD2    C5 2352   1.027   4.045  12.463 -0.3065 -0.0113  0.1944
  151MPD2     H 2353   1.127   4.261  12.166 -2.0807  2.0554  2.0424
  151MPD2    H1 2354   1.208   4.101  12.552  1.1945 -0.4846 -0.9833
  151MPD2    H2 2355   0.849   4.002  12.366  0.3375 -0.1094 -0.1934
  151MPD2    H3 2356   0.997   3.992  12.552  2.2703 -1.4515  0.2075
  151MPD2     N 2357   1.306   4.247  12.352 -0.6255  0.1718  0.0249
  151MPD2    H5 2358   1.322   4.312  12.276 -2.3345  0.9004  0.2675
  151MPD2    N1 2359   0.884   4.109  12.146  0.1416  0.4604  0.2526
  151MPD2    H7 2360   0.806   4.046  12.161  0.0573  0.4188 -0.3596
  152TMC2    C1 2361   1.031   4.096  12.852  0.3811  0.2290 -0.0822
  152TMC2    C2 2362   1.096   3.974  12.867  0.1141  0.8830  0.1504
  152TMC2    C3 2363   1.228   3.971  12.862  0.0483 -0.8691 -0.9208
  152TMC2    C4 2364   1.103   4.207  12.824  0.4014  0.3329 -0.0813
  152TMC2    C5 2365   1.242   4.195  12.809  0.2503  0.4607  1.2334
  152TMC2    C6 2366   1.304   4.076  12.826 -0.0671  0.0303  0.1015
  152TMC2     C 2367   0.897   4.085  12.801 -0.3612  0.4191 -0.3992
  152TMC2     O 2368   0.867   4.156  12.708  0.1366 -0.5180  0.2215
  152TMC2     H 2369   1.049   3.877  12.880 -1.0753  1.5119  0.6039
  152TMC2    H1 2370   1.046   4.297  12.804  0.1165  0.5110  1.5217
  152TMC2    H2 2371   1.411   4.066  12.813 -0.1381  0.3494 -0.7215
  152TMC2    C7 2372   1.319   4.315  12.791  0.0821 -1.2687 -0.4196
  152TMC2    C8 2373   1.286   3.841  12.887 -0.2483 -0.5773 -0.1287
  152TMC2    O1 2374   1.260   4.407  12.737 -0.0693 -0.0314  1.0156
  152TMC2    O2 2375   1.230   3.731  12.865 -0.4832  0.0503  0.0696
  152TMC2    O5 2376   1.418   3.848  12.920 -0.3419 -0.1804 -0.2957
  152TMC2    H5 2377   1.458   3.934  12.945  0.8107 -0.5051 -1.0621
  153MPD2     C 2378   0.645   3.819  12.879 -0.1572 -0.2241 -0.4078
  153MPD2    C1 2379   0.708   3.921  12.803  0.4046 -0.2687  0.1975
  153MPD2    C2 2380   0.642   3.958  12.692 -1.0579  0.3284 -0.2864
  153MPD2    C3 2381   0.521   3.907  12.654  0.3448  0.4453  0.0449
  153MPD2    C4 2382   0.458   3.819  12.742  0.1926 -0.4199 -0.0875
  153MPD2    C5 2383   0.526   3.772  12.849 -0.0163  0.1565  0.7884
  153MPD2     H 2384   0.693   4.019  12.618 -0.8635  0.5583  0.0424
  153MPD2    H1 2385   0.366   3.763  12.731 -0.5824  1.2261 -1.9366
  153MPD2    H2 2386   0.687   3.778  12.971 -0.6424 -1.2058 -0.6243
  153MPD2    H3 2387   0.482   3.696  12.911 -1.5067 -0.3501 -0.8864
  153MPD2     N 2388   0.454   3.944  12.536  0.4677  0.4486 -0.2093
  153MPD2    H5 2389   0.500   4.012  12.477 -0.1716 -0.2998 -1.5655
  153MPD2    N1 2390   0.828   3.977  12.851  0.8046 -0.6192  0.0236
  153MPD2    H7 2391   0.864   3.930  12.933 -1.5132 -0.1216  1.3406
  154TMC2    C1 2392   2.689   4.072   0.536  0.3893 -0.3247  0.1607
  154TMC2    C2 2393   2.614   3.956   0.535 -0.5014  1.2389  0.1544
  154TMC2    C3 2394   2.566   3.916   0.413 -0.1770 -0.1744  0.0615
  154TMC2    C4 2395   2.719   4.142   0.416 -0.3339  0.0392 -0.5638
  154TMC2    C5 2396   2.671   4.086   0.298  0.6427 -0.3738  0.3011
  154TMC2    C6 2397   2.595   3.970   0.289  0.1448 -0.3841 -0.1294
  154TMC2     C 2398   2.719   4.127   0.669 -0.7237 -0.0875 -0.6518
  154TMC2     O 2399   2.806   4.213   0.673  0.0541 -0.1799  0.1350
  154TMC2     H 2400   2.583   3.905   0.626 -0.8708 -0.2753 -0.8223
  154TMC2    H1 2401   2.782   4.230   0.422  1.3784 -1.1482 -1.2129
  154TMC2    H2 2402   2.578   3.919   0.195  1.6334  2.3544 -1.8913
  154TMC2    C7 2403   2.699   4.171   0.185  0.7040  0.7198  0.0249
  154TMC2    C8 2404   2.499   3.785   0.401  0.0458 -0.2420  0.1399
  154TMC2    O1 2405   2.783   4.264   0.190 -0.6890 -0.1765 -0.6171
  154TMC2    O2 2406   2.494   3.723   0.295  0.2463  0.2068 -0.2077
  154TMC2    O5 2407   2.402   3.806   0.488 -0.9385 -0.1585  0.7029
  154TMC2    H5 2408   2.410   3.872   0.559 -1.1750 -0.7157  1.2471
  155MPD2     C 2409   2.488   4.162   0.950 -0.0539  0.0186 -0.2243
  155MPD2    C1 2410   2.608   4.162   0.890 -0.7691  0.2025 -0.4633
  155MPD2    C2 2411   2.716   4.209   0.957 -0.5020  0.3933 -0.4554
  155MPD2    C3 2412   2.707   4.255   1.087 -0.0778  0.0928  0.1274
  155MPD2    C4 2413   2.580   4.260   1.140  0.0032  0.1317  0.3438
  155MPD2    C5 2414   2.469   4.217   1.068 -0.1562 -0.7505 -0.5817
  155MPD2     H 2415   2.816   4.193   0.918 -0.9075  1.6698 -2.0518
  155MPD2    H1 2416   2.560   4.287   1.243 -0.8390 -1.7010  0.6658
  155MPD2    H2 2417   2.401   4.107   0.914  0.1376 -0.8837  0.6892
  155MPD2    H3 2418   2.375   4.203   1.120 -0.0281 -0.5871 -0.3068
  155MPD2     N 2419   2.825   4.302   1.152  0.5251 -0.0794 -0.2257
  155MPD2    H5 2420   2.913   4.292   1.101 -0.2048 -1.3067 -1.2374
  155MPD2    N1 2421   2.617   4.101   0.760 -0.0090  0.0515  0.4908
  155MPD2    H7 2422   2.532   4.053   0.735  0.1172  0.5660 -0.9570
  156TMC2    C1 2423   1.535   1.510  11.415 -0.0568  0.5119 -0.3886
  156TMC2    C2 2424   1.659   1.478  11.375  0.4026  0.1697  0.5772
  156TMC2    C3 2425   1.715   1.547  11.271 -0.4460  0.6358 -0.5755
  156TMC2    C4 2426   1.460   1.592  11.333  0.3265  0.1509  0.7075
  156TMC2    C5 2427   1.519   1.664  11.236 -0.7027  0.5158  0.0726
  156TMC2    C6 2428   1.653   1.653  11.202 -0.4340  0.9433 -0.5947
  156TMC2     C 2429   1.506   1.513  11.551  0.4479 -0.0158 -0.4157
  156TMC2     O 2430   1.435   1.611  11.577 -0.3855  0.2966  0.1232
  156TMC2     H 2431   1.719   1.409  11.434  1.0200 -0.1322 -0.3892
  156TMC2    H1 2432   1.355   1.602  11.356 -0.3163  0.2378 -2.2444
  156TMC2    H2 2433   1.703   1.706  11.122 -1.4537  1.3815 -0.9470
  156TMC2    C7 2434   1.474   1.800  11.240 -0.4676 -0.0725 -0.8156
  156TMC2    C8 2435   1.858   1.535  11.238  0.2955  0.3849  0.7358
  156TMC2    O1 2436   1.515   1.882  11.155  0.1116  0.1024  0.1524
  156TMC2    O2 2437   1.921   1.619  11.181 -0.0370  1.2051  0.2012
  156TMC2    O5 2438   1.923   1.428  11.290  0.2203 -0.2754 -0.1714
  156TMC2    H5 2439   1.860   1.360  11.323  2.6426 -1.8028  1.3414
  157MPD2     C 2440   1.652   1.302  11.817 -0.3433  0.5385  0.1752
  157MPD2    C1 2441   1.561   1.394  11.761 -0.1460  0.2175  0.7558
  157MPD2    C2 2442   1.475   1.466  11.842 -0.5041 -0.1786  0.3746
  157MPD2    C3 2443   1.485   1.458  11.980 -0.3130 -1.1707  0.0214
  157MPD2    C4 2444   1.572   1.362  12.039  0.3259 -0.2878  0.6287
  157MPD2    C5 2445   1.659   1.292  11.953  0.5309  0.7668 -0.2297
  157MPD2     H 2446   1.405   1.538  11.801  1.4350  0.7232 -1.3393
  157MPD2    H1 2447   1.583   1.350  12.146  0.0539  2.6026  0.9768
  157MPD2    H2 2448   1.723   1.242  11.760  0.7299 -0.5796  2.6866
  157MPD2    H3 2449   1.723   1.223  12.006 -1.3045  0.6050  1.7578
  157MPD2     N 2450   1.402   1.547  12.045  0.0751  0.2064  0.2122
  157MPD2    H5 2451   1.380   1.633  11.995 -1.6949 -2.0634 -2.8520
  157MPD2    N1 2452   1.578   1.424  11.623 -0.7553  0.7678 -0.3447
  157MPD2    H7 2453   1.630   1.353  11.572  1.1634  1.2366  0.9705
  158TMC2    C1 2454   1.397   0.321  13.339  0.4314 -0.3548  0.5302
  158TMC2    C2 2455   1.386   0.350  13.206  0.4568 -0.1065 -0.0547
  158TMC2    C3 2456   1.267   0.324  13.148 -0.1577  1.0053 -0.3999
  158TMC2    C4 2457   1.291   0.273  13.414  0.4046  0.8848  0.0102
  158TMC2    C5 2458   1.163   0.245  13.351  0.3420  0.2080  0.4331
  158TMC2    C6 2459   1.158   0.272  13.213 -0.3446 -0.1412  0.6520
  158TMC2     C 2460   1.528   0.359  13.396  0.2688  0.6014 -0.7647
  158TMC2     O 2461   1.607   0.420  13.328  0.2582  0.7535  0.1940
  158TMC2     H 2462   1.471   0.392  13.154  1.5596 -0.2380  1.6319
  158TMC2    H1 2463   1.299   0.238  13.516  0.9378  2.8111  0.6394
  158TMC2    H2 2464   1.063   0.257  13.162 -0.2257 -1.6496  0.8916
  158TMC2    C7 2465   1.037   0.247  13.418 -0.1358 -0.6494 -0.6891
  158TMC2    C8 2466   1.258   0.295  13.007 -0.1624 -0.2007  0.5835
  158TMC2    O1 2467   0.941   0.283  13.353 -0.9471 -0.3368  0.2054
  158TMC2    O2 2468   1.154   0.300  12.941  0.1531  0.5263 -0.2700
  158TMC2    O5 2469   1.360   0.214  12.977 -0.2078 -0.1689  0.4362
  158TMC2    H5 2470   1.400   0.167  13.053  1.6939  2.0820  0.8293
  159MPD2     C 2471   1.816   0.437  13.816  0.1267  0.5563 -1.1167
  159MPD2    C1 2472   1.689   0.390  13.853 -0.8047 -0.0913 -0.1871
  159MPD2    C2 2473   1.607   0.347  13.750  0.4392 -0.9391  0.1054
  159MPD2    C3 2474   1.628   0.376  13.618  0.0003 -0.3322  0.5253
  159MPD2    C4 2475   1.748   0.435  13.580 -0.1152  0.2331  0.3850
  159MPD2    C5 2476   1.842   0.456  13.680  0.3190  0.0268  0.2126
  159MPD2     H 2477   1.506   0.310  13.760  0.2366 -0.7125 -1.1806
  159MPD2    H1 2478   1.773   0.465  13.479 -0.8228 -0.0626  0.1216
  159MPD2    H2 2479   1.891   0.466  13.889  0.0594 -2.5791  0.2240
  159MPD2    H3 2480   1.934   0.506  13.653  0.1726  1.1327  1.6994
  159MPD2     N 2481   1.525   0.338  13.530  0.6857 -0.0812  0.1751
  159MPD2    H5 2482   1.445   0.290  13.570 -0.9148  1.0342 -1.6518
  159MPD2    N1 2483   1.658   0.395  13.989 -0.0851 -0.0451 -0.6670
  159MPD2    H7 2484   1.734   0.398  14.056  0.4408  0.4865 -1.2887
  160TMC2    C1 2485   1.653   2.623   1.214  0.3021 -0.7163 -0.1282
  160TMC2    C2 2486   1.721   2.636   1.336  0.1476  0.0775  0.8215
  160TMC2    C3 2487   1.855   2.651   1.336  0.1378 -0.2928  0.6091
  160TMC2    C4 2488   1.723   2.634   1.094 -0.2717  0.0973  0.4895
  160TMC2    C5 2489   1.859   2.640   1.101  0.4567 -0.3200  0.7724
  160TMC2    C6 2490   1.927   2.648   1.218  0.3540 -0.0566  0.0445
  160TMC2     C 2491   1.516   2.660   1.227 -0.0154 -0.5956 -0.2979
  160TMC2     O 2492   1.453   2.639   1.330 -0.2338 -0.5541 -0.2606
  160TMC2     H 2493   1.672   2.642   1.433  0.5769  1.2710  0.9708
  160TMC2    H1 2494   1.675   2.617   0.998  1.3660 -0.2870 -0.2471
  160TMC2    H2 2495   2.033   2.670   1.214  0.4274  0.1464  2.7605
  160TMC2    C7 2496   1.914   2.673   0.974  0.4795 -0.4606 -0.4130
  160TMC2    C8 2497   1.926   2.669   1.465 -0.1465  0.4902  0.1735
  160TMC2    O1 2498   1.860   2.640   0.873 -0.2747 -0.2116 -0.2106
  160TMC2    O2 2499   2.042   2.709   1.469  0.1593 -0.4960 -0.7543
  160TMC2    O5 2500   1.881   2.581   1.558  0.3887 -0.0097  0.2344
  160TMC2    H5 2501   1.813   2.520   1.522 -0.9568  1.5927  0.0016
  161MPD2     C 2502   1.267   2.811   1.178 -0.2268  0.1988 -0.6025
  161MPD2    C1 2503   1.379   2.825   1.103  0.6628  0.7049  0.2454
  161MPD2    C2 2504   1.380   2.922   0.998 -0.0865 -0.3229  0.3906
  161MPD2    C3 2505   1.276   3.005   0.976 -0.0716 -0.4511  0.4126
  161MPD2    C4 2506   1.165   2.984   1.052 -0.5671  0.1310 -0.5488
  161MPD2    C5 2507   1.156   2.881   1.146  0.2531  0.4071 -0.5314
  161MPD2     H 2508   1.471   2.917   0.939 -0.4479  1.3788 -0.2935
  161MPD2    H1 2509   1.081   3.051   1.041 -0.3294 -0.0266 -3.3193
  161MPD2    H2 2510   1.250   2.752   1.266  0.9295 -1.2310 -1.3303
  161MPD2    H3 2511   1.063   2.876   1.202  0.0481  1.9893 -0.7299
  161MPD2     N 2512   1.273   3.091   0.862 -0.2847 -0.0020  0.7403
  161MPD2    H5 2513   1.184   3.136   0.846  0.7082  2.3161  1.6838
  161MPD2    N1 2514   1.490   2.740   1.121  0.0625  0.8110 -0.6100
  161MPD2    H7 2515   1.563   2.750   1.051 -0.0001 -2.2443 -1.0740
  162TMC2    C1 2516   0.560   0.289   1.379  0.9341 -0.2652  0.3004
  162TMC2    C2 2517   0.692   0.283   1.423 -0.3548  0.6274  0.1900
  162TMC2    C3 2518   0.731   0.181   1.505 -0.5503  0.3408 -0.1196
  162TMC2    C4 2519   0.465   0.202   1.422  0.1084  0.1686 -0.2320
  162TMC2    C5 2520   0.511   0.093   1.498 -0.2078  0.3212 -0.9447
  162TMC2    C6 2521   0.640   0.088   1.545 -0.7488  0.1232 -0.2273
  162TMC2     C 2522   0.535   0.386   1.277 -0.1874 -0.5664  0.4744
  162TMC2     O 2523   0.607   0.488   1.274  0.3133  0.2998  0.0226
  162TMC2     H 2524   0.756   0.367   1.398 -1.2421  0.9828 -0.9399
  162TMC2    H1 2525   0.360   0.225   1.408 -0.3132 -1.2645  0.5224
  162TMC2    H2 2526   0.683   4.739   1.590 -1.0576  0.4907  0.7907
  162TMC2    C7 2527   0.419   4.723   1.522  0.4765  0.2301  0.3992
  162TMC2    C8 2528   0.858   0.189   1.565  0.3051  0.6181 -0.1461
  162TMC2    O1 2529   0.302   4.736   1.488 -0.1622  0.3225 -0.2121
  162TMC2    O2 2530   0.875   0.130   1.671 -0.1223  0.4126  0.0070
  162TMC2    O5 2531   0.951   0.243   1.481  0.5226  0.0995  0.0886
  162TMC2    H5 2532   0.923   0.241   1.387  2.1365  1.5330 -0.4198
  163MPD2     C 2533   0.305   0.607   0.889 -0.6690  0.3006 -0.1789
  163MPD2    C1 2534   0.247   0.481   0.902  0.0782  0.0623  0.2220
  163MPD2    C2 2535   0.279   0.404   1.014 -0.1464  0.1103  0.6438
  163MPD2    C3 2536   0.371   0.458   1.105  0.3004 -0.1973 -0.7188
  163MPD2    C4 2537   0.421   0.587   1.088 -0.0079  0.0084 -0.0319
  163MPD2    C5 2538   0.386   0.660   0.980 -0.0296 -0.5237 -0.0055
  163MPD2     H 2539   0.243   0.302   1.023  2.0615 -0.5386  2.1187
  163MPD2    H1 2540   0.481   0.637   1.163  1.8148 -0.0313 -1.4539
  163MPD2    H2 2541   0.286   0.667   0.801 -1.0629 -0.2554 -0.4748
  163MPD2    H3 2542   0.409   0.766   0.981 -1.9095 -0.1227 -0.6079
  163MPD2     N 2543   0.423   0.367   1.195 -0.0515  0.6359 -1.1870
  163MPD2    H5 2544   0.367   0.284   1.208 -0.1631  0.9467  0.2727
  163MPD2    N1 2545   0.161   0.446   0.798  0.3269 -0.3029 -0.1451
  163MPD2    H7 2546   0.143   0.513   0.725  1.9303 -1.6370 -1.7564
  164TMC2    C1 2547   4.712   4.352  11.242  0.5080  0.1887 -0.2665
  164TMC2    C2 2548   0.056   4.438  11.170  0.0899 -0.1015  0.1670
  164TMC2    C3 2549   0.023   4.569  11.154  0.4889  0.3782  0.5568
  164TMC2    C4 2550   4.590   4.397  11.286 -1.1942  0.4968 -0.0076
  164TMC2    C5 2551   4.555   4.525  11.254  0.1484 -0.2292 -0.1209
  164TMC2    C6 2552   4.641   4.611  11.204  0.2105  0.2636 -0.1905
  164TMC2     C 2553   4.732   4.202  11.238 -0.0687 -0.3149 -0.4274
  164TMC2     O 2554   4.664   4.137  11.320 -0.5811 -0.3228  0.3725
  164TMC2     H 2555   0.155   4.403  11.141 -0.2119 -1.5039  0.8390
  164TMC2    H1 2556   4.520   4.328  11.331  0.6381 -0.7976  0.8327
  164TMC2    H2 2557   4.606   4.711  11.179 -0.1091  0.1793 -0.0842
  164TMC2    C7 2558   4.415   4.560  11.250  0.1719  0.3603  0.3009
  164TMC2    C8 2559   0.125   4.671  11.117  0.6411 -0.0322 -0.8001
  164TMC2    O1 2560   4.365   4.605  11.148  0.2316  0.5162  0.2956
  164TMC2    O2 2561   0.128   0.036  11.178  0.9381  0.7999 -0.0306
  164TMC2    O5 2562   0.216   4.610  11.044 -0.3907  0.6469 -0.0272
  164TMC2    H5 2563   0.187   4.523  11.009 -0.2789 -0.4159  2.5025
  165TMC2    C1 2564   1.607   2.243   1.086  0.4327  0.2972 -1.2627
  165TMC2    C2 2565   1.561   2.225   0.959 -0.8584 -0.3180 -0.0943
  165TMC2    C3 2566   1.658   2.205   0.861  0.4848  0.0103  0.2723
  165TMC2    C4 2567   1.738   2.234   1.117  0.0429 -0.4170 -0.5102
  165TMC2    C5 2568   1.832   2.216   1.016  0.0609  0.8878  0.0902
  165TMC2    C6 2569   1.794   2.196   0.884 -0.5009  0.4133 -0.0814
  165TMC2     C 2570   1.513   2.281   1.198 -0.0013 -1.0465 -0.0543
  165TMC2     O 2571   1.559   2.274   1.309 -0.3589  0.1368 -0.3981
  165TMC2     H 2572   1.453   2.224   0.949 -0.8162 -1.8635 -0.4015
  165TMC2    H1 2573   1.772   2.259   1.217  1.1349 -0.1020 -0.9619
  165TMC2    H2 2574   1.864   2.166   0.806  1.3802 -0.1688  1.8399
  165TMC2    C7 2575   1.967   2.262   1.032  0.2067  0.9139 -0.0900
  165TMC2    C8 2576   1.604   2.195   0.724  1.0687  0.5824 -0.0091
  165TMC2    O1 2577   2.038   2.261   0.934  0.1642  0.2564 -0.2317
  165TMC2    O2 2578   1.494   2.155   0.700 -0.7285  0.0210 -0.6096
  165TMC2    O5 2579   1.677   2.271   0.643 -0.1741  0.6058 -0.6166
  165TMC2    H5 2580   1.757   2.312   0.682 -0.7721  0.1531  1.1043
  166MPD2     C 2581   1.075   2.480   1.355  0.2929  0.3494 -0.1980
  166MPD2    C1 2582   1.182   2.425   1.425 -0.0514  0.8403  0.1450
  166MPD2    C2 2583   1.289   2.375   1.355  0.1918  0.4353  0.4508
  166MPD2    C3 2584   1.293   2.387   1.221  0.0689 -0.6411 -0.2951
  166MPD2    C4 2585   1.190   2.441   1.152  0.5969  0.2581 -0.7723
  166MPD2    C5 2586   1.076   2.484   1.216  0.0529  0.3471  0.0776
  166MPD2     H 2587   1.368   2.316   1.400 -0.1528  1.9188  2.9581
  166MPD2    H1 2588   1.181   2.439   1.044 -1.1625 -0.0975 -0.6193
  166MPD2    H2 2589   0.986   2.508   1.410  1.0480  3.2408 -0.4451
  166MPD2    H3 2590   1.004   2.525   1.145  1.2333 -0.4464 -1.5815
  166MPD2     N 2591   1.402   2.337   1.148 -0.3368 -0.3248  0.4850
  166MPD2    H5 2592   1.393   2.341   1.047  2.2095 -0.8284  0.2251
  166MPD2    N1 2593   1.163   2.397   1.565 -0.2501  0.0451  0.5713
  166MPD2    H7 2594   1.093   2.458   1.607 -1.6960 -1.9064  0.9764
  167TMC2    C1 2595   3.947   0.328  12.341  0.1404 -0.0930 -0.1238
  167TMC2    C2 2596   3.951   0.443  12.428  0.3492 -0.0683  0.0871
  167TMC2    C3 2597   3.934   0.418  12.562  0.0548 -0.0975  0.0528
  167TMC2    C4 2598   3.918   0.205  12.380  0.3482 -0.5548 -0.2611
  167TMC2    C5 2599   3.888   0.193  12.516 -0.6045 -0.1174 -0.8176
  167TMC2    C6 2600   3.896   0.293  12.610  0.5471 -0.2510  0.0630
  167TMC2     C 2601   3.934   0.360  12.200  0.0895 -0.2119 -0.3845
  167TMC2     O 2602   3.884   0.467  12.161  0.2723  0.3822 -0.4544
  167TMC2     H 2603   3.964   0.543  12.388  0.7739 -1.1469 -2.4875
  167TMC2    H1 2604   3.877   0.134  12.309  1.6827 -1.0728 -0.5095
  167TMC2    H2 2605   3.874   0.262  12.711  0.8329 -0.1974  0.1393
  167TMC2    C7 2606   3.861   0.063  12.561  0.4491 -0.5181 -0.7379
  167TMC2    C8 2607   3.898   0.528  12.654 -1.0831 -0.1560  0.7559
  167TMC2    O1 2608   3.817   0.049  12.673 -0.0963 -0.4451 -0.1236
  167TMC2    O2 2609   3.854   0.522  12.768  0.6350  0.4216  0.4963
  167TMC2    O5 2610   3.966   0.641  12.618 -0.1015  0.4455  0.4251
  167TMC2    H5 2611   4.032   0.621  12.548 -0.3882  2.1463 -0.3329
  168MPD2     C 2612   3.825   0.297  11.919  0.0145 -0.3272  0.4390
  168MPD2    C1 2613   3.896   0.211  11.999  0.2613  0.3574  0.2381
  168MPD2    C2 2614   3.917   0.077  11.966 -0.1346  0.0522  0.2242
  168MPD2    C3 2615   3.842   0.020  11.866 -0.8848  0.2224  0.1453
  168MPD2    C4 2616   3.772   0.102  11.776 -0.4710 -0.1916  0.0267
  168MPD2    C5 2617   3.767   0.239  11.809  0.7558 -0.6741 -0.4467
  168MPD2     H 2618   3.972   0.024  12.042 -0.0708 -0.0046  0.1379
  168MPD2    H1 2619   3.726   0.064  11.686 -1.1432  2.4424 -0.7418
  168MPD2    H2 2620   3.809   0.402  11.943  3.5244  0.4595 -0.5928
  168MPD2    H3 2621   3.708   0.308  11.751  0.3903  1.2970  2.2530
  168MPD2     N 2622   3.836   4.620  11.859 -0.1543 -0.0185 -0.1193
  168MPD2    H5 2623   3.775   4.584  11.785  1.3459 -0.2985 -1.2141
  168MPD2    N1 2624   3.953   0.249  12.127 -0.3405 -0.1977 -0.3956
  168MPD2    H7 2625   4.003   0.175  12.177 -2.3199 -1.7746 -0.7464
  169MPD1     C 2626   0.305   4.607   9.083 -0.4326  0.1137  0.3993
  169MPD1    C1 2627   0.404   4.639   9.177  1.0537 -0.2435  0.0846
  169MPD1    C2 2628   0.473   4.542   9.241 -0.5325 -0.6836 -0.1880
  169MPD1    C3 2629   0.447   4.412   9.208 -0.6177 -0.6805  0.2214
  169MPD1    C4 2630   0.339   4.382   9.130 -0.0068 -0.2914 -0.1912
  169MPD1    C5 2631   0.275   4.476   9.059 -0.7571  0.0783  0.4800
  169MPD1     H 2632   0.553   4.555   9.312 -0.0517 -2.4138 -0.4270
  169MPD1    H1 2633   0.306   4.282   9.106 -1.1768  0.1240 -0.3174
  169MPD1    H2 2634   0.255   4.688   9.031  0.8849  1.1927  0.8173
  169MPD1    H3 2635   0.205   4.439   8.985  1.5041 -1.5037 -0.8366
  169MPD1     N 2636   0.537   4.312   9.254  0.2728  0.1758 -0.2425
  169MPD1    H5 2637   0.609   4.346   9.318 -0.0930  0.9027 -0.2176
  169MPD1    N1 2638   0.452   0.035   9.188 -0.2124 -0.4547  0.2760
  169MPD1    H6 2639   0.385   0.105   9.159 -0.4360 -1.0722 -0.7136
  169MPD1    H7 2640   0.483   0.044   9.284  0.6252  0.8980 -0.1306
  170MPD1     C 2641   0.811   2.359  12.419  0.2258 -0.1125  0.2449
  170MPD1    C1 2642   0.758   2.236  12.457 -0.8528 -0.0830 -0.2905
  170MPD1    C2 2643   0.680   2.235  12.571 -0.4915 -0.6690  0.2029
  170MPD1    C3 2644   0.637   2.357  12.626  0.7806  0.1342 -0.6769
  170MPD1    C4 2645   0.689   2.479  12.580 -0.1705  0.6928  0.3780
  170MPD1    C5 2646   0.785   2.474  12.488 -0.0607 -0.1105 -0.0178
  170MPD1     H 2647   0.632   2.142  12.601  0.0923 -0.3636  2.0952
  170MPD1    H1 2648   0.658   2.576  12.617 -0.6678 -0.2356  2.4099
  170MPD1    H2 2649   0.876   2.374  12.334 -0.1050 -1.5326 -0.2661
  170MPD1    H3 2650   0.831   2.568  12.461  0.1213 -0.7168 -1.8410
  170MPD1     N 2651   0.544   2.346  12.734 -0.1186  0.8715  0.4320
  170MPD1    H5 2652   0.518   2.253  12.766  0.5353  0.7637  0.6417
  170MPD1    N1 2653   0.814   2.120  12.400 -0.2261  0.5350 -0.0080
  170MPD1    H6 2654   0.748   2.042  12.395  1.5686 -1.2005  3.7141
  170MPD1    H7 2655   0.844   2.143  12.305  0.9713  0.7153  0.4181
  171MPD1     C 2656   4.511   2.800  15.174  0.9566  0.2607 -0.6188
  171MPD1    C1 2657   4.534   2.889  15.277 -0.1482 -0.7035 -0.3105
  171MPD1    C2 2658   4.435   2.903  15.373 -0.4468 -0.0161 -0.0455
  171MPD1    C3 2659   4.312   2.848  15.353 -0.4451  0.1135  1.5059
  171MPD1    C4 2660   4.295   2.754  15.255 -0.0256  0.3797 -0.3096
  171MPD1    C5 2661   4.395   2.730  15.171 -0.0351  0.1196  0.4863
  171MPD1     H 2662   4.441   2.983  15.446 -1.0993 -1.7498  1.9460
  171MPD1    H1 2663   4.201   2.701  15.247  0.9113 -1.3731  0.1809
  171MPD1    H2 2664   4.583   2.771  15.098  1.6451  0.1193  0.0790
  171MPD1    H3 2665   4.382   2.649  15.099  0.6605  0.3050  0.1463
  171MPD1     N 2666   4.197   2.879  15.434  0.0855  0.3400  0.3275
  171MPD1    H5 2667   4.116   2.826  15.403 -0.7310  0.4897  2.2283
  171MPD1    N1 2668   4.661   2.945  15.300  0.4219 -0.1858 -0.5483
  171MPD1    H6 2669   4.712   2.962  15.213 -0.0585 -2.1780 -1.2290
  171MPD1    H7 2670   4.644   3.035  15.346  0.7243 -1.1057  1.3554
  172MPD1     C 2671   3.848   2.993   0.239  0.4041 -0.9050  0.1299
  172MPD1    C1 2672   3.808   3.032   0.366  0.7552  0.5874 -0.9098
  172MPD1    C2 2673   3.673   3.051   0.384  0.0754  0.2508 -0.4328
  172MPD1    C3 2674   3.583   3.039   0.278  0.3549  0.6365  0.8666
  172MPD1    C4 2675   3.627   3.015   0.148  0.4122  0.4531 -0.5588
  172MPD1    C5 2676   3.763   3.000   0.137 -0.4868 -0.5224 -0.6814
  172MPD1     H 2677   3.638   3.096   0.476 -2.2517 -1.8553 -0.2964
  172MPD1    H1 2678   3.563   3.007   0.061 -0.6821  0.9901  0.2013
  172MPD1    H2 2679   3.951   2.967   0.219 -0.2722 -1.7365 -2.1992
  172MPD1    H3 2680   3.800   2.971   0.039  0.2623  0.3016 -0.6374
  172MPD1     N 2681   3.443   3.043   0.282  0.6644 -0.0464  0.7223
  172MPD1    H5 2682   3.396   3.048   0.192  2.9548 -1.4888 -0.5630
  172MPD1    N1 2683   3.898   3.027   0.474 -0.3049 -0.1076  0.2266
  172MPD1    H6 2684   3.994   3.058   0.460  0.2634 -2.1979 -0.5779
  172MPD1    H7 2685   3.864   3.084   0.551 -1.6302 -0.1420 -0.3373
  173MPD1     C 2686   3.787   3.271  13.298 -0.4001  0.0724 -0.0339
  173MPD1    C1 2687   3.684   3.182  13.343  0.3806  0.0309  0.8152
  173MPD1    C2 2688   3.724   3.079  13.432 -0.2204 -0.3568 -0.7637
  173MPD1    C3 2689   3.861   3.061  13.467 -0.0616 -0.1199  1.2800
  173MPD1    C4 2690   3.949   3.142  13.410 -0.3045 -0.1272 -0.2314
  173MPD1    C5 2691   3.914   3.244  13.327  0.6360 -0.1997  0.3533
  173MPD1     H 2692   3.641   3.033  13.485 -1.6926  2.0011 -1.0723
  173MPD1    H1 2693   4.053   3.129  13.438 -0.5083  0.6425  0.9010
  173MPD1    H2 2694   3.753   3.350  13.233  0.6690  1.0988  0.6679
  173MPD1    H3 2695   3.996   3.311  13.305 -0.3077  1.1239  0.8732
  173MPD1     N 2696   3.893   2.961  13.561 -0.6299 -0.4107 -0.1207
  173MPD1    H5 2697   3.814   2.913  13.602 -0.3051 -0.2723  0.6547
  173MPD1    N1 2698   3.548   3.215  13.325  0.2153  0.0305 -0.1575
  173MPD1    H6 2699   3.480   3.139  13.319  1.9429 -1.2966 -2.8396
  173MPD1    H7 2700   3.523   3.290  13.261 -0.0238  0.6346  0.6414
  174MPD1     C 2701   0.033   2.557  13.873 -0.1945  0.2443 -0.4005
  174MPD1    C1 2702   4.686   2.502  13.961  0.3889 -1.0829  0.3132
  174MPD1    C2 2703   4.550   2.542  13.952 -0.0947 -0.5215 -0.1757
  174MPD1    C3 2704   4.510   2.631  13.852  0.7030  0.4752 -0.0463
  174MPD1    C4 2705   4.597   2.684  13.772 -0.6588  0.8394  0.8385
  174MPD1    C5 2706   4.729   2.648  13.781 -0.2674  0.4760  0.5624
  174MPD1     H 2707   4.485   2.489  14.021 -0.5557 -0.8043 -0.8285
  174MPD1    H1 2708   4.567   2.756  13.697  1.0266  0.4871 -0.1693
  174MPD1    H2 2709   0.141   2.549  13.879 -0.2332  0.5203  0.6755
  174MPD1    H3 2710   0.065   2.700  13.723  0.1400  0.3563  0.9853
  174MPD1     N 2711   4.379   2.672  13.830  0.3966 -0.0133 -0.3736
  174MPD1    H5 2712   4.376   2.762  13.784 -4.1198 -1.3105 -2.5981
  174MPD1    N1 2713   4.732   2.437  14.076  0.2779 -0.1510 -1.0867
  174MPD1    H6 2714   0.077   2.382  14.072 -0.0195 -0.7598  0.8985
  174MPD1    H7 2715   4.654   2.374  14.095  0.4234  0.0970  0.3681
  175MPD1     C 2716   2.334   3.751  15.297 -0.4746  0.6006 -0.1871
  175MPD1    C1 2717   2.404   3.638  15.338 -0.1587 -0.4518 -0.3064
  175MPD1    C2 2718   2.468   3.638  15.466 -0.0518 -0.5349  0.2111
  175MPD1    C3 2719   2.450   3.750  15.554 -1.1072 -0.4518  0.0667
  175MPD1    C4 2720   2.381   3.857  15.511 -0.0902  0.3453 -0.2427
  175MPD1    C5 2721   2.330   3.857  15.388  0.2518 -0.5597 -0.2404
  175MPD1     H 2722   2.520   3.547  15.493  0.0555 -0.3258  0.7077
  175MPD1    H1 2723   2.360   3.944  15.572  2.1613  2.6558 -2.7623
  175MPD1    H2 2724   2.293   3.768  15.198  1.8348  1.1862 -1.0429
  175MPD1    H3 2725   2.261   3.938  15.365 -1.7209 -1.9553  0.8284
  175MPD1     N 2726   2.483   3.745  15.694 -0.0689 -0.1168  0.2531
  175MPD1    H5 2727   2.448   3.821  15.751  2.2830 -0.0387  1.5848
  175MPD1    N1 2728   2.416   3.527  15.256 -0.4491  0.7938 -0.7850
  175MPD1    H6 2729   2.338   3.510  15.193  1.6846  1.0938 -3.4975
  175MPD1    H7 2730   2.432   3.439  15.304 -1.1994  0.2609 -1.5082
  176MPD1     C 2731   4.619   0.312  17.415 -0.1239 -0.0278 -0.1881
  176MPD1    C1 2732   4.655   0.362  17.537 -0.5894  0.3648 -0.2995
  176MPD1    C2 2733   4.636   0.492  17.557 -0.9783 -0.3140  0.0720
  176MPD1    C3 2734   4.567   0.565  17.458  0.0958  0.0351 -0.4167
  176MPD1    C4 2735   4.544   0.514  17.333  0.0217 -0.7733  0.7560
  176MPD1    C5 2736   4.566   0.384  17.311 -0.9775 -0.0989  0.0534
  176MPD1     H 2737   4.658   0.534  17.654  2.0646 -0.0644 -0.7282
  176MPD1    H1 2738   4.503   0.575  17.253 -1.8830 -1.8283  0.9409
  176MPD1    H2 2739   4.645   0.210  17.393  0.1554  0.1279 -0.5837
  176MPD1    H3 2740   4.546   0.329  17.220  1.4735  3.3508 -2.5617
  176MPD1     N 2741   4.529   0.700  17.492  0.0879 -0.3929 -0.3793
  176MPD1    H5 2742   4.555   0.721  17.588  0.5784 -0.0576 -0.5813
  176MPD1    N1 2743   4.701   0.278  17.639 -0.4869 -0.3819  0.4491
  176MPD1    H6 2744   0.014   0.331  17.708 -1.6407 -0.6706  1.5579
  176MPD1    H7 2745   0.018   0.201  17.604 -0.4918  0.1138 -0.6510
  177MPD1     C 2746   2.921   0.130  10.283  0.6138  0.0582  0.0452
  177MPD1    C1 2747   2.842   0.116  10.166  0.3929 -0.1137  0.5847
  177MPD1    C2 2748   2.721   0.180  10.150 -0.5831  0.4710  0.2089
  177MPD1    C3 2749   2.677   0.266  10.245 -0.2953  0.1000 -0.3239
  177MPD1    C4 2750   2.745   0.277  10.363  0.5289  0.0614  0.2246
  177MPD1    C5 2751   2.862   0.214  10.383  0.1126  0.3414  0.1478
  177MPD1     H 2752   2.672   0.177  10.053 -1.7827 -1.1164  0.8604
  177MPD1    H1 2753   2.717   0.341  10.446 -1.5861 -1.1142  0.4221
  177MPD1    H2 2754   3.018   0.084  10.298  0.1852 -0.1573  2.1750
  177MPD1    H3 2755   2.919   0.232  10.474  0.2617 -0.4851  0.2198
  177MPD1     N 2756   2.563   0.346  10.210 -0.0814 -0.3116 -0.1205
  177MPD1    H5 2757   2.526   0.329  10.116 -0.7038  0.7643 -0.0673
  177MPD1    N1 2758   2.898   0.044  10.055 -0.0896  0.1276 -0.0700
  177MPD1    H6 2759   2.829   0.012   9.986  2.4500 -1.0468 -2.0753
  177MPD1    H7 2760   2.953   4.707  10.091  0.9655  1.6436  1.5435
  178MPD1     C 2761   4.618   2.037   0.327 -0.6372 -0.5437 -0.2566
  178MPD1    C1 2762   4.527   1.940   0.290 -0.2254  0.2416 -0.7948
  178MPD1    C2 2763   4.569   1.845   0.195  0.0751 -0.0868 -0.1104
  178MPD1    C3 2764   4.704   1.833   0.165 -0.0276 -0.3516  0.1191
  178MPD1    C4 2765   0.059   1.914   0.226 -0.0677 -0.4559 -0.0193
  178MPD1    C5 2766   0.014   2.018   0.305 -0.0135  0.3590  0.2729
  178MPD1     H 2767   4.497   1.776   0.154 -1.2025 -1.2804  4.0934
  178MPD1    H1 2768   0.165   1.906   0.207 -0.3741 -1.1867 -1.4129
  178MPD1    H2 2769   4.587   2.125   0.383  0.0810 -0.0543 -0.6226
  178MPD1    H3 2770   0.085   2.088   0.348  2.2199 -1.5098 -0.3838
  178MPD1     N 2771   0.013   1.744   0.069 -0.3231  0.2086  0.2829
  178MPD1    H5 2772   0.114   1.747   0.071 -0.2966 -0.1465 -0.7608
  178MPD1    N1 2773   4.387   1.960   0.306 -0.1816 -0.5777 -0.0461
  178MPD1    H6 2774   4.371   2.002   0.398 -0.9411 -0.5687 -0.1752
  178MPD1    H7 2775   4.341   1.869   0.310 -0.2670 -0.4791  1.3869
  179MPD1     C 2776   0.087   0.248  15.385  0.7185  0.6609  0.0586
  179MPD1    C1 2777   0.138   0.204  15.506  0.3387 -0.4819  0.2758
  179MPD1    C2 2778   0.088   0.083  15.546  0.0812 -0.2165 -0.2289
  179MPD1    C3 2779   0.012   0.002  15.461  0.0283 -0.2347  0.7396
  179MPD1    C4 2780   4.713   0.051  15.337  0.0019 -0.1074  0.7569
  179MPD1    C5 2781   0.007   0.178  15.300  0.0811 -0.3293  0.3282
  179MPD1     H 2782   0.109   0.043  15.644  1.2666  2.1502  0.4844
  179MPD1    H1 2783   4.639   0.004  15.274  0.3222  0.2589  0.0977
  179MPD1    H2 2784   0.115   0.346  15.348  4.0489 -0.2594  0.1628
  179MPD1    H3 2785   4.704   0.220  15.210  1.5460 -0.4520 -0.4318
  179MPD1     N 2786   4.693   4.619  15.499  0.0962  0.7486 -0.4805
  179MPD1    H5 2787   4.634   4.571  15.432 -0.9465  0.8104  0.3964
  179MPD1    N1 2788   0.196   0.296  15.596 -0.3690  0.3526  0.2216
  179MPD1    H6 2789   0.232   0.384  15.561 -0.3706  0.4949  0.5736
  179MPD1    H7 2790   0.267   0.252  15.655 -0.1371 -0.3106 -0.5505
  180MPD1     C 2791   0.329   1.281  15.697  0.1586 -0.4989 -0.0905
  180MPD1    C1 2792   0.207   1.336  15.675 -0.3294 -0.6075 -0.7421
  180MPD1    C2 2793   0.188   1.383  15.544 -0.2445 -0.1830 -0.3416
  180MPD1    C3 2794   0.270   1.348  15.439  1.5834 -0.1391  0.4662
  180MPD1    C4 2795   0.389   1.288  15.464 -0.6296 -0.6401 -0.2887
  180MPD1    C5 2796   0.421   1.252  15.594 -0.4472  0.0618  0.0512
  180MPD1     H 2797   0.105   1.446  15.516 -0.6367  0.7763  2.9954
  180MPD1    H1 2798   0.462   1.266  15.386  0.1480 -0.3868  0.3649
  180MPD1    H2 2799   0.353   1.257  15.800  2.9713  0.8516 -0.4158
  180MPD1    H3 2800   0.518   1.208  15.614 -1.8879 -3.0706  0.2265
  180MPD1     N 2801   0.224   1.380  15.314 -0.1132  0.5898 -0.1351
  180MPD1    H5 2802   0.135   1.428  15.316 -1.1963 -1.3917 -0.0557
  180MPD1    N1 2803   0.132   1.372  15.790 -0.2687 -0.1987  0.7998
  180MPD1    H6 2804   0.033   1.376  15.766  0.0925  0.0783 -0.6075
  180MPD1    H7 2805   0.141   1.299  15.861 -0.0588 -0.4033  0.5606
  181MPD1     C 2806   0.689   2.422  10.737  0.0558  0.4188  0.8901
  181MPD1    C1 2807   0.739   2.552  10.741 -0.5238 -0.4935 -0.3982
  181MPD1    C2 2808   0.795   2.612  10.629  0.6410  1.1505 -0.5918
  181MPD1    C3 2809   0.806   2.547  10.508  1.0083 -0.7544  0.3432
  181MPD1    C4 2810   0.732   2.433  10.504  1.1900 -0.2116  0.0062
  181MPD1    C5 2811   0.672   2.370  10.611 -0.9123  0.4752  0.7096
  181MPD1     H 2812   0.848   2.707  10.632  0.9057  0.8703  2.9052
  181MPD1    H1 2813   0.730   2.375  10.412 -1.2881  0.2976 -0.2794
  181MPD1    H2 2814   0.641   2.379  10.824  2.4695 -0.8204  1.6015
  181MPD1    H3 2815   0.620   2.276  10.594 -0.7299  0.6762 -0.9685
  181MPD1     N 2816   0.886   2.582  10.396  0.3359  0.3991 -0.0038
  181MPD1    H5 2817   0.877   2.522  10.314  2.2170 -1.2937  1.0238
  181MPD1    N1 2818   0.779   2.602  10.873 -0.0833 -0.0345  0.0207
  181MPD1    H6 2819   0.719   2.564  10.947 -1.9423 -0.5786 -1.7589
  181MPD1    H7 2820   0.800   2.702  10.873  0.5533 -0.1755 -1.7221
  182MPD1     C 2821   2.859   1.170   1.425 -0.0551 -0.0262 -0.6773
  182MPD1    C1 2822   2.752   1.087   1.460 -0.4386 -0.3251 -0.4063
  182MPD1    C2 2823   2.639   1.082   1.381  0.2487 -0.4978 -0.2246
  182MPD1    C3 2824   2.610   1.168   1.276  0.6478 -0.3441 -1.0396
  182MPD1    C4 2825   2.714   1.258   1.250  0.0870 -0.0059  0.3302
  182MPD1    C5 2826   2.829   1.255   1.326  0.0650  1.3954 -0.0759
  182MPD1     H 2827   2.571   0.998   1.393 -0.5790  0.0771 -0.9180
  182MPD1    H1 2828   2.698   1.341   1.182  0.8770  0.0423  0.2098
  182MPD1    H2 2829   2.959   1.169   1.466 -0.5025 -1.2998  0.3948
  182MPD1    H3 2830   2.895   1.337   1.299  0.9530  1.5810  2.7125
  182MPD1     N 2831   2.493   1.170   1.183 -0.3444  0.2286 -0.3638
  182MPD1    H5 2832   2.499   1.242   1.112  0.1134  0.7539  0.2119
  182MPD1    N1 2833   2.772   0.989   1.563 -0.0561 -0.0385  0.3195
  182MPD1    H6 2834   2.691   0.968   1.621  0.8774  1.0330  2.0187
  182MPD1    H7 2835   2.852   1.014   1.621 -1.5697  3.4363  0.9426
  183MPD1     C 2836   1.451   1.120   9.542  0.0318 -0.2262  0.9506
  183MPD1    C1 2837   1.586   1.136   9.534  0.2540 -0.3545  0.0007
  183MPD1    C2 2838   1.635   1.257   9.577 -0.1442 -0.0330  0.6715
  183MPD1    C3 2839   1.554   1.348   9.653  0.4108 -0.4154 -0.9366
  183MPD1    C4 2840   1.419   1.321   9.665 -0.2432 -0.0212 -1.1555
  183MPD1    C5 2841   1.368   1.207   9.610  0.5704  0.0146  0.6132
  183MPD1     H 2842   1.742   1.270   9.571 -0.1449 -0.3406 -0.1534
  183MPD1    H1 2843   1.353   1.383   9.724 -0.1260  0.3278 -1.3974
  183MPD1    H2 2844   1.411   1.025   9.509  2.5052 -0.8920 -0.1298
  183MPD1    H3 2845   1.260   1.191   9.614  0.6430 -0.8549 -0.7101
  183MPD1     N 2846   1.622   1.462   9.706  0.4635  0.6825 -0.0040
  183MPD1    H5 2847   1.721   1.466   9.683  0.5571  2.5915  0.7574
  183MPD1    N1 2848   1.649   1.040   9.448 -0.2382 -0.8658 -0.6690
  183MPD1    H6 2849   1.748   1.029   9.472 -0.4887  0.3844  0.8946
  183MPD1    H7 2850   1.609   0.947   9.458 -1.5620  0.0062  2.0429
  184MPD1     C 2851   1.458   0.050  10.989 -0.3749  0.0711  0.3831
  184MPD1    C1 2852   1.374   0.100  10.890  0.1853  0.2093 -0.3783
  184MPD1    C2 2853   1.421   0.094  10.759 -0.5725  0.0947  0.6755
  184MPD1    C3 2854   1.543   0.043  10.718 -0.2058  0.0646 -0.3826
  184MPD1    C4 2855   1.616   4.730  10.817 -0.5192  0.3382  0.5933
  184MPD1    C5 2856   1.571   4.726  10.949  0.2568  0.6901  0.3454
  184MPD1     H 2857   1.349   0.134  10.689 -0.9300  0.9478  1.5353
  184MPD1    H1 2858   1.710   4.679  10.798 -0.1812  0.7294  1.2420
  184MPD1    H2 2859   1.424   0.058  11.092 -1.7218 -0.1126 -0.0386
  184MPD1    H3 2860   1.639   4.691  11.026 -0.0895 -0.7241  0.0069
  184MPD1     N 2861   1.585   0.045  10.583 -0.2504  0.5532 -0.3694
  184MPD1    H5 2862   1.683   0.021  10.570 -0.5436 -1.6310  1.5579
  184MPD1    N1 2863   1.268   0.187  10.914 -0.1322 -0.1796 -0.6071
  184MPD1    H6 2864   1.213   0.159  10.996 -0.1094 -0.7824 -0.8027
  184MPD1    H7 2865   1.201   0.198  10.838  0.9801 -1.7599 -1.7920
  185MPD1     C 2866   1.146   0.055   9.659  0.6708 -0.2667  0.5277
  185MPD1    C1 2867   1.259   0.131   9.647 -0.5597 -0.0114 -0.0545
  185MPD1    C2 2868   1.345   0.145   9.754  0.7295  0.6910  0.3996
  185MPD1    C3 2869   1.321   0.081   9.873 -0.3783 -0.6721  0.0242
  185MPD1    C4 2870   1.199   0.006   9.881  0.4879 -0.6886  0.4811
  185MPD1    C5 2871   1.118   4.723   9.773  1.0497 -0.6537  0.6201
  185MPD1     H 2872   1.435   0.204   9.741  1.5334 -0.5469  0.3340
  185MPD1    H1 2873   1.184   4.689   9.972  0.1304  0.1111  0.9216
  185MPD1    H2 2874   1.085   0.044   9.570 -1.5379  0.6795  1.9401
  185MPD1    H3 2875   1.030   4.659   9.779 -0.3883  1.2056 -0.4897
  185MPD1     N 2876   1.399   0.080   9.983 -0.5994 -0.3329  0.4429
  185MPD1    H5 2877   1.387   0.012  10.058 -2.0185  1.6463  2.0204
  185MPD1    N1 2878   1.271   0.224   9.541 -0.2960  0.2122 -0.7994
  185MPD1    H6 2879   1.368   0.252   9.533  0.2921 -1.4514  0.5124
  185MPD1    H7 2880   1.237   0.188   9.452  0.6005  0.7147 -1.3459
  186MPD1     C 2881   1.179   0.200  15.745 -0.8699 -0.7574  0.2849
  186MPD1    C1 2882   1.167   0.110  15.849 -0.4472 -0.4166 -0.1980
  186MPD1    C2 2883   1.080   0.147  15.959  0.1243 -0.1787  0.1739
  186MPD1    C3 2884   1.032   0.270  15.983  0.6805 -1.1635 -0.3948
  186MPD1    C4 2885   1.066   0.365  15.886  0.2056 -0.1026  0.3051
  186MPD1    C5 2886   1.130   0.327  15.770 -0.0883  0.0767  0.9220
  186MPD1     H 2887   1.059   0.060  16.021 -0.6880 -0.2261 -0.1562
  186MPD1    H1 2888   1.037   0.468  15.899 -2.4077 -0.6720 -1.1864
  186MPD1    H2 2889   1.229   0.181  15.651 -0.5129 -0.7129  0.4637
  186MPD1    H3 2890   1.139   0.404  15.694 -0.3962  1.1198  1.9312
  186MPD1     N 2891   0.951   0.305  16.088  0.4466  0.1470 -0.1269
  186MPD1    H5 2892   0.918   0.401  16.098  0.9990  0.1938  1.3497
  186MPD1    N1 2893   1.198   4.715  15.838  0.3886 -0.2663  0.0577
  186MPD1    H6 2894   1.294   4.695  15.808  0.2817  0.0729 -0.5190
  186MPD1    H7 2895   1.188   4.669  15.928 -0.7493 -0.5916 -0.2338
  187MPD1     C 2896   4.486   2.456   0.568 -0.0272 -0.3558  0.5453
  187MPD1    C1 2897   4.370   2.397   0.525 -0.6766  0.5900  0.6875
  187MPD1    C2 2898   4.341   2.380   0.392  0.2172 -0.0533 -0.6866
  187MPD1    C3 2899   4.428   2.437   0.302 -0.3139  0.4591  0.9296
  187MPD1    C4 2900   4.542   2.506   0.345 -0.4590  0.2248 -0.7575
  187MPD1    C5 2901   4.569   2.518   0.477  0.2004  0.4651 -0.6694
  187MPD1     H 2902   4.248   2.331   0.366  0.8414 -0.0824 -2.8324
  187MPD1    H1 2903   4.611   2.555   0.277 -1.8984  1.9929 -0.9296
  187MPD1    H2 2904   4.512   2.463   0.672  0.0255 -0.4388  0.5377
  187MPD1    H3 2905   4.657   2.569   0.515  0.2237 -0.0377 -0.0495
  187MPD1     N 2906   4.400   2.428   0.165  0.1623  0.4344 -0.4818
  187MPD1    H5 2907   4.450   2.487   0.098  3.1291  0.6570  1.8969
  187MPD1    N1 2908   4.288   2.340   0.622  0.5966 -0.1605  0.0195
  187MPD1    H6 2909   4.290   2.384   0.714 -1.8393  0.2710 -0.1387
  187MPD1    H7 2910   4.194   2.319   0.591 -0.2813  1.6701  1.4745
  188MPD1     C 2911   3.943   1.568  10.886  0.0896  0.4066 -0.1084
  188MPD1    C1 2912   3.812   1.532  10.881  0.3575  0.3271  0.3382
  188MPD1    C2 2913   3.782   1.416  10.816 -0.0082 -0.8448  0.1662
  188MPD1    C3 2914   3.887   1.330  10.773  0.6600 -0.1183 -0.7621
  188MPD1    C4 2915   4.018   1.365  10.794  0.0131  1.0049  0.6499
  188MPD1    C5 2916   4.038   1.482  10.850 -0.3918 -0.9387  0.7985
  188MPD1     H 2917   3.680   1.385  10.801 -0.7310  1.1460  0.9515
  188MPD1    H1 2918   4.102   1.298  10.781 -1.0585 -0.0013 -1.2944
  188MPD1    H2 2919   3.969   1.666  10.924  1.5354  0.3307 -0.9204
  188MPD1    H3 2920   4.141   1.503  10.876 -0.1036 -1.0313 -0.2358
  188MPD1     N 2921   3.871   1.206  10.708  0.0720  0.3178 -0.0989
  188MPD1    H5 2922   3.950   1.158  10.665  1.4777  2.2986  0.3151
  188MPD1    N1 2923   3.717   1.637  10.906 -0.5504 -0.0243 -0.1416
  188MPD1    H6 2924   3.630   1.603  10.946 -0.4094  1.0280  1.0650
  188MPD1    H7 2925   3.759   1.694  10.980  0.0063  1.3303 -1.5079
  189MPD1     C 2926   1.143   2.392   0.477  0.9515 -0.5904  0.1050
  189MPD1    C1 2927   1.019   2.406   0.412 -0.4605 -0.2523 -0.3413
  189MPD1    C2 2928   1.000   2.524   0.346 -0.7169  1.1342  0.3736
  189MPD1    C3 2929   1.092   2.625   0.337  0.0055 -0.7005  0.1199
  189MPD1    C4 2930   1.217   2.606   0.399  0.1751  0.0110  0.5942
  189MPD1    C5 2931   1.237   2.491   0.467 -0.0850  0.1864 -0.3099
  189MPD1     H 2932   0.902   2.537   0.301  0.3567  0.8824 -2.0432
  189MPD1    H1 2933   1.295   2.681   0.399  0.2687 -0.0878  2.0608
  189MPD1    H2 2934   1.164   2.314   0.549  0.8439 -2.0653 -1.4431
  189MPD1    H3 2935   1.325   2.487   0.531 -0.8388  0.7911  0.7578
  189MPD1     N 2936   1.060   2.748   0.273 -0.4327 -0.4715  0.0500
  189MPD1    H5 2937   0.970   2.749   0.228 -0.9922  1.4745  1.2123
  189MPD1    N1 2938   0.923   2.305   0.417 -0.2355 -0.4101  0.1433
  189MPD1    H6 2939   0.858   2.294   0.340 -0.6311  0.3129  0.3704
  189MPD1    H7 2940   0.971   2.217   0.402 -2.2083 -1.0513 -2.2891
  190MPD1     C 2941   0.627   0.522  16.232 -0.8584  0.4806  0.4444
  190MPD1    C1 2942   0.702   0.610  16.156  0.3645 -0.1551  0.2558
  190MPD1    C2 2943   0.646   0.735  16.127 -0.1306  0.3038  0.2560
  190MPD1    C3 2944   0.528   0.778  16.187 -0.7230  0.3419 -0.3196
  190MPD1    C4 2945   0.457   0.696  16.275  0.0184 -0.1378  0.2807
  190MPD1    C5 2946   0.511   0.566  16.296  0.6941  0.1890  0.2960
  190MPD1     H 2947   0.705   0.777  16.047 -0.9416  1.1817  0.1183
  190MPD1    H1 2948   0.364   0.724  16.324 -0.5894  0.0243 -0.9683
  190MPD1    H2 2949   0.661   0.421  16.252  0.3488  0.5995 -1.0660
  190MPD1    H3 2950   0.456   0.497  16.358  1.4873 -1.7557 -1.1614
  190MPD1     N 2951   0.491   0.913  16.163 -0.3870 -0.1099  0.4266
  190MPD1    H5 2952   0.568   0.962  16.119  1.5838 -1.6809  2.1575
  190MPD1    N1 2953   0.803   0.563  16.077 -1.0963  0.0341  0.2116
  190MPD1    H6 2954   0.767   0.500  16.005 -1.6032  0.9325 -0.3101
  190MPD1    H7 2955   0.861   0.637  16.038  0.2232 -1.1322 -0.0746
  191MPD1     C 2956   3.681   3.246  12.424  0.4071 -0.1794  0.4575
  191MPD1    C1 2957   3.644   3.186  12.303 -0.5334  0.2913  0.1596
  191MPD1    C2 2958   3.742   3.162  12.209 -0.3878  0.1510  0.5941
  191MPD1    C3 2959   3.866   3.217  12.228  0.3090  0.5459 -0.2769
  191MPD1    C4 2960   3.901   3.289  12.341 -0.1827 -0.4417  0.6211
  191MPD1    C5 2961   3.806   3.301  12.442 -0.1218 -0.2003 -0.0109
  191MPD1     H 2962   3.709   3.098  12.128 -0.5855  0.6462  0.2860
  191MPD1    H1 2963   3.993   3.339  12.367 -1.0938  2.0206 -0.8564
  191MPD1    H2 2964   3.607   3.262  12.501 -0.9720  0.1226 -0.9247
  191MPD1    H3 2965   3.825   3.355  12.534 -0.5061  1.0918 -0.6927
  191MPD1     N 2966   3.958   3.201  12.124  0.3480 -0.1131 -0.3656
  191MPD1    H5 2967   3.924   3.150  12.044 -0.1318 -0.1890 -0.1139
  191MPD1    N1 2968   3.514   3.124  12.301 -0.0971 -0.0454  0.6683
  191MPD1    H6 2969   3.485   3.110  12.204 -1.4427 -2.0347  1.3623
  191MPD1    H7 2970   3.443   3.179  12.348 -1.5648 -1.9805  0.6782
  192MPD1     C 2971   4.008   3.100  11.141 -0.1397 -0.0844 -0.2994
  192MPD1    C1 2972   3.928   3.141  11.238  0.2436 -0.4641 -0.1342
  192MPD1    C2 2973   3.967   3.146  11.364 -0.5410  0.8481 -0.5659
  192MPD1    C3 2974   4.106   3.123  11.396  0.0600  0.4001  0.1255
  192MPD1    C4 2975   4.187   3.083  11.301 -0.2443  0.1876 -0.7399
  192MPD1    C5 2976   4.137   3.064  11.173  0.3549  0.2228  0.2275
  192MPD1     H 2977   3.897   3.182  11.438  1.5030  1.9528  0.8316
  192MPD1    H1 2978   4.294   3.063  11.306 -0.5635 -1.1818  0.4316
  192MPD1    H2 2979   3.971   3.107  11.040 -0.9984 -1.2422 -0.0633
  192MPD1    H3 2980   4.208   3.034  11.096  2.0582  1.7647  1.1823
  192MPD1     N 2981   4.157   3.139  11.533 -1.4996  0.6172 -0.0447
  192MPD1    H5 2982   4.255   3.121  11.551 -1.2659  1.3102 -0.6135
  192MPD1    N1 2983   3.803   3.196  11.210  0.5924 -0.1062 -0.2158
  192MPD1    H6 2984   3.770   3.163  11.119 -0.0896 -0.3046  0.1048
  192MPD1    H7 2985   3.735   3.162  11.277  0.0401 -0.7053 -1.0737
  193MPD1     C 2986   3.203   3.354  16.690 -0.1098 -0.1394  0.2529
  193MPD1    C1 2987   3.267   3.232  16.671  0.0432 -0.2930 -0.2895
  193MPD1    C2 2988   3.406   3.223  16.684 -0.1503 -0.6506 -0.0137
  193MPD1    C3 2989   3.487   3.336  16.696 -0.0399 -0.2622  0.0818
  193MPD1    C4 2990   3.423   3.464  16.703 -0.8671 -0.3491 -0.9269
  193MPD1    C5 2991   3.285   3.468  16.706  0.9723  0.2180 -0.0602
  193MPD1     H 2992   3.454   3.126  16.673 -0.1152 -0.7274  0.7987
  193MPD1    H1 2993   3.486   3.550  16.723 -0.8058 -0.4753 -0.5753
  193MPD1    H2 2994   3.097   3.375  16.698  0.3094  2.4089 -0.8246
  193MPD1    H3 2995   3.236   3.564  16.692  0.5048  0.0668  0.5202
  193MPD1     N 2996   3.626   3.329  16.707 -0.0523  0.3793  0.0809
  193MPD1    H5 2997   3.675   3.413  16.736 -1.4375  0.7971  1.2670
  193MPD1    N1 2998   3.190   3.110  16.672  0.4123  0.0854  0.5989
  193MPD1    H6 2999   3.103   3.113  16.619  1.4744 -0.9108 -1.2098
  193MPD1    H7 3000   3.244   3.030  16.640 -0.4944 -0.2234 -0.1484
  194MPD1     C 3001   1.173   1.018  17.467 -0.2566 -0.5980  0.4575
  194MPD1    C1 3002   1.255   1.012  17.354 -0.0850 -0.0813  0.3266
  194MPD1    C2 3003   1.324   0.895  17.329 -0.9756  0.4724  1.1521
  194MPD1    C3 3004   1.285   0.777  17.403  0.5778 -0.1714  0.3025
  194MPD1    C4 3005   1.192   0.784  17.505 -0.1233 -0.8195 -0.4141
  194MPD1    C5 3006   1.146   0.906  17.545 -1.0581  0.1702 -0.7046
  194MPD1     H 3007   1.400   0.886  17.251 -0.1520 -0.9196  2.1183
  194MPD1    H1 3008   1.173   0.694  17.563 -0.2954 -0.6578 -0.2209
  194MPD1    H2 3009   1.123   1.108  17.501  0.4504 -0.2750  0.6555
  194MPD1    H3 3010   1.075   0.908  17.626  1.7008  1.5547  1.6850
  194MPD1     N 3011   1.353   0.656  17.389  0.0200  0.3936  0.0165
  194MPD1    H5 3012   1.337   0.586  17.461 -1.1405  0.2843 -0.3509
  194MPD1    N1 3013   1.289   1.128  17.296 -0.4357 -0.6837 -0.2091
  194MPD1    H6 3014   1.329   1.116  17.203 -0.2850 -0.9695 -0.1078
  194MPD1    H7 3015   1.366   1.174  17.345 -0.5466 -1.0476  0.3128
  195MPD1     C 3016   0.305   2.214   1.067 -0.8116  0.8606  0.2993
  195MPD1    C1 3017   0.196   2.273   1.003 -0.0356  0.0553  0.0401
  195MPD1    C2 3018   0.145   2.200   0.894 -0.1306 -0.5593  0.3350
  195MPD1    C3 3019   0.208   2.090   0.837 -0.8386 -0.5951  0.4444
  195MPD1    C4 3020   0.328   2.052   0.892 -0.0603  0.3688  0.1722
  195MPD1    C5 3021   0.372   2.113   1.007 -0.3106  1.1864 -0.0051
  195MPD1     H 3022   0.047   2.232   0.859 -0.5200 -0.5343  1.4191
  195MPD1    H1 3023   0.381   1.973   0.841  0.6790  1.3480 -0.5825
  195MPD1    H2 3024   0.349   2.255   1.157  1.6750 -1.7167  0.2639
  195MPD1    H3 3025   0.452   2.062   1.059 -0.2129  1.6075  0.2556
  195MPD1     N 3026   0.148   2.006   0.734 -0.1610  0.0568  0.0429
  195MPD1    H5 3027   0.207   1.933   0.695  1.9409  3.2598 -2.7720
  195MPD1    N1 3028   0.119   2.368   1.070 -0.3450  0.1426  0.4668
  195MPD1    H6 3029   0.184   2.426   1.121  1.2555 -1.4909  0.2936
  195MPD1    H7 3030   0.066   2.427   1.006 -2.8345 -0.6660  1.7361
  196MPD1     C 3031   3.934   0.346   0.083  0.1902  0.0170 -0.0102
  196MPD1    C1 3032   3.829   0.283   0.151 -0.0054 -0.5697 -0.2984
  196MPD1    C2 3033   3.740   0.372   0.214  0.1411  0.6714  0.0053
  196MPD1    C3 3034   3.750   0.512   0.206 -1.2099 -0.1526  0.1326
  196MPD1    C4 3035   3.860   0.567   0.141  0.5820  0.0107  0.6312
  196MPD1    C5 3036   3.953   0.486   0.079 -0.1129 -0.4904  0.5166
  196MPD1     H 3037   3.656   0.331   0.269  0.6108  0.4840  0.5788
  196MPD1    H1 3038   3.868   0.673   0.124 -0.5472  0.4867  3.0250
  196MPD1    H2 3039   4.004   0.279   0.033 -0.0941 -1.7571  1.9702
  196MPD1    H3 3040   4.034   0.533   0.025  2.1544 -1.2487  3.2949
  196MPD1     N 3041   3.652   0.599   0.255  0.5123  0.4443  0.3379
  196MPD1    H5 3042   3.664   0.699   0.241  0.1843  0.1598 -1.9493
  196MPD1    N1 3043   3.836   0.150   0.189 -0.7481 -0.4112 -0.2468
  196MPD1    H6 3044   3.881   0.085   0.125  0.2422 -0.6905  0.7334
  196MPD1    H7 3045   3.737   0.127   0.199 -1.5343  1.7037 -3.0741
  197MPD1     C 3046   2.265   0.141  16.757  0.5025 -1.2473 -0.3274
  197MPD1    C1 3047   2.345   0.050  16.815 -0.0330  0.2653 -0.0121
  197MPD1    C2 3048   2.421   4.699  16.732  0.5310 -0.0565  0.2636
  197MPD1    C3 3049   2.399   4.700  16.595 -0.3543  1.0312  0.3083
  197MPD1    C4 3050   2.319   0.054  16.539  0.6579 -0.5130  0.2889
  197MPD1    C5 3051   2.247   0.140  16.619  0.1534 -0.7789  0.6979
  197MPD1     H 3052   2.480   4.620  16.776  1.2552  0.7856  0.8165
  197MPD1    H1 3053   2.310   0.067  16.432 -3.6745 -1.9267  0.4764
  197MPD1    H2 3054   2.208   0.212  16.815  4.3574  0.3558  1.4375
  197MPD1    H3 3055   2.186   0.215  16.569  1.2061 -1.0235 -0.9724
  197MPD1     N 3056   2.475   4.623  16.503  0.1112  0.0785 -0.5520
  197MPD1    H5 3057   2.451   4.631  16.405 -0.7545 -0.2258 -0.3579
  197MPD1    N1 3058   2.377   0.069  16.951  0.2444  0.3418  0.5460
  197MPD1    H6 3059   2.402   4.721  16.995  1.2461  0.9238  1.1193
  197MPD1    H7 3060   2.295   0.099  17.004 -0.2174 -0.0850  0.0870
  198MPD1     C 3061   4.406   2.238  14.473  0.0900  0.3715  0.4043
  198MPD1    C1 3062   4.425   2.375  14.483 -0.2698 -0.1260  0.8067
  198MPD1    C2 3063   4.468   2.421  14.606  0.4113  0.2496 -0.7745
  198MPD1    C3 3064   4.489   2.343  14.714 -0.3816  0.2766  0.3969
  198MPD1    C4 3065   4.465   2.212  14.712  0.4037 -0.5955  0.2324
  198MPD1    C5 3066   4.423   2.166  14.587  0.5806  0.3894  0.1297
  198MPD1     H 3067   4.491   2.527  14.601 -1.8234  0.8329  1.8454
  198MPD1    H1 3068   4.489   2.144  14.793 -0.2127 -1.5558 -0.3943
  198MPD1    H2 3069   4.370   2.176  14.392 -1.5746  2.4897 -0.4930
  198MPD1    H3 3070   4.402   2.060  14.581  0.4863  0.4220 -0.1206
  198MPD1     N 3071   4.539   2.403  14.834  0.0354 -0.2350 -0.4841
  198MPD1    H5 3072   4.577   2.497  14.829  2.9729 -1.4260 -0.1490
  198MPD1    N1 3073   4.406   2.466  14.377  0.0660  0.0582 -0.4871
  198MPD1    H6 3074   4.335   2.426  14.315 -0.2818  0.2519 -0.2094
  198MPD1    H7 3075   4.384   2.562  14.403 -0.3636 -0.3546  0.6294
  199MPD1     C 3076   1.941   3.448   9.717 -0.2264  0.3315  0.1217
  199MPD1    C1 3077   1.934   3.319   9.669  0.2635 -0.4937  0.7554
  199MPD1    C2 3078   1.817   3.245   9.677  0.4269  0.3570  0.6551
  199MPD1    C3 3079   1.700   3.313   9.717 -0.0227 -0.0941  0.6381
  199MPD1    C4 3080   1.708   3.449   9.750 -0.2187 -0.4986 -0.3818
  199MPD1    C5 3081   1.827   3.512   9.750  0.0087  0.3229 -1.0791
  199MPD1     H 3082   1.821   3.142   9.642  0.0376 -0.0631  1.8572
  199MPD1    H1 3083   1.623   3.501   9.794  1.8704  4.2055 -1.8957
  199MPD1    H2 3084   2.039   3.495   9.716  0.7621 -1.7759 -1.2034
  199MPD1    H3 3085   1.828   3.615   9.784 -0.1203  0.0679 -0.2908
  199MPD1     N 3086   1.573   3.259   9.711 -0.1832 -0.4668 -0.3047
  199MPD1    H5 3087   1.499   3.325   9.732  0.5169  0.9630 -2.2649
  199MPD1    N1 3088   2.058   3.259   9.647  0.3061 -0.4151 -0.1323
  199MPD1    H6 3089   2.141   3.315   9.626 -0.3879 -0.0140 -1.8014
  199MPD1    H7 3090   2.059   3.198   9.565 -2.2285  0.4502 -0.7905
  200MPD1     C 3091   1.246   3.604  15.918 -0.3961 -0.2853 -0.4276
  200MPD1    C1 3092   1.318   3.721  15.897  0.4157  0.4054  0.3534
  200MPD1    C2 3093   1.279   3.807  15.798 -0.6745  0.7411 -0.0003
  200MPD1    C3 3094   1.162   3.776  15.725 -0.0060  0.8431 -0.2966
  200MPD1    C4 3095   1.090   3.660  15.746 -0.7854  0.6638 -0.7667
  200MPD1    C5 3096   1.122   3.578  15.850  0.5046  0.2689 -0.1841
  200MPD1     H 3097   1.332   3.900  15.784 -0.5962  0.6964 -0.0014
  200MPD1    H1 3098   1.010   3.628  15.680 -1.1850 -1.9580  0.9472
  200MPD1    H2 3099   1.269   3.532  15.996  1.5005 -1.4382 -2.0594
  200MPD1    H3 3100   1.065   3.492  15.884 -0.8643  0.6857 -1.4263
  200MPD1     N 3101   1.129   3.853  15.614  0.4613  0.2635 -0.1733
  200MPD1    H5 3102   1.204   3.914  15.582 -0.1737  0.9877 -0.3063
  200MPD1    N1 3103   1.416   3.758  15.991  0.1959 -0.2385 -0.7542
  200MPD1    H6 3104   1.445   3.678  16.048  2.5822 -1.4145 -3.6254
  200MPD1    H7 3105   1.494   3.818  15.965 -0.5893  1.1080 -0.0021
  201MPD1     C 3106   3.590   2.520  13.058 -0.4084 -0.0644 -0.2503
  201MPD1    C1 3107   3.566   2.455  13.181  0.7987 -0.3258 -0.2138
  201MPD1    C2 3108   3.556   2.313  13.175 -0.0934 -0.3126  0.3296
  201MPD1    C3 3109   3.546   2.246  13.055  0.0166 -0.3745  0.0673
  201MPD1    C4 3110   3.565   2.312  12.938  0.8984  0.7487 -0.4418
  201MPD1    C5 3111   3.583   2.440  12.941  0.1706 -0.4890 -0.2510
  201MPD1     H 3112   3.569   2.249  13.262  1.2779 -1.1165 -0.4677
  201MPD1    H1 3113   3.554   2.264  12.841  1.4398  1.4929 -0.8692
  201MPD1    H2 3114   3.612   2.626  13.045  1.2759 -0.4724 -0.6989
  201MPD1    H3 3115   3.607   2.487  12.846 -0.2953  0.1404 -0.0574
  201MPD1     N 3116   3.543   2.107  13.066  0.2175  0.3868  0.3077
  201MPD1    H5 3117   3.532   2.064  13.157  0.2743  0.3453  0.2953
  201MPD1    N1 3118   3.592   2.513  13.302 -0.0962  0.2816  0.6145
  201MPD1    H6 3119   3.570   2.612  13.299 -0.9679  0.1116  1.4505
  201MPD1    H7 3120   3.522   2.474  13.365 -0.0528 -2.0723 -0.8284
  202MPD1     C 3121   2.009   0.418   9.341 -0.1620 -0.3044 -0.2197
  202MPD1    C1 3122   1.965   0.541   9.376 -0.3114  0.2238 -0.6917
  202MPD1    C2 3123   2.067   0.634   9.417  0.3138  0.0932  0.0525
  202MPD1    C3 3124   2.205   0.611   9.414 -0.4124  0.0294  0.0251
  202MPD1    C4 3125   2.241   0.486   9.374 -0.0629  0.3925  0.1648
  202MPD1    C5 3126   2.147   0.396   9.341 -0.8403  0.4157 -0.3257
  202MPD1     H 3127   2.035   0.718   9.478 -0.4810 -1.4065  1.6778
  202MPD1    H1 3128   2.344   0.451   9.368  0.0670  0.9022 -0.6712
  202MPD1    H2 3129   1.940   0.336   9.324  0.0610 -0.1956 -1.6364
  202MPD1    H3 3130   2.176   0.296   9.312 -2.4447 -0.3574  0.7635
  202MPD1     N 3131   2.300   0.704   9.465 -0.2910  0.3617  0.3444
  202MPD1    H5 3132   2.399   0.680   9.468 -0.6173 -0.6265  2.8082
  202MPD1    N1 3133   1.833   0.567   9.425  0.0881 -1.1498 -0.8532
  202MPD1    H6 3134   1.769   0.518   9.362  1.4965 -1.2596 -2.1999
  202MPD1    H7 3135   1.800   0.663   9.423 -0.5636 -1.3678 -0.4639
  203MPD1     C 3136   2.356   2.741  12.765  0.4054 -0.2668 -0.8991
  203MPD1    C1 3137   2.426   2.637  12.722  0.1026 -0.4722 -0.1245
  203MPD1    C2 3138   2.391   2.507  12.755 -0.1246  0.2486 -0.0985
  203MPD1    C3 3139   2.271   2.485  12.828 -0.3674 -0.4497  0.2019
  203MPD1    C4 3140   2.204   2.594  12.882  0.2987 -0.3079  0.2354
  203MPD1    C5 3141   2.249   2.720  12.845  0.0594 -0.0589 -0.0034
  203MPD1     H 3142   2.452   2.424  12.722 -1.2412  0.5143 -2.8071
  203MPD1    H1 3143   2.113   2.586  12.941  0.2236  0.7797  0.2566
  203MPD1    H2 3144   2.380   2.845  12.748  1.1556 -0.4267 -0.8067
  203MPD1    H3 3145   2.183   2.803  12.869 -1.0930 -0.5498 -1.4743
  203MPD1     N 3146   2.241   2.352  12.852 -0.1088 -0.4626  0.1108
  203MPD1    H5 3147   2.296   2.275  12.814 -1.2692 -0.9667 -0.5609
  203MPD1    N1 3148   2.540   2.657  12.635 -0.2487  0.0026 -0.3797
  203MPD1    H6 3149   2.584   2.573  12.599 -2.4711 -1.0104 -0.7394
  203MPD1    H7 3150   2.615   2.704  12.686 -1.2151  1.6682 -0.5030
  204MPD1     C 3151   1.507   4.049  17.663  0.1381  0.0955 -0.1296
  204MPD1    C1 3152   1.576   4.073  17.549  0.4248 -0.2627 -0.1476
  204MPD1    C2 3153   1.616   3.959  17.486  0.6161  0.1751 -0.2439
  204MPD1    C3 3154   1.558   3.832  17.504 -0.3212 -0.0070  0.0192
  204MPD1    C4 3155   1.488   3.813  17.617  0.0437  0.4242 -0.0730
  204MPD1    C5 3156   1.463   3.921  17.695  0.1697  0.9303  0.1471
  204MPD1     H 3157   1.685   3.967  17.402 -0.1870 -0.9688 -1.0172
  204MPD1    H1 3158   1.457   3.716  17.654 -0.5660  0.3711 -0.7185
  204MPD1    H2 3159   1.478   4.122  17.738 -0.3464 -1.0978  0.8430
  204MPD1    H3 3160   1.405   3.904   0.027 -2.9175 -0.8934 -2.1942
  204MPD1     N 3161   1.592   3.725  17.418  0.4778 -0.0352  0.1999
  204MPD1    H5 3162   1.637   3.754  17.332  0.3924  2.9882  1.1993
  204MPD1    N1 3163   1.642   4.201  17.541 -0.5289 -0.2688  0.0018
  204MPD1    H6 3164   1.672   4.230  17.449  1.5066  1.0154  1.0731
  204MPD1    H7 3165   1.597   4.276  17.594 -0.1427 -0.8735  1.1932
  205MPD1     C 3166   1.288   1.938  16.637  0.2388 -0.4275 -0.3291
  205MPD1    C1 3167   1.311   2.068  16.628 -0.0955  0.3727 -0.2145
  205MPD1    C2 3168   1.379   2.129  16.729 -0.6107  0.2155 -0.1447
  205MPD1    C3 3169   1.431   2.055  16.837 -0.3590  0.1298 -0.4987
  205MPD1    C4 3170   1.404   1.922  16.842 -0.2907 -0.6468  0.5489
  205MPD1    C5 3171   1.320   1.864  16.744 -0.4143  0.5420  0.1724
  205MPD1     H 3172   1.403   2.235  16.727 -2.5976  0.6339 -1.1642
  205MPD1    H1 3173   1.433   1.857  16.923  0.6077 -0.2292  0.5716
  205MPD1    H2 3174   1.245   1.889  16.550 -3.7309  2.1234  0.2073
  205MPD1    H3 3175   1.312   1.756  16.746 -0.2294  0.4936 -1.4040
  205MPD1     N 3176   1.495   2.118  16.945  0.0617 -0.1003 -0.2320
  205MPD1    H5 3177   1.516   2.064  17.029 -0.8019 -1.1253 -0.6727
  205MPD1    N1 3178   1.284   2.125  16.506  1.0209 -0.2473 -0.0961
  205MPD1    H6 3179   1.200   2.087  16.463  0.7416  0.2011  0.0532
  205MPD1    H7 3180   1.261   2.223  16.523  2.1109 -0.0368  0.1945
  206MPD1     C 3181   2.908   0.869  16.626  0.3197  0.1404 -0.1217
  206MPD1    C1 3182   2.910   0.776  16.526  0.1150  0.3245  0.0996
  206MPD1    C2 3183   2.817   0.781  16.425  0.2953  0.3821  0.1731
  206MPD1    C3 3184   2.742   0.897  16.408 -0.5067  0.2439 -0.1334
  206MPD1    C4 3185   2.754   1.003  16.500  0.1839 -0.1747 -0.9989
  206MPD1    C5 3186   2.833   0.981  16.617  0.1112 -0.0633  0.0127
  206MPD1     H 3187   2.812   0.696  16.358  1.9091 -1.8913  2.8955
  206MPD1    H1 3188   2.701   1.098  16.491 -0.4273 -0.2982  1.2923
  206MPD1    H2 3189   2.978   0.853  16.707 -0.6483  0.5846  0.8057
  206MPD1    H3 3190   2.831   1.056  16.696 -2.7694 -1.1344  0.9648
  206MPD1     N 3191   2.643   0.907  16.305 -0.1138 -0.1276 -0.5128
  206MPD1    H5 3192   2.590   0.993  16.309 -1.6510 -1.1257  0.4636
  206MPD1    N1 3193   2.984   0.657  16.552  0.4237 -0.5790 -1.0097
  206MPD1    H6 3194   3.012   0.609  16.466  3.9078  1.5313 -1.0413
  206MPD1    H7 3195   3.066   0.691  16.601 -0.4233 -1.9356  1.3295
  207MPD1     C 3196   3.252   2.700   9.764 -0.5007  0.6024 -0.3505
  207MPD1    C1 3197   3.319   2.821   9.762 -0.0713  0.0563 -0.1549
  207MPD1    C2 3198   3.410   2.861   9.865  0.8637  0.5536  0.1664
  207MPD1    C3 3199   3.435   2.764   9.965 -0.2860 -0.2962  0.1359
  207MPD1    C4 3200   3.374   2.641   9.965  0.5455 -0.7311 -0.2361
  207MPD1    C5 3201   3.283   2.610   9.869  0.1677  0.2315 -0.0290
  207MPD1     H 3202   3.464   2.954   9.855  0.3569  0.7763 -0.5157
  207MPD1    H1 3203   3.400   2.574  10.046 -0.9663 -0.5297  0.4176
  207MPD1    H2 3204   3.190   2.671   9.680 -0.5097  0.2968 -0.2412
  207MPD1    H3 3205   3.248   2.507   9.877 -0.9168  0.6561  0.8154
  207MPD1     N 3206   3.526   2.788  10.069  0.1613 -0.6298  0.1681
  207MPD1    H5 3207   3.536   2.715  10.138  1.3049 -0.4088  0.2341
  207MPD1    N1 3208   3.294   2.907   9.655 -0.5215 -0.1316 -0.0621
  207MPD1    H6 3209   3.258   2.863   9.571  0.8333 -1.0126 -0.1739
  207MPD1    H7 3210   3.364   2.980   9.641  0.7933 -0.9417  2.1483
  208MPD1     C 3211   2.842   2.248   0.000 -0.2983  0.7827  0.7771
  208MPD1    C1 3212   2.890   2.119  17.748 -0.0379 -0.0105  0.1756
  208MPD1    C2 3213   2.800   2.013   0.011 -0.3233  0.4363  0.5345
  208MPD1    C3 3214   2.663   2.040   0.024  0.1939 -0.2075  0.4957
  208MPD1    C4 3215   2.617   2.169   0.015 -0.5372  0.5534 -0.5738
  208MPD1    C5 3216   2.710   2.265   0.010  0.3645  0.5820 -0.1486
  208MPD1     H 3217   2.839   1.912   0.016 -2.7942 -0.5723 -0.3478
  208MPD1    H1 3218   2.513   2.197   0.032 -1.2075 -1.9539 -0.5257
  208MPD1    H2 3219   2.902   2.338   0.017 -0.4998  0.7920  1.4514
  208MPD1    H3 3220   2.671   2.358   0.050  0.0597 -0.2764  1.5591
  208MPD1     N 3221   2.578   1.932   0.043 -0.7279  0.2226 -0.1817
  208MPD1    H5 3222   2.618   1.846   0.081 -0.6133 -0.5594 -2.0984
  208MPD1    N1 3223   3.030   2.115   0.012  0.1874 -0.1877  0.4820
  208MPD1    H6 3224   3.060   2.022  17.743  0.7539  0.0021  0.4609
  208MPD1    H7 3225   3.074   2.171  17.698  0.2704  2.6200  2.7002
  209MPD1     C 3226   3.964   1.542  11.439 -0.4680 -0.1563 -0.2373
  209MPD1    C1 3227   3.995   1.573  11.308  0.0588  0.1909 -0.4840
  209MPD1    C2 3228   3.964   1.702  11.269 -0.3321  0.0502 -0.1796
  209MPD1    C3 3229   3.923   1.802  11.360 -0.3799  0.6646 -0.4005
  209MPD1    C4 3230   3.898   1.769  11.493 -0.6984  0.1373 -1.2064
  209MPD1    C5 3231   3.932   1.642  11.536  0.1456  0.0771  0.1699
  209MPD1     H 3232   3.986   1.725  11.166  0.3104 -0.8798 -0.2456
  209MPD1    H1 3233   3.881   1.846  11.567  0.2039 -0.5179 -0.3218
  209MPD1    H2 3234   3.960   1.440  11.476  0.0878  0.4898  1.5765
  209MPD1    H3 3235   3.900   1.615  11.635  1.7091  0.7117  0.8448
  209MPD1     N 3236   3.909   1.940  11.330 -0.3711 -0.3655 -0.2541
  209MPD1    H5 3237   3.894   2.001  11.409 -1.2048  1.0510 -1.4945
  209MPD1    N1 3238   4.037   1.468  11.226  0.4270 -0.0319 -0.0350
  209MPD1    H6 3239   4.070   1.520  11.145 -1.1762 -0.4950 -0.9613
  209MPD1    H7 3240   4.120   1.422  11.263 -0.8164 -1.3002  1.1634
  210MPD1     C 3241   4.501   2.731  11.419  0.6533  0.6461 -0.0485
  210MPD1    C1 3242   4.498   2.599  11.430 -0.0880 -0.8469  0.0067
  210MPD1    C2 3243   4.384   2.529  11.381 -0.2293  0.2040  0.4806
  210MPD1    C3 3244   4.274   2.591  11.331  0.3769 -0.1467  0.4918
  210MPD1    C4 3245   4.284   2.732  11.324  0.7835 -0.3532 -0.5302
  210MPD1    C5 3246   4.396   2.799  11.358 -0.0503 -0.1977 -0.5859
  210MPD1     H 3247   4.390   2.421  11.393 -1.2788 -0.0422 -1.2755
  210MPD1    H1 3248   4.205   2.797  11.287 -0.9220 -1.7380  0.6447
  210MPD1    H2 3249   4.583   2.788  11.463 -0.1768  0.4385  1.7911
  210MPD1    H3 3250   4.387   2.907  11.351  0.8172 -0.2069 -1.8075
  210MPD1     N 3251   4.162   2.521  11.283 -0.0281  0.7833 -0.1896
  210MPD1    H5 3252   4.085   2.584  11.262 -1.5762 -0.7738  0.8770
  210MPD1    N1 3253   4.617   2.534  11.468  0.2620  0.2475 -0.3985
  210MPD1    H6 3254   4.612   2.441  11.509  0.6334  0.0692 -0.7535
  210MPD1    H7 3255   4.658   2.577  11.551  0.5336 -4.2102  1.7650
  211MPD1     C 3256   2.319   2.507  15.802  0.3239  0.5185  0.4791
  211MPD1    C1 3257   2.344   2.642  15.802  0.5390  0.2888  0.0042
  211MPD1    C2 3258   2.244   2.732  15.820  0.0687 -1.0900  0.7027
  211MPD1    C3 3259   2.116   2.691  15.819  0.2334  0.2243 -0.5595
  211MPD1    C4 3260   2.088   2.560  15.817 -0.1158  0.2764  0.1473
  211MPD1    C5 3261   2.191   2.464  15.812  0.2531 -0.3383 -0.0287
  211MPD1     H 3262   2.274   2.833  15.846 -0.2320 -1.0272  0.8038
  211MPD1    H1 3263   1.989   2.518  15.826  1.3618 -2.8685  1.7884
  211MPD1    H2 3264   2.400   2.435  15.794  0.1023  0.2281  0.8345
  211MPD1    H3 3265   2.157   2.361  15.799 -3.9781  1.3280 -2.2827
  211MPD1     N 3266   2.005   2.786  15.821  0.3591 -0.5146 -0.4877
  211MPD1    H5 3267   2.031   2.884  15.824  0.4796 -0.5831  0.6117
  211MPD1    N1 3268   2.477   2.677  15.815 -0.5735 -0.0592 -0.5005
  211MPD1    H6 3269   2.528   2.616  15.751 -1.2532  0.1885 -1.2818
  211MPD1    H7 3270   2.492   2.769  15.774  0.6168  0.1488  0.3908
  212MPD1     C 3271   1.465   1.120  16.788  0.3392 -0.5677 -0.0590
  212MPD1    C1 3272   1.355   1.181  16.848  0.2986  0.0473 -0.1750
  212MPD1    C2 3273   1.279   1.100  16.927  0.0886 -0.3068  0.0171
  212MPD1    C3 3274   1.315   0.968  16.961  0.1755 -0.4292  0.1552
  212MPD1    C4 3275   1.439   0.924  16.922  0.1482 -0.1369  0.6624
  212MPD1    C5 3276   1.509   0.994  16.828  0.1425 -0.6789 -0.0301
  212MPD1     H 3277   1.180   1.135  16.952  0.5820  0.4908  0.8515
  212MPD1    H1 3278   1.480   0.828  16.951  0.8724 -1.0297 -3.3492
  212MPD1    H2 3279   1.516   1.182  16.715 -1.5504 -0.0332 -0.9327
  212MPD1    H3 3280   1.603   0.961  16.785  0.2694 -0.7701  0.3231
  212MPD1     N 3281   1.229   0.876  17.031 -0.2050  0.0866  0.9851
  212MPD1    H5 3282   1.270   0.788  17.060  0.5719  0.0491 -0.2086
  212MPD1    N1 3283   1.318   1.308  16.798 -0.0970  0.4044 -0.1659
  212MPD1    H6 3284   1.402   1.358  16.768 -1.6973  3.6514  0.8137
  212MPD1    H7 3285   1.272   1.363  16.870  1.4560 -0.5824  1.5712
  213MPD1     C 3286   4.143   1.679  15.611  1.4974 -0.1144  0.3642
  213MPD1    C1 3287   4.165   1.758  15.499 -0.1112 -0.0185 -0.0025
  213MPD1    C2 3288   4.046   1.784  15.422 -0.6332 -0.1527  0.1021
  213MPD1    C3 3289   3.929   1.718  15.441 -0.2422  0.0348 -0.1676
  213MPD1    C4 3290   3.925   1.618  15.536 -0.0066 -0.3454 -0.4577
  213MPD1    C5 3291   4.026   1.605  15.621  0.5106 -0.3084 -0.5911
  213MPD1     H 3292   4.061   1.861  15.347 -2.2183  0.2820  0.2330
  213MPD1    H1 3293   3.846   1.547  15.557 -0.5233  0.5349  0.5963
  213MPD1    H2 3294   4.222   1.666  15.684  1.0899 -0.3100  0.7778
  213MPD1    H3 3295   4.012   1.535  15.702  0.1647  1.5964  0.9958
  213MPD1     N 3296   3.817   1.745  15.351 -0.3530  0.6123  0.4630
  213MPD1    H5 3297   3.820   1.812  15.275 -0.6278 -1.8830 -1.7474
  213MPD1    N1 3298   4.270   1.850  15.489  0.0159  0.4933  0.1929
  213MPD1    H6 3299   4.278   1.890  15.396  0.4815  0.6364  0.2952
  213MPD1    H7 3300   4.359   1.822  15.529  0.6946  1.0745 -0.9200
  214MPD1     C 3301   2.861   1.619  15.505  0.6818  0.3734  0.8085
  214MPD1    C1 3302   2.866   1.592  15.369 -0.2164  0.9284  0.3598
  214MPD1    C2 3303   2.985   1.634  15.306  0.4865 -0.3464  0.4781
  214MPD1    C3 3304   3.081   1.712  15.367 -0.8268  0.1912 -0.0766
  214MPD1    C4 3305   3.065   1.739  15.504 -0.0491 -0.0680  0.2487
  214MPD1    C5 3306   2.956   1.695  15.568 -0.5027  0.2173 -0.7785
  214MPD1     H 3307   2.992   1.599  15.204 -0.5952 -0.4753  0.4486
  214MPD1    H1 3308   3.138   1.798  15.560 -0.1725 -0.6575  1.0271
  214MPD1    H2 3309   2.779   1.582  15.565  1.9087 -0.7355  1.7923
  214MPD1    H3 3310   2.943   1.740  15.665  0.8582 -2.7179  0.7601
  214MPD1     N 3311   3.202   1.739  15.312  0.1824  0.1885 -0.2352
  214MPD1    H5 3312   3.268   1.791  15.368 -0.6458  0.6461  0.3057
  214MPD1    N1 3313   2.782   1.485  15.324  0.2068 -0.0157 -0.5846
  214MPD1    H6 3314   2.689   1.481  15.365  0.3203  1.1846 -0.2257
  214MPD1    H7 3315   2.769   1.472  15.224  0.1992 -1.0810 -0.4453
  215MPD1     C 3316   2.903   2.076  11.382 -0.1210 -0.6359  0.1249
  215MPD1    C1 3317   3.031   2.020  11.367  0.2901 -0.1745  0.3344
  215MPD1    C2 3318   3.134   2.092  11.309  0.4086 -0.0269  0.0757
  215MPD1    C3 3319   3.106   2.222  11.259  0.0531 -0.5263 -0.0869
  215MPD1    C4 3320   2.976   2.271  11.262 -0.6227 -0.9121 -0.2435
  215MPD1    C5 3321   2.882   2.199  11.329 -0.0426  0.5671  0.3320
  215MPD1     H 3322   3.238   2.060  11.313  0.2306 -0.6997 -0.6857
  215MPD1    H1 3323   2.944   2.369  11.228 -0.0758  0.0137  1.9437
  215MPD1    H2 3324   2.829   2.029  11.447  0.0161 -0.0729  0.6936
  215MPD1    H3 3325   2.790   2.247  11.361  0.2382  1.5774 -0.3823
  215MPD1     N 3326   3.207   2.301  11.198  0.6018 -0.1000  0.0130
  215MPD1    H5 3327   3.303   2.269  11.201  1.1777  1.6263 -0.4233
  215MPD1    N1 3328   3.058   1.899  11.428 -0.3294 -0.0057  0.0760
  215MPD1    H6 3329   3.137   1.846  11.393 -1.0485  0.2504 -1.9482
  215MPD1    H7 3330   2.979   1.839  11.451 -1.0583  1.2340  0.8292
  216MPD1     C 3331   1.105   0.694   0.192 -0.1348  0.6892 -0.6009
  216MPD1    C1 3332   1.163   0.577   0.243 -0.6184 -0.9856  0.0829
  216MPD1    C2 3333   1.150   0.457   0.171 -0.2514 -0.0938  0.1565
  216MPD1    C3 3334   1.067   0.452   0.060  0.0460  0.3882 -0.6349
  216MPD1    C4 3335   1.002   0.566   0.017  0.0399 -0.2854  0.7022
  216MPD1    C5 3336   1.019   0.684   0.082  0.2632  0.4492  0.0670
  216MPD1     H 3337   1.206   0.369   0.202 -0.2024  0.0267  0.4093
  216MPD1    H1 3338   0.937   0.582  17.689  3.2887 -1.2711 -1.9359
  216MPD1    H2 3339   1.126   0.793   0.231  2.1690  0.2404 -0.6773
  216MPD1    H3 3340   0.975   0.772   0.036 -0.5541 -0.2949 -0.5749
  216MPD1     N 3341   1.055   0.325   0.002  0.4090 -0.0936  0.1483
  216MPD1    H5 3342   1.099   0.254   0.060  1.3014  0.2951 -0.0510
  216MPD1    N1 3343   1.253   0.594   0.349  0.8573 -0.5679  0.1553
  216MPD1    H6 3344   1.260   0.511   0.407 -3.6539 -0.6151  0.6313
  216MPD1    H7 3345   1.222   0.675   0.401 -0.5055 -1.0249  0.0600
  217MPD1     C 3346   1.138   0.634   9.175 -0.0892  0.3506  0.2617
  217MPD1    C1 3347   1.250   0.703   9.167 -0.1536 -0.2685  0.4141
  217MPD1    C2 3348   1.332   0.715   9.276  0.0497  0.4451  0.0034
  217MPD1    C3 3349   1.280   0.669   9.396  0.4130 -0.0532 -0.4934
  217MPD1    C4 3350   1.148   0.613   9.405 -0.0799 -0.3097  0.2093
  217MPD1    C5 3351   1.086   0.590   9.288  0.1718 -0.1715 -0.0785
  217MPD1     H 3352   1.432   0.757   9.270  0.3518 -0.4906 -1.6530
  217MPD1    H1 3353   1.097   0.585   9.497 -1.4303  2.1352  0.2032
  217MPD1    H2 3354   1.082   0.618   9.084 -0.9097  2.0801  0.4433
  217MPD1    H3 3355   0.986   0.547   9.287  0.0675  0.0493  0.5924
  217MPD1     N 3356   1.348   0.685   9.517 -0.3939 -0.5728 -0.0957
  217MPD1    H5 3357   1.299   0.647   9.598 -1.1923  1.5722  0.4208
  217MPD1    N1 3358   1.270   0.785   9.057 -0.0095  0.3961 -0.0376
  217MPD1    H6 3359   1.229   0.753   8.970 -0.2301  0.2616  0.1159
  217MPD1    H7 3360   1.367   0.812   9.042  0.2479  0.6102  1.9518
  218MPD1     C 3361   0.000   2.832  11.822 -0.2845  0.2938  0.5861
  218MPD1    C1 3362   4.711   2.699  11.806 -0.1461 -0.1315  0.4061
  218MPD1    C2 3363   4.589   2.660  11.873 -0.9145 -0.4004 -0.1337
  218MPD1    C3 3364   4.520   2.742  11.961  0.0221  0.2884  0.2097
  218MPD1    C4 3365   4.564   2.868  11.978  0.0280 -0.0216 -0.7187
  218MPD1    C5 3366   4.669   2.915  11.907  0.2051  0.3581  0.4932
  218MPD1     H 3367   4.545   2.562  11.861 -2.5364  0.3918 -0.6559
  218MPD1    H1 3368   4.518   2.942  12.043  2.0981  0.6065  0.0283
  218MPD1    H2 3369   0.083   2.881  11.773 -0.6786  0.1360 -0.2352
  218MPD1    H3 3370   4.701   3.018  11.913  0.7462  0.2041  0.2845
  218MPD1     N 3371   4.409   2.689  12.035 -0.1656 -0.1209  0.3863
  218MPD1    H5 3372   4.379   2.594  12.016 -0.4776  0.0305  0.1294
  218MPD1    N1 3373   0.041   2.606  11.725  0.3050  0.1519  0.0370
  218MPD1    H6 3374   0.029   2.508  11.749 -0.1329 -0.3618 -2.3183
  218MPD1    H7 3375   0.140   2.629  11.726 -0.2501  2.4632  1.0497
  219MPD1     C 3376   3.657   2.079  11.970  0.4213 -0.4697  0.1605
  219MPD1    C1 3377   3.696   2.193  11.900 -0.2482 -0.6244  0.1498
  219MPD1    C2 3378   3.768   2.295  11.962  0.4079 -0.7677 -0.0064
  219MPD1    C3 3379   3.803   2.283  12.096  0.5355 -0.4038 -0.6171
  219MPD1    C4 3380   3.769   2.163  12.161 -0.2771 -0.1515 -0.7816
  219MPD1    C5 3381   3.697   2.064  12.095 -1.5304 -0.4094 -0.0059
  219MPD1     H 3382   3.801   2.384  11.910  1.7297 -1.8346 -0.9773
  219MPD1    H1 3383   3.795   2.140  12.264 -0.1327 -0.9066 -0.9870
  219MPD1    H2 3384   3.585   2.010  11.928 -0.0327  0.5952 -0.8057
  219MPD1    H3 3385   3.667   1.974  12.148 -3.1873 -0.4425 -0.9668
  219MPD1     N 3386   3.898   2.369  12.160 -0.3532  0.0695 -0.1018
  219MPD1    H5 3387   3.933   2.346  12.253  0.7508  2.7352  0.1397
  219MPD1    N1 3388   3.660   2.205  11.768 -0.7313 -0.4285 -0.6384
  219MPD1    H6 3389   3.578   2.150  11.742 -1.2703 -0.4790  1.1915
  219MPD1    H7 3390   3.628   2.300  11.752 -1.1061 -0.5004 -0.3153
  220MPD1     C 3391   2.582   3.329   9.788  0.0618  0.5387  0.2237
  220MPD1    C1 3392   2.660   3.345   9.902 -0.6868  0.1219  0.6600
  220MPD1    C2 3393   2.741   3.249   9.943 -0.7760 -0.2525 -0.6826
  220MPD1    C3 3394   2.751   3.129   9.883  0.5318  0.2082 -0.0681
  220MPD1    C4 3395   2.680   3.106   9.767  0.7180  0.5145  0.0394
  220MPD1    C5 3396   2.598   3.209   9.727  0.0288 -0.4353 -0.2230
  220MPD1     H 3397   2.794   3.255  10.037 -1.4425 -0.3358 -0.2956
  220MPD1    H1 3398   2.693   3.017   9.706 -1.9998 -0.0384  0.2532
  220MPD1    H2 3399   2.510   3.405   9.761 -1.5033 -0.5651  1.3460
  220MPD1    H3 3400   2.532   3.187   9.644 -0.9562  0.0627  0.4326
  220MPD1     N 3401   2.829   3.032   9.943 -0.4795  0.4539  0.2503
  220MPD1    H5 3402   2.879   3.058  10.027  0.7951  1.1041 -0.7175
  220MPD1    N1 3403   2.653   3.465   9.987  0.4876  0.0583 -0.0510
  220MPD1    H6 3404   2.560   3.505   9.989  0.0400 -0.9239 -0.9974
  220MPD1    H7 3405   2.679   3.453  10.085 -2.3723 -0.7654  0.6234
  221MPD1     C 3406   1.986   1.893  17.181 -0.1651  0.0524 -0.6216
  221MPD1    C1 3407   1.924   1.779  17.139  0.2859 -0.4222  0.9893
  221MPD1    C2 3408   1.873   1.774  17.012  0.6039 -0.6140  0.1588
  221MPD1    C3 3409   1.871   1.886  16.924  0.2465 -0.0006  0.4325
  221MPD1    C4 3410   1.932   2.003  16.967 -0.2538 -0.4729 -0.8567
  221MPD1    C5 3411   1.983   2.008  17.097  0.6167  0.8285  0.5334
  221MPD1     H 3412   1.830   1.681  16.976  0.3584 -0.0979 -0.8753
  221MPD1    H1 3413   1.914   2.090  16.906  0.9071 -0.4054 -1.0971
  221MPD1    H2 3414   2.027   1.915  17.279 -1.2447  0.7131 -0.3126
  221MPD1    H3 3415   2.023   2.104  17.127  0.0554  1.5128 -0.9149
  221MPD1     N 3416   1.820   1.881  16.795 -0.2329  0.4055 -0.4761
  221MPD1    H5 3417   1.853   1.953  16.731 -2.3098  1.4506 -0.3932
  221MPD1    N1 3418   1.913   1.673  17.232  0.6927 -0.5022 -0.4165
  221MPD1    H6 3419   1.895   1.714  17.324 -0.0930 -1.3313 -0.2015
  221MPD1    H7 3420   1.847   1.598  17.218 -0.3312  0.0688  1.3079
  222MPD1     C 3421   0.672   0.285   0.181 -0.6047  0.3150  0.2476
  222MPD1    C1 3422   0.702   0.406   0.120 -0.5663  0.4753 -0.3520
  222MPD1    C2 3423   0.757   0.504   0.199 -0.1363 -1.0365  0.2462
  222MPD1    C3 3424   0.777   0.485   0.335  0.6108  0.6091  0.9477
  222MPD1    C4 3425   0.760   0.360   0.392 -0.8132 -0.3301  0.6217
  222MPD1    C5 3426   0.723   0.258   0.307  0.2987  0.4404 -0.5438
  222MPD1     H 3427   0.788   0.601   0.163  0.4446 -1.3174 -0.0156
  222MPD1    H1 3428   0.777   0.348   0.499  3.4129 -1.2777 -0.1728
  222MPD1    H2 3429   0.632   0.203   0.122  0.3361  0.4732 -0.6188
  222MPD1    H3 3430   0.713   0.159   0.350  1.1018  0.2653 -0.7605
  222MPD1     N 3431   0.833   0.581   0.416 -0.3143 -0.1418 -0.1265
  222MPD1    H5 3432   0.862   0.550   0.508 -0.7426  0.3537  0.1781
  222MPD1    N1 3433   0.656   0.425  17.747 -0.0856 -0.0483 -0.1904
  222MPD1    H6 3434   0.721   0.485  17.696  0.6793 -2.3962 -1.9501
  222MPD1    H7 3435   0.655   0.341  17.690 -1.7369 -0.4187  0.3830
  223MPD1     C 3436   1.443   0.688   1.173  0.0839  0.0762  0.2849
  223MPD1    C1 3437   1.427   0.603   1.066  0.4242  0.5424 -0.5029
  223MPD1    C2 3438   1.335   0.639   0.968  0.2913  0.3255  0.3400
  223MPD1    C3 3439   1.268   0.762   0.965  0.2829 -0.0473 -0.3172
  223MPD1    C4 3440   1.286   0.843   1.074 -0.2267 -0.3107  0.3095
  223MPD1    C5 3441   1.371   0.802   1.177  0.6638 -0.2895 -0.2139
  223MPD1     H 3442   1.315   0.565   0.891 -0.8551  1.1524 -0.1559
  223MPD1    H1 3443   1.223   0.931   1.078 -0.4826 -0.4573 -0.5845
  223MPD1    H2 3444   1.506   0.659   1.256  0.9951 -0.4176 -0.5827
  223MPD1    H3 3445   1.382   0.869   1.262 -1.4173 -0.9671  0.5845
  223MPD1     N 3446   1.165   0.800   0.874 -0.2583  0.2346  0.1915
  223MPD1    H5 3447   1.108   0.876   0.909 -0.0999  0.2974  0.3115
  223MPD1    N1 3448   1.489   0.474   1.066 -0.2330 -0.1119 -0.0931
  223MPD1    H6 3449   1.563   0.466   1.136 -0.9493 -1.5966  0.5089
  223MPD1    H7 3450   1.499   0.433   0.973 -1.0271  1.5679 -0.8991
  224MPD1     C 3451   1.519   1.254  10.662 -0.1546  0.2735 -0.1232
  224MPD1    C1 3452   1.426   1.348  10.629 -0.4107 -0.1779  0.3444
  224MPD1    C2 3453   1.446   1.421  10.510 -0.0894  0.1073  0.4391
  224MPD1    C3 3454   1.572   1.422  10.450  0.4154 -0.2628 -0.0406
  224MPD1    C4 3455   1.668   1.329  10.491  0.3510 -0.9199 -0.7465
  224MPD1    C5 3456   1.638   1.241  10.592  0.0750  0.2411 -0.1445
  224MPD1     H 3457   1.359   1.470  10.467 -1.5575 -1.2507  1.8739
  224MPD1    H1 3458   1.753   1.305  10.429 -0.1629 -0.7303 -1.5240
  224MPD1    H2 3459   1.508   1.183  10.743 -0.0667  2.1105  1.5115
  224MPD1    H3 3460   1.704   1.159  10.618  0.1240  0.4445  0.3804
  224MPD1     N 3461   1.601   1.504  10.340 -0.6511 -0.7788 -0.0374
  224MPD1    H5 3462   1.692   1.501  10.295 -1.3200 -0.0737 -1.4561
  224MPD1    N1 3463   1.302   1.343  10.700  0.2121  0.0192  0.2448
  224MPD1    H6 3464   1.247   1.426  10.679 -0.0989 -0.7459 -1.9193
  224MPD1    H7 3465   1.313   1.337  10.801 -1.0611  0.9063  0.4422
  225MPD1     C 3466   2.587   2.946  13.431  0.4040  0.2036 -0.5563
  225MPD1    C1 3467   2.709   2.883  13.435 -0.0432  0.1764  0.2904
  225MPD1    C2 3468   2.803   2.905  13.334  0.4485 -0.5375  0.0774
  225MPD1    C3 3469   2.774   3.001  13.234 -0.5972 -1.2893  0.3641
  225MPD1    C4 3470   2.658   3.071  13.235 -0.1416  0.0950  0.1045
  225MPD1    C5 3471   2.571   3.043  13.333 -0.8332  0.3046 -0.3450
  225MPD1     H 3472   2.892   2.843  13.333 -0.3819 -1.7616  0.8876
  225MPD1    H1 3473   2.625   3.135  13.154 -0.5910  0.1537  0.3350
  225MPD1    H2 3474   2.496   2.936  13.489  1.2218 -1.1722  0.4767
  225MPD1    H3 3475   2.474   3.090  13.322 -1.4402 -0.9461 -0.2962
  225MPD1     N 3476   2.848   3.029  13.120  0.4755  0.3141 -0.2056
  225MPD1    H5 3477   2.803   3.094  13.056 -0.4516 -0.0389  0.0881
  225MPD1    N1 3478   2.724   2.780  13.535 -0.3837 -0.2858  0.4421
  225MPD1    H6 3479   2.661   2.801  13.612 -0.7871  2.1731 -0.5545
  225MPD1    H7 3480   2.821   2.778  13.565 -0.7698 -1.4302  1.6291
  226MPD1     C 3481   0.673   2.120   9.778  0.0104 -0.1084  0.4025
  226MPD1    C1 3482   0.808   2.095   9.744  0.5287 -0.0456  0.8125
  226MPD1    C2 3483   0.886   2.207   9.696  0.4732  0.0968  0.0708
  226MPD1    C3 3484   0.836   2.334   9.673  0.2433  0.4307  0.1779
  226MPD1    C4 3485   0.705   2.352   9.711 -0.0708  0.1420  0.7066
  226MPD1    C5 3486   0.630   2.248   9.756 -0.5948 -0.1701  0.8964
  226MPD1     H 3487   0.991   2.194   9.674  0.9861 -0.1951  2.7515
  226MPD1    H1 3488   0.652   2.444   9.690  1.7735  0.7585 -1.1918
  226MPD1    H2 3489   0.607   2.043   9.818  0.4750 -1.2416 -1.0150
  226MPD1    H3 3490   0.525   2.271   9.773 -1.0594 -2.0538  0.5000
  226MPD1     N 3491   0.911   2.434   9.607  0.6604 -0.1939 -0.2543
  226MPD1    H5 3492   1.007   2.407   9.587  0.5738  0.7062 -1.8553
  226MPD1    N1 3493   0.869   1.972   9.786 -0.2002 -0.1690 -0.2961
  226MPD1    H6 3494   0.804   1.894   9.776 -1.2397  0.8902 -1.8915
  226MPD1    H7 3495   0.956   1.952   9.737 -1.4399  2.2502 -3.5431
  227MPD1     C 3496   0.750   3.369   9.250 -0.5479 -0.2698  0.8774
  227MPD1    C1 3497   0.672   3.261   9.254  0.0114  0.3485 -0.1929
  227MPD1    C2 3498   0.732   3.132   9.266 -0.3019  0.2385  0.7278
  227MPD1    C3 3499   0.865   3.122   9.302 -0.2837  0.2412 -0.6165
  227MPD1    C4 3500   0.938   3.241   9.317 -0.3773  0.2509 -0.4615
  227MPD1    C5 3501   0.882   3.361   9.282 -0.3615  0.1752 -0.4016
  227MPD1     H 3502   0.671   3.043   9.261 -0.4923  0.5054 -1.7055
  227MPD1    H1 3503   1.043   3.235   9.340 -0.0737  1.7569 -1.4281
  227MPD1    H2 3504   0.709   3.467   9.227  0.6786 -0.1719 -0.9276
  227MPD1    H3 3505   0.935   3.453   9.266  0.4465 -0.4038 -1.0247
  227MPD1     N 3506   0.922   2.992   9.321  0.4896 -0.2716  0.3524
  227MPD1    H5 3507   0.863   2.912   9.301 -1.4307  1.6648 -1.7719
  227MPD1    N1 3508   0.539   3.267   9.215  0.3573 -0.0742 -0.3329
  227MPD1    H6 3509   0.478   3.204   9.266 -0.1922 -1.8413 -3.1396
  227MPD1    H7 3510   0.511   3.364   9.231 -1.0153 -1.1405  3.5730
  228MPD1     C 3511   0.469   1.483  13.579  0.2573 -0.1028 -0.3787
  228MPD1    C1 3512   0.445   1.364  13.645 -0.1145  0.4447 -0.2842
  228MPD1    C2 3513   0.348   1.285  13.588 -0.0062 -0.0246 -0.6030
  228MPD1    C3 3514   0.266   1.322  13.485  0.4331  0.0791 -0.1805
  228MPD1    C4 3515   0.287   1.446  13.425  0.2582 -0.0690  0.6810
  228MPD1    C5 3516   0.397   1.520  13.469  0.1359  0.0679 -0.7275
  228MPD1     H 3517   0.337   1.183  13.623 -1.9243  0.4073  0.0783
  228MPD1    H1 3518   0.234   1.495  13.345  0.6723 -2.2872 -0.9480
  228MPD1    H2 3519   0.553   1.543  13.611  1.2768 -0.8805 -1.6648
  228MPD1    H3 3520   0.427   1.610  13.417  0.6548  1.3932  1.8756
  228MPD1     N 3521   0.151   1.245  13.451  0.7532  0.1813 -0.5777
  228MPD1    H5 3522   0.136   1.157  13.500 -1.4890  1.1197  0.4021
  228MPD1    N1 3523   0.549   1.308  13.718  0.1272  0.4183 -0.2786
  228MPD1    H6 3524   0.606   1.376  13.768  1.0434  0.4683 -1.3893
  228MPD1    H7 3525   0.515   1.242  13.788  1.1179  0.0358 -0.1610
  229MPD1     C 3526   0.269   0.986  15.053  0.8806  0.1375  0.0450
  229MPD1    C1 3527   0.269   0.909  14.941  0.0831 -0.2025 -0.4184
  229MPD1    C2 3528   0.288   0.771  14.958  0.1993  0.1912  0.3554
  229MPD1    C3 3529   0.316   0.716  15.087 -0.6620 -0.3017 -0.2974
  229MPD1    C4 3530   0.348   0.806  15.192  0.9135  0.5960 -0.5824
  229MPD1    C5 3531   0.314   0.937  15.175 -0.3675  0.4525 -0.4036
  229MPD1     H 3532   0.299   0.711  14.869 -0.1361  1.9697 -0.8959
  229MPD1    H1 3533   0.394   0.778  15.286  0.7864 -1.9626 -1.2807
  229MPD1    H2 3534   0.246   1.091  15.040 -2.9746 -0.7095  0.1325
  229MPD1    H3 3535   0.317   1.004  15.260  0.3904 -0.5630  0.3672
  229MPD1     N 3536   0.322   0.577  15.118 -0.2286 -0.8484  0.1505
  229MPD1    H5 3537   0.331   0.550  15.215  1.0819  1.3678  0.6415
  229MPD1    N1 3538   0.234   0.956  14.816 -0.1896  0.1211  0.1704
  229MPD1    H6 3539   0.273   0.904  14.737 -1.2265 -0.8254  0.2838
  229MPD1    H7 3540   0.266   1.052  14.805  1.9862 -0.5760  0.3057
  230MPD1     C 3541   0.560   0.078  15.897 -0.0439  0.3693 -0.5601
  230MPD1    C1 3542   0.518   4.716  15.815  0.2698 -1.4834  0.1092
  230MPD1    C2 3543   0.474   4.740  15.688 -0.0902 -0.0503 -0.1504
  230MPD1    C3 3544   0.491   0.126  15.632 -0.4955 -0.0796 -0.1162
  230MPD1    C4 3545   0.540   0.224  15.715  0.0006 -0.1944  0.3203
  230MPD1    C5 3546   0.562   0.204  15.849  0.2168 -0.6084 -0.3735
  230MPD1     H 3547   0.456   4.654  15.624  1.2244 -0.9560  0.7185
  230MPD1    H1 3548   0.548   0.329  15.688 -1.3093  0.2077  1.5055
  230MPD1    H2 3549   0.599   0.061  15.997 -4.7560 -1.5547  0.9483
  230MPD1    H3 3550   0.587   0.295  15.903  0.3872 -1.0452  0.2819
  230MPD1     N 3551   0.470   0.134  15.493  0.3146  0.1693 -0.2485
  230MPD1    H5 3552   0.445   0.047  15.448  1.2755 -1.8016  3.0338
  230MPD1    N1 3553   0.532   4.586  15.865 -0.2362 -0.9049  0.7078
  230MPD1    H6 3554   0.549   4.527  15.784 -1.3321  1.6125 -1.3571
  230MPD1    H7 3555   0.599   4.571  15.940  0.4401 -2.8854 -0.2797
  231MPD1     C 3556   3.524   2.024  15.508  0.3504  0.5328 -0.0855
  231MPD1    C1 3557   3.411   2.035  15.428  0.0421 -0.3086  0.4938
  231MPD1    C2 3558   3.438   2.060  15.294 -0.3341 -0.4618 -0.0676
  231MPD1    C3 3559   3.558   2.088  15.238  0.8566  0.4280  0.2915
  231MPD1    C4 3560   3.669   2.090  15.325  0.1614  0.2963  0.1917
  231MPD1    C5 3561   3.647   2.053  15.455 -1.0618 -0.3274  0.4299
  231MPD1     H 3562   3.350   2.054  15.232  0.3559  0.5365 -1.1324
  231MPD1    H1 3563   3.774   2.112  15.305  0.6407 -1.3946  0.9156
  231MPD1    H2 3564   3.523   1.993  15.612 -3.0179  1.6964  0.2226
  231MPD1    H3 3565   3.733   2.036  15.519  0.3760  3.8393 -0.3868
  231MPD1     N 3566   3.563   2.128  15.102 -0.3685  0.6235 -0.0213
  231MPD1    H5 3567   3.473   2.134  15.054  1.0859  0.9223 -2.6962
  231MPD1    N1 3568   3.283   1.994  15.458 -0.2331  0.4083  0.2046
  231MPD1    H6 3569   3.213   2.038  15.399  2.5744 -0.0217 -3.4194
  231MPD1    H7 3570   3.259   2.008  15.556  1.5804  1.6636  0.4696
  232MPD1     C 3571   0.635   4.432   0.181  0.1029  0.5504 -0.8176
  232MPD1    C1 3572   0.515   4.493   0.194 -0.8717  1.1885  0.0598
  232MPD1    C2 3573   0.407   4.437   0.125  0.0938 -0.1327 -0.6936
  232MPD1    C3 3574   0.413   4.322   0.061  0.0414  0.5451 -0.5059
  232MPD1    C4 3575   0.526   4.254   0.071 -0.1072 -0.2333  0.7270
  232MPD1    C5 3576   0.640   4.315   0.115  1.0052  0.5913  0.5387
  232MPD1     H 3577   0.315   4.487   0.099 -0.0064 -1.5759 -3.1521
  232MPD1    H1 3578   0.536   4.159   0.019 -1.3833  0.2636 -0.4400
  232MPD1    H2 3579   0.726   4.476   0.220  2.1367 -4.0579 -0.3326
  232MPD1    H3 3580   0.739   4.271   0.105  0.7468  0.1627 -0.1007
  232MPD1     N 3581   0.298   4.265   0.005  0.2560  0.2044  0.3091
  232MPD1    H5 3582   0.219   4.327   0.016  0.8249  1.0515 -0.3785
  232MPD1    N1 3583   0.511   4.623   0.241  0.1654 -0.0154 -0.0203
  232MPD1    H6 3584   0.583   4.645   0.310  0.9600  0.6033 -1.0518
  232MPD1    H7 3585   0.420   4.658   0.271 -0.7972 -2.4079 -0.1594
  233MPD1     C 3586   0.963   2.061   1.451 -0.7461 -0.1045 -0.0228
  233MPD1    C1 3587   0.942   1.944   1.517 -0.2897 -0.2712  0.3698
  233MPD1    C2 3588   1.033   1.841   1.507 -0.1891 -0.2447  0.1830
  233MPD1    C3 3589   1.159   1.857   1.457  0.2442 -0.2834 -0.2288
  233MPD1    C4 3590   1.180   1.977   1.391 -0.4742 -0.4092 -0.2235
  233MPD1    C5 3591   1.082   2.073   1.385 -0.4654 -0.5561 -0.2726
  233MPD1     H 3592   1.010   1.748   1.556  1.6907 -0.3481  0.8945
  233MPD1    H1 3593   1.272   2.000   1.338 -0.0479  1.3819  1.3093
  233MPD1    H2 3594   0.893   2.144   1.452  0.0456  0.5617  0.6852
  233MPD1    H3 3595   1.100   2.160   1.323  1.1391  0.6914  1.9538
  233MPD1     N 3596   1.263   1.767   1.480 -0.3569 -0.0912  0.1401
  233MPD1    H5 3597   1.352   1.788   1.436 -0.6288  0.2151 -0.2651
  233MPD1    N1 3598   0.817   1.919   1.575 -0.7155  0.5363 -0.6434
  233MPD1    H6 3599   0.828   1.838   1.634  0.0381 -0.2432 -1.8406
  233MPD1    H7 3600   0.784   1.998   1.630 -0.3466  0.5838 -0.4894
  234MPD1     C 3601   2.910   0.773  10.559 -0.2281  0.2177  0.1349
  234MPD1    C1 3602   2.803   0.718  10.490  0.1808  1.1031 -0.7821
  234MPD1    C2 3603   2.742   0.788  10.389  0.1388  0.3106 -0.2580
  234MPD1    C3 3604   2.780   0.912  10.347 -0.0765  0.5342 -0.5470
  234MPD1    C4 3605   2.888   0.969  10.415  0.2171  0.4000 -1.5794
  234MPD1    C5 3606   2.949   0.898  10.519 -0.1275  0.5968  0.6608
  234MPD1     H 3607   2.645   0.759  10.350 -0.1343 -0.9347  1.3454
  234MPD1    H1 3608   2.927   1.065  10.383  0.5010  0.6120 -0.5748
  234MPD1    H2 3609   2.958   0.719  10.640 -0.3044  1.1777  0.8258
  234MPD1    H3 3610   3.036   0.939  10.569 -0.5209  2.4970 -0.1845
  234MPD1     N 3611   2.712   0.973  10.241 -0.0085 -0.3546  0.7689
  234MPD1    H5 3612   2.645   0.916  10.190  0.7005 -1.2482  0.8390
  234MPD1    N1 3613   2.759   0.583  10.515 -0.0416  0.3394 -0.0634
  234MPD1    H6 3614   2.766   0.563  10.615 -1.8070 -0.7431 -0.1564
  234MPD1    H7 3615   2.662   0.567  10.489  0.4608 -1.2924 -0.9138
  235MPD1     C 3616   3.393   3.280  10.332 -0.6954  0.7132  0.1300
  235MPD1    C1 3617   3.469   3.249  10.222 -0.0895  0.1465  0.1097
  235MPD1    C2 3618   3.595   3.306  10.208 -0.3842 -0.7326 -0.0981
  235MPD1    C3 3619   3.650   3.377  10.313  0.0902 -0.0887 -0.2616
  235MPD1    C4 3620   3.586   3.382  10.435 -0.9783  0.3072  0.1747
  235MPD1    C5 3621   3.456   3.334  10.441 -0.2475 -0.2241 -0.6794
  235MPD1     H 3622   3.649   3.303  10.114  0.9290 -0.0321  0.6242
  235MPD1    H1 3623   3.626   3.421  10.528 -2.9577 -0.3897  1.3086
  235MPD1    H2 3624   3.290   3.248  10.335 -0.1735 -1.2489 -2.7974
  235MPD1    H3 3625   3.400   3.365  10.528  0.8285 -3.3442  1.1426
  235MPD1     N 3626   3.781   3.424  10.298  0.0573 -0.0315 -0.2234
  235MPD1    H5 3627   3.824   3.409  10.207 -0.2198 -2.5728  0.0559
  235MPD1    N1 3628   3.415   3.183  10.110 -0.3556  0.1608  0.0951
  235MPD1    H6 3629   3.479   3.128  10.053 -3.0970 -1.0471 -1.7967
  235MPD1    H7 3630   3.342   3.119  10.141  0.5225 -0.3358  1.1501
  236MPD1     C 3631   3.335   4.324   9.351 -0.2123  0.6043  0.2620
  236MPD1    C1 3632   3.406   4.434   9.402  0.7398  0.0100 -0.4190
  236MPD1    C2 3633   3.415   4.449   9.541  0.6197  0.1926 -0.3832
  236MPD1    C3 3634   3.373   4.344   9.624  0.0685  0.2630 -0.3053
  236MPD1    C4 3635   3.287   4.251   9.567  0.2061 -0.3511 -0.2460
  236MPD1    C5 3636   3.267   4.241   9.429 -0.6140  0.3490 -0.2205
  236MPD1     H 3637   3.460   4.537   9.585  0.8714  0.2428 -0.7421
  236MPD1    H1 3638   3.234   4.176   9.625 -0.3682  1.1568  1.1972
  236MPD1    H2 3639   3.317   4.309   9.245 -0.6075  1.1408  0.2513
  236MPD1    H3 3640   3.189   4.177   9.390 -0.8276 -0.2843  1.2187
  236MPD1     N 3641   3.404   4.333   9.763 -0.1823  0.1158 -0.1654
  236MPD1    H5 3642   3.378   4.246   9.809 -0.2126 -0.2062 -0.7893
  236MPD1    N1 3643   3.495   4.503   9.317  0.3579 -0.2068 -0.4379
  236MPD1    H6 3644   3.454   4.517   9.225 -1.8867  0.0781  0.6176
  236MPD1    H7 3645   3.528   4.581   9.374  0.3490 -1.2698  1.0084
  237MPD1     C 3646   3.902   3.541  15.036  0.2802  0.0720  0.4330
  237MPD1    C1 3647   3.915   3.410  15.070  0.1915  0.3387 -0.3457
  237MPD1    C2 3648   3.806   3.331  15.078 -0.0165  0.2552 -0.3810
  237MPD1    C3 3649   3.680   3.390  15.073 -0.1842  0.0727 -0.7705
  237MPD1    C4 3650   3.669   3.521  15.045 -0.1463 -0.5921  0.2141
  237MPD1    C5 3651   3.781   3.601  15.027 -0.5071  0.6442 -0.0813
  237MPD1     H 3652   3.815   3.224  15.092  1.4949  0.4141 -0.0652
  237MPD1    H1 3653   3.572   3.566  15.025  0.8250  1.2975 -0.2880
  237MPD1    H2 3654   3.984   3.612  15.031  0.3516 -0.1452 -1.6043
  237MPD1    H3 3655   3.772   3.707  15.005 -0.1331  0.3765 -1.5110
  237MPD1     N 3656   3.558   3.314  15.089 -0.1506  0.0368  0.1595
  237MPD1    H5 3657   3.477   3.365  15.057 -0.8366 -1.0907  0.1062
  237MPD1    N1 3658   4.050   3.364  15.079 -0.0338  0.3111 -0.1708
  237MPD1    H6 3659   4.054   3.272  15.122 -3.3765  0.3067  0.1239
  237MPD1    H7 3660   4.116   3.431  15.119 -0.5782 -0.2569  1.6845
  238MPD1     C 3661   0.557   1.846  15.573 -0.5788  0.2710 -0.7491
  238MPD1    C1 3662   0.620   1.806  15.459 -0.5466 -0.1946 -0.2525
  238MPD1    C2 3663   0.542   1.776  15.348  0.1359 -0.3166 -0.0225
  238MPD1    C3 3664   0.407   1.789  15.350  0.2422  0.0849 -0.2971
  238MPD1    C4 3665   0.341   1.824  15.473 -0.4487  0.0364 -0.1081
  238MPD1    C5 3666   0.421   1.851  15.576  0.4271  0.4917  0.2838
  238MPD1     H 3667   0.587   1.754  15.252 -1.2271  0.8387 -0.9157
  238MPD1    H1 3668   0.233   1.828  15.466 -0.2907  2.2889 -1.2678
  238MPD1    H2 3669   0.610   1.880  15.661 -3.5489  0.0312  1.1424
  238MPD1    H3 3670   0.377   1.901  15.662 -0.2633  1.8081 -0.8412
  238MPD1     N 3671   0.320   1.761  15.245  0.2472 -0.3899 -0.0246
  238MPD1    H5 3672   0.221   1.759  15.263  1.0084 -0.2572  4.1860
  238MPD1    N1 3673   0.760   1.813  15.444  0.6914  0.2550 -0.1337
  238MPD1    H6 3674   0.791   1.765  15.360  2.0753 -0.4297  0.7568
  238MPD1    H7 3675   0.800   1.763  15.523  0.0434  0.5144  0.3522
  239MPD1     C 3676   0.271   2.403  14.786 -0.3755 -0.2250 -0.9491
  239MPD1    C1 3677   0.378   2.491  14.765 -0.3011  0.6015 -0.3841
  239MPD1    C2 3678   0.375   2.571  14.650 -0.3886 -0.4311  0.6249
  239MPD1    C3 3679   0.259   2.581  14.580 -0.2580 -0.1638 -0.3022
  239MPD1    C4 3680   0.152   2.501  14.614  0.3154 -0.6604  0.4721
  239MPD1    C5 3681   0.155   2.412  14.712  0.0167  0.3256 -0.9925
  239MPD1     H 3682   0.461   2.623  14.611 -0.9409  0.4225  0.5481
  239MPD1    H1 3683   0.065   2.490  14.551  0.5289 -0.6844  0.1839
  239MPD1    H2 3684   0.258   2.334  14.869 -2.3207 -0.5290 -1.4967
  239MPD1    H3 3685   0.087   2.329  14.697  1.5971 -1.3711  1.1015
  239MPD1     N 3686   0.239   2.642  14.453 -0.1923 -0.6282  0.3293
  239MPD1    H5 3687   0.154   2.620  14.402 -0.0307  1.4734 -0.8580
  239MPD1    N1 3688   0.492   2.471  14.844  0.0656 -0.1220  0.2946
  239MPD1    H6 3689   0.539   2.561  14.860  1.8415 -0.7415 -1.4176
  239MPD1    H7 3690   0.476   2.425  14.933 -0.9574  0.9563  0.6608
  240MPD1     C 3691   0.207   2.302  13.708  0.3524 -0.6019  0.1761
  240MPD1    C1 3692   0.071   2.293  13.714  0.8384  0.3187  0.0105
  240MPD1    C2 3693   0.015   2.221  13.819 -0.3760  0.0755 -0.0610
  240MPD1    C3 3694   0.086   2.166  13.924 -0.3320  0.0141  0.3089
  240MPD1    C4 3695   0.221   2.187  13.919 -0.5384 -0.5364 -0.9542
  240MPD1    C5 3696   0.279   2.258  13.815  0.3724 -0.1183  0.5973
  240MPD1     H 3697   4.648   2.204  13.814 -0.6477  1.7043  0.0411
  240MPD1    H1 3698   0.280   2.143  13.998 -0.0051 -0.3973 -1.2731
  240MPD1    H2 3699   0.266   2.344  13.628  1.7393  0.5236  1.8014
  240MPD1    H3 3700   0.387   2.260  13.821  0.4937 -0.4970 -1.4782
  240MPD1     N 3701   0.012   2.115  14.031 -0.1991 -0.7870  0.0584
  240MPD1    H5 3702   4.650   2.113  14.027 -0.2961  0.6457  2.0503
  240MPD1    N1 3703   4.728   2.317  13.599 -0.1136  0.0177  0.5929
  240MPD1    H6 3704   4.634   2.339  13.631 -0.4590  1.2812 -1.2715
  240MPD1    H7 3705   0.010   2.401  13.546  0.1824 -0.0902  0.5485
  241MPD1     C 3706   0.194   2.091  15.060 -0.4951  0.8921  0.3413
  241MPD1    C1 3707   0.063   2.082  15.023 -0.4803  0.6118 -0.1995
  241MPD1    C2 3708   0.036   2.066  14.888  0.0306  0.4070  0.7374
  241MPD1    C3 3709   0.134   2.046  14.790  1.6453 -0.3053  0.6277
  241MPD1    C4 3710   0.265   2.058  14.827  0.0676 -0.1727  0.4112
  241MPD1    C5 3711   0.291   2.075  14.966  0.1149 -0.4823 -0.0241
  241MPD1     H 3712   4.672   2.079  14.861  0.8692  2.5092 -1.4494
  241MPD1    H1 3713   0.343   2.075  14.754  0.5975 -2.4753  0.4477
  241MPD1    H2 3714   0.226   2.120  15.159  0.1507  1.9080 -0.1717
  241MPD1    H3 3715   0.389   2.111  14.994  1.0243 -2.2593 -0.8886
  241MPD1     N 3716   0.101   2.030  14.650 -0.8727 -0.0260  0.5300
  241MPD1    H5 3717   0.179   2.045  14.586 -1.1675 -0.6949  0.0220
  241MPD1    N1 3718   4.708   2.068  15.122 -0.2880 -0.0792  0.8521
  241MPD1    H6 3719   4.726   2.119  15.208 -0.9008 -1.6316  1.8887
  241MPD1    H7 3720   4.616   2.096  15.087 -0.6726 -0.5589  1.4850
  242MPD1     C 3721   4.521   1.432  15.685  0.1201 -0.6523 -0.7222
  242MPD1    C1 3722   4.532   1.437  15.552  0.3104 -0.0636  0.2348
  242MPD1    C2 3723   4.596   1.329  15.491 -0.0792  0.1639 -0.2330
  242MPD1    C3 3724   4.625   1.210  15.555  0.8596  0.6721 -0.6070
  242MPD1    C4 3725   4.612   1.214  15.695 -0.3546  0.0342  0.3998
  242MPD1    C5 3726   4.557   1.325  15.746  0.7401 -0.2450 -0.0174
  242MPD1     H 3727   4.611   1.336  15.384  0.6116 -0.9368 -0.2127
  242MPD1    H1 3728   4.628   1.130  15.762 -0.3933  1.3471  2.0431
  242MPD1    H2 3729   4.497   1.519  15.745  2.0814  0.2156 -1.1870
  242MPD1    H3 3730   4.538   1.318  15.853 -1.9803 -1.8435 -0.6056
  242MPD1     N 3731   4.667   1.093  15.489  0.4167  0.6160 -0.9074
  242MPD1    H5 3732   4.673   1.011  15.548  1.9241  2.7998  2.0173
  242MPD1    N1 3733   4.504   1.557  15.487  0.2749 -0.1335 -0.0468
  242MPD1    H6 3734   4.446   1.609  15.553  0.5582  2.5398 -1.9130
  242MPD1    H7 3735   4.443   1.548  15.406  0.1567  0.4094 -0.0148
  243MPD1     C 3736   0.965   4.055   0.240 -1.1423  0.0440  0.0846
  243MPD1    C1 3737   0.893   3.980   0.159 -0.0529  0.3652  0.2683
  243MPD1    C2 3738   0.949   3.945   0.038 -0.4098  0.0213 -0.4612
  243MPD1    C3 3739   1.058   4.019  17.749  0.4340 -0.1114  0.3554
  243MPD1    C4 3740   1.134   4.095   0.080  0.4334  0.6306 -0.3137
  243MPD1    C5 3741   1.086   4.104   0.207 -0.3684 -0.1554  0.0009
  243MPD1     H 3742   0.906   3.878  17.723 -1.5903 -0.0029  0.2568
  243MPD1    H1 3743   1.218   4.158   0.051  0.0117  1.2098 -0.2630
  243MPD1    H2 3744   0.930   4.078   0.340 -0.8549  3.8761 -0.6768
  243MPD1    H3 3745   1.145   4.161   0.277  0.0143 -0.5530  0.0052
  243MPD1     N 3746   1.090   4.005  17.612  0.1067 -0.2382 -0.3293
  243MPD1    H5 3747   1.039   3.934  17.560  0.9726 -1.2739  0.2206
  243MPD1    N1 3748   0.776   3.912   0.213  0.2344  0.3034 -0.1464
  243MPD1    H6 3749   0.738   3.965   0.291 -1.0494 -0.7209 -0.0739
  243MPD1    H7 3750   0.707   3.913   0.138 -0.2288 -0.5076  0.2685
  244MPD1     C 3751   1.182   3.225  17.292  0.3175 -0.4291 -0.1728
  244MPD1    C1 3752   1.221   3.281  17.419  0.5988 -0.1942  1.0486
  244MPD1    C2 3753   1.230   3.415  17.428  0.2429 -0.3541 -0.6669
  244MPD1    C3 3754   1.211   3.497  17.321 -0.0262  0.4659  0.7053
  244MPD1    C4 3755   1.169   3.442  17.198 -0.3122  0.7631  0.1702
  244MPD1    C5 3756   1.158   3.303  17.187 -0.1013  0.3201  0.1851
  244MPD1     H 3757   1.245   3.458  17.527  2.0828  0.7914 -1.4516
  244MPD1    H1 3758   1.144   3.510  17.117 -2.9619  0.7309  0.9608
  244MPD1    H2 3759   1.156   3.121  17.285  1.4091 -0.6142 -1.4462
  244MPD1    H3 3760   1.123   3.254  17.097 -0.5071 -0.6611  0.8827
  244MPD1     N 3761   1.243   3.630  17.334 -0.5588 -0.5104 -1.2831
  244MPD1    H5 3762   1.266   3.656  17.430 -1.2555 -3.1566 -0.4013
  244MPD1    N1 3763   1.220   3.208  17.535 -0.0318 -0.1050 -0.4051
  244MPD1    H6 3764   1.298   3.235  17.594  0.6366 -1.4738 -0.6553
  244MPD1    H7 3765   1.234   3.108  17.521  1.3352 -0.0589  0.6431
  245MPD1     C 3766   2.939   3.723  13.789  0.1244 -0.7428  0.2570
  245MPD1    C1 3767   2.866   3.831  13.738  0.0754  0.3674  0.2936
  245MPD1    C2 3768   2.926   3.958  13.740 -0.0447 -0.3306 -0.0521
  245MPD1    C3 3769   3.059   3.972  13.773  0.8794 -0.1770  0.2065
  245MPD1    C4 3770   3.128   3.862  13.821  0.5896  0.4034 -0.2173
  245MPD1    C5 3771   3.070   3.744  13.828 -0.6870  0.0570 -0.1545
  245MPD1     H 3772   2.862   4.041  13.715  0.1915  0.4118  1.8496
  245MPD1    H1 3773   3.231   3.870  13.856 -0.0189  1.2094  1.3730
  245MPD1    H2 3774   2.888   3.628  13.801 -0.5127 -0.3902  0.3056
  245MPD1    H3 3775   3.127   3.661  13.867  0.1713  0.7399  0.0630
  245MPD1     N 3776   3.109   4.103  13.768 -0.0474 -0.8193  0.1804
  245MPD1    H5 3777   3.048   4.177  13.734  1.6053  0.2473 -0.4581
  245MPD1    N1 3778   2.735   3.810  13.693  0.0859  0.3588 -0.2087
  245MPD1    H6 3779   2.716   3.715  13.665  3.0926 -0.3667  0.1753
  245MPD1    H7 3780   2.703   3.872  13.619 -0.1431  0.2133 -0.2291
  246MPD1     C 3781   4.081   1.660  10.500 -0.0532  0.2194  1.0585
  246MPD1    C1 3782   4.209   1.620  10.508 -0.3663  0.6970  0.0615
  246MPD1    C2 3783   4.240   1.494  10.474  0.6989  0.9972 -0.4290
  246MPD1    C3 3784   4.148   1.400  10.435  0.0968 -0.9383  0.4161
  246MPD1    C4 3785   4.009   1.442  10.434 -0.1961 -0.6240 -0.1162
  246MPD1    C5 3786   3.983   1.566  10.481  0.2806  0.3354 -0.4097
  246MPD1     H 3787   4.342   1.458  10.470 -0.0076 -0.8136 -1.9801
  246MPD1    H1 3788   3.930   1.367  10.433 -0.7208 -0.0814  0.9231
  246MPD1    H2 3789   4.045   1.758  10.531 -0.4110  1.2733 -2.6587
  246MPD1    H3 3790   3.878   1.594  10.483  0.4979  1.2238 -1.5228
  246MPD1     N 3791   4.195   1.268  10.401  0.3827  0.3192  0.2327
  246MPD1    H5 3792   4.296   1.256  10.403  0.1920 -1.3600 -0.1937
  246MPD1    N1 3793   4.320   1.711  10.530  0.1926  0.1817 -0.0258
  246MPD1    H6 3794   4.289   1.799  10.571 -2.5950 -0.1587 -1.3801
  246MPD1    H7 3795   4.397   1.661  10.575  0.3217 -0.4227 -0.9215
  247MPD1     C 3796   3.839   4.355  16.118 -0.2567  0.3362  0.3294
  247MPD1    C1 3797   3.879   4.395  15.990  0.2081 -0.8769  0.4090
  247MPD1    C2 3798   3.788   4.447  15.903  1.0534 -0.7675 -0.4201
  247MPD1    C3 3799   3.654   4.470  15.941 -0.2398 -0.0470  0.0720
  247MPD1    C4 3800   3.622   4.429  16.074 -0.5804  0.6483  0.4483
  247MPD1    C5 3801   3.707   4.365  16.154 -0.0842  0.1352  0.7281
  247MPD1     H 3802   3.823   4.479  15.806  1.3805 -0.3040 -0.1457
  247MPD1    H1 3803   3.527   4.460  16.118  1.4102  0.8659  4.5880
  247MPD1    H2 3804   3.910   4.319  16.192 -0.0536 -0.5352 -0.2995
  247MPD1    H3 3805   3.687   4.343  16.258  1.4983  1.0757  1.2311
  247MPD1     N 3806   3.554   4.524  15.857 -0.0490 -0.2363 -0.4514
  247MPD1    H5 3807   3.460   4.532  15.896  0.6482 -0.7826  1.3637
  247MPD1    N1 3808   4.005   4.360  15.958 -0.1494 -0.1603 -0.2500
  247MPD1    H6 3809   4.067   4.368  16.039  0.2602 -1.7029 -0.4163
  247MPD1    H7 3810   4.032   4.416  15.877 -1.4007  0.0523 -0.5181
  248MPD1     C 3811   2.608   4.322  17.455 -0.1417  0.8139  0.2228
  248MPD1    C1 3812   2.508   4.236  17.493  0.1014  0.7922  0.3729
  248MPD1    C2 3813   2.510   4.173  17.622  0.0902  0.4496 -0.5650
  248MPD1    C3 3814   2.617   4.207  17.709 -0.5091  0.4053 -1.0451
  248MPD1    C4 3815   2.702   4.308  17.674 -0.0535 -0.0067  0.2184
  248MPD1    C5 3816   2.695   4.358  17.545 -0.9073  0.4778  0.4203
  248MPD1     H 3817   2.422   4.116  17.650  0.1775  1.0754  0.9771
  248MPD1    H1 3818   2.784   4.344  17.736  1.7382  0.5154 -2.4248
  248MPD1    H2 3819   2.607   4.379  17.363  2.1877  0.3408 -0.0732
  248MPD1    H3 3820   2.771   4.428  17.511 -1.3198 -0.7272 -2.8875
  248MPD1     N 3821   2.624   4.144   0.079  0.3077 -0.6196 -0.6961
  248MPD1    H5 3822   2.547   4.078   0.082  0.4155 -0.6157  1.9199
  248MPD1    N1 3823   2.429   4.176  17.394 -0.2299  0.0962  0.2993
  248MPD1    H6 3824   2.406   4.245  17.322 -0.6213 -0.7323 -0.3696
  248MPD1    H7 3825   2.352   4.125  17.436 -0.9916  1.2916  0.3616
  249MPD1     C 3826   0.098   3.480   9.588 -0.0859 -0.0353  0.4250
  249MPD1    C1 3827   0.197   3.534   9.675 -0.5044  0.0109 -0.0080
  249MPD1    C2 3828   0.205   3.491   9.805 -0.0362 -0.1959 -0.4283
  249MPD1    C3 3829   0.112   3.397   9.853  0.6300  0.5141 -0.6624
  249MPD1    C4 3830   0.014   3.352   9.763  0.3373 -0.4999 -0.5520
  249MPD1    C5 3831   0.003   3.397   9.635  0.4280  0.2174  0.0458
  249MPD1     H 3832   0.290   3.518   9.866  0.6605 -0.6508 -1.1849
  249MPD1    H1 3833   4.674   3.283   9.786  0.0060  0.3811  0.9268
  249MPD1    H2 3834   0.096   3.512   9.485  1.2792  1.0006  0.7198
  249MPD1    H3 3835   4.676   3.341   9.571 -0.8538  0.9119  0.7901
  249MPD1     N 3836   0.123   3.343   9.984  0.6125  0.2664 -0.3613
  249MPD1    H5 3837   0.202   3.381  10.036 -0.4595  0.2849  1.2626
  249MPD1    N1 3838   0.296   3.623   9.622 -0.1466  0.4909 -0.1490
  249MPD1    H6 3839   0.319   3.681   9.701  1.4272  0.0432 -0.2791
  249MPD1    H7 3840   0.259   3.680   9.547 -1.7545  0.6466  0.7772
  250MPD2     C 3841   1.599   3.431  12.463  0.0344 -0.1560  0.0997
  250MPD2    C1 3842   1.523   3.365  12.563 -0.4776  0.2110 -1.8145
  250MPD2    C2 3843   1.477   3.236  12.533  0.4541  0.8479  0.0918
  250MPD2    C3 3844   1.481   3.180  12.407  0.4722  0.2576 -0.6674
  250MPD2    C4 3845   1.554   3.247  12.311  0.4872  0.1971 -0.0614
  250MPD2    C5 3846   1.612   3.369  12.341 -0.9007 -0.5246 -0.9178
  250MPD2     H 3847   1.435   3.173  12.610 -0.0759 -0.3063 -1.1376
  250MPD2    H1 3848   1.554   3.225  12.205 -2.5592  0.7741 -0.1815
  250MPD2    H2 3849   1.643   3.528  12.487  0.3967 -0.0531 -0.9834
  250MPD2    H3 3850   1.670   3.413  12.260  2.4664 -1.8873  0.7570
  250MPD2     N 3851   1.426   3.055  12.372 -0.2155  0.4304  0.0952
  250MPD2    H5 3852   1.415   3.050  12.271  2.3732  2.5007 -0.2868
  250MPD2    N1 3853   1.499   3.430  12.685  0.4054 -0.3453  0.2925
  250MPD2    H7 3854   1.555   3.512  12.707  0.2406  0.0866 -0.9482
  251TMC3    C1 3855   1.422   3.467  12.904 -0.2558  0.4089  0.2002
  251TMC3    C2 3856   1.311   3.459  12.985 -0.2089 -0.6911  0.7102
  251TMC3    C3 3857   1.330   3.469  13.121 -0.0315  0.3977  0.4903
  251TMC3    C4 3858   1.546   3.483  12.955  0.3080  1.5798  0.0886
  251TMC3    C5 3859   1.555   3.484  13.089  0.8083 -0.0989 -0.6697
  251TMC3    C6 3860   1.450   3.476  13.177  0.1741  0.0254  0.6080
  251TMC3     C 3861   1.410   3.393  12.783  0.6036  0.2678  0.2692
  251TMC3     O 3862   1.327   3.303  12.777 -0.0881 -0.4330 -0.3805
  251TMC3     H 3863   1.216   3.458  12.934  0.7494 -2.2870 -1.0137
  251TMC3    H1 3864   1.634   3.487  12.890 -0.4424  0.3010 -1.0150
  251TMC3    H2 3865   1.459   3.486  13.285  4.2400  0.8873  0.2149
  251TMC3    C7 3866   1.682   3.456  13.146 -0.3002 -0.4896 -0.0665
  251TMC3    C8 3867   1.212   3.453  13.206  0.3325  0.5780 -0.0142
  251TMC3    O1 3868   1.685   3.383  13.246  0.1249 -0.5522 -0.0762
  251TMC3    O2 3869   1.227   3.476  13.324 -0.4516  0.1425  0.4745
  252TMC3    C1 3870   0.646   4.112   9.275  0.4664  0.3502 -0.1430
  252TMC3    C2 3871   0.764   4.167   9.288 -0.1091 -0.4881  0.0891
  252TMC3    C3 3872   0.858   4.097   9.354 -0.2633 -0.5789 -0.5175
  252TMC3    C4 3873   0.630   3.987   9.316  0.0164 -0.6244 -0.2701
  252TMC3    C5 3874   0.730   3.914   9.370 -0.0671  0.0386 -0.6727
  252TMC3    C6 3875   0.858   3.968   9.393  0.6135 -0.1216  0.5911
  252TMC3     C 3876   0.535   4.182   9.222  0.0455  0.9885 -0.3520
  252TMC3     O 3877   0.453   4.119   9.158 -0.4476  0.2852 -0.1722
  252TMC3     H 3878   0.783   4.267   9.250  1.2389 -0.3691  1.0518
  252TMC3    H1 3879   0.531   3.943   9.305  0.0723  0.1513 -3.6381
  252TMC3    H2 3880   0.935   3.912   9.447  0.9191  1.5174  1.8593
  252TMC3    C7 3881   0.684   3.783   9.433  0.3922 -0.2004 -0.4067
  252TMC3    C8 3882   0.994   4.153   9.347 -0.4185  0.0154  0.6192
  252TMC3    O1 3883   0.564   3.758   9.435  0.0603  0.1092  0.6608
  252TMC3    O2 3884   1.020   4.221   9.251 -0.7704  0.6032 -0.4432
  253MPD2     C 3885   3.032   3.331  15.219 -0.1759  0.9952 -0.8067
  253MPD2    C1 3886   2.901   3.346  15.172  0.4849  0.5962 -0.0466
  253MPD2    C2 3887   2.799   3.315  15.263  0.8255  0.1444  0.2773
  253MPD2    C3 3888   2.817   3.289  15.398  0.0245 -0.3498  1.0204
  253MPD2    C4 3889   2.948   3.283  15.444  0.3714 -0.1287  0.1830
  253MPD2    C5 3890   3.051   3.301  15.349 -0.1818  0.5939 -0.0276
  253MPD2     H 3891   2.704   3.313  15.211  1.4921 -0.7708 -0.9114
  253MPD2    H1 3892   2.977   3.255  15.545  1.4270 -0.9717 -0.3640
  253MPD2    H2 3893   3.116   3.339  15.151  1.1498 -1.0408  0.5896
  253MPD2    H3 3894   3.157   3.295  15.371  0.0222  1.4293 -0.7897
  253MPD2     N 3895   2.710   3.280  15.488  0.0378  0.0976  1.0668
  253MPD2    H5 3896   2.737   3.258  15.583  0.3443 -2.1079  0.4838
  253MPD2    N1 3897   2.864   3.373  15.041 -0.2904 -0.7567 -0.4903
  253MPD2    H7 3898   2.766   3.362  15.020 -0.8085  1.5126  0.7034
  254TMC3    C1 3899   2.504   3.255  15.585  0.6750 -0.2049 -0.1035
  254TMC3    C2 3900   2.388   3.316  15.607 -0.2873 -0.1183  0.1843
  254TMC3    C3 3901   2.319   3.285  15.722  0.3100 -0.1690  0.3567
  254TMC3    C4 3902   2.559   3.163  15.671  0.5605  0.2917 -0.8570
  254TMC3    C5 3903   2.489   3.154  15.789  0.4300  0.1444  0.0459
  254TMC3    C6 3904   2.372   3.204  15.814 -0.2129  0.1072 -0.2016
  254TMC3     C 3905   2.577   3.276  15.460  0.8773  1.1114 -0.0345
  254TMC3     O 3906   2.518   3.297  15.356 -0.1745 -0.3025 -0.1733
  254TMC3     H 3907   2.353   3.388  15.534 -2.6326 -1.5147 -0.0768
  254TMC3    H1 3908   2.644   3.104  15.639 -0.0256 -0.7357 -0.5284
  254TMC3    H2 3909   2.321   3.183  15.907 -0.5486 -1.9640 -0.8515
  254TMC3    C7 3910   2.548   3.081  15.902  0.1916  0.4434 -0.3169
  254TMC3    C8 3911   2.235   3.381  15.782 -0.1965 -0.2971 -0.1053
  254TMC3    O1 3912   2.474   3.035  15.983 -0.2265 -0.4256 -0.3170
  254TMC3    O2 3913   2.201   3.364  15.900  0.2068  0.1070 -0.1404
  255MPD2     C 3914   0.130   0.485  11.190 -0.2003 -0.3809 -0.3888
  255MPD2    C1 3915   0.234   0.562  11.230  0.2167  0.7181 -0.6282
  255MPD2    C2 3916   0.356   0.545  11.157  0.1146  0.5236 -0.7663
  255MPD2    C3 3917   0.380   0.444  11.067  0.0629  0.5986  0.2951
  255MPD2    C4 3918   0.268   0.358  11.044  1.3165 -0.8993  0.3712
  255MPD2    C5 3919   0.151   0.379  11.113 -0.8487 -0.2804  0.3366
  255MPD2     H 3920   0.432   0.622  11.169  1.6699 -1.1290 -0.0188
  255MPD2    H1 3921   0.276   0.291  10.958  0.8740  1.1436 -1.2644
  255MPD2    H2 3922   0.036   0.500  11.241 -1.2043  0.8012 -2.5871
  255MPD2    H3 3923   0.065   0.323  11.080  0.0322 -1.9723  0.9153
  255MPD2     N 3924   0.493   0.449  10.985  0.2221 -0.4220 -0.7277
  255MPD2    H5 3925   0.549   0.533  10.995 -0.3477  0.0078 -1.1812
  255MPD2    N1 3926   0.215   0.669  11.324 -0.0743 -0.3759  0.2328
  255MPD2    H7 3927   0.126   0.674  11.372 -0.3020 -0.4005 -0.1944
  256TMC3    C1 3928   0.249   0.884  11.432 -0.5441 -0.7984  0.1595
  256TMC3    C2 3929   0.300   1.006  11.389  0.4675 -0.2707 -0.6155
  256TMC3    C3 3930   0.215   1.107  11.378  0.2060 -0.6765  0.6711
  256TMC3    C4 3931   0.116   0.875  11.462  0.3870 -0.0687  0.3456
  256TMC3    C5 3932   0.033   0.980  11.448 -0.7896  0.0328  0.5137
  256TMC3    C6 3933   0.083   1.100  11.416  0.1310 -1.0131  0.2735
  256TMC3     C 3934   0.310   0.763  11.363  0.2048  0.0516 -0.2717
  256TMC3     O 3935   0.427   0.773  11.329 -0.2306 -0.1190 -0.8979
  256TMC3     H 3936   0.403   1.028  11.362  0.5316 -0.9259 -0.9083
  256TMC3    H1 3937   0.072   0.779  11.488 -0.3839  0.4128  0.8281
  256TMC3    H2 3938   0.019   1.184  11.389  0.6240 -1.1448 -1.3241
  256TMC3    C7 3939   4.682   0.945  11.344  0.7017 -0.4510 -0.9462
  256TMC3    C8 3940   0.243   1.219  11.289 -0.4917  0.0755 -0.1411
  256TMC3    O1 3941   4.695   1.007  11.236 -0.6998 -0.0742 -0.0646
  256TMC3    O2 3942   0.179   1.319  11.306 -0.4904  0.3794  0.4703
  257MPD2     C 3943   0.332   3.155  13.162 -0.6080 -0.4461  0.3463
  257MPD2    C1 3944   0.289   3.112  13.041 -0.1485 -0.3361 -0.5814
  257MPD2    C2 3945   0.280   2.977  13.013 -0.2613  0.6637 -0.4815
  257MPD2    C3 3946   0.291   2.881  13.111  0.4403  0.0182 -0.2859
  257MPD2    C4 3947   0.331   2.926  13.235 -0.4150 -0.1189 -0.4353
  257MPD2    C5 3948   0.356   3.061  13.259  0.0530  0.7097 -0.5357
  257MPD2     H 3949   0.264   2.945  12.911 -1.9136 -1.5704  0.4623
  257MPD2    H1 3950   0.341   2.861  13.322 -1.7050 -2.2710 -1.9008
  257MPD2    H2 3951   0.356   3.259  13.185  0.9489 -0.6749 -0.2008
  257MPD2    H3 3952   0.406   3.093  13.350 -2.9531  1.9586  0.6733
  257MPD2     N 3953   0.281   2.750  13.072  0.4022  0.4054  0.6434
  257MPD2    H5 3954   0.290   2.734  12.972  1.3171 -0.8583  0.9246
  257MPD2    N1 3955   0.282   3.211  12.937  0.6530 -0.2787  0.5000
  257MPD2    H7 3956   0.312   3.306  12.958  1.4546 -0.5576  0.6187
  258TMC3    C1 3957   0.317   2.529  13.105 -0.1772  0.0042 -0.0906
  258TMC3    C2 3958   0.345   2.524  12.971  0.1197  0.4141 -0.3068
  258TMC3    C3 3959   0.425   2.421  12.926 -0.1198 -0.0070  0.5310
  258TMC3    C4 3960   0.359   2.428  13.189  0.4061  0.4728 -0.3752
  258TMC3    C5 3961   0.446   2.335  13.143 -0.0325 -0.6779  0.1778
  258TMC3    C6 3962   0.483   2.331  13.010 -0.9661 -0.2304  0.1206
  258TMC3     C 3963   0.273   2.650  13.161  0.1062 -0.6864  0.0119
  258TMC3     O 3964   0.268   2.652  13.281  0.5313 -0.9055 -0.1792
  258TMC3     H 3965   0.313   2.598  12.899  1.4144  0.3765 -0.9147
  258TMC3    H1 3966   0.358   2.447  13.296  2.5538 -1.5821  0.0043
  258TMC3    H2 3967   0.566   2.268  12.979  0.6828  1.7505  0.5408
  258TMC3    C7 3968   0.551   2.295  13.233 -0.3143 -0.0086  0.5217
  258TMC3    C8 3969   0.502   2.458  12.808 -0.5824 -0.2711 -0.0470
  258TMC3    O1 3970   0.657   2.275  13.180 -0.6181 -0.1312 -0.5876
  258TMC3    O2 3971   0.513   2.578  12.792  0.5187 -0.4041 -0.3645
  259MPD2     C 3972   4.574   4.365   0.788  0.2167 -0.2625 -0.4202
  259MPD2    C1 3973   4.537   4.261   0.711 -0.1704 -0.7011 -0.3305
  259MPD2    C2 3974   4.432   4.272   0.621  0.4565  0.1221 -0.5662
  259MPD2    C3 3975   4.378   4.399   0.596  0.3639  0.4926  0.7574
  259MPD2    C4 3976   4.426   4.507   0.673 -0.1771  0.4875 -0.4373
  259MPD2    C5 3977   4.518   4.489   0.772  0.1289  0.2369 -0.4304
  259MPD2     H 3978   4.414   4.192   0.550 -3.4508  0.7175 -0.2134
  259MPD2    H1 3979   4.394   4.608   0.649  0.7237  1.4548  2.5461
  259MPD2    H2 3980   4.658   4.347   0.855  0.0249 -0.3149 -0.1935
  259MPD2    H3 3981   4.552   4.580   0.821 -1.5759 -1.1245  3.2007
  259MPD2     N 3982   4.282   4.411   0.495 -0.0475  0.3180  0.1493
  259MPD2    H5 3983   4.283   4.327   0.438  3.3876  0.2277  0.3767
  259MPD2    N1 3984   4.600   4.143   0.750  0.4280 -0.2211 -0.5772
  259MPD2    H7 3985   4.674   4.155   0.819 -0.0216  1.2927 -0.3586
  260TMC3    C1 3986   4.099   4.483   0.370  0.2497  1.2598  0.7462
  260TMC3    C2 3987   4.064   4.589   0.297 -0.6282 -0.3966  0.0008
  260TMC3    C3 3988   4.011   4.568   0.173 -0.4915 -0.5575 -0.0190
  260TMC3    C4 3989   4.061   4.355   0.342 -0.5083 -0.0642 -0.8858
  260TMC3    C5 3990   3.997   4.331   0.223 -0.0498 -0.0614  0.2360
  260TMC3    C6 3991   3.980   4.435   0.132 -0.2542 -0.8395 -0.5339
  260TMC3     C 3992   4.190   4.510   0.484 -0.0337 -0.3938  0.0553
  260TMC3     O 3993   4.175   4.610   0.558 -0.6704  0.0310  0.5560
  260TMC3     H 3994   4.099   4.686   0.328 -0.2058 -0.0419 -1.5964
  260TMC3    H1 3995   4.091   4.270   0.403  4.1360  0.1861 -2.8840
  260TMC3    H2 3996   3.957   4.419   0.028  2.3337  3.1786 -1.7143
  260TMC3    C7 3997   4.024   4.208   0.156 -0.1044  0.1925 -0.8463
  260TMC3    C8 3998   4.096   4.641   0.085  0.5773 -0.0661  0.0815
  260TMC3    O1 3999   4.092   4.214   0.055 -0.1908 -0.0463  0.4242
  260TMC3    O2 4000   4.113   0.023   0.101  0.2087  0.3517  0.7060
  261MPD2     C 4001   1.188   2.613  11.744 -0.9831 -0.1481 -0.5010
  261MPD2    C1 4002   1.165   2.731  11.815 -0.1266  0.3136 -0.0669
  261MPD2    C2 4003   1.116   2.845  11.751  0.0555  0.5681 -0.1783
  261MPD2    C3 4004   1.102   2.834  11.611 -0.0260 -0.7776  0.1002
  261MPD2    C4 4005   1.119   2.715  11.540 -0.7220 -0.5539 -0.4348
  261MPD2    C5 4006   1.161   2.606  11.612  0.3869  0.7030 -0.3293
  261MPD2     H 4007   1.077   2.935  11.798 -0.4248  0.1807  0.1551
  261MPD2    H1 4008   1.098   2.708  11.434  0.8577  0.2978 -0.8030
  261MPD2    H2 4009   1.236   2.524  11.784  1.9324  2.0585  0.9616
  261MPD2    H3 4010   1.193   2.511  11.569 -3.1051 -1.8900  2.8232
  261MPD2     N 4011   1.057   2.954  11.543  0.1829 -1.0161  0.6521
  261MPD2    H5 4012   1.039   3.028  11.609  0.0795 -0.6868  0.2537
  261MPD2    N1 4013   1.192   2.726  11.952  0.2472 -0.3420  0.3380
  261MPD2    H7 4014   1.256   2.651  11.977  0.2185 -0.2502  0.6817
  262TMC3    C1 4015   1.003   3.106  11.364  0.3926 -0.1690 -0.1650
  262TMC3    C2 4016   0.921   3.177  11.447 -0.4170 -0.4746  0.9647
  262TMC3    C3 4017   0.868   3.292  11.396 -1.1529 -0.1851  0.1050
  262TMC3    C4 4018   1.022   3.136  11.229 -0.1599  0.1765 -0.2932
  262TMC3    C5 4019   0.957   3.245  11.184 -0.3139 -0.4356 -0.4199
  262TMC3    C6 4020   0.880   3.332  11.266  1.2367  0.6910  0.0397
  262TMC3     C 4021   1.050   2.967  11.402 -0.4568  0.0567  0.0145
  262TMC3     O 4022   1.094   2.895  11.313  0.1035 -0.8623 -0.6178
  262TMC3     H 4023   0.908   3.150  11.551  0.1627 -0.2222  1.1016
  262TMC3    H1 4024   1.090   3.076  11.170 -1.2984  0.0156 -1.4538
  262TMC3    H2 4025   0.828   3.418  11.225 -0.0944 -0.8724 -1.5913
  262TMC3    C7 4026   1.025   3.310  11.077 -0.3738  0.2907  0.2912
  262TMC3    C8 4027   0.764   3.366  11.465  0.3277 -0.0430  0.2450
  262TMC3    O1 4028   1.113   3.243  11.018 -0.2585  0.3239  0.5476
  262TMC3    O2 4029   0.707   3.451  11.402 -0.3484 -0.1705  0.0516
  263MPD2     C 4030   2.000   1.550  11.869  0.2754 -0.4373 -0.3799
  263MPD2    C1 4031   2.113   1.588  11.802  0.0475  0.1494  0.4468
  263MPD2    C2 4032   2.105   1.649  11.680 -0.6325 -0.0571 -0.2149
  263MPD2    C3 4033   1.979   1.673  11.622 -0.2242 -0.3842 -0.5174
  263MPD2    C4 4034   1.865   1.621  11.684 -0.3185  0.0201 -0.3526
  263MPD2    C5 4035   1.881   1.573  11.807 -0.5957  0.1598 -0.4448
  263MPD2     H 4036   2.192   1.677  11.622 -2.4470 -0.0661 -2.9364
  263MPD2    H1 4037   1.763   1.640  11.652 -0.1765  1.6501  0.1901
  263MPD2    H2 4038   2.017   1.503  11.965 -1.9856  1.3127  0.8862
  263MPD2    H3 4039   1.791   1.548  11.862 -1.8721  2.4506 -1.5365
  263MPD2     N 4040   1.972   1.762  11.515 -0.3211 -0.5842 -0.2123
  263MPD2    H5 4041   2.065   1.778  11.478  0.1858 -1.1777  0.8089
  263MPD2    N1 4042   2.239   1.583  11.866  0.1950 -0.0826 -0.6857
  263MPD2    H7 4043   2.247   1.576  11.967 -0.2077 -1.1962 -0.7281
  264TMC3    C1 4044   1.870   1.911  11.359 -0.4550 -0.5104 -0.2919
  264TMC3    C2 4045   1.765   1.996  11.341  0.4420  0.9241 -0.6961
  264TMC3    C3 4046   1.755   2.069  11.225 -0.8421  0.0985 -0.8016
  264TMC3    C4 4047   1.961   1.892  11.267 -0.5109  0.5606  0.0114
  264TMC3    C5 4048   1.945   1.961  11.145 -0.2756 -0.2101 -0.0701
  264TMC3    C6 4049   1.847   2.054  11.126  0.7443 -0.1175  0.0873
  264TMC3     C 4050   1.854   1.813  11.466  0.1174 -0.1736  0.4094
  264TMC3     O 4051   1.736   1.796  11.494 -0.1053  0.0246 -0.6666
  264TMC3     H 4052   1.688   2.004  11.417  0.8351 -1.8252 -0.0107
  264TMC3    H1 4053   2.039   1.818  11.283 -1.0112 -0.1504 -0.8660
  264TMC3    H2 4054   1.853   2.115  11.037 -0.5534  0.8670  0.6694
  264TMC3    C7 4055   2.010   1.913  11.021 -0.1073  0.2171  0.8688
  264TMC3    C8 4056   1.711   2.205  11.236  0.5199  0.6562  0.4095
  264TMC3    O1 4057   2.011   1.982  10.919  0.1212  0.4942 -0.6849
  264TMC3    O2 4058   1.720   2.277  11.135  0.2975 -0.2351  0.6050
  265MPD2     C 4059   3.873   2.474  15.411 -0.7421  0.5991 -0.1101
  265MPD2    C1 4060   3.896   2.588  15.340 -0.6518  1.4442 -0.1068
  265MPD2    C2 4061   3.955   2.594  15.222 -0.9632  0.2080  0.2139
  265MPD2    C3 4062   4.026   2.486  15.169  0.0684 -0.2834 -0.2534
  265MPD2    C4 4063   4.002   2.368  15.234  0.0736 -0.8509 -0.3957
  265MPD2    C5 4064   3.924   2.358  15.350  0.6478 -0.8708 -0.3608
  265MPD2     H 4065   3.957   2.688  15.169 -2.3902  0.4338  0.5509
  265MPD2    H1 4066   4.038   2.272  15.198  1.7961 -0.0040 -0.9275
  265MPD2    H2 4067   3.819   2.458  15.503  1.2703 -0.5615  0.8592
  265MPD2    H3 4068   3.911   2.260  15.395  1.2468  0.4280  2.6072
  265MPD2     N 4069   4.092   2.479  15.042  0.4226  0.6634  0.2745
  265MPD2    H5 4070   4.115   2.389  15.000  1.3317  0.4234  1.3014
  265MPD2    N1 4071   3.856   2.714  15.389 -0.5566  0.2965 -0.2858
  265MPD2    H7 4072   3.883   2.794  15.332  1.4217  1.1229  1.8346
  266TMC3    C1 4073   3.836   2.870  15.557  0.1304 -0.4272  0.1851
  266TMC3    C2 4074   3.806   2.886  15.689  0.0166  0.4233  0.1161
  266TMC3    C3 4075   3.895   2.951  15.771  0.0704 -0.2305 -0.4203
  266TMC3    C4 4076   3.954   2.923  15.499 -0.3677  0.3462  0.2883
  266TMC3    C5 4077   4.043   2.980  15.584  0.5419  0.1770 -1.0071
  266TMC3    C6 4078   4.013   3.000  15.723 -0.3608  0.3234 -0.1400
  266TMC3     C 4079   3.798   2.737  15.510 -0.4781 -0.6477 -0.2712
  266TMC3     O 4080   3.725   2.664  15.576  0.2967 -0.0340 -0.2284
  266TMC3     H 4081   3.712   2.846  15.725 -0.5329  1.2443 -0.4030
  266TMC3    H1 4082   3.964   2.918  15.391 -0.6109  1.2947  0.2294
  266TMC3    H2 4083   4.102   3.027  15.779 -0.6491  1.8189 -0.4078
  266TMC3    C7 4084   4.185   2.960  15.545 -0.1014  0.0903  0.3097
  266TMC3    C8 4085   3.858   2.956  15.909  0.2648  0.0640 -0.0094
  266TMC3    O1 4086   4.278   3.015  15.609 -0.4648  0.1553  0.4042
  266TMC3    O2 4087   3.761   2.892  15.944 -0.0214 -0.0463  0.0795
  267MPD2     C 4088   1.334   4.353   0.380  0.0643 -0.1951 -0.1395
  267MPD2    C1 4089   1.367   4.373   0.249  0.4999 -0.3217 -0.0513
  267MPD2    C2 4090   1.285   4.434   0.156 -0.1646  0.2737 -0.5549
  267MPD2    C3 4091   1.160   4.477   0.191 -0.3880  0.1891  0.7053
  267MPD2    C4 4092   1.114   4.435   0.317  0.1729 -0.8304 -0.0564
  267MPD2    C5 4093   1.208   4.391   0.415 -0.1066 -0.5791  0.3361
  267MPD2     H 4094   1.334   4.460   0.063 -1.0068  2.7360 -0.3234
  267MPD2    H1 4095   1.018   4.462   0.359  0.4568 -1.1590  0.7965
  267MPD2    H2 4096   1.406   4.310   0.449 -1.5937 -1.2155  0.9720
  267MPD2    H3 4097   1.184   4.376   0.520 -0.9320 -2.7892 -0.1815
  267MPD2     N 4098   1.078   4.542   0.099 -0.2211  0.0560 -0.2481
  267MPD2    H5 4099   1.117   4.535   0.005  0.4997  0.5256  0.0201
  267MPD2    N1 4100   1.496   4.323   0.217  0.2497 -0.2057 -0.0078
  267MPD2    H7 4101   1.554   4.287   0.292 -1.1419  1.0485  1.6635
  268TMC3    C1 4102   1.713   4.295   0.109 -0.2385 -0.1788 -0.0604
  268TMC3    C2 4103   1.803   4.392   0.047 -0.1965 -0.5768  0.1256
  268TMC3    C3 4104   1.938   4.369   0.077 -0.4743  0.4884 -0.6379
  268TMC3    C4 4105   1.746   4.193   0.190 -0.1901 -0.2664 -0.9377
  268TMC3    C5 4106   1.884   4.183   0.210 -0.0587  0.0414 -0.6211
  268TMC3    C6 4107   1.979   4.270   0.159 -0.0232  0.2363  0.0883
  268TMC3     C 4108   1.568   4.330   0.099 -0.0984  0.2420  1.0339
  268TMC3     O 4109   1.543   4.373  17.746 -0.3174 -0.1459  0.6695
  268TMC3     H 4110   1.767   4.489   0.014 -2.1239 -1.0204  0.9060
  268TMC3    H1 4111   1.676   4.124   0.234  0.1010 -0.8859 -1.4515
  268TMC3    H2 4112   2.085   4.253   0.177 -0.1458  0.6354  1.1685
  268TMC3    C7 4113   1.933   4.080   0.303  0.5428 -0.0731  0.2575
  268TMC3    C8 4114   2.020   4.487   0.070 -0.7014 -1.0545  0.0048
  268TMC3    O1 4115   2.043   4.036   0.281  0.2574  0.0450  0.8579
  268TMC3    O2 4116   2.110   4.503   0.152 -0.2757  0.0060  0.6770
  269MPD2     C 4117   1.966   3.799  15.279 -0.4591  0.1389 -0.2886
  269MPD2    C1 4118   1.886   3.831  15.390 -0.9695  0.5109  0.5077
  269MPD2    C2 4119   1.868   3.962  15.418  0.3929  0.4071  0.1439
  269MPD2    C3 4120   1.932   4.062  15.343 -0.2818 -0.0925 -0.1116
  269MPD2    C4 4121   2.013   4.023  15.240 -0.2847  0.1117 -0.0978
  269MPD2    C5 4122   2.025   3.896  15.205 -0.9129  0.0070  0.1555
  269MPD2     H 4123   1.804   3.993  15.501  0.3055  2.4787 -0.6926
  269MPD2    H1 4124   2.080   4.085  15.182 -0.4810 -0.0438 -0.4933
  269MPD2    H2 4125   1.969   3.696  15.245 -0.5702  0.3481 -0.9488
  269MPD2    H3 4126   2.081   3.878  15.114  1.5965 -1.1501  1.9180
  269MPD2     N 4127   1.902   4.197  15.377  0.6648 -0.2754 -0.7089
  269MPD2    H5 4128   1.843   4.218  15.457  0.1630 -1.7884 -0.6912
  269MPD2    N1 4129   1.841   3.729  15.472 -0.3542 -0.7745  0.3186
  269MPD2    H7 4130   1.856   3.631  15.447  0.8545 -0.5625  0.2203
  270TMC3    C1 4131   1.734   3.626  15.656  0.5035 -0.0179  0.0488
  270TMC3    C2 4132   1.601   3.626  15.692  0.4488  0.1177 -0.2762
  270TMC3    C3 4133   1.548   3.504  15.736  0.4759 -0.3956  0.4624
  270TMC3    C4 4134   1.820   3.518  15.671  0.1825 -0.5067 -0.3510
  270TMC3    C5 4135   1.761   3.407  15.716 -0.4482 -0.0987  0.0457
  270TMC3    C6 4136   1.634   3.396  15.758  0.0992 -0.3757  0.3158
  270TMC3     C 4137   1.779   3.753  15.593 -0.1945  0.4513  0.4576
  270TMC3     O 4138   1.720   3.850  15.641  0.3418 -0.0501 -0.2691
  270TMC3     H 4139   1.529   3.705  15.674 -0.8456 -0.7291  1.2301
  270TMC3    H1 4140   1.918   3.521  15.625  0.2139  4.0995 -0.0591
  270TMC3    H2 4141   1.600   3.309  15.814 -2.0093  0.2175 -0.0266
  270TMC3    C7 4142   1.814   3.292  15.653 -0.2311 -0.4881 -0.0414
  270TMC3    C8 4143   1.459   3.445  15.640 -0.6451 -0.0185  0.0077
  270TMC3    O1 4144   1.933   3.276  15.647  0.2609  0.3694  0.5175
  270TMC3    O2 4145   1.470   3.322  15.617 -0.5507 -0.3663  0.7534
  271MPD2     C 4146   0.735   2.993  13.965 -0.3666  0.5633 -0.5495
  271MPD2    C1 4147   0.707   2.990  14.102 -0.0471  0.8118  0.1612
  271MPD2    C2 4148   0.579   3.037  14.147 -0.4257  0.0914  0.3486
  271MPD2    C3 4149   0.495   3.085  14.050  0.4164  0.0774 -1.4741
  271MPD2    C4 4150   0.531   3.078  13.919 -0.2698 -0.0692 -0.5939
  271MPD2    C5 4151   0.646   3.038  13.875 -0.2393 -0.1441 -0.9204
  271MPD2     H 4152   0.555   3.057  14.251 -1.8681  0.3922 -0.0401
  271MPD2    H1 4153   0.460   3.113  13.845  0.9955 -0.5879 -2.0533
  271MPD2    H2 4154   0.833   2.964  13.928  1.2960  2.7205  2.1151
  271MPD2    H3 4155   0.663   3.041  13.768 -0.4630  3.6593 -0.8536
  271MPD2     N 4156   0.370   3.148  14.084 -0.8706 -0.0289  0.1291
  271MPD2    H5 4157   0.326   3.199  14.009  0.3023 -1.4080 -1.5100
  271MPD2    N1 4158   0.805   2.975  14.204 -0.0743 -0.6033  0.3559
  271MPD2    H7 4159   0.776   3.001  14.298 -1.3769 -0.1641 -0.1555
  272TMC3    C1 4160   1.013   2.932  14.297  0.3873  0.2857  0.5884
  272TMC3    C2 4161   1.143   2.927  14.272  0.4476 -0.1054 -0.1124
  272TMC3    C3 4162   1.226   2.969  14.372  0.2410  0.2021 -0.1148
  272TMC3    C4 4163   0.963   2.978  14.415  0.5628 -0.5340  0.5302
  272TMC3    C5 4164   1.050   3.023  14.509 -0.3479 -0.2336  0.0902
  272TMC3    C6 4165   1.186   3.019  14.493  1.1552  0.1185 -0.6819
  272TMC3     C 4166   0.925   2.913  14.182 -0.7837  0.2073  0.1003
  272TMC3     O 4167   0.965   2.849  14.083  0.3595 -0.0655 -0.0805
  272TMC3     H 4168   1.191   2.888  14.183 -0.9139 -2.7890  0.3273
  272TMC3    H1 4169   0.860   2.965  14.448  1.0349 -1.4637  1.6249
  272TMC3    H2 4170   1.262   3.037  14.569  0.0470 -1.0643  0.6985
  272TMC3    C7 4171   0.986   3.117  14.603 -0.5402 -1.0546  0.1318
  272TMC3    C8 4172   1.365   2.954  14.335  0.0963  0.5751  0.2161
  272TMC3    O1 4173   0.867   3.129  14.600  0.0253 -0.7711 -0.2042
  272TMC3    O2 4174   1.391   2.959  14.218  0.7949  0.3667  0.1237
  273MPD2     C 4175   2.412   0.543  12.312 -0.1178 -0.0389  0.3583
  273MPD2    C1 4176   2.530   0.593  12.268 -0.8099  0.4479 -0.1575
  273MPD2    C2 4177   2.556   0.589  12.130 -1.0601 -0.1846  0.0217
  273MPD2    C3 4178   2.459   0.540  12.041 -0.1058  0.3309 -0.0158
  273MPD2    C4 4179   2.341   0.488  12.086 -0.7636  0.1805 -0.1667
  273MPD2    C5 4180   2.319   0.487  12.223  0.0576 -0.1228  0.0924
  273MPD2     H 4181   2.652   0.620  12.090 -1.3380  1.5850  0.7326
  273MPD2    H1 4182   2.264   0.444  12.024 -0.5703 -1.9008  1.0459
  273MPD2    H2 4183   2.385   0.542  12.417 -1.1093 -2.7800  0.0614
  273MPD2    H3 4184   2.233   0.431  12.256 -0.3895 -0.1070 -1.0495
  273MPD2     N 4185   2.480   0.536  11.904 -0.6046 -0.5519  0.2771
  273MPD2    H5 4186   2.428   0.466  11.852  0.5355 -0.1377 -1.4161
  273MPD2    N1 4187   2.620   0.641  12.365  0.1765  0.2443 -0.4271
  273MPD2    H7 4188   2.585   0.668  12.456 -0.4190  0.2915 -0.6671
  274TMC3    C1 4189   2.599   0.587  11.700 -0.3080 -0.2799 -0.0119
  274TMC3    C2 4190   2.498   0.574  11.608 -0.3667 -0.1172 -0.2266
  274TMC3    C3 4191   2.521   0.623  11.480  0.2989 -0.3589 -0.4418
  274TMC3    C4 4192   2.710   0.660  11.672 -0.6470  0.6742 -0.0566
  274TMC3    C5 4193   2.730   0.704  11.543 -0.5204  0.0598  0.1298
  274TMC3    C6 4194   2.639   0.688  11.444 -0.3700 -0.4501 -0.4864
  274TMC3     C 4195   2.563   0.620  11.838  0.2827 -0.2994  0.7670
  274TMC3     O 4196   2.612   0.718  11.890  0.0939 -0.5082  0.7738
  274TMC3     H 4197   2.396   0.549  11.636  0.0970 -1.8443 -0.0377
  274TMC3    H1 4198   2.786   0.671  11.749 -0.9812  1.8597  0.0924
  274TMC3    H2 4199   2.643   0.737  11.348  0.4112  0.3031 -0.0713
  274TMC3    C7 4200   2.813   0.816  11.530 -0.3385  0.2301 -0.4677
  274TMC3    C8 4201   2.397   0.625  11.404 -0.0035  0.5517 -0.1903
  274TMC3    O1 4202   2.868   0.831  11.422 -0.1898  0.8360 -0.0211
  274TMC3    O2 4203   2.291   0.616  11.467 -0.4265 -0.5828  0.4721
  275MPD2     C 4204   2.233   4.569  14.296  0.2295 -0.0100 -0.4798
  275MPD2    C1 4205   2.238   4.469  14.389  0.1564 -1.1647  0.1466
  275MPD2    C2 4206   2.165   4.353  14.363 -0.0498  0.2589 -0.3090
  275MPD2    C3 4207   2.091   4.338  14.250  0.0374  0.2521  0.0423
  275MPD2    C4 4208   2.084   4.448  14.166 -0.6010 -0.4296  0.4179
  275MPD2    C5 4209   2.158   4.558  14.186  0.1017 -0.4031 -0.0106
  275MPD2     H 4210   2.163   4.275  14.439  2.2628 -2.0075 -2.5609
  275MPD2    H1 4211   2.026   4.448  14.075 -0.8332 -2.4773  0.5840
  275MPD2    H2 4212   2.298   4.655  14.305  0.5956 -0.3227 -0.1232
  275MPD2    H3 4213   2.160   4.638  14.113  1.2939 -1.6458 -1.3169
  275MPD2     N 4214   2.022   4.219  14.211 -0.4579  0.7566  0.3451
  275MPD2    H5 4215   1.963   4.226  14.128  1.7989 -1.4834 -1.4576
  275MPD2    N1 4216   2.305   4.496  14.516  0.2198 -0.1469 -0.2951
  275MPD2    H7 4217   2.296   4.425  14.588 -0.9628 -2.1487 -2.4277
  276TMC3    C1 4218   2.439   4.590  14.686  0.3399 -0.1993  1.1070
  276TMC3    C2 4219   2.533   4.491  14.718  0.2472  0.2300 -0.1358
  276TMC3    C3 4220   2.609   4.507  14.826 -0.2926  0.3857  0.5103
  276TMC3    C4 4221   2.444   4.708  14.756 -0.8247 -0.4051 -1.1927
  276TMC3    C5 4222   2.528   4.726  14.861  0.1382 -0.1305  0.0116
  276TMC3    C6 4223   2.608   4.623  14.897  0.1907 -0.1330 -0.0892
  276TMC3     C 4224   2.377   4.607  14.556 -0.2006  0.4996  0.2213
  276TMC3     O 4225   2.424   4.699  14.485 -0.3348 -0.0680 -0.1666
  276TMC3     H 4226   2.564   4.409  14.653 -1.3835  0.2814 -0.9843
  276TMC3    H1 4227   2.384   0.049  14.717  2.0080  1.7516 -1.0492
  276TMC3    H2 4228   2.691   4.637  14.966 -0.3722  1.7765  0.1814
  276TMC3    C7 4229   2.583   0.116  14.883  0.4910  0.1053 -0.4359
  276TMC3    C8 4230   2.735   4.439  14.839  0.0152 -0.3582 -0.7823
  276TMC3    O1 4231   2.695   0.124  14.936  0.3176 -0.1713  0.5765
  276TMC3    O2 4232   2.832   4.503  14.879  0.4842  0.7483  0.0405
  277MPD2     C 4233   4.357   2.655  13.373  0.3152 -0.5068 -0.2788
  277MPD2    C1 4234   4.218   2.665  13.363  0.3538  0.4661  0.0889
  277MPD2    C2 4235   4.144   2.584  13.440  0.6837 -0.1038  0.3952
  277MPD2    C3 4236   4.197   2.497  13.531  0.2045 -0.7053  0.0938
  277MPD2    C4 4237   4.333   2.491  13.548  0.1725 -0.0092 -0.1098
  277MPD2    C5 4238   4.410   2.563  13.462  0.0376  0.2800  0.4516
  277MPD2     H 4239   4.036   2.580  13.433  0.5813  1.3810  1.1917
  277MPD2    H1 4240   4.380   2.433  13.627  0.6484  2.4514  1.3988
  277MPD2    H2 4241   4.424   2.713  13.311  0.6773 -1.6050 -0.9143
  277MPD2    H3 4242   4.516   2.572  13.482  0.3236 -0.5095 -0.6903
  277MPD2     N 4243   4.096   2.428  13.610 -0.0134  0.1306  0.5693
  277MPD2    H5 4244   4.000   2.459  13.599 -0.3452 -1.7182 -1.7697
  277MPD2    N1 4245   4.164   2.761  13.271  0.7094 -0.1043 -0.4232
  277MPD2    H7 4246   4.225   2.827  13.225  1.6163 -0.3704  0.3952
  278TMC3    C1 4247   3.998   2.301  13.785  0.3862 -0.0655 -0.1374
  278TMC3    C2 4248   3.985   2.177  13.831 -0.8363 -1.0569  0.3016
  278TMC3    C3 4249   3.861   2.125  13.855  0.2788  0.7762 -0.4285
  278TMC3    C4 4250   3.890   2.381  13.769  0.8539 -0.9536  1.1867
  278TMC3    C5 4251   3.766   2.326  13.780  0.3460  0.0903 -0.5361
  278TMC3    C6 4252   3.748   2.199  13.823 -0.4056 -0.3889  0.3047
  278TMC3     C 4253   4.117   2.336  13.713 -0.3795 -0.6980  0.3470
  278TMC3     O 4254   4.216   2.266  13.726  0.1926  0.3532  0.0433
  278TMC3     H 4255   4.077   2.119  13.837 -1.8993 -2.6802  0.9983
  278TMC3    H1 4256   3.903   2.488  13.754 -2.2304 -0.8448 -0.6750
  278TMC3    H2 4257   3.646   2.164  13.835 -0.9971  1.1204 -0.2223
  278TMC3    C7 4258   3.651   2.408  13.726  0.1945 -0.3795  0.4802
  278TMC3    C8 4259   3.842   1.982  13.836  1.1924  0.6025 -0.2574
  278TMC3    O1 4260   3.646   2.531  13.747  0.0031 -0.2152 -0.3215
  278TMC3    O2 4261   3.930   1.912  13.883 -0.7272  0.8243 -0.2201
  279MPD2     C 4262   2.862   2.956  17.661  0.1083 -0.4876  0.0890
  279MPD2    C1 4263   2.984   3.011  17.685  0.1163  0.3846 -0.0479
  279MPD2    C2 4264   3.072   3.034  17.583  0.6894  0.4387 -0.2261
  279MPD2    C3 4265   3.036   3.013  17.459  0.2696  0.1344 -0.1368
  279MPD2    C4 4266   2.915   2.960  17.433  0.6128  0.3808  0.4972
  279MPD2    C5 4267   2.827   2.918  17.530 -0.1686 -0.1924 -0.5264
  279MPD2     H 4268   3.165   3.083  17.612  0.3705 -0.4860  2.4198
  279MPD2    H1 4269   2.892   2.939  17.329  1.2107  2.0986  0.0256
  279MPD2    H2 4270   2.792   2.934  17.741 -1.6866 -1.2701 -1.6861
  279MPD2    H3 4271   2.732   2.869  17.515  0.0419 -0.3576 -1.3538
  279MPD2     N 4272   3.106   3.059  17.346  0.2502  0.5625 -0.0164
  279MPD2    H5 4273   3.055   3.045  17.259 -1.8232 -2.4117  1.6544
  279MPD2    N1 4274   3.029   3.030   0.063  0.2410  0.4696 -0.1766
  279MPD2    H7 4275   3.128   3.044   0.078  0.5832 -0.8457 -1.1659
  280TMC3    C1 4276   3.022   3.049   0.292 -0.5524  0.2804  0.1320
  280TMC3    C2 4277   3.153   3.023   0.284  0.0623  0.3300  0.1885
  280TMC3    C3 4278   3.234   3.088   0.374 -0.2487 -0.3756  0.3848
  280TMC3    C4 4279   2.971   3.147   0.369 -0.2887  0.4748  1.0736
  280TMC3    C5 4280   3.051   3.213   0.453 -0.8285 -1.0400  0.2353
  280TMC3    C6 4281   3.185   3.178   0.464  0.2077 -0.4814  1.1861
  280TMC3     C 4282   2.950   3.030   0.172  0.1354  0.8717  0.2528
  280TMC3     O 4283   2.829   3.041   0.173  0.4506  0.4169 -0.0568
  280TMC3     H 4284   3.199   2.950   0.219 -0.2580  2.1653 -2.0791
  280TMC3    H1 4285   2.863   3.152   0.364 -0.2866 -1.5679 -0.7975
  280TMC3    H2 4286   3.248   3.232   0.534 -2.1070  2.7902  0.7226
  280TMC3    C7 4287   3.013   3.335   0.499 -0.0256 -0.0326 -0.5972
  280TMC3    C8 4288   3.376   3.066   0.398 -0.6953  0.4590 -0.5884
  280TMC3    O1 4289   3.072   3.386   0.594 -0.1765  0.2595  0.6929
  280TMC3    O2 4290   3.418   3.077   0.513  0.1838  0.4437 -0.6108
  281TMC3    C1 4291   2.156   3.254  13.744  0.4297 -0.9106 -0.1901
  281TMC3    C2 4292   2.157   3.314  13.617  0.0765  0.3150 -0.2830
  281TMC3    C3 4293   2.267   3.285  13.533  0.0841 -0.0565  0.3756
  281TMC3    C4 4294   2.264   3.183  13.788 -0.4764  0.0356  0.2269
  281TMC3    C5 4295   2.371   3.164  13.703 -0.4568 -0.1924  0.7416
  281TMC3    C6 4296   2.377   3.213  13.577  0.4695  0.4612  1.0271
  281TMC3     C 4297   2.050   3.282  13.836 -0.3367  0.1229  0.6642
  281TMC3     O 4298   2.090   3.280  13.956  0.0717 -0.4402 -0.4720
  281TMC3     H 4299   2.079   3.386  13.592  0.3669  0.7409  0.0485
  281TMC3    H1 4300   2.258   3.136  13.885 -0.4282  0.3736  0.3934
  281TMC3    H2 4301   2.458   3.196  13.507  1.1607  0.9122  1.7163
  281TMC3    C7 4302   2.463   3.059  13.757  0.1420 -0.5062 -0.1735
  281TMC3    C8 4303   2.262   3.340  13.400 -0.0385 -0.5474 -0.4094
  281TMC3    O1 4304   2.581   3.085  13.775  0.2373  0.4015 -0.0219
  281TMC3    O2 4305   2.369   3.345  13.338  0.7572  0.2570  0.3869
  282MPD2     C 4306   4.050   0.375  14.841 -0.3713  0.0389 -0.4409
  282MPD2    C1 4307   4.034   0.290  14.944 -0.7289  0.2983  0.1629
  282MPD2    C2 4308   3.914   0.224  14.954  0.2192  0.6165  0.9032
  282MPD2    C3 4309   3.815   0.231  14.856 -0.8224  0.6541 -0.1377
  282MPD2    C4 4310   3.833   0.323  14.755 -0.2538  0.3399 -0.4853
  282MPD2    C5 4311   3.951   0.395  14.748 -0.4144 -0.4648 -0.3060
  282MPD2     H 4312   3.895   0.159  15.039  0.9961  0.9472  1.3309
  282MPD2    H1 4313   3.750   0.345  14.689 -1.1878  0.6067  0.7691
  282MPD2    H2 4314   4.141   0.433  14.829 -0.8643  0.6442 -1.2778
  282MPD2    H3 4315   3.963   0.469  14.670  0.8959 -1.2337 -0.8349
  282MPD2     N 4316   3.701   0.155  14.874  0.8044 -0.2401  0.2957
  282MPD2    H5 4317   3.689   0.108  14.963  2.7524 -2.4276 -0.6139
  282MPD2    N1 4318   4.128   0.278  15.043  0.6309  0.2961  0.1376
  282MPD2    H7 4319   4.097   0.228  15.126  1.1390 -0.7277 -0.2960
  283TMC3    C1 4320   4.326   0.306  15.173 -0.5725  1.2292  0.2924
  283TMC3    C2 4321   4.401   0.409  15.225 -0.1403 -0.5008 -0.0660
  283TMC3    C3 4322   4.464   0.398  15.341 -0.1595  0.1290  0.1192
  283TMC3    C4 4323   4.301   0.195  15.250  0.0259  0.1531  0.5349
  283TMC3    C5 4324   4.363   0.193  15.371 -0.1758 -0.0690 -0.4203
  283TMC3    C6 4325   4.443   0.293  15.424  0.1495  0.4587 -0.2220
  283TMC3     C 4326   4.255   0.335  15.049 -0.0789 -0.1972 -0.4070
  283TMC3     O 4327   4.301   0.414  14.973 -0.2710  0.1246  0.1977
  283TMC3     H 4328   4.417   0.491  15.156 -2.1613  0.1613  0.2420
  283TMC3    H1 4329   4.250   0.106  15.217 -2.0196  0.4253  2.9163
  283TMC3    H2 4330   4.488   0.289  15.523 -1.8529 -0.8755  0.6392
  283TMC3    C7 4331   4.304   0.101  15.467  0.1854 -0.3348 -0.0760
  283TMC3    C8 4332   4.492   0.525  15.404  0.4831 -0.0953  0.0262
  283TMC3    O1 4333   4.189   0.068  15.452  0.2928  0.6507  0.1439
  283TMC3    O2 4334   4.570   0.525  15.496 -0.4542 -0.4418  0.4348
  284MPD2     C 4335   1.986   3.458  12.270  0.4443 -0.3623 -0.1898
  284MPD2    C1 4336   2.091   3.517  12.205 -0.1935  0.4393 -0.2384
  284MPD2    C2 4337   2.216   3.511  12.270  0.6545  0.2242  0.2637
  284MPD2    C3 4338   2.235   3.433  12.385  0.6124 -0.1101  0.0819
  284MPD2    C4 4339   2.128   3.373  12.436  0.9564  0.5308 -0.2311
  284MPD2    C5 4340   2.008   3.386  12.384  0.2669 -0.6628  0.5455
  284MPD2     H 4341   2.293   3.572  12.224 -0.4316  0.2719 -1.4754
  284MPD2    H1 4342   2.126   3.309  12.524 -1.2196  2.4111  1.0794
  284MPD2    H2 4343   1.886   3.462  12.229  0.8751 -0.2501 -1.2480
  284MPD2    H3 4344   1.917   3.344  12.427  0.7369 -1.9504  0.2785
  284MPD2     N 4345   2.364   3.409  12.441 -0.4256 -0.7822  0.1387
  284MPD2    H5 4346   2.372   3.335  12.510  1.0338  0.0730  0.8950
  284MPD2    N1 4347   2.086   3.581  12.078  0.1430  0.3749  0.5571
  284MPD2    H7 4348   2.166   3.640  12.058  0.7332 -1.1522 -1.5731
  285TMC3    C1 4349   2.008   3.652  11.870  0.3968 -0.5113 -0.6973
  285TMC3    C2 4350   1.967   3.601  11.746  0.1551 -0.4714  0.4182
  285TMC3    C3 4351   2.014   3.664  11.634  0.7582 -0.3920  0.4075
  285TMC3    C4 4352   2.103   3.754  11.878  0.1001 -0.1625  0.0301
  285TMC3    C5 4353   2.135   3.818  11.757  0.1904  0.7543  0.2056
  285TMC3    C6 4354   2.097   3.770  11.633 -0.0479 -0.1392  0.0995
  285TMC3     C 4355   1.981   3.572  11.986  0.2253  0.2443  0.2255
  285TMC3     O 4356   1.884   3.494  11.981  0.0837 -0.2708 -0.7269
  285TMC3     H 4357   1.909   3.510  11.738  0.9245 -0.9428  0.1415
  285TMC3    H1 4358   2.143   3.795  11.970 -2.0010 -1.4441  1.5182
  285TMC3    H2 4359   2.124   3.827  11.545 -0.2647  1.1519  0.8787
  285TMC3    C7 4360   2.226   3.921  11.739  0.9097 -0.1910  0.0748
  285TMC3    C8 4361   2.007   3.577  11.514 -0.1344 -0.1586 -0.4809
  285TMC3    O1 4362   2.315   3.900  11.663  0.4853  0.2557  0.1736
  285TMC3    O2 4363   1.933   3.477  11.518 -0.0185 -0.0841 -0.3901
  286MPD2     C 4364   2.614   2.386   0.437 -0.6286  0.0526  0.0580
  286MPD2    C1 4365   2.676   2.386   0.564 -0.2788 -0.7269 -0.1945
  286MPD2    C2 4366   2.778   2.298   0.588  0.1486  0.5587 -0.0568
  286MPD2    C3 4367   2.822   2.202   0.497 -0.3690  0.6436  0.2819
  286MPD2    C4 4368   2.753   2.195   0.379  0.6408  0.1379 -0.6222
  286MPD2    C5 4369   2.652   2.285   0.352  0.2239  0.3131  0.0850
  286MPD2     H 4370   2.823   2.306   0.686  1.2366  1.3004 -0.6157
  286MPD2    H1 4371   2.772   2.132   0.293  0.8983  0.4662 -0.8060
  286MPD2    H2 4372   2.537   2.452   0.400 -0.3325  0.1428 -0.3855
  286MPD2    H3 4373   2.600   2.279   0.257 -1.1776 -1.1221  0.9398
  286MPD2     N 4374   2.915   2.098   0.516 -0.1610 -0.1110  0.0706
  286MPD2    H5 4375   2.938   2.044   0.433 -0.0714  1.1000 -0.6862
  286MPD2    N1 4376   2.640   2.481   0.668  0.0671  0.6815  0.2546
  286MPD2    H7 4377   2.671   2.469   0.764 -1.2426  0.3814  0.6433
  287TMC3    C1 4378   3.071   1.962   0.616 -0.7975 -0.1339 -0.2065
  287TMC3    C2 4379   3.055   1.869   0.516 -0.6224  0.4684 -0.1501
  287TMC3    C3 4380   3.123   1.749   0.521 -0.5329  0.0923  0.3073
  287TMC3    C4 4381   3.152   1.937   0.725  0.3909 -0.0059 -0.0083
  287TMC3    C5 4382   3.220   1.819   0.717 -0.0247 -0.8059  0.1357
  287TMC3    C6 4383   3.211   1.723   0.620 -0.3196 -0.0534  0.2868
  287TMC3     C 4384   2.978   2.068   0.631 -0.6014  0.0520 -0.9130
  287TMC3     O 4385   2.974   2.120   0.744 -0.1361  0.1455 -0.9178
  287TMC3     H 4386   2.976   1.875   0.442  1.4918 -1.5296 -2.5423
  287TMC3    H1 4387   3.150   2.006   0.809 -1.2631 -1.2574  0.9891
  287TMC3    H2 4388   3.252   1.624   0.636 -1.7202 -0.6710  0.0020
  287TMC3    C7 4389   3.325   1.794   0.810  0.0383  0.3705 -0.2105
  287TMC3    C8 4390   3.065   1.640   0.459  0.5888 -0.2080 -0.3702
  287TMC3    O1 4391   3.424   1.746   0.761  0.4063 -0.2027  0.1930
  287TMC3    O2 4392   2.952   1.655   0.421 -0.0203  0.0041  0.0001
  288TMC3    C1 4393   4.150   2.679  13.834 -0.0270  0.3192  0.3921
  288TMC3    C2 4394   4.050   2.665  13.918 -0.0335 -0.3072  0.5384
  288TMC3    C3 4395   3.939   2.750  13.910  0.3020  0.0695  0.5405
  288TMC3    C4 4396   4.149   2.758  13.729 -0.0295 -0.7724  0.2788
  288TMC3    C5 4397   4.036   2.833  13.714  0.4883 -0.7126 -0.2248
  288TMC3    C6 4398   3.942   2.839  13.815  0.4316 -0.2999 -0.6330
  288TMC3     C 4399   4.267   2.602  13.868 -0.1597  0.3781 -0.3931
  288TMC3     O 4400   4.248   2.495  13.931 -0.1253 -0.8202  0.1499
  288TMC3     H 4401   4.056   2.608  14.010  2.8012 -1.4084 -0.3298
  288TMC3    H1 4402   4.228   2.759  13.654 -1.3124  1.0807 -1.0537
  288TMC3    H2 4403   3.876   2.925  13.823  0.7360 -0.0335 -0.9731
  288TMC3    C7 4404   4.025   2.927  13.604  0.3872 -0.7057 -0.0601
  288TMC3    C8 4405   3.863   2.788  14.027 -0.6266 -0.4826 -0.5436
  288TMC3    O1 4406   4.128   2.954  13.539  0.1341 -0.0785  0.3469
  288TMC3    O2 4407   3.848   2.909  14.045 -0.8746  0.2754 -0.1595
  289MPD2     C 4408   4.254   1.556  14.427  0.3019  0.0047  0.3854
  289MPD2    C1 4409   4.260   1.675  14.357  0.4955 -0.6399  0.2030
  289MPD2    C2 4410   4.146   1.726  14.303 -0.1009  0.7317  0.6745
  289MPD2    C3 4411   4.027   1.663  14.316 -0.3049  0.0252  0.5737
  289MPD2    C4 4412   4.022   1.537  14.372  0.3399  0.0148 -0.0706
  289MPD2    C5 4413   4.137   1.477  14.428 -0.4808  0.1823 -0.2978
  289MPD2     H 4414   4.146   1.828  14.266  2.4127  0.4104 -0.2067
  289MPD2    H1 4415   3.932   1.478  14.362 -1.8227  3.7293 -2.3236
  289MPD2    H2 4416   4.340   1.514  14.478 -0.1448 -1.4946 -0.1083
  289MPD2    H3 4417   4.133   1.374  14.460  0.5576  0.9382  2.2575
  289MPD2     N 4418   3.909   1.707  14.248 -0.1662 -0.3152  0.1952
  289MPD2    H5 4419   3.827   1.648  14.263 -0.7564  0.3747 -0.3485
  289MPD2    N1 4420   4.382   1.746  14.350 -0.5916  0.3651  0.4190
  289MPD2    H7 4421   4.462   1.705  14.397 -0.0944 -0.1971 -0.9196
  290TMC3    C1 4422   3.746   1.839  14.154 -0.7063  0.6922  0.0669
  290TMC3    C2 4423   3.683   1.959  14.157  0.4565  0.1704 -0.5619
  290TMC3    C3 4424   3.549   1.967  14.120 -0.4854 -0.3208 -0.2549
  290TMC3    C4 4425   3.680   1.722  14.107  1.2342 -0.0970  0.1757
  290TMC3    C5 4426   3.551   1.741  14.070  0.0561  0.2682 -0.3238
  290TMC3    C6 4427   3.485   1.864  14.060 -0.1629 -0.2736 -1.3345
  290TMC3     C 4428   3.888   1.829  14.186  0.0708 -0.7436 -0.0404
  290TMC3     O 4429   3.964   1.931  14.189 -0.3112 -0.2776 -0.4699
  290TMC3     H 4430   3.743   2.041  14.195  2.1520 -0.1572 -2.5251
  290TMC3    H1 4431   3.743   1.635  14.096  2.9237  1.1203  0.2727
  290TMC3    H2 4432   3.380   1.874  14.035 -1.1100 -2.2401  1.9599
  290TMC3    C7 4433   3.491   1.631  14.000 -0.2978  1.0046 -0.0568
  290TMC3    C8 4434   3.498   2.095  14.091  0.0472  0.4632 -0.2362
  290TMC3    O1 4435   3.401   1.660  13.918  0.0034  0.3453 -0.3867
  290TMC3    O2 4436   3.422   2.114  13.995 -0.0009  0.7337 -0.0887
  291MPD2     C 4437   3.966   1.751   0.370  0.3809  0.0497 -0.5323
  291MPD2    C1 4438   4.026   1.635   0.418  0.2705  0.3065 -0.3237
  291MPD2    C2 4439   4.141   1.642   0.495  0.3011 -0.3835  0.0401
  291MPD2    C3 4440   4.190   1.771   0.518 -0.3546  0.3233 -0.1031
  291MPD2    C4 4441   4.119   1.887   0.483  0.6585  0.1739 -0.2137
  291MPD2    C5 4442   4.006   1.872   0.409 -0.2942  1.2154 -0.2932
  291MPD2     H 4443   4.180   1.549   0.535  0.6509 -0.0328  0.5007
  291MPD2    H1 4444   4.142   1.991   0.502  1.9553  0.3346 -2.6850
  291MPD2    H2 4445   3.874   1.752   0.312  1.4791  2.2206 -2.1946
  291MPD2    H3 4446   3.943   1.958   0.389 -2.5115 -0.3143  0.1746
  291MPD2     N 4447   4.319   1.791   0.575 -0.2698  0.4715 -0.2351
  291MPD2    H5 4448   4.353   1.886   0.584  2.7697 -0.6460  0.1468
  291MPD2    N1 4449   3.980   1.507   0.390  0.2756 -0.3334 -0.3338
  291MPD2    H7 4450   4.035   1.433   0.431 -1.2375 -0.2257  1.8705
  292TMC3    C1 4451   3.847   1.340   0.357  0.0154  0.4594  0.7338
  292TMC3    C2 4452   3.871   1.299   0.484 -0.3120 -0.2241  0.5109
  292TMC3    C3 4453   3.863   1.166   0.510  0.0444  0.3302 -0.2605
  292TMC3    C4 4454   3.808   1.256   0.255 -0.2850 -0.1865  0.5745
  292TMC3    C5 4455   3.795   1.123   0.288 -0.5880 -0.6317 -0.5856
  292TMC3    C6 4456   3.835   1.073   0.410  1.0257 -0.3500  0.7709
  292TMC3     C 4457   3.870   1.476   0.324 -0.2337  0.2307 -0.6201
  292TMC3     O 4458   3.793   1.542   0.258 -0.3062 -0.0860 -0.4420
  292TMC3     H 4459   3.892   1.372   0.562  0.5063  0.1419 -0.0519
  292TMC3    H1 4460   3.784   1.299   0.158  1.8138  1.3251  0.7183
  292TMC3    H2 4461   3.830   0.969   0.440 -1.0095 -0.4949 -0.0537
  292TMC3    C7 4462   3.750   1.024   0.195 -0.0373 -0.2030  0.6611
  292TMC3    C8 4463   3.879   1.115   0.648  0.5156  0.0492  0.6667
  292TMC3    O1 4464   3.775   0.906   0.206  0.1488 -0.1811 -0.0792
  292TMC3    O2 4465   3.883   0.995   0.657  0.2471  0.0998  0.2141
  293MPD2     C 4466   0.347   3.050  12.496  0.1192 -0.3383 -0.0218
  293MPD2    C1 4467   0.307   2.947  12.580 -0.5511  0.1307 -0.3004
  293MPD2    C2 4468   0.390   2.905  12.677 -0.0245 -0.0350 -0.0659
  293MPD2    C3 4469   0.510   2.959  12.702 -0.6354 -0.7548  0.6667
  293MPD2    C4 4470   0.552   3.059  12.614  0.4811 -0.2303 -0.2960
  293MPD2    C5 4471   0.471   3.098  12.513 -0.0878 -0.6272 -0.4784
  293MPD2     H 4472   0.357   2.830  12.747 -0.9469  2.0441  1.7420
  293MPD2    H1 4473   0.647   3.110  12.623  2.1436 -3.1469 -1.6360
  293MPD2    H2 4474   0.282   3.082  12.415 -0.1713  1.6004  0.9711
  293MPD2    H3 4475   0.506   3.178  12.449 -0.5538  0.1867  0.2948
  293MPD2     N 4476   0.593   2.911  12.808  0.2473  0.2921 -0.3559
  293MPD2    H5 4477   0.554   2.830  12.856 -0.2811  0.9351  0.3034
  293MPD2    N1 4478   0.178   2.886  12.553 -0.7278 -0.6091 -0.0960
  293MPD2    H7 4479   0.125   2.928  12.478  1.9388  0.7875 -1.2018
  294TMC3    C1 4480   0.006   2.730  12.572 -0.2004 -0.0425  0.0177
  294TMC3    C2 4481   4.662   2.661  12.660 -0.5174 -0.2602  0.2926
  294TMC3    C3 4482   4.565   2.584  12.600 -0.3373 -0.5727  0.7813
  294TMC3    C4 4483   4.728   2.717  12.436 -0.0158 -0.3214  0.1581
  294TMC3    C5 4484   4.624   2.648  12.377 -0.0625  0.1011  0.2694
  294TMC3    C6 4485   4.540   2.588  12.465  0.5955  0.1257  0.0814
  294TMC3     C 4486   0.119   2.798  12.635  0.4296 -0.1965 -0.1198
  294TMC3     O 4487   0.140   2.769  12.752 -0.5150  0.1796  0.1472
  294TMC3     H 4488   4.690   2.638  12.762  0.3455  1.2626  0.4029
  294TMC3    H1 4489   0.056   2.759  12.363  0.4963 -0.4239  0.5819
  294TMC3    H2 4490   4.450   2.531  12.443  1.0688 -0.6727  0.1976
  294TMC3    C7 4491   4.668   2.556  12.267 -0.0347  0.9344 -0.0635
  294TMC3    C8 4492   4.554   2.453  12.661  0.3221 -0.1446 -0.6639
  294TMC3    O1 4493   4.602   2.448  12.260 -0.6381 -0.1260 -0.0263
  294TMC3    O2 4494   4.563   2.441  12.783  0.2962 -0.4795  0.2487
  295MPD2     C 4495   1.490   1.615   1.022 -0.7476  0.2183 -0.1497
  295MPD2    C1 4496   1.350   1.618   1.032  0.0206  0.1112  0.7305
  295MPD2    C2 4497   1.293   1.533   1.125  0.6586  0.3783  0.3131
  295MPD2    C3 4498   1.369   1.449   1.207  0.1903 -0.1310  0.1392
  295MPD2    C4 4499   1.504   1.443   1.187  0.1815  0.4566 -0.0634
  295MPD2    C5 4500   1.564   1.531   1.100 -0.3754  0.5365  0.4216
  295MPD2     H 4501   1.185   1.522   1.123  0.6365  0.4535  1.1112
  295MPD2    H1 4502   1.570   1.368   1.229 -1.1071 -0.1518  0.8712
  295MPD2    H2 4503   1.552   1.680   0.962 -1.9026  0.6656 -0.8580
  295MPD2    H3 4504   1.671   1.534   1.085 -0.3076 -0.6308  0.6193
  295MPD2     N 4505   1.313   1.372   1.311 -0.7732 -0.3300  0.0582
  295MPD2    H5 4506   1.371   1.304   1.359 -0.5983 -0.8322 -0.8802
  295MPD2    N1 4507   1.265   1.698   0.948 -0.2646  0.3024  0.0526
  295MPD2    H7 4508   1.168   1.691   0.979 -0.1989  1.3342  0.4824
  296TMC3    C1 4509   1.161   1.322   1.483 -0.9955  0.2881  1.3433
  296TMC3    C2 4510   1.065   1.372   1.569 -0.2224 -0.1533  0.1230
  296TMC3    C3 4511   1.023   1.301   1.675 -0.8212  0.3129  0.5549
  296TMC3    C4 4512   1.212   1.192   1.499 -0.5242 -0.0957  0.2283
  296TMC3    C5 4513   1.153   1.122   1.604  0.3410 -0.2148 -0.1603
  296TMC3    C6 4514   1.063   1.169   1.695  0.5717 -0.6240 -0.5535
  296TMC3     C 4515   1.189   1.395   1.360 -0.5409  0.6242 -0.3218
  296TMC3     O 4516   1.126   1.497   1.346 -0.5412  0.2494  0.1852
  296TMC3     H 4517   1.018   1.467   1.546  1.1798  0.4431 -0.2784
  296TMC3    H1 4518   1.255   1.144   1.411 -1.5501  0.4047 -0.5488
  296TMC3    H2 4519   1.024   1.107   1.775  2.4679 -0.4633  0.4958
  296TMC3    C7 4520   1.202   0.988   1.634  0.0852 -0.1547 -0.0019
  296TMC3    C8 4521   0.919   1.362   1.757 -0.2180  0.4401  0.0184
  296TMC3    O1 4522   1.141   0.921   1.714 -0.7396  0.6744  0.3316
  296TMC3    O2 4523   0.826   1.289   1.790 -0.2385  0.1196  0.2362
  297MPD2     C 4524   2.852   3.279  16.313 -0.3083 -0.3116 -0.7703
  297MPD2    C1 4525   2.904   3.379  16.233 -0.2570 -0.8181 -0.2347
  297MPD2    C2 4526   3.039   3.377  16.203  0.7195 -0.1482 -0.1912
  297MPD2    C3 4527   3.126   3.286  16.260  0.1095 -0.4257 -0.2370
  297MPD2    C4 4528   3.074   3.194  16.345 -0.4882  0.5598  0.3480
  297MPD2    C5 4529   2.937   3.193  16.374 -0.2381  0.2130 -0.2944
  297MPD2     H 4530   3.087   3.446  16.135  0.9890 -0.5133 -0.3710
  297MPD2    H1 4531   3.142   3.125  16.394 -1.4507 -0.5422  0.1527
  297MPD2    H2 4532   2.747   3.265  16.335 -0.4793  0.2471 -1.2297
  297MPD2    H3 4533   2.890   3.125  16.445 -2.3149  0.9051 -1.0013
  297MPD2     N 4534   3.267   3.300  16.234 -0.0777  0.2470  0.6841
  297MPD2    H5 4535   3.291   3.377  16.173  1.5016 -0.2481  0.6915
  297MPD2    N1 4536   2.825   3.474  16.167  0.2970  0.6002 -0.2371
  297MPD2    H7 4537   2.881   3.532  16.106 -0.9870  0.9507 -1.0642
  298TMC3    C1 4538   2.648   3.618  16.117  0.3978 -0.6441  1.0059
  298TMC3    C2 4539   2.630   3.586  15.981 -0.0319  0.0483 -0.0849
  298TMC3    C3 4540   2.537   3.653  15.906  0.0850  0.6345  0.1200
  298TMC3    C4 4541   2.559   3.703  16.171 -0.8270  0.4418 -0.3279
  298TMC3    C5 4542   2.469   3.774  16.095 -0.5635  0.0631 -0.0711
  298TMC3    C6 4543   2.456   3.746  15.958 -0.1393 -0.6719 -0.1904
  298TMC3     C 4544   2.694   3.508  16.202 -0.1153 -0.0838  0.0161
  298TMC3     O 4545   2.644   3.507  16.312 -0.0043 -0.4213  0.0886
  298TMC3     H 4546   2.676   3.492  15.953 -0.1666 -0.4217  1.2449
  298TMC3    H1 4547   2.553   3.709  16.280  0.4875 -0.6177 -0.1894
  298TMC3    H2 4548   2.374   3.782  15.897 -0.6007  2.5257  2.3077
  298TMC3    C7 4549   2.406   3.884  16.172 -0.8074  0.4334  0.0674
  298TMC3    C8 4550   2.540   3.636  15.759  0.3198 -0.8094 -0.3389
  298TMC3    O1 4551   2.453   3.900  16.287  0.0852 -0.7926 -0.0220
  298TMC3    O2 4552   2.595   3.532  15.723  0.2056  0.5818  0.1568
  299MPD2     C 4553   2.947   2.699  10.854  0.6188  0.1403  0.3115
  299MPD2    C1 4554   2.979   2.802  10.764 -0.9850  0.5147  0.4345
  299MPD2    C2 4555   2.913   2.802  10.648  0.0663 -0.3938 -0.8160
  299MPD2    C3 4556   2.811   2.709  10.618 -0.2207 -0.1683 -0.3811
  299MPD2    C4 4557   2.779   2.616  10.712 -0.2288  0.1194 -0.3928
  299MPD2    C5 4558   2.853   2.607  10.827  0.0780 -0.3455 -0.0474
  299MPD2     H 4559   2.938   2.877  10.573 -1.5315  3.0411  2.0746
  299MPD2    H1 4560   2.705   2.540  10.689 -0.4682  0.6338 -1.3552
  299MPD2    H2 4561   2.999   2.686  10.948 -0.3995 -1.6097  0.6265
  299MPD2    H3 4562   2.818   2.531  10.896 -2.6620  0.4062 -0.5977
  299MPD2     N 4563   2.733   2.715  10.502  0.2511 -0.1475 -0.4461
  299MPD2    H5 4564   2.652   2.655  10.489  0.5722 -1.0037  1.5872
  299MPD2    N1 4565   3.076   2.899  10.799  0.1561 -0.3138  0.3769
  299MPD2    H7 4566   3.129   2.881  10.884 -0.9554 -0.1115  1.1251
  300TMC3    C1 4567   2.669   2.784  10.280 -0.3014 -0.0393  0.2588
  300TMC3    C2 4568   2.644   2.903  10.214  0.3163 -0.1312 -0.0227
  300TMC3    C3 4569   2.514   2.927  10.178 -0.3090  0.1738 -0.5070
  300TMC3    C4 4570   2.578   2.682  10.282  0.3411 -0.8475 -0.1082
  300TMC3    C5 4571   2.457   2.708  10.239 -0.2334  0.3684  1.1998
  300TMC3    C6 4572   2.414   2.836  10.208 -0.1480 -0.4965  0.2655
  300TMC3     C 4573   2.763   2.796  10.391 -0.2874  0.0492 -1.1833
  300TMC3     O 4574   2.839   2.890  10.372  0.3785  0.2770  0.0512
  300TMC3     H 4575   2.715   2.984  10.207 -1.5032  1.4482 -0.4404
  300TMC3    H1 4576   2.583   2.593  10.343 -0.2734 -2.6069 -2.6475
  300TMC3    H2 4577   2.310   2.848  10.180  0.3694  1.1897 -0.9054
  300TMC3    C7 4578   2.348   2.621  10.291 -0.3285  0.5555  0.0406
  300TMC3    C8 4579   2.482   3.067  10.181 -0.4585 -0.7517  0.1730
  300TMC3    O1 4580   2.351   2.507  10.253 -0.8450 -0.2437 -0.5112
  300TMC3    O2 4581   2.543   3.138  10.260  0.1374 -0.2404  0.0116
  301MPD2     C 4582   1.634   3.852   1.062 -0.0621  0.4981  0.1308
  301MPD2    C1 4583   1.531   3.877   0.976 -0.0847 -0.6050 -0.2994
  301MPD2    C2 4584   1.498   3.785   0.878  0.2955  1.0622 -0.7505
  301MPD2    C3 4585   1.561   3.665   0.866 -0.2356 -0.4620 -0.4863
  301MPD2    C4 4586   1.670   3.646   0.945  0.4498  0.2734 -0.2095
  301MPD2    C5 4587   1.707   3.732   1.044  0.3281 -0.9440 -0.0971
  301MPD2     H 4588   1.411   3.802   0.815 -1.6893  1.4108  2.0965
  301MPD2    H1 4589   1.726   3.553   0.934 -2.5897 -1.5310 -0.3133
  301MPD2    H2 4590   1.671   3.929   1.129  0.7419  1.6445 -1.6202
  301MPD2    H3 4591   1.785   3.708   1.116 -0.2743 -1.1514  0.4867
  301MPD2     N 4592   1.529   3.569   0.774 -0.1885 -0.1741 -0.5558
  301MPD2    H5 4593   1.582   3.483   0.782 -0.5269 -0.2146  1.1943
  301MPD2    N1 4594   1.457   3.996   0.981 -0.5470 -0.4668  0.2626
  301MPD2    H7 4595   1.380   4.006   0.916  0.1669 -2.7221 -0.9466
  302TMC3    C1 4596   1.392   3.446   0.615  0.7216 -0.3910 -1.2171
  302TMC3    C2 4597   1.443   3.332   0.679 -0.4741 -0.6106  0.0649
  302TMC3    C3 4598   1.368   3.220   0.677 -0.0162  0.8739 -0.0290
  302TMC3    C4 4599   1.270   3.443   0.553  0.1947 -0.3093 -0.2106
  302TMC3    C5 4600   1.193   3.340   0.586 -0.4303 -0.7893 -0.3152
  302TMC3    C6 4601   1.238   3.221   0.639 -0.5164 -0.1114  0.8799
  302TMC3     C 4602   1.428   3.574   0.678 -0.1672 -0.0013 -0.0943
  302TMC3     O 4603   1.376   3.672   0.619  0.0360  0.3787 -0.0395
  302TMC3     H 4604   1.541   3.338   0.724  0.2240 -0.4549 -1.4597
  302TMC3    H1 4605   1.222   3.537   0.529  1.4803 -0.3329 -2.7730
  302TMC3    H2 4606   1.171   3.136   0.644 -2.8016  1.5899 -0.6112
  302TMC3    C7 4607   1.062   3.330   0.524  0.0620  0.7670 -0.3140
  302TMC3    C8 4608   1.388   3.130   0.787 -0.0544 -0.3856 -0.6995
  302TMC3    O1 4609   1.022   3.219   0.486  0.8021 -0.1046 -0.3617
  302TMC3    O2 4610   1.502   3.120   0.832  0.2184  0.2854 -0.1351
  303MPD2     C 4611   0.239   2.624  10.941 -0.2967 -0.0216 -0.4513
  303MPD2    C1 4612   0.146   2.558  10.868  0.3109  0.1468 -0.3741
  303MPD2    C2 4613   0.176   2.529  10.734 -0.3060 -0.1180 -0.6895
  303MPD2    C3 4614   0.297   2.565  10.685 -0.5882  0.1590 -0.6901
  303MPD2    C4 4615   0.395   2.627  10.763  0.1474  0.2456  0.5560
  303MPD2    C5 4616   0.357   2.658  10.888 -0.5358 -0.0209  0.4615
  303MPD2     H 4617   0.101   2.482  10.672  0.4813 -1.5517 -0.5712
  303MPD2    H1 4618   0.488   2.666  10.723  0.1397 -0.6244 -0.2961
  303MPD2    H2 4619   0.215   2.663  11.039 -1.3975  2.2310 -1.6434
  303MPD2    H3 4620   0.418   2.726  10.945  0.5357 -0.5793 -0.0220
  303MPD2     N 4621   0.333   2.554  10.549 -0.2446  0.8986  0.0615
  303MPD2    H5 4622   0.417   2.603  10.522 -0.1909  0.9754  0.3627
  303MPD2    N1 4623   0.021   2.546  10.926  0.0705  0.0868  0.1702
  303MPD2    H7 4624   0.001   2.597  11.011  0.8155 -0.1337  0.4829
  304TMC3    C1 4625   4.534   2.498  10.953 -0.0780  0.4832 -0.1021
  304TMC3    C2 4626   4.515   2.635  10.977 -0.8127  0.0039  0.4994
  304TMC3    C3 4627   4.379   2.675  10.973  0.1955  0.8320  0.3446
  304TMC3    C4 4628   4.430   2.410  10.931  0.4611  0.1533 -0.0063
  304TMC3    C5 4629   4.302   2.458  10.947 -0.5638 -0.2487  0.2131
  304TMC3    C6 4630   4.278   2.591  10.957 -0.2658  0.4353 -0.0769
  304TMC3     C 4631   4.659   2.465  10.882 -0.9166 -0.3031  0.0423
  304TMC3     O 4632   4.654   2.382  10.796  0.2700 -0.2007 -0.3195
  304TMC3     H 4633   4.589   2.714  10.968 -0.1176 -0.8553 -1.2873
  304TMC3    H1 4634   4.454   2.314  10.887 -0.4425 -0.4238  0.7687
  304TMC3    H2 4635   4.179   2.627  10.979  0.6825  1.9382  1.6957
  304TMC3    C7 4636   4.197   2.394  10.867  0.6853 -0.0578  0.0674
  304TMC3    C8 4637   4.365   2.785  10.878  0.2456  0.4123 -0.6302
  304TMC3    O1 4638   4.126   2.471  10.803  0.3589  0.0052 -0.0983
  304TMC3    O2 4639   4.450   2.878  10.878  0.0926  0.3123 -0.2464
  305MPD2     C 4640   3.872   0.472  14.176 -0.0703  0.6009  0.1462
  305MPD2    C1 4641   3.898   0.336  14.176 -0.9272 -0.4362  0.1288
  305MPD2    C2 4642   3.847   0.258  14.074 -0.0669 -0.0690  0.0070
  305MPD2    C3 4643   3.767   0.322  13.979  0.3241  0.5764 -0.5007
  305MPD2    C4 4644   3.750   0.458  13.973  0.0523 -0.1314  0.2808
  305MPD2    C5 4645   3.809   0.529  14.078  0.2783 -0.2695  0.6214
  305MPD2     H 4646   3.861   0.151  14.075 -0.4421 -0.1130  0.3422
  305MPD2    H1 4647   3.694   0.517  13.901 -1.1431 -2.0307 -0.3195
  305MPD2    H2 4648   3.906   0.548  14.246  0.7142  0.4099 -0.0264
  305MPD2    H3 4649   3.801   0.636  14.069 -0.3331 -0.3974 -0.3898
  305MPD2     N 4650   3.697   0.266  13.871 -0.7480 -0.8259 -0.6296
  305MPD2    H5 4651   3.638   0.329  13.818 -0.5792 -0.5401 -0.4752
  305MPD2    N1 4652   3.976   0.294  14.285  0.2452  0.3244  0.3860
  305MPD2    H7 4653   4.008   0.355  14.360  1.8518 -0.3066  0.2077
  306TMC3    C1 4654   4.124   0.162  14.406 -0.4144 -0.4335  0.2117
  306TMC3    C2 4655   4.235   0.080  14.377  0.2298 -0.1739  0.0553
  306TMC3    C3 4656   4.350   0.120  14.428 -0.3455 -0.1811 -0.2210
  306TMC3    C4 4657   4.137   0.273  14.481  0.4555  0.4099  0.1162
  306TMC3    C5 4658   4.262   0.307  14.538  0.9360  0.3118  0.3636
  306TMC3    C6 4659   4.372   0.233  14.504 -0.3199 -0.0836 -0.2279
  306TMC3     C 4660   4.021   0.163  14.306  0.0910  0.0169 -0.3436
  306TMC3     O 4661   4.022   0.068  14.229  0.2008 -0.3629 -0.7251
  306TMC3     H 4662   4.229   4.735  14.311  0.4927 -2.0065  2.4209
  306TMC3    H1 4663   4.044   0.323  14.505 -0.2556 -0.7804 -0.1411
  306TMC3    H2 4664   4.474   0.268  14.516 -0.9791  0.9289  2.4999
  306TMC3    C7 4665   4.272   0.442  14.560 -0.9935  0.0326  0.3664
  306TMC3    C8 4666   4.442   0.014  14.410  0.5271  0.1106 -0.6331
  306TMC3    O1 4667   4.203   0.507  14.479  0.5258  0.3609 -0.0503
  306TMC3    O2 4668   4.465   4.702  14.300  0.0729 -0.3049  0.4656
  307MPD2     C 4669   1.907   2.450  17.630 -0.0773  0.3579  0.0992
  307MPD2    C1 4670   1.906   2.580  17.650 -0.0494 -0.2188 -0.1556
  307MPD2    C2 4671   1.885   2.623   0.024  0.5772  0.1068  0.3574
  307MPD2    C3 4672   1.851   2.544   0.128  0.1020 -1.4425  0.2844
  307MPD2    C4 4673   1.858   2.405   0.104 -0.1016 -0.4307 -0.1465
  307MPD2    C5 4674   1.894   2.364  17.740 -0.1808  0.0187 -0.3175
  307MPD2     H 4675   1.889   2.730   0.042 -0.9143  0.8169 -3.5669
  307MPD2    H1 4676   1.833   2.328   0.176 -0.5962  0.4768  0.6536
  307MPD2    H2 4677   1.935   2.395  17.541 -1.8704  0.9226 -0.8137
  307MPD2    H3 4678   1.909   2.258  17.729  2.6295  0.1518  1.9908
  307MPD2     N 4679   1.827   2.602   0.255 -0.2312  0.1322 -0.0594
  307MPD2    H5 4680   1.846   2.702   0.261  2.8944 -0.4589 -0.2865
  307MPD2    N1 4681   1.929   2.679  17.551 -0.1092  0.1930 -0.2282
  307MPD2    H7 4682   1.932   2.776  17.581  2.1955  0.5596 -1.6487
  308TMC3    C1 4683   1.633   2.694   0.662  0.6418  0.1418 -0.4091
  308TMC3    C2 4684   1.688   2.814   0.680  0.9503  0.3020 -0.5271
  308TMC3    C3 4685   1.793   2.842   0.594  0.7616  0.8040 -0.2473
  308TMC3    C4 4686   1.666   2.605   0.566 -0.2293  0.2999 -0.0629
  308TMC3    C5 4687   1.764   2.638   0.479 -0.0412 -0.3697  0.4054
  308TMC3    C6 4688   1.830   2.757   0.493 -0.4699  0.2353 -0.3357
  308TMC3     C 4689   1.507   2.666   0.720 -0.1570  0.0247  0.4864
  308TMC3     O 4690   1.499   2.577   0.805  0.1934 -0.2210  0.0568
  308TMC3     H 4691   1.636   2.891   0.735 -0.3951 -1.3976  0.5797
  308TMC3    H1 4692   1.604   2.517   0.555  1.0850 -0.6090 -0.2713
  308TMC3    H2 4693   1.907   2.785   0.421  0.2147 -3.5384 -1.0606
  308TMC3    C7 4694   1.791   2.541   0.370 -0.5199  0.1508  0.3235
  308TMC3    C8 4695   1.819   2.982   0.575 -0.1021  0.1335  0.9954
  308TMC3    O1 4696   1.745   2.428   0.378  0.2156 -0.0972  0.3160
  308TMC3    O2 4697   1.858   3.011   0.461  0.7107  0.4422 -0.2042
  309MPD2     C 4698   0.861   3.256  16.900  0.4809 -0.2603 -0.1683
  309MPD2    C1 4699   0.897   3.381  16.930  0.6062 -0.5572  0.0723
  309MPD2    C2 4700   0.841   3.441  17.045 -0.0154  0.1957 -0.6903
  309MPD2    C3 4701   0.746   3.379  17.120 -0.8832 -0.7280 -0.5305
  309MPD2    C4 4702   0.693   3.264  17.066 -0.3622 -0.4378 -0.5090
  309MPD2    C5 4703   0.754   3.198  16.957  0.2013 -0.5493  0.8255
  309MPD2     H 4704   0.874   3.544  17.059  1.0876 -0.5766  2.3507
  309MPD2    H1 4705   0.601   3.226  17.110 -0.8527  0.1431 -1.0406
  309MPD2    H2 4706   0.909   3.204  16.818  0.6539 -0.8483  0.3111
  309MPD2    H3 4707   0.720   3.100  16.925  1.6314 -0.7454 -0.1284
  309MPD2     N 4708   0.683   3.438  17.231  0.6244 -0.7747 -0.3810
  309MPD2    H5 4709   0.606   3.380  17.262  0.0824  0.1439 -0.0158
  309MPD2    N1 4710   1.006   3.443  16.869  0.0551  0.4035  0.2529
  309MPD2    H7 4711   1.026   3.541  16.885  1.7393  0.2544 -0.8798
  310TMC3    C1 4712   1.147   3.489  16.687  0.0542  0.1764  0.7977
  310TMC3    C2 4713   1.065   3.577  16.616  0.6779 -0.2650 -0.5713
  310TMC3    C3 4714   1.124   3.643  16.506  0.5141 -0.8743  0.8745
  310TMC3    C4 4715   1.275   3.466  16.640  0.4824 -0.2100 -0.2857
  310TMC3    C5 4716   1.329   3.530  16.533  0.3814 -0.4873 -0.4434
  310TMC3    C6 4717   1.252   3.618  16.463  0.9323 -0.4450  0.3975
  310TMC3     C 4718   1.097   3.385  16.776 -0.0336  0.1912 -0.6861
  310TMC3     O 4719   1.117   3.269  16.740 -0.1408  0.2714  0.4157
  310TMC3     H 4720   0.963   3.601  16.646  1.0681 -0.3389  0.7795
  310TMC3    H1 4721   1.333   3.397  16.701 -0.0154  0.1352  0.5850
  310TMC3    H2 4722   1.297   3.661  16.374  1.0705  0.2292  0.7964
  310TMC3    C7 4723   1.457   3.485  16.476  0.6814  0.1368  0.1666
  310TMC3    C8 4724   1.031   3.698  16.413  0.0138  0.0634  0.2261
  310TMC3    O1 4725   1.505   3.373  16.505  0.0027 -0.7164 -0.1639
  310TMC3    O2 4726   0.920   3.654  16.414 -0.4796  0.1215  0.4015
  311MPD2     C 4727   2.858   4.049  13.085  0.7130 -0.3164  0.5493
  311MPD2    C1 4728   2.852   4.178  13.043  0.4826 -0.0868  0.7411
  311MPD2    C2 4729   2.729   4.242  13.047  0.0093 -0.2431 -0.0711
  311MPD2    C3 4730   2.612   4.173  13.089 -0.3769 -0.3998  0.9771
  311MPD2    C4 4731   2.619   4.039  13.117 -0.2310  0.1356  0.0622
  311MPD2    C5 4732   2.744   3.979  13.117  0.6803 -0.3172  0.3810
  311MPD2     H 4733   2.719   4.347  13.023  0.3888  0.0232  0.9496
  311MPD2    H1 4734   2.543   3.976  13.162  0.9673 -0.8438  0.7313
  311MPD2    H2 4735   2.947   3.987  13.093  0.0679 -1.2214  0.8085
  311MPD2    H3 4736   2.754   3.877  13.152 -0.5063 -0.5502  0.0268
  311MPD2     N 4737   2.498   4.251  13.109  0.2854 -0.1424  0.2811
  311MPD2    H5 4738   2.512   4.350  13.091 -0.9880  0.3073  1.7725
  311MPD2    N1 4739   2.969   4.252  13.027 -0.0405  0.0009  0.7629
  311MPD2    H7 4740   2.949   4.351  13.013 -0.1855 -0.5026 -2.5300
  312TMC3    C1 4741   2.276   4.305  13.160  0.6056  0.1755 -0.7434
  312TMC3    C2 4742   2.144   4.274  13.123  0.6401  0.1765 -0.0663
  312TMC3    C3 4743   2.059   4.377  13.123 -0.0020  0.6949  0.4421
  312TMC3    C4 4744   2.314   4.433  13.206 -0.5339  0.5129 -0.3854
  312TMC3    C5 4745   2.212   4.530  13.208  0.1026  0.0696 -0.0650
  312TMC3    C6 4746   2.087   4.506  13.171 -0.1869 -0.1117 -0.3660
  312TMC3     C 4747   2.374   4.199  13.136 -0.2265  0.6998 -0.1470
  312TMC3     O 4748   2.327   4.085  13.126 -0.5488 -0.0961 -0.3066
  312TMC3     H 4749   2.110   4.176  13.093  0.5492  0.0128  0.5708
  312TMC3    H1 4750   2.413   4.456  13.244 -1.4936  2.7801  0.7480
  312TMC3    H2 4751   2.025   4.595  13.182  0.8443  0.2640  2.5608
  312TMC3    C7 4752   2.238   4.656  13.275 -0.1126 -0.0127 -0.2673
  312TMC3    C8 4753   1.938   4.351  13.050 -0.1831 -0.6119  0.5319
  312TMC3    O1 4754   2.189   0.010  13.212 -1.2320  0.7182 -0.2119
  312TMC3    O2 4755   1.895   4.234  13.037 -0.6773 -0.3654 -0.2446
  313MPD2     C 4756   1.701   3.250  10.852  0.2809 -0.8364 -0.2455
  313MPD2    C1 4757   1.788   3.357  10.829  0.3344  0.7881  0.0397
  313MPD2    C2 4758   1.877   3.350  10.724  0.3472  0.1435 -0.6842
  313MPD2    C3 4759   1.891   3.237  10.647 -0.2582 -0.3059  0.1812
  313MPD2    C4 4760   1.790   3.138  10.656 -0.3661 -0.1404  1.2434
  313MPD2    C5 4761   1.700   3.145  10.765  0.1112  0.1549  0.3958
  313MPD2     H 4762   1.941   3.436  10.705 -0.3562  0.6242 -0.8824
  313MPD2    H1 4763   1.798   3.045  10.601  0.9541  0.2506  0.7649
  313MPD2    H2 4764   1.620   3.246  10.924 -0.7144  1.6327 -1.2031
  313MPD2    H3 4765   1.630   3.065  10.785 -0.8930  0.5653 -1.5000
  313MPD2     N 4766   1.975   3.222  10.532  0.2171  0.0865 -0.6536
  313MPD2    H5 4767   1.962   3.133  10.485 -0.2464 -0.1140 -0.1540
  313MPD2    N1 4768   1.779   3.472  10.907 -0.2874 -0.3375  0.7911
  313MPD2    H7 4769   1.854   3.537  10.884  0.6707 -1.9564 -0.7474
  314TMC3    C1 4770   1.674   3.652  11.007  0.6654 -0.1341  0.1839
  314TMC3    C2 4771   1.783   3.687  11.076 -0.7328  0.1645 -0.0406
  314TMC3    C3 4772   1.790   3.812  11.123 -0.3677 -0.2037 -0.1047
  314TMC3    C4 4773   1.574   3.739  10.990 -0.0689 -0.5227  0.3302
  314TMC3    C5 4774   1.582   3.863  11.049  0.1047 -0.1765  0.2274
  314TMC3    C6 4775   1.688   3.902  11.127 -0.2501 -0.4145 -0.3658
  314TMC3     C 4776   1.662   3.511  10.965 -0.5675  0.7027  0.3179
  314TMC3     O 4777   1.546   3.469  10.956  0.4099 -0.5944  0.3293
  314TMC3     H 4778   1.866   3.620  11.091 -1.0641 -0.3661 -0.5838
  314TMC3    H1 4779   1.485   3.709  10.937  0.7360 -0.4145 -1.0805
  314TMC3    H2 4780   1.697   4.005  11.157 -1.6349  0.0349 -1.5161
  314TMC3    C7 4781   1.507   3.969  10.980 -1.2431 -0.1504 -0.2011
  314TMC3    C8 4782   1.922   3.855  11.151  0.0174 -0.0615  1.1335
  314TMC3    O1 4783   1.413   4.015  11.047  0.2872  0.6165 -0.6451
  314TMC3    O2 4784   1.997   3.851  11.053 -0.6423  0.5755 -0.1541
  315MPD2     C 4785   2.282   3.202  17.429  0.2213 -0.2734  0.2825
  315MPD2    C1 4786   2.385   3.189  17.523 -0.1823 -0.3674 -0.5894
  315MPD2    C2 4787   2.466   3.303  17.536  0.5719 -0.1491  0.3011
  315MPD2    C3 4788   2.453   3.417  17.460 -0.3873  0.1152  0.1439
  315MPD2    C4 4789   2.354   3.422  17.369  0.3707 -1.0610 -0.2490
  315MPD2    C5 4790   2.274   3.317  17.347 -0.0063 -0.0240 -0.1482
  315MPD2     H 4791   2.544   3.302  17.612  1.6983 -0.9653 -0.8743
  315MPD2    H1 4792   2.331   3.506  17.304  1.0757 -0.2196  0.5855
  315MPD2    H2 4793   2.211   3.124  17.404 -0.9925  1.5396 -1.9164
  315MPD2    H3 4794   2.199   3.321  17.269  0.6645  0.4422 -0.7725
  315MPD2     N 4795   2.538   3.525  17.493 -0.0447 -0.9403 -0.1209
  315MPD2    H5 4796   2.614   3.516  17.559 -0.0767  2.1538  0.3165
  315MPD2    N1 4797   2.399   3.079  17.603  0.2765  0.2895  0.1403
  315MPD2    H7 4798   2.480   3.079  17.664 -0.0396  1.3386  0.5757
  316TMC3    C1 4799   2.658   3.730  17.460  0.1660  0.6830  0.9438
  316TMC3    C2 4800   2.710   3.728  17.586 -0.0458  0.0581 -0.1223
  316TMC3    C3 4801   2.795   3.828  17.628  0.1609  0.1461  0.1788
  316TMC3    C4 4802   2.670   3.844  17.385 -0.0438  0.3731  0.7217
  316TMC3    C5 4803   2.760   3.938  17.426  0.2758 -1.3141 -0.1787
  316TMC3    C6 4804   2.830   3.932  17.539 -0.2163 -0.4571  0.5600
  316TMC3     C 4805   2.552   3.637  17.418 -0.4694  0.2486  1.0831
  316TMC3     O 4806   2.505   3.658  17.305 -0.3281 -0.4997  0.0580
  316TMC3     H 4807   2.667   3.660  17.659 -0.4446  0.5530  0.1000
  316TMC3    H1 4808   2.629   3.848  17.285 -0.5841 -2.2505  0.8474
  316TMC3    H2 4809   2.893   4.014  17.570 -0.9646  0.3836 -0.1342
  316TMC3    C7 4810   2.789   4.051  17.342  0.1164  0.5566 -0.3969
  316TMC3    C8 4811   2.839   3.836   0.005  0.6372 -0.1529 -0.3621
  316TMC3    O1 4812   2.900   4.097  17.348 -0.1954  0.5741  0.0378
  316TMC3    O2 4813   2.876   3.950   0.040 -0.0962  0.2239  0.0496
  317MPD2     C 4814   3.826   1.690  13.194 -0.2292  0.0130 -0.6636
  317MPD2    C1 4815   3.839   1.553  13.174  0.2845 -0.2606 -0.2599
  317MPD2    C2 4816   3.888   1.478  13.276 -0.1072 -0.5091  0.4951
  317MPD2    C3 4817   3.922   1.530  13.397 -0.8557  0.2626  0.5596
  317MPD2    C4 4818   3.934   1.667  13.415 -0.0874 -0.4814 -0.1945
  317MPD2    C5 4819   3.885   1.747  13.311 -0.4092  0.5204  1.3772
  317MPD2     H 4820   3.891   1.371  13.260 -1.7640 -0.3120 -1.0764
  317MPD2    H1 4821   3.964   1.721  13.504  2.8292 -1.2578 -0.7084
  317MPD2    H2 4822   3.779   1.755  13.121  0.7623  1.1054 -0.3223
  317MPD2    H3 4823   3.877   1.851  13.341 -0.1476  0.0472  3.0779
  317MPD2     N 4824   3.982   1.441  13.493  0.8654 -0.1489  0.4137
  317MPD2    H5 4825   3.990   1.347  13.457  0.1013 -0.0781  0.0696
  317MPD2    N1 4826   3.812   1.491  13.052  0.5721 -0.1177  0.4367
  317MPD2    H7 4827   3.827   1.390  13.048 -0.4581 -0.2208 -0.6242
  318TMC3    C1 4828   4.138   1.354  13.636 -0.0290 -0.8211 -0.9666
  318TMC3    C2 4829   4.070   1.246  13.689 -0.2992 -0.1906 -0.0175
  318TMC3    C3 4830   4.151   1.149  13.752 -1.2798 -0.0824  0.4832
  318TMC3    C4 4831   4.264   1.381  13.676  0.2928 -0.1532 -0.6812
  318TMC3    C5 4832   4.335   1.285  13.735  0.5930 -0.2687 -0.4412
  318TMC3    C6 4833   4.283   1.168  13.778 -0.0324  0.8818  0.0356
  318TMC3     C 4834   4.067   1.469  13.595 -0.2683 -0.0557 -0.2044
  318TMC3     O 4835   4.094   1.577  13.649 -0.4233 -0.1855  0.3745
  318TMC3     H 4836   3.967   1.234  13.656 -0.5037 -0.4334  0.7206
  318TMC3    H1 4837   4.313   1.469  13.637 -1.3492  1.4374  0.8618
  318TMC3    H2 4838   4.333   1.093  13.839 -1.0142  0.0341 -0.1960
  318TMC3    C7 4839   4.473   1.323  13.753  0.1734  0.2844  0.2863
  318TMC3    C8 4840   4.094   1.017  13.769  0.2885  0.0664  0.1717
  318TMC3    O1 4841   4.508   1.434  13.723 -0.2558  0.0622 -0.3949
  318TMC3    O2 4842   4.142   0.950  13.853  0.4050  0.6533 -0.0827
  319MPD2     C 4843   0.807   2.854  16.087 -0.4415  0.2843 -0.4375
  319MPD2    C1 4844   0.725   2.786  16.175 -0.3437  0.4800  0.1961
  319MPD2    C2 4845   0.589   2.772  16.139 -0.2421 -0.8199 -0.2943
  319MPD2    C3 4846   0.533   2.804  16.018 -0.3236 -0.1463  0.0880
  319MPD2    C4 4847   0.625   2.858  15.928 -0.1715 -0.6679  0.1625
  319MPD2    C5 4848   0.754   2.885  15.966  0.0651 -0.3227 -0.0856
  319MPD2     H 4849   0.517   2.734  16.210 -0.2547  1.8785  1.1413
  319MPD2    H1 4850   0.590   2.893  15.832  0.1419  1.4125  0.8025
  319MPD2    H2 4851   0.907   2.875  16.123 -0.9153  0.1664  0.9465
  319MPD2    H3 4852   0.822   2.919  15.888 -0.0221  1.1416  0.4945
  319MPD2     N 4853   0.395   2.783  15.976  0.1873  0.5027  0.3039
  319MPD2    H5 4854   0.375   2.798  15.878 -0.3177  0.6401  0.4266
  319MPD2    N1 4855   0.756   2.726  16.303 -0.3519  0.3866 -0.5076
  319MPD2    H7 4856   0.680   2.672  16.343 -1.6470  1.0201 -2.1154
  320TMC3    C1 4857   0.173   2.714  15.989  0.3629  1.0419 -0.3640
  320TMC3    C2 4858   0.141   2.773  15.870  0.3069 -0.8324 -0.6586
  320TMC3    C3 4859   0.015   2.756  15.822 -0.3051  0.1897 -0.3592
  320TMC3    C4 4860   0.089   2.637  16.058  0.0225  0.4696  0.0956
  320TMC3    C5 4861   4.704   2.617  16.009  0.2236  0.0192 -0.2460
  320TMC3    C6 4862   4.669   2.685  15.898 -0.1902 -0.2537 -0.2752
  320TMC3     C 4863   0.296   2.723  16.055 -0.1407  0.2558 -1.2753
  320TMC3     O 4864   0.305   2.692  16.173  0.0006 -0.1191 -0.6633
  320TMC3     H 4865   0.207   2.849  15.827 -1.8051 -0.2584 -2.9189
  320TMC3    H1 4866   0.110   2.589  16.153  1.1267 -1.8581 -1.3470
  320TMC3    H2 4867   4.572   2.678  15.851 -1.0989 -0.7460  1.7291
  320TMC3    C7 4868   4.606   2.553  16.093 -0.4830  0.6178 -0.4943
  320TMC3    C8 4869   4.696   2.856  15.739 -0.4766  0.8011 -0.1907
  320TMC3    O1 4870   4.503   2.524  16.030  0.5199  0.2035 -0.2818
  320TMC3    O2 4871   4.574   2.860  15.733 -0.1724  0.1680 -0.0220
  321TMC3    C1 4872   0.870   2.698  16.511 -0.3682 -0.0927  0.9333
  321TMC3    C2 4873   0.769   2.615  16.543 -0.7740 -1.2190 -0.3234
  321TMC3    C3 4874   0.708   2.639  16.660  0.0082  0.3264  0.2488
  321TMC3    C4 4875   0.905   2.792  16.600  0.5093  0.1192  0.3052
  321TMC3    C5 4876   0.841   2.813  16.724  0.3631 -0.0838  0.0430
  321TMC3    C6 4877   0.728   2.747  16.741 -0.4403 -0.4063 -0.2293
  321TMC3     C 4878   0.880   2.733  16.369 -0.9057  0.3039 -0.3618
  321TMC3     O 4879   0.969   2.810  16.340  0.4908  0.3207 -0.2101
  321TMC3     H 4880   0.740   2.533  16.478 -2.4866  1.2093 -2.6494
  321TMC3    H1 4881   1.001   2.840  16.585 -0.4013  1.2931 -1.6429
  321TMC3    H2 4882   0.662   2.767  16.826  0.3004  3.4559 -0.5429
  321TMC3    C7 4883   0.929   2.806  16.842  0.6665 -0.1659  0.0449
  321TMC3    C8 4884   0.684   2.514  16.737 -0.7808  0.3969  0.1374
  321TMC3    O1 4885   0.863   2.760  16.934  0.1360  0.0779 -0.0245
  321TMC3    O2 4886   0.653   2.410  16.681  0.2745  0.2566 -0.6300
  322MPD2     C 4887   3.912   3.757  13.504  1.0438 -0.3901  0.1765
  322MPD2    C1 4888   3.882   3.806  13.630  0.1190 -0.5851  0.1002
  322MPD2    C2 4889   3.853   3.716  13.727  0.4086 -1.0300 -0.5741
  322MPD2    C3 4890   3.851   3.579  13.707  0.2765  0.2428 -0.3778
  322MPD2    C4 4891   3.887   3.528  13.585 -0.0520  0.0661 -0.3055
  322MPD2    C5 4892   3.916   3.619  13.484 -0.0744  0.7587  0.3261
  322MPD2     H 4893   3.827   3.753  13.825  2.8215 -2.7878  0.7106
  322MPD2    H1 4894   3.909   3.423  13.566  2.2023  0.6154 -0.6847
  322MPD2    H2 4895   3.946   3.816  13.419 -1.2382 -0.8086 -1.0290
  322MPD2    H3 4896   3.932   3.571  13.388 -3.1036 -1.0013  0.6984
  322MPD2     N 4897   3.811   3.501  13.826 -0.5922  0.6823 -0.3341
  322MPD2    H5 4898   3.787   3.558  13.907  0.2228  0.0336  0.3524
  322MPD2    N1 4899   3.895   3.945  13.664 -1.3073  0.3864 -0.5483
  322MPD2    H7 4900   3.865   3.967  13.758 -1.5164  1.8288 -0.9562
  323TMC3    C1 4901   4.005   4.150  13.679 -0.1032 -0.3384 -0.5803
  323TMC3    C2 4902   4.092   4.230  13.615  0.4473 -0.3452 -0.4239
  323TMC3    C3 4903   4.166   4.312  13.699 -0.1403 -0.2435 -0.2448
  323TMC3    C4 4904   3.966   4.156  13.810 -0.1565 -0.0012  0.1789
  323TMC3    C5 4905   4.044   4.242  13.884  0.1257 -0.4092 -1.0761
  323TMC3    C6 4906   4.149   4.323  13.832  0.6099  0.3572 -0.1930
  323TMC3     C 4907   3.955   4.043  13.592  0.1197 -1.0140 -0.9665
  323TMC3     O 4908   4.005   4.038  13.479  0.2478  0.7453  0.4471
  323TMC3     H 4909   4.126   4.206  13.515  2.2316  0.6541 -0.0723
  323TMC3    H1 4910   3.893   4.090  13.856  1.2134 -1.2958  0.5091
  323TMC3    H2 4911   4.224   4.378  13.889  0.1267  1.2247 -0.3903
  323TMC3    C7 4912   4.061   4.204  14.024  0.2901  0.4110  0.2761
  323TMC3    C8 4913   4.281   4.392  13.645 -0.1580 -0.2548  0.0338
  323TMC3    O1 4914   3.999   4.104  14.064 -0.0979 -0.2812 -0.3611
  323TMC3    O2 4915   4.378   4.409  13.712  0.4940  0.2007  0.3078
  324MPD2     C 4916   0.888   0.304  14.536  0.7880 -0.0840 -0.0300
  324MPD2    C1 4917   0.853   0.436  14.551 -0.4315 -0.2471 -0.3726
  324MPD2    C2 4918   0.726   0.480  14.527  0.0146 -0.0309  0.2327
  324MPD2    C3 4919   0.639   0.384  14.479  0.7494 -0.1212  0.2570
  324MPD2    C4 4920   0.664   0.252  14.482 -0.3621  0.1225 -0.0377
  324MPD2    C5 4921   0.792   0.213  14.511 -0.4669 -0.3582  0.2706
  324MPD2     H 4922   0.710   0.587  14.538  3.1022  0.5739 -1.1573
  324MPD2    H1 4923   0.599   0.173  14.444  2.4584 -1.4212 -1.6343
  324MPD2    H2 4924   0.988   0.262  14.544  0.1394 -1.4312  0.9516
  324MPD2    H3 4925   0.815   0.108  14.500 -0.5741 -0.4618  1.0180
  324MPD2     N 4926   0.522   0.437  14.422  0.3547  0.2326  0.2164
  324MPD2    H5 4927   0.471   0.362  14.376  1.6340  0.1322 -1.0865
  324MPD2    N1 4928   0.933   0.537  14.588 -0.6688 -0.3524  0.0051
  324MPD2    H7 4929   0.884   0.614  14.632 -0.1182  0.2756 -0.4604
  325TMC3    C1 4930   0.355   0.579  14.351 -0.1111 -0.6361  1.0181
  325TMC3    C2 4931   0.263   0.479  14.324  0.7538  0.6408  0.8875
  325TMC3    C3 4932   0.161   0.514  14.243 -0.6642 -0.2802 -0.0213
  325TMC3    C4 4933   0.337   0.712  14.312 -0.2005 -0.0217  0.3544
  325TMC3    C5 4934   0.230   0.738  14.232  0.2728  0.3557  0.3462
  325TMC3    C6 4935   0.150   0.639  14.197  0.8615  0.9431  0.0467
  325TMC3     C 4936   0.477   0.565  14.421 -0.8819  0.1388 -0.2236
  325TMC3     O 4937   0.524   0.671  14.459 -0.4734  0.9182 -0.0078
  325TMC3     H 4938   0.271   0.384  14.374  0.1222  0.1241  0.0230
  325TMC3    H1 4939   0.413   0.789  14.318  1.3632 -1.7558  2.8726
  325TMC3    H2 4940   0.059   0.661  14.142  2.1241  1.9694 -1.6083
  325TMC3    C7 4941   0.190   0.874  14.215 -0.4065  0.2780  0.7639
  325TMC3    C8 4942   0.049   0.418  14.220  0.1404 -0.1357  0.2622
  325TMC3    O1 4943   0.118   0.892  14.123  0.7169 -0.2049  0.6294
  325TMC3    O2 4944   0.064   0.291  14.220  0.1163 -0.2717 -0.3871
  326MPD2     C 4945   1.980   1.101  11.701  0.0188 -0.1128 -0.7366
  326MPD2    C1 4946   1.968   1.118  11.561  0.1009  0.2030 -0.1766
  326MPD2    C2 4947   2.061   1.201  11.495  0.7104  0.7731 -0.0388
  326MPD2    C3 4948   2.153   1.273  11.567  0.6282  0.0828 -0.1915
  326MPD2    C4 4949   2.162   1.255  11.702  0.5217 -0.2956 -0.1547
  326MPD2    C5 4950   2.077   1.174  11.770 -0.9272 -0.0128  0.1908
  326MPD2     H 4951   2.046   1.212  11.388  0.3883 -2.5902 -0.3597
  326MPD2    H1 4952   2.227   1.325  11.754 -0.0904  0.3473 -0.2512
  326MPD2    H2 4953   1.918   1.041  11.767 -0.2673  2.1143  1.0369
  326MPD2    H3 4954   2.075   1.180  11.878  2.7546 -0.8373  0.3168
  326MPD2     N 4955   2.239   1.365  11.506  0.1352  0.6712  0.1904
  326MPD2    H5 4956   2.280   1.434  11.568  0.5157  0.4950  0.1351
  326MPD2    N1 4957   1.866   1.046  11.495 -0.3722  0.0493  0.5248
  326MPD2    H7 4958   1.813   0.977  11.548  0.2164 -1.1944 -0.4992
  327TMC3    C1 4959   1.706   1.002  11.332 -1.3823 -0.2175 -0.1771
  327TMC3    C2 4960   1.612   1.068  11.260 -0.2059 -0.1389 -0.1457
  327TMC3    C3 4961   1.593   1.034  11.129 -0.1754  0.1099 -0.1315
  327TMC3    C4 4962   1.763   0.887  11.289  0.5246 -0.5176 -0.0680
  327TMC3    C5 4963   1.746   0.865  11.157  0.1490 -0.4361  0.4058
  327TMC3    C6 4964   1.659   0.930  11.075  0.6896 -0.6283  0.1373
  327TMC3     C 4965   1.793   1.098  11.390  0.6447 -0.0230  0.0497
  327TMC3     O 4966   1.778   1.212  11.344  0.1668  0.6531  0.4381
  327TMC3     H 4967   1.564   1.157  11.299  1.4678  0.4852  0.4781
  327TMC3    H1 4968   1.835   0.840  11.355 -0.0023 -0.3586  0.6246
  327TMC3    H2 4969   1.648   0.912  10.968  1.7231 -1.5047  0.1762
  327TMC3    C7 4970   1.865   0.838  11.080  0.2935 -0.9707 -0.2356
  327TMC3    C8 4971   1.593   1.153  11.048  0.3757 -0.1142  0.6040
  327TMC3    O1 4972   1.867   0.871  10.964 -0.0609 -0.0850 -0.0350
  327TMC3    O2 4973   1.695   1.165  10.979 -0.2986 -0.1556  0.1199
  328MPD2     C 4974   4.352   1.620  17.452  0.6768 -0.0335  0.2923
  328MPD2    C1 4975   4.286   1.505  17.403 -0.2543  0.4233  0.1727
  328MPD2    C2 4976   4.189   1.519  17.303  0.8241 -0.1250 -0.4614
  328MPD2    C3 4977   4.171   1.644  17.244  0.7080 -1.0880  0.5073
  328MPD2    C4 4978   4.239   1.753  17.291 -0.4136  0.2288  0.1091
  328MPD2    C5 4979   4.331   1.744  17.387  0.9761 -0.1379  0.4421
  328MPD2     H 4980   4.142   1.433  17.256 -1.3082  0.1322  1.2208
  328MPD2    H1 4981   4.241   1.846  17.235  3.5178  1.0597  1.6681
  328MPD2    H2 4982   4.421   1.614  17.534  1.8432 -2.6740 -0.8822
  328MPD2    H3 4983   4.385   1.834  17.414  0.6012  0.2356 -0.0669
  328MPD2     N 4984   4.081   1.672  17.141  0.6408 -0.3134  0.0120
  328MPD2    H5 4985   4.056   1.768  17.123  2.5624  0.2034  0.1330
  328MPD2    N1 4986   4.334   1.379  17.458 -0.2964 -0.1709  0.1586
  328MPD2    H7 4987   4.387   1.389  17.544 -0.2521 -0.4425  0.1650
  329TMC3    C1 4988   4.384   1.149  17.480  0.1455 -0.1067 -0.9067
  329TMC3    C2 4989   4.499   1.183  17.551  0.4375  0.0454 -0.5848
  329TMC3    C3 4990   4.593   1.092  17.581  0.8404  0.2137  0.2133
  329TMC3    C4 4991   4.366   1.019  17.444  0.4878  0.1328 -0.1456
  329TMC3    C5 4992   4.461   0.927  17.476  0.7300 -0.0083 -0.7498
  329TMC3    C6 4993   4.580   0.962  17.541 -0.4464 -0.1288  0.2513
  329TMC3     C 4994   4.311   1.257  17.407 -0.6951 -0.0690  1.0913
  329TMC3     O 4995   4.237   1.219  17.316 -0.2410 -0.2172  0.0132
  329TMC3     H 4996   4.531   1.286  17.546 -1.2922  0.6707  1.0976
  329TMC3    H1 4997   4.282   0.999  17.379  0.5056  2.1785 -0.7925
  329TMC3    H2 4998   4.661   0.890  17.541  0.3653  0.8059  0.7884
  329TMC3    C7 4999   4.456   0.788  17.423 -0.9882  0.7282 -1.1472
  329TMC3    C8 5000   4.717   1.134  17.648  0.6722  0.6879  0.0580
  329TMC3    O1 5001   4.396   0.770  17.320 -0.2275 -0.8633  0.1920
  329TMC3    O2 5002   0.070   1.057  17.641  0.6001  0.1550  0.0904
  330TMC3    C1 5003   2.156   0.450  10.278  0.3279 -0.1370 -0.0450
  330TMC3    C2 5004   2.140   0.399  10.159 -0.5297 -0.0814  0.1121
  330TMC3    C3 5005   2.243   0.403  10.069  0.4801  0.5606  0.9339
  330TMC3    C4 5006   2.276   0.502  10.322  0.4717  0.3454  0.2906
  330TMC3    C5 5007   2.382   0.498  10.228  0.0785 -0.2168  0.4719
  330TMC3    C6 5008   2.359   0.460  10.101 -0.3018 -0.7953 -0.3819
  330TMC3     C 5009   2.058   0.446  10.385 -0.1441 -0.2892  0.2614
  330TMC3     O 5010   2.092   0.444  10.500  0.2301  0.6514  0.4069
  330TMC3     H 5011   2.046   0.350  10.136 -1.7424  1.5878  1.5144
  330TMC3    H1 5012   2.294   0.518  10.428  0.6472 -0.4249  0.3839
  330TMC3    H2 5013   2.433   0.474  10.023  0.7875 -0.5103  0.6850
  330TMC3    C7 5014   2.501   0.440  10.291 -0.1411 -0.8132 -0.0631
  330TMC3    C8 5015   2.253   0.315   9.956 -0.1476  0.6033 -0.3782
  330TMC3    O1 5016   2.522   0.473  10.406 -0.6588 -0.1247 -0.0914
  330TMC3    O2 5017   2.361   0.284   9.915  0.4253  0.7304  0.1315
  331MPD2     C 5018   4.646   4.637  12.601 -0.4627 -0.3693 -0.7532
  331MPD2    C1 5019   0.042   4.608  12.596 -0.3946 -0.7258 -0.6958
  331MPD2    C2 5020   0.091   4.492  12.533 -1.1872 -0.5165 -0.2013
  331MPD2    C3 5021   0.006   4.400  12.484 -0.1923  0.0292 -0.6283
  331MPD2    C4 5022   4.612   4.422  12.496 -0.3868 -0.4628  0.0295
  331MPD2    C5 5023   4.567   4.542  12.552  0.1778 -0.4649 -0.0165
  331MPD2     H 5024   0.197   4.472  12.524 -1.3626 -0.4289 -2.4300
  331MPD2    H1 5025   4.541   4.346  12.466 -0.2396 -0.2764 -0.7810
  331MPD2    H2 5026   4.599   4.728  12.638  2.0489 -0.6747  3.0958
  331MPD2    H3 5027   4.460   4.557  12.563  0.4456  1.8142 -0.6306
  331MPD2     N 5028   0.065   4.291  12.417 -0.2374  0.9330 -0.4307
  331MPD2    H5 5029   0.166   4.295  12.404 -0.6375  0.3554 -3.6851
  331MPD2    N1 5030   0.132   4.700  12.657 -0.5133  0.2747 -0.1225
  331MPD2    H7 5031   0.106   0.047  12.702 -0.6779 -0.4926  1.2734
  332TMC3    C1 5032   0.101   4.103  12.283  0.8581  0.1239  0.4151
  332TMC3    C2 5033   0.187   4.165  12.198  0.0418  0.5755 -0.4999
  332TMC3    C3 5034   0.319   4.131  12.209 -0.4580  0.3179  0.1531
  332TMC3    C4 5035   0.147   4.012  12.376 -0.1493  0.6267  0.4486
  332TMC3    C5 5036   0.281   3.983  12.391  0.0854  0.5649  0.3490
  332TMC3    C6 5037   0.366   4.043  12.301 -0.2854  0.6187  0.4409
  332TMC3     C 5038   0.007   4.200  12.336  0.0951 -0.3469 -0.4447
  332TMC3     O 5039   4.634   4.188  12.300  0.4972  0.0984  0.9976
  332TMC3     H 5040   0.154   4.249  12.139 -0.6751 -1.5626 -3.1555
  332TMC3    H1 5041   0.078   3.979  12.453 -0.2298 -1.3199 -0.4634
  332TMC3    H2 5042   0.468   4.008  12.286 -0.5048 -0.2649  1.0102
  332TMC3    C7 5043   0.328   3.902  12.500  0.4214 -0.0708  0.0000
  332TMC3    C8 5044   0.415   4.205  12.132 -0.1420  0.0817 -0.1714
  332TMC3    O1 5045   0.259   3.808  12.546  0.1348  0.4839 -0.0992
  332TMC3    O2 5046   0.537   4.196  12.161 -0.2288  0.2772  0.4278
  333MPD2     C 5047   0.395   4.595  11.327  0.1024 -0.7304 -0.3915
  333MPD2    C1 5048   0.461   4.504  11.246 -0.1707  0.3576  0.3172
  333MPD2    C2 5049   0.433   4.366  11.260  0.1948 -0.5380 -0.1795
  333MPD2    C3 5050   0.328   4.335  11.348 -0.9966 -0.7621 -0.2872
  333MPD2    C4 5051   0.251   4.427  11.412 -0.5862  0.7377 -0.5848
  333MPD2    C5 5052   0.288   4.561  11.408  0.2542 -0.0651  0.0621
  333MPD2     H 5053   0.492   4.286  11.219  2.6879  1.5097 -0.6083
  333MPD2    H1 5054   0.173   4.402  11.482 -0.1586 -0.4608 -0.5334
  333MPD2    H2 5055   0.429   4.698  11.324  1.6088 -1.2563 -1.5957
  333MPD2    H3 5056   0.229   4.631  11.466 -0.5995 -0.2889 -0.5230
  333MPD2     N 5057   0.309   4.195  11.373  0.3897  0.3192 -0.1351
  333MPD2    H5 5058   0.377   4.133  11.331  0.2241  0.0580 -0.0164
  333MPD2    N1 5059   0.560   4.558  11.157  0.3316 -0.2246  0.4067
  333MPD2    H7 5060   0.579   4.655  11.178 -1.8622  0.0283  1.1873
  334TMC3    C1 5061   0.710   4.572  10.991  1.0855  0.3864 -0.4982
  334TMC3    C2 5062   0.736   4.535  10.862 -0.0906 -0.1743 -0.0421
  334TMC3    C3 5063   0.822   4.618  10.805 -0.4986 -0.3498 -0.2355
  334TMC3    C4 5064   0.757   4.689  11.056 -0.0994  0.0261  0.2071
  334TMC3    C5 5065   0.822   0.034  10.973  0.4066 -0.0097  0.7488
  334TMC3    C6 5066   0.859   0.002  10.847  0.0751  0.3996  0.8768
  334TMC3     C 5067   0.623   4.485  11.057 -0.4759  0.1581  0.0747
  334TMC3     O 5068   0.596   4.375  11.005 -0.1714 -0.3030  0.9589
  334TMC3     H 5069   0.715   4.436  10.822 -1.1863 -0.2456  0.7138
  334TMC3    H1 5070   0.750   4.705  11.163  1.1255 -1.7859  0.5563
  334TMC3    H2 5071   0.914   0.070  10.783 -1.2260  0.7275  0.1000
  334TMC3    C7 5072   0.847   0.172  11.017  0.9391 -0.3566  0.4569
  334TMC3    C8 5073   0.879   4.573  10.679 -0.4930 -0.0934  0.4634
  334TMC3    O1 5074   0.926   0.241  10.950  0.6112 -0.0688 -0.1103
  334TMC3    O2 5075   0.814   4.496  10.610 -0.1705 -0.2961 -0.2331
  335TMC3    C1 5076   0.026   1.594  17.647  0.5822  0.7428  0.4856
  335TMC3    C2 5077   4.701   1.531  17.548 -0.0618 -0.4847 -0.0903
  335TMC3    C3 5078   0.045   1.470  17.454  0.3859  0.5209  0.3480
  335TMC3    C4 5079   0.164   1.599  17.656  0.1229  0.1413  0.3476
  335TMC3    C5 5080   0.245   1.551  17.554 -0.0204 -0.2180 -0.1987
  335TMC3    C6 5081   0.181   1.481  17.453  0.3187 -0.2254  0.1907
  335TMC3     C 5082   4.679   1.666  17.736  0.0656  0.0646 -0.5833
  335TMC3     O 5083   4.557   1.658  17.726 -0.4532  0.1871  0.4250
  335TMC3     H 5084   4.595   1.535  17.528 -0.0936 -1.9402 -0.2023
  335TMC3    H1 5085   0.216   1.662  17.728 -0.9760  1.3181  0.1143
  335TMC3    H2 5086   0.236   1.435  17.373 -0.7577  0.5070 -0.9771
  335TMC3    C7 5087   0.388   1.516  17.569  0.7341  0.1377  0.2149
  335TMC3    C8 5088   4.724   1.389  17.352 -0.9759  0.1448 -0.0555
  335TMC3    O1 5089   0.446   1.489  17.465  0.0455 -0.2115  0.2298
  335TMC3    O2 5090   4.608   1.409  17.323 -0.5259 -0.0455  0.1398
  336MPD2     C 5091   4.566   3.971  16.092  0.2802  0.3589 -0.7625
  336MPD2    C1 5092   4.572   3.940  15.960 -0.2414  0.2631 -0.3359
  336MPD2    C2 5093   4.579   3.806  15.922  0.6440  0.2091  0.5156
  336MPD2    C3 5094   4.586   3.707  16.021  0.3250  0.0557  0.3242
  336MPD2    C4 5095   4.572   3.749  16.151 -0.0346 -0.0416 -0.3321
  336MPD2    C5 5096   4.560   3.878  16.184  0.0771  0.5986  0.2664
  336MPD2     H 5097   4.595   3.792  15.815  1.0296 -2.2846  0.8935
  336MPD2    H1 5098   4.601   3.679  16.228  0.8355  0.2118 -0.4238
  336MPD2    H2 5099   4.547   4.074  16.119  0.7178  0.0866  0.5955
  336MPD2    H3 5100   4.557   3.908  16.288  1.7747 -0.6769  0.6937
  336MPD2     N 5101   4.612   3.569  16.000  0.2748 -0.1588  0.3813
  336MPD2    H5 5102   4.608   3.505  16.079 -2.4569  0.5816  0.8209
  336MPD2    N1 5103   4.567   4.036  15.863  0.0298 -0.7160  0.8143
  336MPD2    H7 5104   4.523   4.014  15.774 -0.6283  1.8851  0.4861
  337TMC3    C1 5105   4.592   4.255  15.762 -0.7147 -0.4666 -0.5199
  337TMC3    C2 5106   4.461   4.258  15.722  0.5780 -1.2065 -0.3648
  337TMC3    C3 5107   4.431   4.343  15.618  0.5127  0.0983  0.3030
  337TMC3    C4 5108   4.693   4.335  15.717  0.7048  0.1426 -0.7025
  337TMC3    C5 5109   4.652   4.433  15.633  0.0043  0.3777  0.6691
  337TMC3    C6 5110   4.521   4.445  15.581 -0.1301  0.0026  0.4659
  337TMC3     C 5111   4.628   4.164  15.870 -0.9291  0.2273  0.3041
  337TMC3     O 5112   4.689   4.209  15.966 -0.1770  0.1889 -0.7910
  337TMC3     H 5113   4.390   4.179  15.742 -0.4440 -0.4884 -1.1570
  337TMC3    H1 5114   0.058   4.330  15.743  0.4932  2.0478  0.5431
  337TMC3    H2 5115   4.495   4.511  15.499  0.7164 -1.5667 -1.0670
  337TMC3    C7 5116   0.004   4.543  15.603 -0.1346 -0.3133  0.2381
  337TMC3    C8 5117   4.322   4.303  15.530  0.3300  0.3508  0.6568
  337TMC3    O1 5118   0.117   4.543  15.642  0.0719 -0.3695 -0.2062
  337TMC3    O2 5119   4.250   4.218  15.578 -0.0505  0.2152 -0.1379
  338MPD2     C 5120   0.328   3.424   0.908 -0.1921 -0.5982  0.0375
  338MPD2    C1 5121   0.301   3.388   0.775 -0.4483  0.3788  0.2503
  338MPD2    C2 5122   0.181   3.424   0.714  0.2101 -0.7812  0.0026
  338MPD2    C3 5123   0.084   3.488   0.792  1.2333 -0.1530  0.3468
  338MPD2    C4 5124   0.120   3.531   0.924 -0.6538 -0.4059  0.8591
  338MPD2    C5 5125   0.241   3.502   0.983  0.2428 -0.5934 -0.2080
  338MPD2     H 5126   0.163   3.390   0.613 -1.2050 -1.2630  0.4272
  338MPD2    H1 5127   0.043   3.574   0.987 -0.0027  0.3592  1.1214
  338MPD2    H2 5128   0.428   3.406   0.946 -1.5264 -0.2488  3.7156
  338MPD2    H3 5129   0.268   3.550   1.076 -0.5575 -1.4123  0.4441
  338MPD2     N 5130   4.698   3.498   0.733  0.3836  0.1037  0.2850
  338MPD2    H5 5131   4.678   3.467   0.638  0.7526 -0.4021  0.3732
  338MPD2    N1 5132   0.400   3.322   0.699 -0.0411 -0.6152  0.8725
  338MPD2    H7 5133   0.381   3.330   0.600 -1.1672  2.1098  1.3115
  339TMC3    C1 5134   4.482   3.527   0.709 -0.6887  0.2152 -0.0749
  339TMC3    C2 5135   4.412   3.407   0.739  0.2605  0.3267  0.3905
  339TMC3    C3 5136   4.344   3.359   0.629  0.3395  0.0326 -0.6532
  339TMC3    C4 5137   4.510   3.566   0.581  0.2943  0.6354 -0.6666
  339TMC3    C5 5138   4.442   3.513   0.485 -0.0683  0.5849 -0.1585
  339TMC3    C6 5139   4.355   3.413   0.503  0.1186 -0.2754 -0.0856
  339TMC3     C 5140   4.593   3.546   0.797 -0.5115 -0.1500 -0.1075
  339TMC3     O 5141   4.571   3.574   0.914 -0.4264 -0.1469 -0.5163
  339TMC3     H 5142   4.393   3.380   0.842  1.1323  0.9319  0.7140
  339TMC3    H1 5143   4.582   3.647   0.578  0.8365  0.1733 -0.0658
  339TMC3    H2 5144   4.321   3.348   0.423  1.0297 -0.9655  0.0901
  339TMC3    C7 5145   4.482   3.556   0.356  0.3444  0.3085  0.0252
  339TMC3    C8 5146   4.240   3.264   0.650 -0.3930 -0.6152 -0.8927
  339TMC3    O1 5147   4.566   3.651   0.358 -0.4136  0.1091  0.5317
  339TMC3    O2 5148   4.150   3.250   0.566 -0.3041  0.1701 -0.1257
  340MPD2     C 5149   4.530   0.526  11.091 -0.5346 -0.6009 -0.3525
  340MPD2    C1 5150   4.582   0.644  11.047 -0.6595 -0.4951 -0.3620
  340MPD2    C2 5151   4.606   0.744  11.137 -0.3177  0.2286 -0.4409
  340MPD2    C3 5152   4.579   0.729  11.268 -0.3955  0.2013  0.0223
  340MPD2    C4 5153   4.521   0.608  11.311 -0.3806  0.1526 -0.0190
  340MPD2    C5 5154   4.496   0.509  11.223  0.3436  0.0891  0.7997
  340MPD2     H 5155   4.647   0.841  11.114 -3.0951  1.5416  0.0770
  340MPD2    H1 5156   4.521   0.577  11.415  0.3690 -1.7594 -0.5890
  340MPD2    H2 5157   4.501   0.448  11.021  1.3824 -0.4655 -1.2838
  340MPD2    H3 5158   4.459   0.411  11.252 -1.1675  0.5262  0.3140
  340MPD2     N 5159   4.634   0.819  11.368 -0.4491 -0.1851  0.3004
  340MPD2    H5 5160   4.617   0.797  11.466 -3.9116 -1.7046 -0.6638
  340MPD2    N1 5161   4.604   0.657  10.907 -0.4469  0.2060 -0.3872
  340MPD2    H7 5162   4.593   0.578  10.844 -0.5068  0.5919 -0.8575
  341TMC3    C1 5163   4.704   0.742  10.716 -0.1695  0.6613  0.0194
  341TMC3    C2 5164   4.685   0.618  10.658 -0.3256 -0.8552  0.1910
  341TMC3    C3 5165   4.731   0.610  10.530  0.4681  0.5261 -0.6946
  341TMC3    C4 5166   0.021   0.846  10.648  0.3136 -0.0092  0.6543
  341TMC3    C5 5167   0.054   0.822  10.514 -0.2794  0.4055  0.1144
  341TMC3    C6 5168   0.047   0.705  10.458 -0.0799 -0.2275 -0.6963
  341TMC3     C 5169   4.656   0.765  10.845  0.4153  0.3181  0.2067
  341TMC3     O 5170   4.669   0.875  10.889 -0.3681  0.1261  0.3491
  341TMC3     H 5171   4.665   0.530  10.718 -1.1429 -2.2330 -2.1108
  341TMC3    H1 5172   0.033   0.947  10.687 -0.7014  0.6455 -0.7354
  341TMC3    H2 5173   0.083   0.692  10.357 -0.0354 -0.7721 -0.6100
  341TMC3    C7 5174   0.113   0.925  10.429 -0.1279  0.9517  0.5594
  341TMC3    C8 5175   4.702   0.490  10.464 -0.6056  0.3811  0.4025
  341TMC3    O1 5176   0.112   0.900  10.311  0.0718 -0.1642  0.6897
  341TMC3    O2 5177   4.715   0.397  10.539 -0.1411  0.1563 -0.0812
  342MPD2     C 5178   3.316   4.374   0.144  0.3773 -0.6088  0.0792
  342MPD2    C1 5179   3.345   4.389   0.010 -0.2503 -0.6074  0.5998
  342MPD2    C2 5180   3.349   4.515  17.708 -0.4371 -0.7357 -0.1698
  342MPD2    C3 5181   3.339   4.629   0.027 -0.4551  0.3284  0.8131
  342MPD2    C4 5182   3.315   4.612   0.163 -0.4102 -0.1384  0.0568
  342MPD2    C5 5183   3.306   4.488   0.220 -0.3204  0.3320  0.2417
  342MPD2     H 5184   3.368   4.521  17.601  1.3560 -1.8079  0.0978
  342MPD2    H1 5185   3.305   4.705   0.218 -0.3692  0.7468 -1.4469
  342MPD2    H2 5186   3.303   4.276   0.188 -0.2008  0.0148  1.3040
  342MPD2    H3 5187   3.277   4.470   0.322 -0.0589 -0.4373  0.1771
  342MPD2     N 5188   3.373   0.017  17.737 -0.2542  0.0293  0.1324
  342MPD2    H5 5189   3.355   0.092   0.044  0.1286  0.1402  0.1119
  342MPD2    N1 5190   3.371   4.284  17.678 -0.3022 -0.5530  0.0915
  342MPD2    H7 5191   3.371   4.302  17.579  2.1095 -1.7187 -0.1345
  343TMC3    C1 5192   3.393   4.055  17.606  0.1011  0.1216  0.5731
  343TMC3    C2 5193   3.488   4.078  17.513 -0.4546  0.9069  0.3222
  343TMC3    C3 5194   3.506   3.982  17.423 -0.3730 -0.2237 -0.6899
  343TMC3    C4 5195   3.327   3.940  17.627  0.3258  0.1727  0.2521
  343TMC3    C5 5196   3.351   3.833  17.543  0.4808  0.7279  0.6147
  343TMC3    C6 5197   3.441   3.862  17.436  0.3452 -0.2248 -0.3450
  343TMC3     C 5198   3.367   4.148  17.714 -0.6790 -0.0959  0.3160
  343TMC3     O 5199   3.355   4.096   0.066  0.3305  0.4558  0.5426
  343TMC3     H 5200   3.555   4.163  17.523  0.7218 -0.1919  1.6275
  343TMC3    H1 5201   3.259   3.927  17.711  0.1209  0.7987  0.1847
  343TMC3    H2 5202   3.447   3.793  17.353  0.9100 -0.3773 -0.1784
  343TMC3    C7 5203   3.232   3.760  17.506 -0.5039 -0.7598 -0.8397
  343TMC3    C8 5204   3.609   4.006  17.323 -0.2457  0.3087 -1.4788
  343TMC3    O1 5205   3.194   3.773  17.390  0.5260 -0.2684  0.7435
  343TMC3    O2 5206   3.640   4.119  17.297 -0.1698  0.4314 -0.4642
  344MPD2     C 5207   3.292   3.672  10.576 -0.5049 -0.6328 -0.2377
  344MPD2    C1 5208   3.384   3.619  10.660  0.4041  0.2392 -0.5229
  344MPD2    C2 5209   3.515   3.660  10.656 -0.4998 -0.0255 -0.3025
  344MPD2    C3 5210   3.558   3.760  10.566  0.2655 -0.2723 -0.7473
  344MPD2    C4 5211   3.462   3.807  10.479  0.2216 -0.7572  0.3541
  344MPD2    C5 5212   3.331   3.765  10.491  0.1816 -0.2824 -0.2243
  344MPD2     H 5213   3.588   3.617  10.723 -1.4970  0.7933  1.2992
  344MPD2    H1 5214   3.480   3.879  10.400 -1.7967 -2.3775 -1.5763
  344MPD2    H2 5215   3.186   3.652  10.584 -0.8187  1.1025 -0.0307
  344MPD2    H3 5216   3.255   3.817  10.435 -1.3226 -0.8505  1.2861
  344MPD2     N 5217   3.685   3.809  10.541 -0.1689  0.0954 -0.1169
  344MPD2    H5 5218   3.697   3.875  10.465 -0.4783  0.1358 -0.1338
  344MPD2    N1 5219   3.356   3.531  10.760 -0.3159  0.4624 -0.1929
  344MPD2    H7 5220   3.433   3.489  10.812 -1.3387  1.3003  2.0216
  345TMC3    C1 5221   3.919   3.859  10.582 -0.2146  0.0774  0.4575
  345TMC3    C2 5222   4.009   3.889  10.684  1.0501  0.1778  0.5302
  345TMC3    C3 5223   4.118   3.968  10.653  0.0243  0.1171 -0.7782
  345TMC3    C4 5224   3.933   3.893  10.454  0.1770  0.0383 -0.3483
  345TMC3    C5 5225   4.047   3.965  10.426 -0.1054 -0.0357  0.3688
  345TMC3    C6 5226   4.137   4.005  10.524 -0.3001  0.3658  0.2015
  345TMC3     C 5227   3.794   3.792  10.627  0.6991 -1.2087 -0.6218
  345TMC3     O 5228   3.800   3.721  10.728 -0.0828  0.3970 -0.5551
  345TMC3     H 5229   3.978   3.866  10.786 -0.8485  0.1802 -0.0328
  345TMC3    H1 5230   3.855   3.876  10.381 -0.3145 -1.1130  0.4240
  345TMC3    H2 5231   4.228   4.052  10.487 -0.6994 -0.7493 -2.1733
  345TMC3    C7 5232   4.033   4.063  10.324 -0.2298  0.1479 -0.2322
  345TMC3    C8 5233   4.170   4.076  10.737 -0.2488  0.4847  0.2361
  345TMC3    O1 5234   4.060   4.175  10.360  0.3071  0.4367  0.2557
  345TMC3    O2 5235   4.224   4.166  10.672 -0.2622 -0.0760 -0.2867
  346MPD2     C 5236   4.134   1.308  14.713 -0.0784  0.6783 -0.7440
  346MPD2    C1 5237   4.238   1.242  14.653  0.2850  0.1852 -1.0371
  346MPD2    C2 5238   4.368   1.252  14.706  1.0320  0.2820 -0.1600
  346MPD2    C3 5239   4.391   1.319  14.823 -0.4464  0.6557 -0.7746
  346MPD2    C4 5240   4.291   1.392  14.881 -0.0740  0.3527  0.5823
  346MPD2    C5 5241   4.165   1.386  14.825  0.1317  0.0160 -0.2176
  346MPD2     H 5242   4.448   1.198  14.656 -0.8411 -3.4779  0.8500
  346MPD2    H1 5243   4.313   1.447  14.972  1.8047 -0.0271  0.3461
  346MPD2    H2 5244   4.031   1.302  14.679  0.1615 -0.6666 -1.2458
  346MPD2    H3 5245   4.081   1.426  14.880 -1.6945 -0.1095 -2.9064
  346MPD2     N 5246   4.528   1.318  14.864  0.1022  0.5966  0.2449
  346MPD2    H5 5247   4.593   1.270  14.803 -1.0046  0.4015 -0.7945
  346MPD2    N1 5248   4.224   1.154  14.545 -1.0536 -0.3811  0.7102
  346MPD2    H7 5249   4.310   1.119  14.505 -0.9662  1.4634 -0.7515
  347TMC3    C1 5250   4.722   1.386  14.965  0.6902  0.3569  0.6597
  347TMC3    C2 5251   0.035   1.382  14.839 -0.0646 -0.1533  0.1744
  347TMC3    C3 5252   0.176   1.375  14.828  0.2385  0.4163  0.9557
  347TMC3    C4 5253   0.056   1.387  15.081 -0.7160 -0.2258  0.2858
  347TMC3    C5 5254   0.194   1.376  15.073  0.4843 -0.6074 -0.0183
  347TMC3    C6 5255   0.252   1.371  14.941  0.1471  0.6272  0.0151
  347TMC3     C 5256   4.583   1.377  14.973 -0.5960  0.5911 -0.4365
  347TMC3     O 5257   4.523   1.397  15.080  0.3017  0.0685 -0.0483
  347TMC3     H 5258   4.715   1.399  14.750 -1.4271  2.3318  1.5598
  347TMC3    H1 5259   0.004   1.386  15.176 -0.1832  1.1336  0.6031
  347TMC3    H2 5260   0.358   1.352  14.930  0.1569  2.5931 -3.0802
  347TMC3    C7 5261   0.280   1.341  15.191 -0.1504 -0.1011 -0.0980
  347TMC3    C8 5262   0.234   1.303  14.715  0.2609 -0.3717 -0.1009
  347TMC3    O1 5263   0.389   1.293  15.173 -0.0928  0.4519  0.3915
  347TMC3    O2 5264   0.301   1.204  14.737 -1.0995 -0.0612 -0.2981
  348MPD2     C 5265   2.737   0.053  12.702  0.3609 -0.8930 -0.5890
  348MPD2    C1 5266   2.705   4.722  12.588  0.0219 -0.7054  0.2970
  348MPD2    C2 5267   2.646   0.048  12.482 -0.0289  0.1433  0.1085
  348MPD2    C3 5268   2.641   0.188  12.477  0.2369  0.0935  0.0621
  348MPD2    C4 5269   2.671   0.259  12.589 -0.1223  0.0554  0.6989
  348MPD2    C5 5270   2.715   0.190  12.706  0.2943 -0.6377 -0.1239
  348MPD2     H 5271   2.622   4.729  12.394  0.4834  0.8908 -0.5346
  348MPD2    H1 5272   2.680   0.367  12.588 -1.6803  0.1795 -0.2808
  348MPD2    H2 5273   2.798   0.006  12.779  1.9996  1.8969 -0.2017
  348MPD2    H3 5274   2.742   0.251  12.791  0.2029  1.4665 -1.5980
  348MPD2     N 5275   2.611   0.249  12.355 -0.7174  0.6704  0.6321
  348MPD2    H5 5276   2.635   0.348  12.353  1.9928 -0.0423 -1.8375
  348MPD2    N1 5277   2.734   4.585  12.571 -0.0164 -0.5553  0.0349
  348MPD2    H7 5278   2.724   4.544  12.479 -0.0970 -1.6776  0.5422
  349TMC3    C1 5279   2.880   4.402  12.586  0.0142 -0.1704 -0.4611
  349TMC3    C2 5280   2.905   4.281  12.645 -0.2374  0.3775 -0.5598
  349TMC3    C3 5281   2.991   4.199  12.573 -0.7390  0.0502 -0.8415
  349TMC3    C4 5282   2.949   4.449  12.482 -0.2364 -0.5547  0.9093
  349TMC3    C5 5283   3.044   4.369  12.429  0.1060  0.2722 -0.4861
  349TMC3    C6 5284   3.059   4.243  12.465 -0.4886 -0.0556  0.4117
  349TMC3     C 5285   2.802   4.498  12.656  0.1845  0.2427  0.5041
  349TMC3     O 5286   2.824   4.499  12.774  0.2967  0.1794 -0.3136
  349TMC3     H 5287   2.851   4.264  12.737 -0.8856 -0.9254 -1.1946
  349TMC3    H1 5288   2.934   4.551  12.450  0.6798 -0.5753  0.4089
  349TMC3    H2 5289   3.113   4.170  12.406 -0.3518 -0.5411  1.1283
  349TMC3    C7 5290   3.079   4.395  12.292 -0.6852  0.3089 -0.0108
  349TMC3    C8 5291   3.015   4.077  12.643  0.3322 -0.2177 -0.6975
  349TMC3    O1 5292   3.064   4.305  12.215  0.0665  0.0528  0.4870
  349TMC3    O2 5293   2.957   4.064  12.750 -0.3597  0.0013 -0.4727
  350MPD2     C 5294   1.346   3.239  10.034 -0.0951  0.0102 -0.1997
  350MPD2    C1 5295   1.408   3.120  10.065 -0.2860  1.0303 -0.3082
  350MPD2    C2 5296   1.552   3.125  10.065 -0.1027  0.0617  0.2381
  350MPD2    C3 5297   1.624   3.240  10.067 -0.6098 -0.6265 -0.3803
  350MPD2    C4 5298   1.553   3.358  10.039 -0.1695 -0.1755  0.3962
  350MPD2    C5 5299   1.414   3.352  10.023 -0.4271 -0.6051  0.9674
  350MPD2     H 5300   1.598   3.029  10.081  2.3898  0.9023 -1.8091
  350MPD2    H1 5301   1.606   3.453  10.036 -0.7990  0.1415 -0.3777
  350MPD2    H2 5302   1.238   3.243  10.031 -0.1235 -0.0909  1.0041
  350MPD2    H3 5303   1.360   3.442   9.996  0.1920  0.0560  1.9038
  350MPD2     N 5304   1.761   3.236  10.077 -0.1948  0.4530  0.0607
  350MPD2    H5 5305   1.796   3.141  10.068  0.9052  0.7579  1.1572
  350MPD2    N1 5306   1.338   3.001  10.089 -0.0926 -0.2691 -0.0717
  350MPD2    H7 5307   1.397   2.918  10.102  0.9694  0.2182 -1.8280
  351TMC3    C1 5308   1.175   2.847  10.141 -0.0114 -0.3088  0.5816
  351TMC3    C2 5309   1.261   2.740  10.101 -0.0435 -0.5435 -0.2891
  351TMC3    C3 5310   1.224   2.619  10.141  0.6017 -0.3930 -0.2231
  351TMC3    C4 5311   1.066   2.832  10.222  0.0428  0.5485  0.4259
  351TMC3    C5 5312   1.043   2.707  10.270  0.7213  0.1546 -0.2081
  351TMC3    C6 5313   1.116   2.593  10.228  0.1112 -0.2417  0.5157
  351TMC3     C 5314   1.208   2.985  10.106  0.7482 -0.0815 -0.0074
  351TMC3     O 5315   1.122   3.072  10.119  0.7732 -0.0288 -0.1366
  351TMC3     H 5316   1.346   2.762  10.037  0.5422  1.6987  1.2241
  351TMC3    H1 5317   0.996   2.915  10.234 -0.5658  0.0620  0.2334
  351TMC3    H2 5318   1.097   2.495  10.270 -1.3177  0.4657  1.5688
  351TMC3    C7 5319   0.953   2.700  10.385  0.6183 -0.7133  0.4379
  351TMC3    C8 5320   1.304   2.504  10.110 -0.1389 -0.1731 -0.2092
  351TMC3    O1 5321   0.931   2.804  10.443  0.5349  0.2205 -0.5732
  351TMC3    O2 5322   1.251   2.393  10.108  0.1645  0.6555 -0.3403
  352MPD2     C 5323   1.527   0.220   1.340 -0.4082  0.2028  0.1895
  352MPD2    C1 5324   1.401   0.206   1.284 -0.2655  0.5133  0.1395
  352MPD2    C2 5325   1.366   0.086   1.228  0.3632 -0.3654  0.7857
  352MPD2    C3 5326   1.447   4.715   1.231 -0.1047  0.3932  0.6403
  352MPD2    C4 5327   1.576   4.732   1.288 -0.3486  0.1278  0.0576
  352MPD2    C5 5328   1.610   0.113   1.345 -0.3533  0.5992 -0.5089
  352MPD2     H 5329   1.266   0.069   1.191  0.5554  2.1152 -0.9194
  352MPD2    H1 5330   1.646   4.649   1.292 -1.2175 -0.6198 -0.1981
  352MPD2    H2 5331   1.550   0.308   1.399  1.8694 -1.0218  1.1480
  352MPD2    H3 5332   1.708   0.111   1.391 -0.0062 -0.0784 -1.2633
  352MPD2     N 5333   1.411   4.586   1.181  0.4799  0.4554 -0.0214
  352MPD2    H5 5334   1.485   4.517   1.179  0.6331  0.6036  0.4516
  352MPD2    N1 5335   1.315   0.315   1.292 -0.4983  0.8325  0.2825
  352MPD2    H7 5336   1.343   0.392   1.353 -0.4161  0.4835  0.6819
  353TMC3    C1 5337   1.290   4.413   1.081 -0.1610  0.0084  0.5500
  353TMC3    C2 5338   1.393   4.326   1.103  0.2785  0.0575 -0.1783
  353TMC3    C3 5339   1.369   4.191   1.077 -0.3206 -0.0500  0.7723
  353TMC3    C4 5340   1.168   4.368   1.049  0.4951 -0.2443  0.2642
  353TMC3    C5 5341   1.154   4.232   1.027 -0.2204  0.4431 -0.6893
  353TMC3    C6 5342   1.250   4.140   1.044  0.6951  0.3751  0.1672
  353TMC3     C 5343   1.294   4.555   1.118 -0.6697 -0.2450  0.3803
  353TMC3     O 5344   1.189   4.616   1.105 -0.3964 -0.1818  0.3834
  353TMC3     H 5345   1.493   4.365   1.118 -0.8897  4.0795 -2.8126
  353TMC3    H1 5346   1.091   4.442   1.031  1.7669  0.3796 -2.5796
  353TMC3    H2 5347   1.220   4.036   1.050  0.5355  0.4423  0.5553
  353TMC3    C7 5348   1.016   4.190   1.005 -0.3803  0.3016  0.6113
  353TMC3    C8 5349   1.480   4.101   1.062  0.5248  0.0136  0.4124
  353TMC3    O1 5350   1.012   4.093   0.939  0.0620  0.1880  0.1861
  353TMC3    O2 5351   1.577   4.128   1.135 -0.3838  0.7033  0.0878
  354TMC3    C1 5352   1.778   1.306  13.648 -0.5274 -0.2855 -0.6643
  354TMC3    C2 5353   1.740   1.418  13.578  1.0907  0.1830  0.4521
  354TMC3    C3 5354   1.727   1.400  13.442  0.3031 -0.3574  0.3563
  354TMC3    C4 5355   1.790   1.185  13.596 -0.0504 -0.2828 -0.2768
  354TMC3    C5 5356   1.790   1.172  13.461 -0.3536  0.0734  0.4966
  354TMC3    C6 5357   1.757   1.283  13.384 -0.2307 -0.3855  0.1608
  354TMC3     C 5358   1.804   1.317  13.796 -0.3980 -0.0848  0.2546
  354TMC3     O 5359   1.811   1.211  13.860  0.3491  0.1188 -0.0881
  354TMC3     H 5360   1.709   1.510  13.626 -0.0923 -0.2503  0.5153
  354TMC3    H1 5361   1.836   1.103  13.651  0.0277 -0.5451 -0.7282
  354TMC3    H2 5362   1.753   1.271  13.276 -1.9091  0.4563  0.1380
  354TMC3    C7 5363   1.882   1.084  13.402  0.1005  0.1410 -0.2665
  354TMC3    C8 5364   1.744   1.525  13.358  0.1661  0.4606  0.1189
  354TMC3    O1 5365   1.903   0.976  13.453  0.8766 -0.0417  0.1819
  354TMC3    O2 5366   1.790   1.513  13.245 -1.0627  0.7655  0.2015
  355MPD2     C 5367   2.222   2.428  12.278 -0.4317  0.0359  0.1512
  355MPD2    C1 5368   2.257   2.379  12.153 -0.1251 -0.0936 -0.5380
  355MPD2    C2 5369   2.382   2.311  12.138 -0.4043  0.7672  0.7956
  355MPD2    C3 5370   2.460   2.290  12.251  0.1269 -0.9248  0.4520
  355MPD2    C4 5371   2.404   2.328  12.372 -0.0216  0.0500  0.5010
  355MPD2    C5 5372   2.291   2.401  12.391  0.0786 -0.5641  0.5834
  355MPD2     H 5373   2.425   2.276  12.045 -0.1686  3.6287 -0.1869
  355MPD2    H1 5374   2.465   2.307  12.458  2.3830  3.0646 -0.4374
  355MPD2    H2 5375   2.132   2.488  12.269 -0.2613  0.0323 -1.6320
  355MPD2    H3 5376   2.265   2.434  12.491 -1.0462  2.3457 -0.6860
  355MPD2     N 5377   2.584   2.223  12.254  0.0445  0.2828 -0.4851
  355MPD2    H5 5378   2.632   2.225  12.344  1.1541 -1.8597 -1.0318
  355MPD2    N1 5379   2.169   2.400  12.046 -0.5577  0.6256 -0.9014
  355MPD2    H7 5380   2.077   2.437  12.069  0.6040  2.1780  1.1235
  356TMC3    C1 5381   2.801   2.175  12.161  0.0215 -0.7698  0.3196
  356TMC3    C2 5382   2.874   2.191  12.043  0.0257  0.8315 -0.1555
  356TMC3    C3 5383   2.992   2.262  12.040  0.7341  0.1157 -0.5639
  356TMC3    C4 5384   2.859   2.212  12.283 -0.1901  0.1539  0.3259
  356TMC3    C5 5385   2.978   2.283  12.278 -0.0302  0.2033 -0.6034
  356TMC3    C6 5386   3.041   2.313  12.158  0.0109  0.0868 -0.2182
  356TMC3     C 5387   2.656   2.195  12.143 -0.1516 -0.0011 -1.0323
  356TMC3     O 5388   2.623   2.197  12.022  0.0280 -0.3176  0.3401
  356TMC3     H 5389   2.830   2.136  11.960  0.4344  0.4686 -0.1325
  356TMC3    H1 5390   2.809   2.195  12.378  1.1125  0.1296  1.0067
  356TMC3    H2 5391   3.134   2.368  12.172  0.7067 -0.9419 -0.8131
  356TMC3    C7 5392   3.048   2.284  12.409  0.2501 -0.7632  0.6763
  356TMC3    C8 5393   3.015   2.318  11.909  0.5298 -0.2514  0.3269
  356TMC3    O1 5394   3.012   2.204  12.492 -0.1998 -0.4250  0.2045
  356TMC3    O2 5395   2.962   2.246  11.823  0.2836  0.3975  0.1797
  357MPD2     C 5396   1.918   1.687   1.013 -0.5186 -0.8251  0.1340
  357MPD2    C1 5397   1.933   1.584   1.102  0.1452 -0.0308  0.8837
  357MPD2    C2 5398   1.876   1.598   1.225  0.0842 -0.0701  0.1890
  357MPD2    C3 5399   1.802   1.717   1.262  0.6822 -0.3271 -0.4690
  357MPD2    C4 5400   1.787   1.815   1.163 -1.2951 -0.6899  0.5908
  357MPD2    C5 5401   1.857   1.801   1.043 -0.0564 -0.0271 -0.2159
  357MPD2     H 5402   1.862   1.513   1.292  0.1402 -0.7010 -0.5947
  357MPD2    H1 5403   1.730   1.907   1.177 -1.1149 -0.0532 -2.8297
  357MPD2    H2 5404   1.965   1.680   0.916  0.9552 -0.1627  0.8020
  357MPD2    H3 5405   1.850   1.881   0.970  1.6380 -1.5661 -2.0810
  357MPD2     N 5406   1.719   1.721   1.380 -0.4274 -0.2301  0.0843
  357MPD2    H5 5407   1.648   1.794   1.384 -1.1809 -0.9322 -0.2756
  357MPD2    N1 5408   2.011   1.472   1.068 -0.4965  0.2445 -0.3876
  357MPD2    H7 5409   2.051   1.484   0.976 -1.7395  1.0303 -0.8164
  358TMC3    C1 5410   2.092   1.252   1.057  0.7614  0.0454  0.3475
  358TMC3    C2 5411   2.135   1.275   0.929  0.3662 -0.3185 -0.2417
  358TMC3    C3 5412   2.259   1.237   0.893  0.3877  0.0267  0.2645
  358TMC3    C4 5413   2.157   1.168   1.143 -0.3127  0.2467 -0.6663
  358TMC3    C5 5414   2.282   1.115   1.096 -0.3612  0.6704  0.0367
  358TMC3    C6 5415   2.339   1.156   0.977 -1.2430 -0.0264 -0.4233
  358TMC3     C 5416   2.011   1.347   1.125  0.3725 -0.4449  0.1412
  358TMC3     O 5417   1.960   1.319   1.233 -0.1270  0.0019 -0.1549
  358TMC3     H 5418   2.082   1.345   0.866  0.7234  0.9973  0.9108
  358TMC3    H1 5419   2.125   1.144   1.244  1.8185 -0.8260 -0.2427
  358TMC3    H2 5420   2.429   1.106   0.941 -0.6111  0.3252  0.6537
  358TMC3    C7 5421   2.375   1.101   1.204  0.1344 -0.4416 -0.2150
  358TMC3    C8 5422   2.312   1.277   0.758  0.7750 -0.5539 -0.0218
  358TMC3    O1 5423   2.338   1.047   1.309 -0.1496 -0.3001  0.0223
  358TMC3    O2 5424   2.229   1.335   0.686 -0.0304 -0.3947 -0.1328
  359MPD2     C 5425   2.614   1.310  12.604 -0.1297 -0.4078 -0.1736
  359MPD2    C1 5426   2.583   1.181  12.628  0.8169  0.1817 -0.3336
  359MPD2    C2 5427   2.459   1.150  12.673  0.0607  0.1890  0.2227
  359MPD2    C3 5428   2.369   1.252  12.710  0.0851 -0.3222  0.1626
  359MPD2    C4 5429   2.409   1.384  12.693  1.1330 -0.6121 -0.7123
  359MPD2    C5 5430   2.527   1.414  12.641  0.5253 -0.5836 -0.2670
  359MPD2     H 5431   2.433   1.045  12.681  0.8689  0.0824  1.5333
  359MPD2    H1 5432   2.348   1.468  12.725  0.3579 -2.7801  3.4750
  359MPD2    H2 5433   2.712   1.337  12.566 -0.5168  0.5861 -0.4727
  359MPD2    H3 5434   2.558   1.517  12.627  0.4055 -0.3434  1.2488
  359MPD2     N 5435   2.245   1.223  12.761 -0.0670  0.2807  0.0978
  359MPD2    H5 5436   2.181   1.299  12.779  1.2559  0.9056  2.1716
  359MPD2    N1 5437   2.662   1.063  12.609 -0.0481  0.1300  0.3897
  359MPD2    H7 5438   2.618   0.976  12.635 -0.9975  1.0154  1.7620
  360TMC3    C1 5439   2.845   0.936  12.558  0.1937  0.2652 -0.3605
  360TMC3    C2 5440   2.988   0.931  12.550 -0.6209  0.0391  0.0354
  360TMC3    C3 5441   3.044   0.825  12.484  0.3208  0.0952  0.0374
  360TMC3    C4 5442   2.767   0.835  12.507 -0.2473 -0.4650 -0.4487
  360TMC3    C5 5443   2.830   0.718  12.458 -0.2925  0.7218  0.5219
  360TMC3    C6 5444   2.965   0.722  12.441  0.2965 -0.1805  0.1065
  360TMC3     C 5445   2.791   1.066  12.564  0.4002 -0.1035  0.3951
  360TMC3     O 5446   2.862   1.165  12.559  0.0299  0.6905  0.1508
  360TMC3     H 5447   3.045   1.021  12.570  1.8479 -1.6283  0.5189
  360TMC3    H1 5448   2.659   0.847  12.505  0.2973  4.6421 -0.6952
  360TMC3    H2 5449   3.002   0.628  12.401  0.0349 -0.8007  1.3319
  360TMC3    C7 5450   2.758   0.644  12.352  0.3546  0.0269 -0.0775
  360TMC3    C8 5451   3.159   0.858  12.400 -0.1979  0.2736 -0.1683
  360TMC3    O1 5452   2.823   0.565  12.285 -0.3469 -0.3680 -0.4946
  360TMC3    O2 5453   3.178   0.978  12.382  0.5711  0.0961 -0.1305
  361MPD2     C 5454   4.325   4.555  16.906  0.3901  0.9857  0.4178
  361MPD2    C1 5455   4.356   4.677  16.972  0.2995  0.4343  0.2356
  361MPD2    C2 5456   4.487   4.706  17.005 -0.7546 -0.7194  0.0604
  361MPD2    C3 5457   4.583   4.618  16.983 -0.3202 -0.1400  0.2895
  361MPD2    C4 5458   4.551   4.499  16.926 -0.0724  0.2356 -0.3174
  361MPD2    C5 5459   4.428   4.466  16.874  0.0799  0.1428 -0.2537
  361MPD2     H 5460   4.513   0.056  17.059  0.4839 -0.8181 -0.3760
  361MPD2    H1 5461   4.628   4.422  16.922 -2.0993 -1.7609 -1.0492
  361MPD2    H2 5462   4.220   4.532  16.893  0.7780 -1.0833  1.0918
  361MPD2    H3 5463   4.408   4.368  16.832 -2.6085  0.3601  0.4995
  361MPD2     N 5464   4.714   4.616  17.026 -0.2644 -0.7552 -0.7988
  361MPD2    H5 5465   0.031   4.533  17.008 -0.3611 -1.4246  2.0685
  361MPD2    N1 5466   4.247   0.035  16.991 -0.2294 -0.0040  0.1625
  361MPD2    H7 5467   4.271   0.133  17.005  0.1782  0.1088 -1.2839
  362TMC3    C1 5468   4.036   0.125  16.993  0.8978  0.2104 -0.1339
  362TMC3    C2 5469   3.939   0.135  17.089  0.2821 -0.0025 -0.5309
  362TMC3    C3 5470   3.871   0.255  17.092 -0.4952 -0.3872  0.3022
  362TMC3    C4 5471   4.057   0.216  16.897 -1.1056  0.1114 -0.2555
  362TMC3    C5 5472   3.983   0.337  16.903 -0.7346 -0.1352  0.3078
  362TMC3    C6 5473   3.897   0.363  17.008 -0.7903  0.4265 -0.7266
  362TMC3     C 5474   4.116   0.004  16.995  0.2452  0.3933 -0.0946
  362TMC3     O 5475   4.059   4.638  17.015 -0.4961  0.2541  0.0670
  362TMC3     H 5476   3.919   0.054  17.157 -0.8367 -0.7543 -1.7569
  362TMC3    H1 5477   4.137   0.213  16.824 -0.2413 -1.9828  0.7546
  362TMC3    H2 5478   3.825   0.442  16.986 -0.9382  0.2919 -0.7295
  362TMC3    C7 5479   3.967   0.413  16.780  0.4859 -0.1451 -0.1043
  362TMC3    C8 5480   3.740   0.257  17.157 -0.4526  0.4218 -0.0138
  362TMC3    O1 5481   3.906   0.521  16.779  0.4107 -0.3662 -0.1299
  362TMC3    O2 5482   3.677   0.154  17.169 -0.1801  0.5115  0.0748
  363TMC3    C1 5483   1.656   1.700   9.717 -0.7288 -0.2370  0.0333
  363TMC3    C2 5484   1.787   1.675   9.684 -0.2566  0.2490  0.3568
  363TMC3    C3 5485   1.849   1.788   9.631 -0.1614  0.3906 -0.0281
  363TMC3    C4 5486   1.597   1.822   9.711 -0.4128 -0.2456 -0.1814
  363TMC3    C5 5487   1.672   1.926   9.676 -0.7688 -0.3020 -0.1636
  363TMC3    C6 5488   1.794   1.915   9.623  0.4688 -0.0643 -0.4963
  363TMC3     C 5489   1.567   1.583   9.737 -0.1662  0.1753 -0.3838
  363TMC3     O 5490   1.450   1.605   9.769 -0.1697  0.1248  0.0827
  363TMC3     H 5491   1.842   1.586   9.712  0.8330  1.4676  2.1329
  363TMC3    H1 5492   1.500   1.842   9.755 -0.3390  1.2426 -0.6883
  363TMC3    H2 5493   1.845   2.000   9.579 -0.1399  0.0420 -0.9931
  363TMC3    C7 5494   1.598   2.053   9.666  0.2594 -0.1116  0.0429
  363TMC3    C8 5495   1.993   1.794   9.619 -0.5460 -0.3610  0.7651
  363TMC3    O1 5496   1.482   2.049   9.625  0.0414 -0.1805  0.5512
  363TMC3    O2 5497   2.037   1.907   9.635 -0.4895 -0.3009  0.1490
  364MPD2     C 5498   1.414   1.608  10.898 -0.3589 -0.3944  0.7652
  364MPD2    C1 5499   1.542   1.552  10.903  0.8530 -0.3286 -0.2080
  364MPD2    C2 5500   1.565   1.421  10.954 -0.3244  0.9596  0.6118
  364MPD2    C3 5501   1.458   1.352  11.004 -0.2833  0.3571  0.2384
  364MPD2    C4 5502   1.331   1.403  11.008  0.7125 -0.1826 -0.0598
  364MPD2    C5 5503   1.310   1.529  10.953 -0.0812  0.0916  0.2374
  364MPD2     H 5504   1.665   1.383  10.975 -0.4072 -0.9046 -2.3894
  364MPD2    H1 5505   1.250   1.349  11.055  1.2856 -1.9989 -1.1552
  364MPD2    H2 5506   1.398   1.705  10.851 -0.4179 -1.9103 -2.3239
  364MPD2    H3 5507   1.215   1.580  10.967  0.4479  0.9964  0.4980
  364MPD2     N 5508   1.473   1.221  11.057 -0.6123 -0.5778  0.1559
  364MPD2    H5 5509   1.400   1.185  11.118  2.0279 -1.7810  2.6181
  364MPD2    N1 5510   1.651   1.630  10.855 -0.0930  0.4386  0.8244
  364MPD2    H7 5511   1.632   1.715  10.804  1.5673  0.0542 -0.4258
  365TMC3    C1 5512   1.837   1.653  10.727 -0.2037 -0.1745 -0.0132
  365TMC3    C2 5513   1.906   1.573  10.641 -0.0823  0.1922  0.8802
  365TMC3    C3 5514   1.942   1.628  10.518  0.2134  0.2630 -0.2036
  365TMC3    C4 5515   1.798   1.786  10.693  0.0623  0.3393  0.7386
  365TMC3    C5 5516   1.851   1.835  10.575  0.5134 -0.4859 -0.2959
  365TMC3    C6 5517   1.910   1.755  10.482  0.5877 -0.8983  0.9172
  365TMC3     C 5518   1.784   1.586  10.840  0.3594 -0.5622  0.3100
  365TMC3     O 5519   1.835   1.484  10.880 -0.5536  0.0072 -0.0477
  365TMC3     H 5520   1.910   1.466  10.654 -0.6722 -0.2045 -2.1984
  365TMC3    H1 5521   1.771   1.855  10.772 -3.5100  0.5788 -0.6967
  365TMC3    H2 5522   1.941   1.785  10.383 -0.3087  0.5103  1.0642
  365TMC3    C7 5523   1.817   1.970  10.522 -0.1166  0.1240 -0.0721
  365TMC3    C8 5524   1.958   1.537  10.408  0.0545 -0.5728 -0.7383
  365TMC3    O1 5525   1.854   2.006  10.414  0.1997 -0.3358 -0.0368
  365TMC3    O2 5526   1.937   1.589  10.299 -0.3132  0.1339  0.0967
  366MPD2     C 5527   4.405   3.348  15.120  0.1558 -0.1824  0.2448
  366MPD2    C1 5528   4.502   3.441  15.099  0.1710  0.0407 -0.5351
  366MPD2    C2 5529   4.627   3.394  15.063  0.3997 -0.3755  0.0392
  366MPD2    C3 5530   4.655   3.260  15.048 -0.7930 -0.2889  0.5777
  366MPD2    C4 5531   4.554   3.163  15.072  1.0045 -0.1950 -0.2331
  366MPD2    C5 5532   4.431   3.216  15.112 -0.5304  0.5970 -0.1179
  366MPD2     H 5533   4.712   3.461  15.057  1.7792 -2.1629 -0.3635
  366MPD2    H1 5534   4.566   3.057  15.055  2.6628  0.3356 -2.3250
  366MPD2    H2 5535   4.309   3.381  15.159 -0.3540 -0.3294 -0.9027
  366MPD2    H3 5536   4.362   3.141  15.148 -0.9363  0.5826 -0.9081
  366MPD2     N 5537   0.049   3.238  15.028  0.3564 -0.1176 -0.4058
  366MPD2    H5 5538   0.101   3.322  15.003 -0.9810  0.0703 -2.4902
  366MPD2    N1 5539   4.476   3.581  15.116  0.3600 -0.0308 -0.3734
  366MPD2    H7 5540   4.562   3.635  15.124  0.6570  0.0079 -3.9772
  367TMC3    C1 5541   4.358   3.787  15.152 -0.6050 -0.0089  0.1939
  367TMC3    C2 5542   4.468   3.846  15.217  0.3242  0.3464 -1.0541
  367TMC3    C3 5543   4.459   3.985  15.216  0.2488 -0.3132  0.3814
  367TMC3    C4 5544   4.248   3.859  15.110 -0.2439 -0.0644  0.6106
  367TMC3    C5 5545   4.254   3.995  15.123 -0.3684 -0.3987 -0.8052
  367TMC3    C6 5546   4.363   4.062  15.174  0.1510 -0.2171  0.6229
  367TMC3     C 5547   4.352   3.641  15.127  0.4169  0.4056  0.2133
  367TMC3     O 5548   4.247   3.584  15.100 -0.2977  0.3576  0.0473
  367TMC3     H 5549   4.564   3.795  15.223 -0.6773 -1.3212  1.1372
  367TMC3    H1 5550   4.169   3.812  15.054  1.8120 -1.6738 -0.9306
  367TMC3    H2 5551   4.365   4.170  15.184 -0.5637 -0.1296 -0.1921
  367TMC3    C7 5552   4.211   4.063  15.004 -0.0391 -0.1651 -0.0920
  367TMC3    C8 5553   4.580   4.058  15.239  0.3828 -0.5301  0.0168
  367TMC3    O1 5554   4.292   4.129  14.950 -0.6803  0.0172  0.4354
  367TMC3    O2 5555   4.587   4.173  15.185 -0.2840  0.8533 -0.4623
  368MPD2     C 5556   0.591   0.253  13.013 -0.1594 -0.9417 -0.1995
  368MPD2    C1 5557   0.585   0.376  12.941  0.5819  0.0370 -0.4419
  368MPD2    C2 5558   0.686   0.412  12.857 -0.0320  0.4252 -0.1545
  368MPD2    C3 5559   0.808   0.333  12.855 -0.4104 -0.2258 -0.6099
  368MPD2    C4 5560   0.810   0.220  12.927  0.5349  1.2237  0.5036
  368MPD2    C5 5561   0.706   0.182  13.007 -0.3318 -0.2342  0.4517
  368MPD2     H 5562   0.690   0.497  12.790  2.5144 -0.6412 -1.3696
  368MPD2    H1 5563   0.899   0.159  12.928  1.1279  2.0572 -1.2502
  368MPD2    H2 5564   0.514   0.230  13.085 -0.2110 -2.0303 -0.5862
  368MPD2    H3 5565   0.714   0.100  13.077  1.8266 -1.4913 -1.2620
  368MPD2     N 5566   0.927   0.372  12.786  0.3216  0.1890  0.0243
  368MPD2    H5 5567   1.011   0.326  12.822  1.4731  1.8748 -0.5091
  368MPD2    N1 5568   0.479   0.460  12.973  0.0489  0.0193  0.4902
  368MPD2    H7 5569   0.411   0.421  13.038  2.2505 -3.2264  0.8595
  369TMC3    C1 5570   0.310   0.619  12.923  0.0585 -0.2564  0.2195
  369TMC3    C2 5571   0.272   0.708  12.828  0.7726  0.7494  0.2080
  369TMC3    C3 5572   0.150   0.696  12.776 -0.0139  0.3714  0.4001
  369TMC3    C4 5573   0.212   0.538  12.985  0.9258 -0.6534  0.2062
  369TMC3    C5 5574   0.083   0.542  12.933 -0.5247  0.5352 -0.0364
  369TMC3    C6 5575   0.047   0.616  12.824 -0.3373 -0.3181  0.0778
  369TMC3     C 5576   0.443   0.568  12.894  0.0618  0.2801  0.3971
  369TMC3     O 5577   0.492   0.615  12.791  0.5432  0.5712  0.4901
  369TMC3     H 5578   0.343   0.787  12.807 -0.5644  0.9984 -3.3277
  369TMC3    H1 5579   0.242   0.461  13.055 -1.8018 -3.2255 -1.4427
  369TMC3    H2 5580   4.688   0.628  12.782 -0.1927  0.6295  0.0080
  369TMC3    C7 5581   4.728   0.476  13.020  0.0035 -0.3235  0.3730
  369TMC3    C8 5582   0.155   0.746  12.638 -0.2379  0.1080 -0.4986
  369TMC3    O1 5583   0.040   0.411  13.112 -0.3612  0.1772  0.2921
  369TMC3    O2 5584   0.045   0.765  12.587  0.5835 -0.4819 -0.1568
  370TMC3    C1 5585   0.663   1.179  16.575 -0.5496  0.8601  0.3913
  370TMC3    C2 5586   0.637   1.074  16.660 -0.1118 -0.2186 -0.6037
  370TMC3    C3 5587   0.649   0.947  16.615 -0.2501 -0.3320 -0.0560
  370TMC3    C4 5588   0.721   1.148  16.449  0.7115  0.0655  0.3455
  370TMC3    C5 5589   0.722   1.017  16.407  0.1075 -0.2530  0.6409
  370TMC3    C6 5590   0.684   0.911  16.484 -0.4099  0.5248 -0.3275
  370TMC3     C 5591   0.726   1.293  16.644  0.7542 -0.2263 -0.5123
  370TMC3     O 5592   0.782   1.272  16.755  0.1446  0.0957  0.1463
  370TMC3     H 5593   0.631   1.091  16.767  1.4385 -1.7399 -0.2706
  370TMC3    H1 5594   0.760   1.225  16.383 -0.8238 -0.0812 -0.7488
  370TMC3    H2 5595   0.681   0.808  16.452 -0.5852  0.3949  0.1010
  370TMC3    C7 5596   0.791   0.987  16.284  0.1303  0.0685  0.0469
  370TMC3    C8 5597   0.630   0.837  16.704  0.4234 -0.8273 -0.3835
  370TMC3    O1 5598   0.757   1.038  16.181  0.5713 -0.2700 -0.2030
  370TMC3    O2 5599   0.650   0.718  16.671 -0.3301 -0.1740 -0.4207
  371TMC3    C1 5600   1.870   4.425  15.308  0.0975 -0.0280  0.1123
  371TMC3    C2 5601   1.751   4.428  15.372  0.5005  0.0605 -0.4147
  371TMC3    C3 5602   1.708   4.545  15.432  0.2259 -0.1023  0.4713
  371TMC3    C4 5603   1.941   4.540  15.292  0.3051 -0.1463  0.5900
  371TMC3    C5 5604   1.897   4.656  15.353  0.2013 -0.6946  0.6966
  371TMC3    C6 5605   1.785   4.662  15.423  0.1307 -0.6343 -0.0177
  371TMC3     C 5606   1.947   4.305  15.304  0.1638  0.0859 -0.3825
  371TMC3     O 5607   2.028   4.300  15.212  0.5680  0.3713 -0.3645
  371TMC3     H 5608   1.702   4.334  15.395  1.1163  0.3025  1.8974
  371TMC3    H1 5609   2.028   4.533  15.227  0.8884 -0.7110  1.4356
  371TMC3    H2 5610   1.748   0.012  15.472  0.6118 -1.6561  2.1858
  371TMC3    C7 5611   1.950   0.043  15.312 -0.3099 -0.3569 -0.7659
  371TMC3    C8 5612   1.627   4.526  15.556  0.6588 -0.3120 -0.7717
  371TMC3    O1 5613   1.878   0.143  15.309 -0.5199  0.0095  0.3158
  371TMC3    O2 5614   1.602   4.408  15.578  0.0504  0.3685  0.3005
  372MPD2     C 5615   0.824   0.238  13.610  0.9655 -0.0095  0.2004
  372MPD2    C1 5616   0.934   0.158  13.622 -0.2804  0.5180  0.5488
  372MPD2    C2 5617   0.937   0.059  13.720 -0.0285  0.5058 -0.2954
  372MPD2    C3 5618   0.828   0.050  13.811 -0.0875 -1.4746 -0.7552
  372MPD2    C4 5619   0.724   0.143  13.803  0.2552 -0.1120  0.6810
  372MPD2    C5 5620   0.718   0.231  13.694  0.3197 -0.2655 -0.9267
  372MPD2     H 5621   1.028   4.739  13.725  0.7138  1.8149  2.1150
  372MPD2    H1 5622   0.635   0.147  13.864 -1.8817  2.3309 -2.5886
  372MPD2    H2 5623   0.826   0.311  13.530 -2.7318  0.1924  0.3217
  372MPD2    H3 5624   0.640   0.306  13.688 -0.6372 -1.2206 -0.4704
  372MPD2     N 5625   0.825   4.684  13.908  0.0394 -0.4247 -0.5586
  372MPD2    H5 5626   0.885   4.602  13.903  0.2557 -0.4170  2.2926
  372MPD2    N1 5627   1.038   0.171  13.529  0.7406  0.5228 -0.0260
  372MPD2    H7 5628   1.117   0.108  13.542 -1.9483 -2.7705  0.1864
  373TMC3    C1 5629   0.752   4.564  14.092  0.0158  0.3742  0.2938
  373TMC3    C2 5630   0.743   4.576  14.231  0.3656 -0.3304  0.4811
  373TMC3    C3 5631   0.766   4.465  14.304  0.4852  0.2816 -0.6732
  373TMC3    C4 5632   0.789   4.451  14.028  0.1342  0.3793 -0.0454
  373TMC3    C5 5633   0.828   4.346  14.113  0.5471 -0.1940  0.1559
  373TMC3    C6 5634   0.825   4.352  14.251 -0.0126 -0.5032 -0.1466
  373TMC3     C 5635   0.740   4.688  14.013 -0.1274 -0.5845  0.3207
  373TMC3     O 5636   0.672   0.043  14.063 -0.0468  0.1069  0.3697
  373TMC3     H 5637   0.674   4.651  14.269 -0.6533  0.9621 -3.8466
  373TMC3    H1 5638   0.791   4.441  13.920 -1.1315 -1.5682  0.1092
  373TMC3    H2 5639   0.848   4.274  14.322 -0.7498 -0.9580 -0.4118
  373TMC3    C7 5640   0.874   4.223  14.052 -0.0857 -0.7070  0.6101
  373TMC3    C8 5641   0.806   4.493  14.444  0.5566  0.6548 -0.8814
  373TMC3    O1 5642   0.911   4.244  13.939 -0.3554  0.1001 -0.0291
  373TMC3    O2 5643   0.786   4.426  14.541  0.6092  0.0248 -0.2916
  374TMC3    C1 5644   1.584   0.067  10.336 -0.3035 -0.6215  0.2947
  374TMC3    C2 5645   1.718   0.070  10.338  0.4019  0.3209  0.4159
  374TMC3    C3 5646   1.782   0.104  10.219 -0.5150 -0.1998 -0.1432
  374TMC3    C4 5647   1.505   0.086  10.226  0.1197 -0.0870 -0.0634
  374TMC3    C5 5648   1.573   0.134  10.117 -0.6157  0.1974  0.7466
  374TMC3    C6 5649   1.712   0.137  10.100 -0.3280 -0.0018  1.2682
  374TMC3     C 5650   1.514   0.089  10.470 -0.0219 -0.4896  0.5706
  374TMC3     O 5651   1.402   0.127  10.466 -0.2122 -0.2421  0.6869
  374TMC3     H 5652   1.777   0.018  10.412  0.0461  0.6700  0.9481
  374TMC3    H1 5653   1.397   0.090  10.234 -0.0970 -2.8424 -1.5651
  374TMC3    H2 5654   1.760   0.169  10.008  2.4595 -2.4127  1.8632
  374TMC3    C7 5655   1.504   0.163   9.995  0.5415 -0.5864 -1.4843
  374TMC3    C8 5656   1.929   0.109  10.218  0.4942 -0.5933  0.0000
  374TMC3    O1 5657   1.555   0.249   9.923  0.0507 -0.1355  0.0107
  374TMC3    O2 5658   1.975   0.136  10.108  0.1639 -0.3554  0.4462
  375MPD2     C 5659   1.780   1.303  17.502 -0.6445 -0.3523  0.2811
  375MPD2    C1 5660   1.693   1.346  17.406 -0.2016 -0.2982 -0.3652
  375MPD2    C2 5661   1.741   1.363  17.276  0.7118 -0.4120 -0.0988
  375MPD2    C3 5662   1.874   1.332  17.242  0.2017 -0.0375 -0.2964
  375MPD2    C4 5663   1.961   1.292  17.344  0.2294 -0.1546  0.7976
  375MPD2    C5 5664   1.913   1.290  17.477  0.3204  0.5099  0.6172
  375MPD2     H 5665   1.673   1.382  17.193  0.5426  0.1460  0.1649
  375MPD2    H1 5666   2.064   1.266  17.323 -0.3400 -0.2232 -1.9674
  375MPD2    H2 5667   1.755   1.291  17.607 -0.7050 -1.7833  0.1001
  375MPD2    H3 5668   1.978   1.254  17.555  1.3562 -0.1011 -0.5221
  375MPD2     N 5669   1.932   1.338  17.111 -0.1288 -0.5527 -0.0989
  375MPD2    H5 5670   2.027   1.302  17.106 -0.2248 -0.8363  0.0923
  375MPD2    N1 5671   1.558   1.379  17.423  0.1984  0.5309 -0.2051
  375MPD2    H7 5672   1.503   1.417  17.346  2.4923  2.3171 -0.9384
  376TMC3    C1 5673   1.954   1.350  16.876 -1.3312  0.8716 -0.1492
  376TMC3    C2 5674   2.080   1.407  16.895  0.5353  0.0613  0.4852
  376TMC3    C3 5675   2.148   1.430  16.778  0.0565  0.6248  0.0680
  376TMC3    C4 5676   1.896   1.356  16.752  0.4055  0.0065 -0.1657
  376TMC3    C5 5677   1.968   1.381  16.633  0.6206  0.2585 -0.0054
  376TMC3    C6 5678   2.097   1.415  16.651 -0.8691  0.3360  0.3886
  376TMC3     C 5679   1.860   1.351  16.993 -0.7093  0.0530  0.0539
  376TMC3     O 5680   1.739   1.369  16.973  0.4724  0.2300 -0.5888
  376TMC3     H 5681   2.128   1.420  16.991 -2.1934  1.5185  1.6538
  376TMC3    H1 5682   1.788   1.339  16.749  0.7609 -2.7263  2.4165
  376TMC3    H2 5683   2.155   1.446  16.565  0.5430  1.8808  1.8911
  376TMC3    C7 5684   1.911   1.425  16.510  0.1178 -0.4936 -0.2226
  376TMC3    C8 5685   2.286   1.462  16.780  0.3111  0.5310 -0.6216
  376TMC3    O1 5686   1.987   1.460  16.419  0.3218 -0.2074 -0.4138
  376TMC3    O2 5687   2.355   1.448  16.679 -0.0325 -0.3094  0.1950
  377MPD2     C 5688   0.154   0.999  13.001  0.2142 -1.2302  0.0808
  377MPD2    C1 5689   0.024   0.953  12.967 -0.6345 -0.1837  0.2753
  377MPD2    C2 5690   4.711   0.849  13.035  0.5601  0.7100 -0.0681
  377MPD2    C3 5691   0.027   0.805  13.147  0.4003  0.2087 -0.1972
  377MPD2    C4 5692   0.152   0.854  13.187 -0.2848 -0.6746 -0.4789
  377MPD2    C5 5693   0.216   0.955  13.114  0.6169  0.0156  0.5863
  377MPD2     H 5694   4.622   0.803  12.994  0.3201 -0.7444  2.0967
  377MPD2    H1 5695   0.200   0.828  13.280 -3.0289  1.9244  1.6556
  377MPD2    H2 5696   0.189   1.076  12.934  3.6759 -1.1586  2.0229
  377MPD2    H3 5697   0.320   0.979  13.136  0.3526  0.1591  1.6646
  377MPD2     N 5698   4.699   0.719  13.240  0.2123  0.2917  0.2355
  377MPD2    H5 5699   0.013   0.692  13.322 -0.1101 -0.8015  0.0935
  377MPD2    N1 5700   4.697   1.006  12.852  0.0870 -0.1415  0.5684
  377MPD2    H7 5701   0.007   1.077  12.801  1.2397 -0.5909  1.0757
  378TMC3    C1 5702   4.439   1.070  12.465  0.6123  1.0403  0.2062
  378TMC3    C2 5703   4.477   0.991  12.569  0.2906  0.5531 -0.3456
  378TMC3    C3 5704   4.562   1.038  12.670 -0.3045  1.0742 -0.1992
  378TMC3    C4 5705   4.483   1.200  12.460  0.1856 -0.6320 -0.9016
  378TMC3    C5 5706   4.567   1.241  12.557  0.5098 -0.7329 -0.6449
  378TMC3    C6 5707   4.605   1.166  12.664  0.1060 -0.1734 -0.4918
  378TMC3     C 5708   4.350   1.018  12.363 -0.2697  0.6092 -0.1249
  378TMC3     O 5709   4.309   0.907  12.381  0.2005 -0.0344 -0.7467
  378TMC3     H 5710   4.436   0.890  12.575 -0.0249  0.6167 -1.4191
  378TMC3    H1 5711   4.448   1.273  12.388  0.4647  0.7689  0.3973
  378TMC3    H2 5712   4.655   1.213  12.747 -0.4663  1.5123 -1.0995
  378TMC3    C7 5713   4.660   1.357  12.546 -0.3097  0.0800 -0.5760
  378TMC3    C8 5714   4.587   0.956  12.787  0.2845  0.6065  0.4715
  378TMC3    O1 5715   4.720   1.392  12.652  0.0201  0.2308  0.1315
  378TMC3    O2 5716   4.531   0.844  12.793  0.1916  0.3427 -0.2555
  379MPD2     C 5717   0.925   3.924  15.974 -0.1720  0.2564 -0.0430
  379MPD2    C1 5718   0.837   3.868  16.065  0.2552 -0.5825 -0.2004
  379MPD2    C2 5719   0.883   3.814  16.183  0.8296 -0.4010 -0.1001
  379MPD2    C3 5720   1.021   3.810  16.200  0.2959 -0.7529 -0.5749
  379MPD2    C4 5721   1.107   3.870  16.108  0.1201 -0.0793  0.4918
  379MPD2    C5 5722   1.058   3.935  15.996 -0.7876 -0.1667 -0.3964
  379MPD2     H 5723   0.817   3.784  16.263  2.3262  0.8320  1.5899
  379MPD2    H1 5724   1.214   3.880  16.117  0.5283 -2.9537 -1.1224
  379MPD2    H2 5725   0.886   3.961  15.880  1.7714 -1.2996 -1.4565
  379MPD2    H3 5726   1.120   3.996  15.931 -1.6251 -0.6930 -1.7104
  379MPD2     N 5727   1.087   3.766  16.310 -0.3008 -0.2350  0.1782
  379MPD2    H5 5728   1.187   3.781  16.303 -0.1612 -0.1555  2.2725
  379MPD2    N1 5729   0.702   3.867  16.040 -0.2077 -0.3280  0.1147
  379MPD2    H7 5730   0.679   3.921  15.957  1.4406  1.1369  0.6274
  380TMC3    C1 5731   0.466   3.823  16.048 -0.5178 -0.0167 -0.0574
  380TMC3    C2 5732   0.359   3.743  16.076 -0.4271  0.5077  0.3219
  380TMC3    C3 5733   0.240   3.768  16.013  0.9969 -0.6138 -0.2021
  380TMC3    C4 5734   0.457   3.934  15.963 -0.3130 -0.3325 -0.4359
  380TMC3    C5 5735   0.329   3.964  15.920  0.2731 -0.3208  0.2664
  380TMC3    C6 5736   0.219   3.888  15.950  0.9057 -0.4410 -0.3068
  380TMC3     C 5737   0.599   3.780  16.096  0.2160 -0.2366 -0.5588
  380TMC3     O 5738   0.611   3.691  16.178  0.1261 -0.0659 -0.2882
  380TMC3     H 5739   0.377   3.663  16.146  0.6366  0.7326  0.3160
  380TMC3    H1 5740   0.534   4.010  15.954  0.6277 -1.2242  0.0077
  380TMC3    H2 5741   0.117   3.920  15.933  0.9011  0.1838  0.8572
  380TMC3    C7 5742   0.320   4.051  15.802 -0.4280 -0.5298 -0.4879
  380TMC3    C8 5743   0.214   3.679  15.906  0.5507  0.8068 -0.2529
  380TMC3    O1 5744   0.417   4.124  15.778 -0.5733 -0.0017  0.0776
  380TMC3    O2 5745   0.181   3.733  15.800 -0.0786 -0.2020 -0.3422
  381TMC3    C1 5746   0.872   0.267  16.311  0.0761  0.0935 -0.4758
  381TMC3    C2 5747   0.949   0.370  16.356 -0.6806  0.6621  0.0261
  381TMC3    C3 5748   0.919   0.421  16.481  0.9101 -0.9756 -0.2082
  381TMC3    C4 5749   0.771   0.204  16.377 -0.2494  0.0863  0.3517
  381TMC3    C5 5750   0.759   0.248  16.502  0.4114 -0.6689  0.5775
  381TMC3    C6 5751   0.823   0.362  16.559 -0.3289 -0.1141 -0.1848
  381TMC3     C 5752   0.900   0.208  16.179  0.7003  0.0244  0.7126
  381TMC3     O 5753   0.879   0.093  16.169 -0.2173 -0.3531 -0.1359
  381TMC3     H 5754   1.033   0.406  16.297  0.4426 -1.0204  0.6057
  381TMC3    H1 5755   0.703   0.131  16.336  0.3353  0.1408 -0.7081
  381TMC3    H2 5756   0.821   0.384  16.666  1.6319  2.9984 -0.8037
  381TMC3    C7 5757   0.687   0.163  16.589  0.7395 -0.4061  0.5315
  381TMC3    C8 5758   1.017   0.513  16.526 -0.7287  0.4329  0.1221
  381TMC3    O1 5759   0.692   0.048  16.555 -0.0256  0.3303 -0.1340
  381TMC3    O2 5760   1.125   0.506  16.468  0.1009 -0.0411  0.4136
  382MPD2     C 5761   0.188   2.736  17.370  0.3663 -0.9406 -0.3723
  382MPD2    C1 5762   0.077   2.733  17.289  0.4514  0.0088  0.0262
  382MPD2    C2 5763   4.700   2.671  17.315  0.2037 -1.3322  0.1130
  382MPD2    C3 5764   4.693   2.617  17.441  0.4310  0.0389  0.8523
  382MPD2    C4 5765   0.067   2.613  17.522  0.3256  0.2551 -0.1300
  382MPD2    C5 5766   0.182   2.673  17.490 -0.1979  0.1618  0.6251
  382MPD2     H 5767   4.620   2.675  17.242  0.3800  0.2738  0.0061
  382MPD2    H1 5768   0.048   2.567  17.618  0.6501  0.7503  0.1719
  382MPD2    H2 5769   0.286   2.780  17.355 -0.3706  0.4016 -1.1940
  382MPD2    H3 5770   0.263   2.676  17.562  1.1987  2.5988 -1.0376
  382MPD2     N 5771   4.576   2.561  17.498 -0.2749  0.7837  0.1863
  382MPD2    H5 5772   4.572   2.556  17.600  0.4932  2.5995  0.3084
  382MPD2    N1 5773   0.094   2.781  17.160  0.1804 -0.3554 -0.2920
  382MPD2    H7 5774   0.022   2.753  17.093 -0.0391 -1.2841  0.3312
  383TMC3    C1 5775   4.362   2.482  17.522  0.5421  0.4340  0.3055
  383TMC3    C2 5776   4.235   2.486  17.470 -0.2521 -0.2623 -0.7265
  383TMC3    C3 5777   4.126   2.453  17.544  0.4844  0.1490 -0.5787
  383TMC3    C4 5778   4.383   2.455  17.654  0.1783 -0.2145  0.3424
  383TMC3    C5 5779   4.275   2.412  17.719 -0.3532  0.5213  0.2378
  383TMC3    C6 5780   4.149   2.415  17.672 -0.4841  0.5692 -0.0010
  383TMC3     C 5781   4.463   2.520  17.426  0.1994  0.0081 -0.1090
  383TMC3     O 5782   4.437   2.517  17.305  0.1694 -1.1816  0.1532
  383TMC3     H 5783   4.212   2.514  17.368  1.6367 -0.9779 -1.3367
  383TMC3    H1 5784   4.481   2.417  17.682  1.1847  0.7602 -1.8562
  383TMC3    H2 5785   4.065   2.395  17.738 -0.8591 -0.5972 -0.8048
  383TMC3    C7 5786   4.286   2.373   0.105  0.1151  0.1986  0.3666
  383TMC3    C8 5787   4.031   2.375  17.468  0.1712 -0.6410  0.5047
  383TMC3    O1 5788   4.183   2.322   0.157  0.7018 -0.7379  0.2995
  383TMC3    O2 5789   3.916   2.416  17.463  0.1952 -0.2351 -0.5615
  384MPD2     C 5790   1.075   3.334  11.786  0.2998  0.3267  0.1552
  384MPD2    C1 5791   1.044   3.460  11.743  0.5791 -0.5499  0.5135
  384MPD2    C2 5792   1.087   3.502  11.622 -0.1362  0.3807 -0.7007
  384MPD2    C3 5793   1.161   3.415  11.542  0.0981  0.4761  0.5078
  384MPD2    C4 5794   1.196   3.292  11.591 -0.7900 -0.5666 -0.4414
  384MPD2    C5 5795   1.155   3.252  11.712  0.8034 -0.0533  0.1433
  384MPD2     H 5796   1.071   3.601  11.580 -2.8312 -0.2317 -1.1141
  384MPD2    H1 5797   1.265   3.233  11.531 -1.2049 -0.6517 -0.8430
  384MPD2    H2 5798   1.035   3.294  11.879  0.4273 -0.6223 -0.1978
  384MPD2    H3 5799   1.186   3.163  11.764  1.0820 -0.4505 -0.6960
  384MPD2     N 5800   1.223   3.462  11.426 -0.0359 -0.4570  0.2866
  384MPD2    H5 5801   1.279   3.394  11.376 -1.4756  0.0775 -2.1117
  384MPD2    N1 5802   0.979   3.550  11.837  0.3092  0.3206 -0.1082
  384MPD2    H7 5803   0.972   3.511  11.930  1.1659 -1.2394 -0.6979
  385TMC3    C1 5804   1.362   3.610  11.300 -0.0296  0.4399 -0.6039
  385TMC3    C2 5805   1.416   3.487  11.267  0.0659 -0.0916 -0.7067
  385TMC3    C3 5806   1.535   3.453  11.322  0.3915  0.5439 -0.5128
  385TMC3    C4 5807   1.441   3.704  11.364  0.6397 -0.5972 -0.2542
  385TMC3    C5 5808   1.555   3.666  11.428 -0.7125 -0.3836  0.7711
  385TMC3    C6 5809   1.613   3.549  11.388  0.0719 -0.0679  0.2150
  385TMC3     C 5810   1.245   3.594  11.386  0.0382 -0.9051  0.1156
  385TMC3     O 5811   1.204   3.697  11.436 -0.5267  0.0965 -0.1561
  385TMC3     H 5812   1.344   3.415  11.229  0.2417 -0.8087  0.3369
  385TMC3    H1 5813   1.397   3.798  11.397  0.9131 -0.3496 -0.5911
  385TMC3    H2 5814   1.711   3.522  11.427 -0.0616  0.2368  0.7646
  385TMC3    C7 5815   1.543   3.678  11.569 -0.7117 -0.1746 -0.6806
  385TMC3    C8 5816   1.563   3.323  11.385  0.4396 -0.6409  0.5060
  385TMC3    O1 5817   1.510   3.787  11.602  0.5202  0.3498  0.2707
  385TMC3    O2 5818   1.614   3.329  11.493 -0.1559 -0.1691  0.1233
  386TMC3    C1 5819   1.026   0.830  12.044  0.7885  0.3483  0.5508
  386TMC3    C2 5820   1.105   0.829  11.928  0.2275 -0.4993 -0.3479
  386TMC3    C3 5821   1.070   0.924  11.829  0.2513  0.2410  0.2557
  386TMC3    C4 5822   0.914   0.916  12.061  0.5272  0.5360  0.2505
  386TMC3    C5 5823   0.874   0.990  11.951  0.5898 -0.2778 -0.4266
  386TMC3    C6 5824   0.953   1.001  11.840  0.1570  0.3084 -0.5960
  386TMC3     C 5825   1.012   0.708  12.123  0.2756  1.0761 -0.2475
  386TMC3     O 5826   0.948   0.717  12.226 -0.3395  0.0760 -0.0646
  386TMC3     H 5827   1.195   0.770  11.934 -0.5147 -1.4725  1.2484
  386TMC3    H1 5828   0.853   0.923  12.150  0.0225  0.5644 -0.0981
  386TMC3    H2 5829   0.924   1.058  11.752 -2.2249 -1.5852 -1.0435
  386TMC3    C7 5830   0.755   1.072  11.961  0.3494  0.4275  0.0105
  386TMC3    C8 5831   1.150   0.947  11.710  0.3051 -0.0019  0.4779
  386TMC3    O1 5832   0.698   1.094  11.855 -0.0654 -0.2768  0.4169
  386TMC3    O2 5833   1.100   1.010  11.618  0.1762  0.4249  0.2407
  387MPD2     C 5834   3.450   0.640  10.156 -0.1882 -0.3661  0.1420
  387MPD2    C1 5835   3.564   0.621  10.226 -0.0144 -0.2418  0.1306
  387MPD2    C2 5836   3.649   0.513  10.200  0.6745 -0.0094 -0.9856
  387MPD2    C3 5837   3.624   0.429  10.094  0.6197 -0.1319  0.7193
  387MPD2    C4 5838   3.513   0.450  10.020  0.2241 -0.2844  0.0116
  387MPD2    C5 5839   3.431   0.557  10.046 -0.0190  0.6649  0.8154
  387MPD2     H 5840   3.747   0.499  10.244  0.1096  0.3880  0.3751
  387MPD2    H1 5841   3.498   0.393   9.929 -1.5893  0.3446 -0.0742
  387MPD2    H2 5842   3.385   0.726  10.162  0.2607  0.2023 -3.1865
  387MPD2    H3 5843   3.348   0.586   9.982  0.0566 -0.0679  0.3836
  387MPD2     N 5844   3.717   0.323  10.072  0.0980  0.6200  0.1501
  387MPD2    H5 5845   3.797   0.317  10.134 -0.5438  0.3070  0.9579
  387MPD2    N1 5846   3.612   0.712  10.319  0.0137  0.0738  0.2035
  387MPD2    H7 5847   3.689   0.678  10.375  0.6736  0.0728 -0.6942
  388TMC3    C1 5848   3.685   0.895  10.424 -0.2524  0.7452  0.1935
  388TMC3    C2 5849   3.669   1.003  10.508  0.2537  0.6797 -0.3999
  388TMC3    C3 5850   3.770   1.043  10.592 -1.0224  0.0479 -0.4363
  388TMC3    C4 5851   3.804   0.832  10.409 -0.3282  0.4505 -0.6795
  388TMC3    C5 5852   3.900   0.885  10.492  0.0374 -0.6508 -0.0177
  388TMC3    C6 5853   3.890   0.988  10.580 -0.0948 -0.3125 -0.4126
  388TMC3     C 5854   3.575   0.840  10.342  0.1432 -1.2578  0.3281
  388TMC3     O 5855   3.473   0.905  10.314 -0.0495  0.0844  0.3895
  388TMC3     H 5856   3.571   1.049  10.513  0.4480  1.0882 -0.3551
  388TMC3    H1 5857   3.839   0.770  10.328  1.5193 -0.6906  0.9741
  388TMC3    H2 5858   3.970   0.998  10.653 -0.7588 -1.2981  0.4500
  388TMC3    C7 5859   4.011   0.799  10.514 -0.3412  0.1007 -0.0322
  388TMC3    C8 5860   3.746   1.149  10.674  0.1065  0.2641 -0.2738
  388TMC3    O1 5861   4.112   0.843  10.557  0.6268 -0.2167  0.1914
  388TMC3    O2 5862   3.634   1.197  10.679 -0.1135 -0.3631 -0.2192
  389MPD2     C 5863   2.939   3.824  10.802 -0.1096 -0.3196 -0.3249
  389MPD2    C1 5864   2.837   3.739  10.772 -0.0919 -0.5236 -0.6727
  389MPD2    C2 5865   2.761   3.675  10.875 -0.4283  0.1653  0.3795
  389MPD2    C3 5866   2.791   3.708  11.009 -0.9274  0.0582  0.1725
  389MPD2    C4 5867   2.896   3.791  11.037  0.5902  0.4787 -0.3788
  389MPD2    C5 5868   2.970   3.849  10.932  0.3417 -0.3127 -0.2810
  389MPD2     H 5869   2.685   3.601  10.853 -1.3030  1.5889 -1.4319
  389MPD2    H1 5870   2.917   3.833  11.135 -2.1517 -0.5360  0.6356
  389MPD2    H2 5871   3.002   3.877  10.732 -0.8212 -1.3121 -1.7309
  389MPD2    H3 5872   3.042   3.923  10.966 -1.1593  0.6150  0.9339
  389MPD2     N 5873   2.717   3.662  11.120 -0.1325  1.0059  0.2610
  389MPD2    H5 5874   2.748   3.692  11.212 -0.4065  0.3383  0.5727
  389MPD2    N1 5875   2.806   3.734  10.629  0.3995 -0.0370 -0.3934
  389MPD2    H7 5876   2.872   3.775  10.563  2.4408  0.5634  2.0213
  390TMC3    C1 5877   2.619   3.509  11.257  0.4114 -0.1398  0.6687
  390TMC3    C2 5878   2.507   3.438  11.301  0.4661  0.0857  0.0635
  390TMC3    C3 5879   2.518   3.366  11.417  0.5189 -0.0433  0.2789
  390TMC3    C4 5880   2.730   3.517  11.341 -0.8022 -0.0872  0.1239
  390TMC3    C5 5881   2.736   3.440  11.457 -0.5772  0.4374  0.2478
  390TMC3    C6 5882   2.628   3.368  11.502 -0.2883  0.6839 -0.0529
  390TMC3     C 5883   2.622   3.561  11.122  0.6786  0.4461  0.0557
  390TMC3     O 5884   2.562   3.505  11.031  0.1136  0.1604 -0.0749
  390TMC3     H 5885   2.414   3.434  11.244  0.2311 -1.0149  0.5238
  390TMC3    H1 5886   2.819   3.578  11.327  0.1929 -1.1696  1.5994
  390TMC3    H2 5887   2.639   3.284  11.571 -1.6695  1.2371  0.8525
  390TMC3    C7 5888   2.839   3.468  11.553  0.4899 -0.0215  0.5501
  390TMC3    C8 5889   2.399   3.300  11.457  0.0687 -0.0494  0.5457
  390TMC3    O1 5890   2.926   3.546  11.525 -0.0083 -0.3958 -0.3293
  390TMC3    O2 5891   2.349   3.229  11.372  0.2672 -0.2029  0.7503
  391MPD2     C 5892   2.329   4.546  11.731  0.0457  0.0263 -0.2609
  391MPD2    C1 5893   2.407   4.657  11.702 -0.6318 -0.3481 -0.3321
  391MPD2    C2 5894   2.420   4.700  11.575  0.4464 -0.1630 -0.0657
  391MPD2    C3 5895   2.366   4.636  11.468  0.5914  0.0295  0.7185
  391MPD2    C4 5896   2.299   4.519  11.491  0.8981 -0.3410  0.5390
  391MPD2    C5 5897   2.282   4.477  11.620 -0.3180  0.3283 -0.0041
  391MPD2     H 5898   2.483   0.043  11.545 -0.8381 -0.2610 -3.0968
  391MPD2    H1 5899   2.253   4.453  11.419 -0.4270  0.1734  0.9267
  391MPD2    H2 5900   2.311   4.503  11.829 -0.4477  0.3599 -0.2042
  391MPD2    H3 5901   2.232   4.383  11.640  0.8084  0.0866  1.6179
  391MPD2     N 5902   2.389   4.687  11.334 -0.3409  0.2691 -0.7950
  391MPD2    H5 5903   2.449   0.028  11.326  1.2753 -0.6424  2.0335
  391MPD2    N1 5904   2.474   4.723  11.805  0.0955 -0.2243  0.0198
  391MPD2    H7 5905   2.452   4.696  11.901  0.5325 -1.6859 -0.3023
  392TMC3    C1 5906   2.400   4.698  11.099 -0.2058 -0.2210  0.7006
  392TMC3    C2 5907   2.318   4.698  10.992 -0.4108 -0.1854 -0.6460
  392TMC3    C3 5908   2.372   0.011  10.878 -0.3373  0.2862 -0.3190
  392TMC3    C4 5909   2.520   0.015  11.104 -0.3295  0.7155  0.5907
  392TMC3    C5 5910   2.565   0.074  10.998  0.8347 -0.8712  0.4508
  392TMC3    C6 5911   2.491   0.082  10.878 -0.7344 -0.0715  0.0808
  392TMC3     C 5912   2.346   4.625  11.213 -0.1946 -0.9307  0.3440
  392TMC3     O 5913   2.255   4.545  11.205 -0.0411 -0.5937 -0.3784
  392TMC3     H 5914   2.240   4.623  10.984 -1.5568  0.8971  0.5377
  392TMC3    H1 5915   2.587   4.734  11.186 -0.3220  2.5713  1.0593
  392TMC3    H2 5916   2.536   0.133  10.793  2.1873 -1.7948  0.5701
  392TMC3    C7 5917   2.670   0.165  11.022 -0.6775 -0.5732 -0.5685
  392TMC3    C8 5918   2.290   0.026  10.754 -0.2964  0.0532 -0.5397
  392TMC3    O1 5919   2.676   0.228  11.125 -0.3710  0.4865  0.6753
  392TMC3    O2 5920   2.170   0.009  10.765  0.2786 -0.5970 -0.2718
  393TMC3    C1 5921   1.025   3.168  10.427  0.7237 -0.4183  0.7639
  393TMC3    C2 5922   0.922   3.134  10.509 -0.3132  0.3406  0.1985
  393TMC3    C3 5923   0.952   3.045  10.610  0.8110 -0.4966 -0.1884
  393TMC3    C4 5924   1.152   3.113  10.432  0.5489  0.0424 -0.2714
  393TMC3    C5 5925   1.176   3.023  10.531  0.1138  0.3012  0.1419
  393TMC3    C6 5926   1.076   2.990  10.624 -0.1834 -0.0056 -0.0692
  393TMC3     C 5927   0.999   3.284  10.352  0.1057  0.4215  0.2045
  393TMC3     O 5928   0.884   3.327  10.351  0.1507  0.2350  0.7337
  393TMC3     H 5929   0.821   3.167  10.491 -0.0699  0.9931  0.0301
  393TMC3    H1 5930   1.225   3.122  10.352  1.9750  0.2113  1.0451
  393TMC3    H2 5931   1.093   2.909  10.693  1.0565 -0.2885 -0.7137
  393TMC3    C7 5932   1.271   2.921  10.501 -0.1939 -0.4022  0.4742
  393TMC3    C8 5933   0.842   3.014  10.701 -0.4519 -0.4350  0.7649
  393TMC3    O1 5934   1.245   2.806  10.527  0.2223 -0.6521 -0.2895
  393TMC3    O2 5935   0.729   3.044  10.666  0.1801 -0.4960 -0.1864
  394TMC3    C1 5936   2.694   3.711  10.427 -0.4490 -0.7709 -0.5855
  394TMC3    C2 5937   2.579   3.718  10.353 -0.6156  0.1850 -0.1268
  394TMC3    C3 5938   2.573   3.742  10.222 -0.2475  0.4758 -0.5263
  394TMC3    C4 5939   2.807   3.694  10.354 -0.3838  1.1690  1.1382
  394TMC3    C5 5940   2.803   3.728  10.223  0.0530 -0.1164 -0.3205
  394TMC3    C6 5941   2.689   3.767  10.158  0.1700 -0.2187 -0.2362
  394TMC3     C 5942   2.699   3.675  10.569  0.2918  0.8429  0.1324
  394TMC3     O 5943   2.595   3.631  10.621 -0.2783  0.1916  0.2397
  394TMC3     H 5944   2.490   3.712  10.415 -0.1632 -1.7601  0.3336
  394TMC3    H1 5945   2.903   3.667  10.397 -0.0496  0.5813  0.0326
  394TMC3    H2 5946   2.688   3.787  10.051  1.0683 -0.2319 -0.2540
  394TMC3    C7 5947   2.934   3.765  10.148 -0.0616 -0.2414 -0.3574
  394TMC3    C8 5948   2.471   3.687  10.135 -0.8502  0.3211 -0.3867
  394TMC3    O1 5949   2.930   3.850  10.066  0.0778 -0.2126 -0.4083
  394TMC3    O2 5950   2.466   3.731  10.022 -0.0657 -0.0203  0.9876
  395TMC3    C1 5951   2.810   1.439  14.807 -0.1629  0.0880  0.6817
  395TMC3    C2 5952   2.712   1.422  14.710  0.1483  0.9811 -0.4846
  395TMC3    C3 5953   2.727   1.503  14.598 -0.1521  0.3290  0.1198
  395TMC3    C4 5954   2.914   1.526  14.796  0.6008  0.1611 -0.8545
  395TMC3    C5 5955   2.926   1.590  14.679  0.0039  0.3168  0.2741
  395TMC3    C6 5956   2.833   1.585  14.587 -0.3976 -0.1458  0.1235
  395TMC3     C 5957   2.786   1.380  14.932  0.2570  0.2370  0.3238
  395TMC3     O 5958   2.789   1.451  15.031 -0.0657  0.0378 -0.5257
  395TMC3     H 5959   2.620   1.375  14.744 -0.1553  1.3202 -0.8223
  395TMC3    H1 5960   2.983   1.548  14.876  1.1296 -2.0039 -0.7231
  395TMC3    H2 5961   2.838   1.629  14.488 -3.1503 -0.6816 -0.2685
  395TMC3    C7 5962   3.034   1.688  14.673  0.2149  0.4489  0.3339
  395TMC3    C8 5963   2.624   1.501  14.504  0.7627 -0.0526 -0.6208
  395TMC3    O1 5964   3.075   1.732  14.779 -0.1079  0.4928 -0.0583
  395TMC3    O2 5965   2.615   1.600  14.434 -0.2462  0.4088 -0.7242
  396MPD2     C 5966   2.357   2.208  17.070 -0.2309  0.0898 -0.3169
  396MPD2    C1 5967   2.454   2.280  17.140  0.5773 -0.5708 -0.3655
  396MPD2    C2 5968   2.515   2.387  17.072  0.8615 -0.0779 -0.8382
  396MPD2    C3 5969   2.476   2.407  16.940 -0.1891 -1.3990  0.0498
  396MPD2    C4 5970   2.365   2.350  16.886  0.0456  0.4717 -0.0791
  396MPD2    C5 5971   2.313   2.246  16.949  0.7115 -0.9213  0.0109
  396MPD2     H 5972   2.608   2.431  17.105  0.3647 -1.0093  1.7824
  396MPD2    H1 5973   2.326   2.380  16.789  1.0335 -1.2393 -0.9959
  396MPD2    H2 5974   2.306   2.122  17.112 -0.4787  0.5895  0.4178
  396MPD2    H3 5975   2.242   2.190  16.891 -0.0872 -0.4077  0.5002
  396MPD2     N 5976   2.549   2.507  16.867 -0.5820  0.5322 -0.1993
  396MPD2    H5 5977   2.623   2.555  16.918 -1.6566  0.2468  1.6141
  396MPD2    N1 5978   2.486   2.228  17.265  0.0097  0.4080 -0.0890
  396MPD2    H7 5979   2.436   2.145  17.296 -2.1848  1.5537 -0.4970
  397TMC3    C1 5980   2.619   2.192  17.447 -0.3821  0.3123 -0.0954
  397TMC3    C2 5981   2.748   2.178  17.448  0.6217 -0.0497  0.5168
  397TMC3    C3 5982   2.813   2.062  17.418  0.3993 -0.1490  0.5982
  397TMC3    C4 5983   2.542   2.079  17.443  0.4478  0.1861  0.2485
  397TMC3    C5 5984   2.606   1.952  17.434  0.7499 -0.1543  0.2694
  397TMC3    C6 5985   2.737   1.942  17.414  0.3360  0.4675  0.4263
  397TMC3     C 5986   2.586   2.281  17.341  0.2149  0.0440 -0.2441
  397TMC3     O 5987   2.650   2.383  17.315 -0.1312 -0.2741  0.1918
  397TMC3     H 5988   2.806   2.269  17.435 -2.4386  1.8341  0.0982
  397TMC3    H1 5989   2.436   2.080  17.465  0.7665 -3.4707  1.9762
  397TMC3    H2 5990   2.776   1.850  17.372 -1.1866 -0.5489  1.2616
  397TMC3    C7 5991   2.527   1.833  17.424 -0.0651 -0.4277 -0.2735
  397TMC3    C8 5992   2.879   2.074  17.294  0.0966  0.2504  0.1133
  397TMC3    O1 5993   2.412   1.854  17.393 -0.4964  0.3695 -0.4579
  397TMC3    O2 5994   2.855   1.996  17.205 -0.0248 -0.0208  0.6319
  398MPD2     C 5995   1.091   3.583   0.200  0.6019 -0.3629 -0.2625
  398MPD2    C1 5996   1.185   3.487   0.190  0.6892  0.3458  0.2258
  398MPD2    C2 5997   1.312   3.525   0.222 -0.1601 -0.7939 -0.3347
  398MPD2    C3 5998   1.354   3.655   0.256  0.3722  0.8791  0.5701
  398MPD2    C4 5999   1.258   3.751   0.254  0.2601  0.1804  0.3091
  398MPD2    C5 6000   1.129   3.711   0.235 -0.4737  0.1829  0.2723
  398MPD2     H 6001   1.383   3.445   0.209 -0.1120 -0.9837  1.1304
  398MPD2    H1 6002   1.260   3.854   0.285 -2.0822 -0.5490  2.9455
  398MPD2    H2 6003   0.985   3.562   0.193  0.6607 -0.4657 -0.8889
  398MPD2    H3 6004   1.056   3.792   0.230 -0.6783 -0.1149 -1.3579
  398MPD2     N 6005   1.496   3.687   0.250  0.2549 -0.5194 -0.1746
  398MPD2    H5 6006   1.562   3.615   0.226  1.5944  1.7498 -3.3082
  398MPD2    N1 6007   1.160   3.354   0.171 -0.7328  0.2657  0.0714
  398MPD2    H7 6008   1.235   3.287   0.181  0.0308  0.8336 -1.8286
  399TMC3    C1 6009   1.024   3.169   0.112 -0.8491 -0.4446  0.1519
  399TMC3    C2 6010   1.086   3.085   0.200  0.2256 -0.1316 -0.1475
  399TMC3    C3 6011   1.062   2.947   0.190  0.1503 -0.3557 -0.3526
  399TMC3    C4 6012   0.949   3.124   0.012 -0.0920  0.0184 -0.5343
  399TMC3    C5 6013   0.937   2.990   0.002 -0.7503  0.3561  0.6733
  399TMC3    C6 6014   0.989   2.900   0.091 -0.5623  0.7010 -0.1754
  399TMC3     C 6015   1.035   3.315   0.116 -0.5307 -0.1868 -0.1939
  399TMC3     O 6016   0.946   3.376   0.060  0.0131 -0.1101 -0.1153
  399TMC3     H 6017   1.136   3.129   0.286  0.9698  0.5042 -0.9134
  399TMC3    H1 6018   0.893   3.194  17.709 -1.3092 -1.5566 -1.2324
  399TMC3    H2 6019   0.979   2.795   0.066 -1.0177  0.9430 -0.9875
  399TMC3    C7 6020   0.840   2.942  17.666  0.1594  0.1164  0.4407
  399TMC3    C8 6021   1.143   2.849   0.258  0.2129 -0.3924 -0.9680
  399TMC3    O1 6022   0.792   2.831  17.689  0.6919 -0.3378  0.0021
  399TMC3    O2 6023   1.245   2.888   0.318 -0.0309  0.2122 -0.3907
  400TMC3    C1 6024   3.902   1.636  16.989 -0.2356 -0.4481  0.2855
  400TMC3    C2 6025   3.782   1.565  16.968 -0.1780  0.5674  0.1394
  400TMC3    C3 6026   3.662   1.622  16.943  0.0957  0.2602 -0.0441
  400TMC3    C4 6027   3.900   1.772  16.968  0.6417 -0.2127 -0.2304
  400TMC3    C5 6028   3.775   1.823  16.939 -0.2117 -0.0758 -0.4205
  400TMC3    C6 6029   3.654   1.758  16.925  0.6305  0.3636  0.0245
  400TMC3     C 6030   4.010   1.576  17.074 -0.1114 -0.0218  0.7055
  400TMC3     O 6031   4.026   1.456  17.070  0.9730  0.6411  0.0943
  400TMC3     H 6032   3.791   1.460  16.992 -1.1073  0.6944  1.0586
  400TMC3    H1 6033   3.992   1.828  16.980  1.6481 -1.9098  0.0292
  400TMC3    H2 6034   3.563   1.817  16.921 -1.6242 -2.9023  2.5080
  400TMC3    C7 6035   3.758   1.964  16.919 -0.1817 -0.0103 -0.8785
  400TMC3    C8 6036   3.548   1.543  16.908  0.3940  1.0611  0.7371
  400TMC3    O1 6037   3.658   2.022  16.960  0.1432  0.0378  0.4702
  400TMC3    O2 6038   3.439   1.596  16.902  0.5967 -0.3609  0.2342
  401MPD2     C 6039   3.444   0.411   1.426 -0.5771 -0.1603  0.1017
  401MPD2    C1 6040   3.499   0.330   1.328 -0.0524 -0.3593 -0.0089
  401MPD2    C2 6041   3.437   0.205   1.303 -0.3059  0.2046  0.6249
  401MPD2    C3 6042   3.316   0.169   1.359  0.1113  0.9674  0.0233
  401MPD2    C4 6043   3.268   0.246   1.463  0.3901 -0.0366 -0.0138
  401MPD2    C5 6044   3.336   0.364   1.498  0.3555  0.0807 -0.3340
  401MPD2     H 6045   3.485   0.142   1.229 -0.4938  1.2930 -0.4208
  401MPD2    H1 6046   3.197   0.196   1.528  1.8373 -1.2389  0.6556
  401MPD2    H2 6047   3.482   0.509   1.453  0.4017 -0.2783 -0.8382
  401MPD2    H3 6048   3.307   0.426   1.582  0.7988  0.3613 -0.3885
  401MPD2     N 6049   3.267   0.039   1.334  0.1047 -0.6927 -0.3454
  401MPD2    H5 6050   3.337   4.717   1.294  1.5499  0.8842 -0.2691
  401MPD2    N1 6051   3.613   0.371   1.256 -0.0644  0.3073 -0.3663
  401MPD2    H7 6052   3.648   0.311   1.182  1.0944  1.4609 -0.7575
  402TMC3    C1 6053   3.126   4.598   1.346 -0.0292  0.4746  0.2547
  402TMC3    C2 6054   3.232   4.515   1.292 -0.1361 -0.1760  0.3915
  402TMC3    C3 6055   3.196   4.395   1.243  0.1616  0.0138 -0.8286
  402TMC3    C4 6056   2.997   4.561   1.335  0.4748  0.6179 -1.1261
  402TMC3    C5 6057   2.969   4.436   1.280  0.5426  1.2994  0.2332
  402TMC3    C6 6058   3.070   4.350   1.247  0.0274 -0.0787 -0.5008
  402TMC3     C 6059   3.144   4.738   1.376  0.4106 -0.3578  0.7698
  402TMC3     O 6060   3.050   0.075   1.382 -0.5908 -0.8792  0.0743
  402TMC3     H 6061   3.335   4.538   1.316 -0.1949  2.1419 -1.6273
  402TMC3    H1 6062   2.914   4.616   1.378 -0.2243 -2.6258  1.6731
  402TMC3    H2 6063   3.051   4.244   1.232 -0.4223 -0.2640  1.4553
  402TMC3    C7 6064   2.830   4.397   1.255  0.2131  0.1950  0.0755
  402TMC3    C8 6065   3.299   4.293   1.225 -0.0979  0.2734 -0.7018
  402TMC3    O1 6066   2.740   4.467   1.299 -0.3483 -0.5386 -0.0802
  402TMC3    O2 6067   3.264   4.174   1.245  0.2464  0.2213  0.1230
  403MPD2     C 6068   1.334   3.082  13.074 -0.0514  0.7119  0.4364
  403MPD2    C1 6069   1.239   3.064  13.175 -0.9173  0.1943  0.0525
  403MPD2    C2 6070   1.277   3.085  13.304 -0.6707  0.0243  0.0891
  403MPD2    C3 6071   1.405   3.107  13.338 -0.2607 -0.2999  0.0899
  403MPD2    C4 6072   1.501   3.110  13.241  0.4257 -1.1985 -0.5327
  403MPD2    C5 6073   1.468   3.087  13.112 -0.4439  0.0167  0.0124
  403MPD2     H 6074   1.206   3.091  13.386  0.3566  1.3428  0.8852
  403MPD2    H1 6075   1.601   3.140  13.271 -0.5582  1.2818  0.2529
  403MPD2    H2 6076   1.296   3.077  12.973 -1.2288  0.8325  0.8825
  403MPD2    H3 6077   1.542   3.103  13.034 -1.3804  0.3729 -0.8129
  403MPD2     N 6078   1.418   3.142  13.474  0.2943  0.2161 -0.1847
  403MPD2    H5 6079   1.335   3.169  13.526  2.1498  1.6112  2.0932
  403MPD2    N1 6080   1.107   3.038  13.132 -0.3486 -0.3339 -0.4288
  403MPD2    H7 6081   1.091   3.019  13.033 -1.0705 -3.0079  0.2211
  404TMC3    C1 6082   0.879   2.960  13.137 -0.4704  0.0831 -0.2512
  404TMC3    C2 6083   0.784   2.900  13.216  0.5345  0.2466  0.3582
  404TMC3    C3 6084   0.688   2.818  13.162  0.0720 -0.2545 -0.3901
  404TMC3    C4 6085   0.880   2.941  13.001 -0.2806 -0.1083 -0.0918
  404TMC3    C5 6086   0.777   2.865  12.950 -0.5067 -1.0464  0.6912
  404TMC3    C6 6087   0.685   2.796  13.028  0.3144  0.5328  0.1536
  404TMC3     C 6088   0.995   3.014  13.212 -0.5454  0.1717  0.7153
  404TMC3     O 6089   0.977   3.031  13.329  0.1946 -0.3992  0.3243
  404TMC3     H 6090   0.793   2.892  13.324  0.4686 -0.4323  0.3136
  404TMC3    H1 6091   0.965   2.976  12.943 -0.8497  0.6428 -0.4682
  404TMC3    H2 6092   0.608   2.729  12.990 -1.0810  1.4446  1.3619
  404TMC3    C7 6093   0.722   2.938  12.833 -0.2318  0.2666 -0.8180
  404TMC3    C8 6094   0.650   2.702  13.243 -0.3728 -0.1309 -0.2562
  404TMC3    O1 6095   0.798   3.020  12.790  0.4639 -0.2410  0.0012
  404TMC3    O2 6096   0.662   2.586  13.198  0.4533  0.0557 -0.2821
  405MPD2     C 6097   1.047   4.509  15.228  0.6662  0.0073  1.0871
  405MPD2    C1 6098   1.010   4.402  15.159  0.1971  0.7972  0.0190
  405MPD2    C2 6099   0.912   4.419  15.065 -0.3861 -0.2858  0.5619
  405MPD2    C3 6100   0.859   4.540  15.021  0.0944  0.6430 -0.4513
  405MPD2    C4 6101   0.891   4.651  15.095 -0.5265  0.2237  0.7191
  405MPD2    C5 6102   0.994   4.630  15.193  0.9675 -1.2058 -0.0848
  405MPD2     H 6103   0.866   4.335  15.015 -0.8172  0.2888 -0.0119
  405MPD2    H1 6104   0.851   0.008  15.069 -0.1370  0.2951  0.3828
  405MPD2    H2 6105   1.120   4.497  15.307  0.2138 -1.3003  1.3093
  405MPD2    H3 6106   1.040   4.714  15.244 -2.3086 -1.0037  2.5795
  405MPD2     N 6107   0.767   4.529  14.914 -0.0331  0.2195  0.3757
  405MPD2    H5 6108   0.756   4.434  14.879  0.2505  0.6375 -0.8704
  405MPD2    N1 6109   1.047   4.274  15.186  0.3382  0.5668 -0.2395
  405MPD2    H7 6110   1.006   4.206  15.122 -2.4797  2.0464  0.0042
  406TMC3    C1 6111   0.450   4.521  14.599 -0.5187 -0.1122 -0.2257
  406TMC3    C2 6112   0.394   4.406  14.649  1.3902 -0.9400  0.1585
  406TMC3    C3 6113   0.436   4.360  14.765  0.8432  0.1079 -0.3927
  406TMC3    C4 6114   0.545   4.599  14.661 -0.8584  0.4341  0.8846
  406TMC3    C5 6115   0.581   4.548  14.783 -0.6299  0.9322  0.0104
  406TMC3    C6 6116   0.531   4.427  14.834 -0.4777  0.6003  1.0143
  406TMC3     C 6117   0.390   4.593  14.487 -0.6179 -0.4241  0.0819
  406TMC3     O 6118   0.415   4.712  14.482 -0.2303 -0.2517 -0.1178
  406TMC3     H 6119   0.324   4.349  14.588 -0.3723 -1.2393  2.4461
  406TMC3    H1 6120   0.577   4.697  14.627  0.0139 -0.5354 -1.0829
  406TMC3    H2 6121   0.552   4.404  14.937  1.5353 -0.7322  0.2985
  406TMC3    C7 6122   0.686   4.617  14.853  0.3955  0.6848 -0.1120
  406TMC3    C8 6123   0.418   4.216  14.785  0.1285 -0.3457  0.1096
  406TMC3    O1 6124   0.692   4.737  14.848 -0.2868 -0.1162  0.4238
  406TMC3    O2 6125   0.314   4.163  14.755  0.0453 -0.0518  0.7111
  407MPD2     C 6126   3.307   0.052   9.550 -0.0304 -0.2319  0.0319
  407MPD2    C1 6127   3.390   0.109   9.645  0.0594  0.1387  0.1049
  407MPD2    C2 6128   3.338   0.148   9.766 -0.0002  0.3879  0.5230
  407MPD2    C3 6129   3.209   0.111   9.808 -0.6110  0.3227  0.1139
  407MPD2    C4 6130   3.131   0.049   9.716 -0.0604 -0.2309 -0.6519
  407MPD2    C5 6131   3.181   0.017   9.588 -0.0524 -0.2939  0.2196
  407MPD2     H 6132   3.404   0.205   9.831  0.1426 -0.8883  1.4763
  407MPD2    H1 6133   3.035   0.007   9.744 -0.8361  2.1187  0.1243
  407MPD2    H2 6134   3.342   0.022   9.452 -0.9440  0.6893 -0.5710
  407MPD2    H3 6135   3.120   4.703   9.517  1.1519 -0.7920 -0.4345
  407MPD2     N 6136   3.159   0.143   9.935  0.6836 -0.4049  0.2474
  407MPD2    H5 6137   3.061   0.122   9.949  0.5640 -0.3129 -0.4372
  407MPD2    N1 6138   3.522   0.150   9.627  0.0550 -1.0946  0.0529
  407MPD2    H7 6139   3.570   0.199   9.701  1.8782 -0.5851 -1.4529
  408TMC3    C1 6140   3.747   0.136   9.556 -0.3524  0.0089  0.4335
  408TMC3    C2 6141   3.857   0.057   9.536 -0.3814 -0.0699 -0.0302
  408TMC3    C3 6142   3.976   0.099   9.581  0.2744 -0.2900 -1.1657
  408TMC3    C4 6143   3.765   0.259   9.615 -0.5306 -0.6821 -0.1587
  408TMC3    C5 6144   3.890   0.305   9.645 -0.4498  0.0827 -0.2601
  408TMC3    C6 6145   3.994   0.226   9.629  0.3490  0.6107  0.3021
  408TMC3     C 6146   3.612   0.089   9.543  0.5881  0.5221 -0.0070
  408TMC3     O 6147   3.598   4.739   9.462 -0.3055  0.2817  0.3801
  408TMC3     H 6148   3.850   4.692   9.512 -0.0280  0.2012 -1.3110
  408TMC3    H1 6149   3.681   0.328   9.619  1.5266  1.9162 -2.2723
  408TMC3    H2 6150   4.094   0.261   9.652 -0.1014  1.6489  0.6790
  408TMC3    C7 6151   3.920   0.432   9.712 -0.3147  0.6316  0.0253
  408TMC3    C8 6152   4.098   0.022   9.552  0.3287 -0.5949  0.0658
  408TMC3    O1 6153   4.027   0.450   9.766 -0.3688  0.0170  0.0429
  408TMC3    O2 6154   4.096   4.680   9.464 -0.2163 -0.3305 -0.0551
  409MPD2     C 6155   3.034   1.391  17.353 -0.2988 -0.2267  0.3849
  409MPD2    C1 6156   3.153   1.434  17.400  0.1190 -0.2083 -0.8320
  409MPD2    C2 6157   3.176   1.567  17.396  0.4076 -0.2834 -0.3485
  409MPD2    C3 6158   3.091   1.656  17.328 -0.0592 -0.1397 -0.3896
  409MPD2    C4 6159   2.970   1.610  17.290  0.3158  0.4605 -0.5110
  409MPD2    C5 6160   2.946   1.479  17.300 -0.2620 -0.1421 -0.2361
  409MPD2     H 6161   3.275   1.602  17.421  0.0303 -0.2018  1.0154
  409MPD2    H1 6162   2.896   1.679  17.251  0.7127  0.1756 -1.7825
  409MPD2    H2 6163   2.992   1.292  17.368  1.2989 -0.9584 -0.0161
  409MPD2    H3 6164   2.849   1.437  17.279 -2.2499  3.9558  0.7325
  409MPD2     N 6165   3.124   1.793  17.293 -0.1023 -0.0127 -0.2728
  409MPD2    H5 6166   3.069   1.832  17.217  0.0163 -1.6974 -1.2157
  409MPD2    N1 6167   3.252   1.345  17.433 -0.0924  0.0646 -0.1293
  409MPD2    H7 6168   3.336   1.386  17.473 -0.8170  2.5363 -1.1526
  410TMC3    C1 6169   3.261   1.979  17.250  0.3133 -0.9292  0.7323
  410TMC3    C2 6170   3.372   2.047  17.290  0.7421 -0.5652 -0.0330
  410TMC3    C3 6171   3.427   2.138  17.212  0.5011  0.0730 -0.1518
  410TMC3    C4 6172   3.223   1.986  17.119  0.2903  0.4097  0.5024
  410TMC3    C5 6173   3.298   2.066  17.034 -0.1833 -0.1974  0.0067
  410TMC3    C6 6174   3.394   2.149  17.079 -0.4766 -0.1195 -0.7361
  410TMC3     C 6175   3.226   1.867  17.338  0.5635  0.4553 -0.3817
  410TMC3     O 6176   3.294   1.845  17.432 -0.0415 -0.4384  0.4045
  410TMC3     H 6177   3.400   2.043  17.395  1.5136  1.3451 -0.1513
  410TMC3    H1 6178   3.144   1.926  17.077  0.3887  0.3250  0.4384
  410TMC3    H2 6179   3.463   2.207  17.019 -0.3441  0.8249  0.3180
  410TMC3    C7 6180   3.288   2.043  16.892 -0.0369 -0.1394  0.5533
  410TMC3    C8 6181   3.566   2.164  17.241  0.3964 -0.2270 -0.2154
  410TMC3    O1 6182   3.240   1.932  16.867 -0.7109  0.1516 -0.0111
  410TMC3    O2 6183   3.618   2.260  17.190  0.4252  0.0630  0.0197
  411MPD2     C 6184   2.957   2.035  14.693  0.2223  0.6802  0.3861
  411MPD2    C1 6185   2.953   2.121  14.585 -0.1713 -0.5992 -0.2727
  411MPD2    C2 6186   2.846   2.115  14.499  0.0132  0.6505 -0.5912
  411MPD2    C3 6187   2.738   2.025  14.517 -0.5618 -0.0658 -0.4062
  411MPD2    C4 6188   2.734   1.948  14.632  0.1666 -1.1247 -0.3779
  411MPD2    C5 6189   2.853   1.951  14.706 -0.3586 -0.1809  0.5212
  411MPD2     H 6190   2.850   2.173  14.407 -0.1057 -1.3003 -1.8307
  411MPD2    H1 6191   2.673   1.859  14.639  1.4787 -2.0541 -0.8198
  411MPD2    H2 6192   3.041   2.030  14.761 -0.7797  0.1600  1.6013
  411MPD2    H3 6193   2.862   1.883  14.790 -0.2005 -0.3796  0.3452
  411MPD2     N 6194   2.638   2.010  14.418 -0.3173  0.8329  0.6447
  411MPD2    H5 6195   2.568   1.939  14.436 -0.2786  0.7934  0.6412
  411MPD2    N1 6196   3.047   2.218  14.564 -0.8375 -0.1524 -0.1557
  411MPD2    H7 6197   3.026   2.280  14.485  2.8214  1.1707 -0.1130
  412TMC3    C1 6198   2.528   2.032  14.211 -0.2069  0.0305  0.1576
  412TMC3    C2 6199   2.481   2.126  14.115  0.0110  0.3429  0.1286
  412TMC3    C3 6200   2.455   2.074  13.987 -0.4747  0.9258 -0.5636
  412TMC3    C4 6201   2.543   1.900  14.188 -0.4928 -0.0200  0.2428
  412TMC3    C5 6202   2.497   1.854  14.069  0.2211  0.6340 -0.0941
  412TMC3    C6 6203   2.451   1.937  13.975 -0.7221 -0.2077 -0.4731
  412TMC3     C 6204   2.613   2.090  14.312 -0.7075  0.5525  0.7788
  412TMC3     O 6205   2.657   2.203  14.306 -0.0406  0.3881 -0.0357
  412TMC3     H 6206   2.501   2.231  14.131 -1.3479  0.3190  2.0481
  412TMC3    H1 6207   2.591   1.836  14.262 -0.6452 -0.1066  0.2679
  412TMC3    H2 6208   2.406   1.888  13.889 -0.4748  0.0334 -0.7402
  412TMC3    C7 6209   2.569   1.739  14.018  0.4041  0.2467  0.1990
  412TMC3    C8 6210   2.550   2.124  13.896 -0.3809  0.9784 -0.3400
  412TMC3    O1 6211   2.602   1.744  13.901  0.1237 -0.2841 -0.2207
  412TMC3    O2 6212   2.553   2.242  13.865  0.1698 -0.7430  0.2660
  413MPD2     C 6213   0.272   0.648  15.814 -0.3952 -0.0337  0.2757
  413MPD2    C1 6214   0.277   0.645  15.674 -0.4638  0.0529  1.2157
  413MPD2    C2 6215   0.404   0.616  15.624  0.2783  0.1557  0.2726
  413MPD2    C3 6216   0.515   0.588  15.705 -0.7324 -0.0480 -0.4286
  413MPD2    C4 6217   0.510   0.599  15.839  0.6169  0.5078 -0.1282
  413MPD2    C5 6218   0.384   0.629  15.893 -0.1664  0.2510  0.1706
  413MPD2     H 6219   0.425   0.612  15.518 -0.6721  0.6691  0.0596
  413MPD2    H1 6220   0.595   0.574  15.901  0.9895  1.7481 -0.1519
  413MPD2    H2 6221   0.183   0.667  15.872  0.0626  1.2996  0.5226
  413MPD2    H3 6222   0.379   0.636  16.001  1.2888  1.7226  0.1353
  413MPD2     N 6223   0.631   0.562  15.629 -0.1715 -0.0511  0.4084
  413MPD2    H5 6224   0.604   0.544  15.533 -2.1790  0.3663  0.8853
  413MPD2    N1 6225   0.164   0.676  15.589  0.5413 -0.4662  0.0275
  413MPD2    H7 6226   0.089   0.725  15.635 -0.6042 -1.1721 -1.0980
  414TMC3    C1 6227   0.825   0.455  15.559 -0.2525  0.2702 -0.2634
  414TMC3    C2 6228   0.843   0.323  15.574 -0.0948  0.5947 -0.7102
  414TMC3    C3 6229   0.829   0.238  15.467  0.4059 -0.5443  0.0518
  414TMC3    C4 6230   0.791   0.506  15.433  0.5684  0.7714  0.3316
  414TMC3    C5 6231   0.786   0.419  15.324  0.4960 -0.5232 -0.3626
  414TMC3    C6 6232   0.795   0.281  15.341  0.1490  0.0741 -0.3852
  414TMC3     C 6233   0.748   0.512  15.666  0.9874 -0.1167  0.2919
  414TMC3     O 6234   0.778   0.500  15.784  0.6272  0.0013  0.3082
  414TMC3     H 6235   0.856   0.289  15.676 -0.4225 -0.9641 -1.1836
  414TMC3    H1 6236   0.783   0.613  15.419  2.7444  0.5858 -2.3122
  414TMC3    H2 6237   0.790   0.213  15.257  0.9241 -0.6607  0.1657
  414TMC3    C7 6238   0.730   0.472  15.204 -0.4694  0.5832  0.4936
  414TMC3    C8 6239   0.817   0.095  15.478 -0.1276 -0.3992 -0.0750
  414TMC3    O1 6240   0.641   0.556  15.214 -0.2189  0.4499  0.2743
  414TMC3    O2 6241   0.772   0.033  15.382  0.3419  0.4628  0.7367
  415TMC3    C1 6242   0.306   2.507  10.321 -0.1169  0.1923  0.5904
  415TMC3    C2 6243   0.427   2.558  10.294  0.5814  0.0755 -0.1164
  415TMC3    C3 6244   0.466   2.573  10.166 -0.1928 -0.4386 -0.0426
  415TMC3    C4 6245   0.216   2.467  10.224 -0.2756  0.1061  0.6484
  415TMC3    C5 6246   0.254   2.475  10.091  0.5957 -0.6625  0.0970
  415TMC3    C6 6247   0.382   2.522  10.059 -0.0376 -0.4645  0.7120
  415TMC3     C 6248   0.256   2.502  10.449 -1.0050  0.4611  0.5796
  415TMC3     O 6249   0.155   2.440  10.463 -0.0443  0.2767  0.0471
  415TMC3     H 6250   0.502   2.580  10.369  0.5940 -1.6319  0.3827
  415TMC3    H1 6251   0.125   2.413  10.245 -1.0645  0.7580 -1.0780
  415TMC3    H2 6252   0.431   2.511   9.963 -1.1919 -3.6135  0.5014
  415TMC3    C7 6253   0.164   2.424   9.993  0.3586  0.5075  0.2099
  415TMC3    C8 6254   0.601   2.532  10.137  0.3404  0.2727  0.5797
  415TMC3    O1 6255   0.222   2.409   9.886  0.4293  0.3564  0.2732
  415TMC3    O2 6256   0.655   2.445  10.210  0.2050  0.0851  0.0194
  416MPD2     C 6257   2.985   1.252  11.755 -0.6722 -0.1484  0.2035
  416MPD2    C1 6258   2.858   1.221  11.807 -0.6384 -0.6980 -0.4908
  416MPD2    C2 6259   2.800   1.107  11.769  0.2482  0.4065 -0.0471
  416MPD2    C3 6260   2.857   1.023  11.667 -0.8230 -0.1484  0.2052
  416MPD2    C4 6261   2.981   1.063  11.615  0.2526 -0.3111  0.2343
  416MPD2    C5 6262   3.050   1.167  11.669  0.3409  0.3390  0.0224
  416MPD2     H 6263   2.703   1.080  11.809 -0.3656  2.0316 -0.4263
  416MPD2    H1 6264   3.030   0.990  11.551 -2.1798 -1.6117 -0.1642
  416MPD2    H2 6265   3.028   1.349  11.777  0.9553 -0.7228 -0.4392
  416MPD2    H3 6266   3.143   1.206  11.631  1.6891 -1.4901  1.4721
  416MPD2     N 6267   2.795   0.901  11.637  0.0441 -0.4152 -0.2217
  416MPD2    H5 6268   2.724   0.874  11.704  0.3249 -1.4039 -0.3309
  416MPD2    N1 6269   2.769   1.302  11.891 -0.3777 -0.2275  0.1713
  416MPD2    H7 6270   2.676   1.268  11.912 -1.4837  2.7643  0.1271
  417TMC3    C1 6271   2.681   1.496  11.975  0.8538 -0.0279 -0.6298
  417TMC3    C2 6272   2.677   1.576  12.085  0.8208 -0.6536  0.0821
  417TMC3    C3 6273   2.568   1.660  12.099 -0.4103  0.3063 -1.2471
  417TMC3    C4 6274   2.579   1.496  11.883  0.1741  0.0321 -0.3299
  417TMC3    C5 6275   2.472   1.576  11.896  0.1440  0.3539  0.4801
  417TMC3    C6 6276   2.470   1.663  12.000  0.5714  0.3228 -0.1672
  417TMC3     C 6277   2.802   1.416  11.950 -0.2184  0.3486  0.0305
  417TMC3     O 6278   2.907   1.468  11.969  0.8993  0.0257 -0.4036
  417TMC3     H 6279   2.759   1.581  12.155 -0.3074 -0.2304  1.3921
  417TMC3    H1 6280   2.588   1.424  11.803  0.0988 -1.1249  0.7115
  417TMC3    H2 6281   2.383   1.727  12.014  0.4150 -0.0945  0.7583
  417TMC3    C7 6282   2.359   1.566  11.800 -0.2871  0.8398  0.2031
  417TMC3    C8 6283   2.522   1.696  12.224  0.3728  0.5659  0.1148
  417TMC3    O1 6284   2.372   1.525  11.687  0.4617 -0.1571 -0.4443
  417TMC3    O2 6285   2.400   1.706  12.236 -0.3802  0.7859 -0.4393
  418TMC3    C1 6286   1.858   3.726   0.097 -0.2126  0.0163  0.2372
  418TMC3    C2 6287   1.756   3.802   0.141  1.0507 -0.1129 -0.6830
  418TMC3    C3 6288   1.697   3.777   0.260 -0.2383 -0.7035 -0.5867
  418TMC3    C4 6289   1.894   3.606   0.161  0.8730 -0.3178 -0.0769
  418TMC3    C5 6290   1.847   3.596   0.293  0.3416  0.2188 -0.1535
  418TMC3    C6 6291   1.737   3.670   0.334 -0.1151  0.2189  0.0455
  418TMC3     C 6292   1.886   3.731  17.717 -0.4470 -0.0424 -0.0884
  418TMC3     O 6293   1.899   3.842  17.670  0.0640 -0.3554  0.2730
  418TMC3     H 6294   1.723   3.885   0.080  0.7266 -0.4321 -0.9411
  418TMC3    H1 6295   1.989   3.556   0.146  1.9833  1.4380  1.0568
  418TMC3    H2 6296   1.691   3.643   0.429  1.3496  1.6148  1.1652
  418TMC3    C7 6297   1.870   3.476   0.375  0.1823  0.1987 -0.5654
  418TMC3    C8 6298   1.553   3.809   0.260  0.0719  0.8193  0.1106
  418TMC3    O1 6299   1.860   3.365   0.323  0.0281 -0.2967 -0.4181
  418TMC3    O2 6300   1.516   3.923   0.283  0.3188 -0.1963 -0.5539
  419MPD2     C 6301   4.229   1.439  12.311  0.2541  0.2648 -0.8241
  419MPD2    C1 6302   4.265   1.569  12.339  1.0684 -0.0448 -0.1094
  419MPD2    C2 6303   4.240   1.624  12.462 -0.0233  0.0225  0.3338
  419MPD2    C3 6304   4.180   1.543  12.556 -0.2258 -0.5805  0.5601
  419MPD2    C4 6305   4.136   1.414  12.524 -0.1617  0.2762 -1.3382
  419MPD2    C5 6306   4.154   1.365  12.400  0.6897  0.0963  0.3298
  419MPD2     H 6307   4.276   1.722  12.490 -0.2031  0.2449 -0.2183
  419MPD2    H1 6308   4.092   1.341  12.592 -0.2366  1.6133  0.0355
  419MPD2    H2 6309   4.261   1.396  12.217  1.0025  3.3715 -1.9842
  419MPD2    H3 6310   4.129   1.262  12.378  0.6309  0.5765 -1.8307
  419MPD2     N 6311   4.159   1.608  12.678 -0.1602  0.1632  0.2073
  419MPD2    H5 6312   4.188   1.705  12.685 -1.9042  0.6509  0.8217
  419MPD2    N1 6313   4.337   1.643  12.252 -0.0478 -0.2104 -0.4008
  419MPD2    H7 6314   4.378   1.727  12.291 -1.9877  0.3568  0.3925
  420TMC3    C1 6315   4.074   1.648  12.890 -0.5904  0.4571 -0.5428
  420TMC3    C2 6316   4.039   1.768  12.838  0.2256  0.3390 -0.3484
  420TMC3    C3 6317   4.060   1.879  12.911  0.3104  0.1426 -0.1623
  420TMC3    C4 6318   4.136   1.645  13.014 -0.2429 -0.3832 -0.7558
  420TMC3    C5 6319   4.171   1.758  13.074  0.3767  0.6815  0.3417
  420TMC3    C6 6320   4.121   1.881  13.033  0.6779  0.4121  0.0886
  420TMC3     C 6321   4.110   1.544  12.791  0.6754 -0.2476 -0.0762
  420TMC3     O 6322   4.118   1.424  12.823 -0.0484 -1.1407  0.3060
  420TMC3     H 6323   3.979   1.773  12.748  1.1535 -2.0952 -1.0838
  420TMC3    H1 6324   4.193   1.558  13.046  1.1245  1.1794  1.0337
  420TMC3    H2 6325   4.133   1.973  13.088  0.8080  0.9099 -0.7863
  420TMC3    C7 6326   4.263   1.755  13.187 -0.4587 -0.1054 -0.2506
  420TMC3    C8 6327   4.040   2.008  12.841  0.3144 -0.4115 -0.1261
  420TMC3    O1 6328   4.276   1.650  13.250 -0.0817  0.0541  0.6435
  420TMC3    O2 6329   4.052   1.995  12.723 -0.0422 -0.5884  0.2024
  421TMC3    C1 6330   1.536   3.172  13.677 -0.2739  0.6623  0.3864
  421TMC3    C2 6331   1.434   3.246  13.730 -0.0856  0.4531  0.5801
  421TMC3    C3 6332   1.410   3.244  13.865 -0.8959  0.1905 -0.5533
  421TMC3    C4 6333   1.610   3.096  13.761  0.1923 -0.0230 -0.4659
  421TMC3    C5 6334   1.586   3.099  13.894 -0.4180  0.8389  0.1404
  421TMC3    C6 6335   1.482   3.164  13.952 -0.5207  0.2524 -0.4428
  421TMC3     C 6336   1.534   3.126  13.544 -1.0040  0.4028  0.2428
  421TMC3     O 6337   1.627   3.063  13.500 -0.1072 -0.7446 -0.2362
  421TMC3     H 6338   1.378   3.316  13.670 -2.7278 -1.4497  0.8616
  421TMC3    H1 6339   1.692   3.043  13.713 -0.4441 -2.1145  0.7602
  421TMC3    H2 6340   1.467   3.148  14.058  1.2743 -2.0967 -0.5494
  421TMC3    C7 6341   1.692   3.055  13.975  0.5938  0.0290 -0.2309
  421TMC3    C8 6342   1.305   3.327  13.914 -0.0304 -0.2275 -0.3091
  421TMC3    O1 6343   1.696   3.110  14.087 -0.8834 -0.0243  0.7014
  421TMC3    O2 6344   1.279   3.439  13.864 -0.1213  0.0937  0.6924
  422TMC3    C1 6345   3.319   4.360  12.759 -0.0103  0.5456  0.4517
  422TMC3    C2 6346   3.311   4.492  12.793 -0.0327 -0.3329 -0.0849
  422TMC3    C3 6347   3.235   4.525  12.900 -0.0600 -0.0976 -0.9310
  422TMC3    C4 6348   3.272   4.268  12.846 -0.3456  0.0312  0.2832
  422TMC3    C5 6349   3.186   4.301  12.946 -0.9688 -0.4984 -0.6748
  422TMC3    C6 6350   3.174   4.432  12.976 -0.2259  0.2673  0.0587
  422TMC3     C 6351   3.393   4.323  12.637  0.8988  0.6405  0.8436
  422TMC3     O 6352   3.418   4.413  12.558 -0.5020  0.2823  0.9213
  422TMC3     H 6353   3.341   4.564  12.717 -2.3198  0.6613 -0.0415
  422TMC3    H1 6354   3.276   4.167  12.807  1.2825  0.7017 -1.2624
  422TMC3    H2 6355   3.125   4.458  13.069 -0.6032 -1.3979  0.3254
  422TMC3    C7 6356   3.100   4.199  13.014 -0.1521 -0.7575  0.3275
  422TMC3    C8 6357   3.220   4.670  12.926  0.6472 -0.5432 -0.1149
  422TMC3    O1 6358   3.141   4.085  13.020  1.0356 -0.3920  0.2483
  422TMC3    O2 6359   3.294   0.008  12.867  0.5118 -0.2062 -0.1810
  423MPD2     C 6360   0.755   0.893   0.982 -0.0810 -0.5252 -0.0168
  423MPD2    C1 6361   0.785   0.758   0.953 -0.4610 -0.1915 -1.1428
  423MPD2    C2 6362   0.715   0.687   0.857 -0.2053 -0.2520  0.0906
  423MPD2    C3 6363   0.620   0.750   0.782 -1.0222  0.3943 -0.5512
  423MPD2    C4 6364   0.599   0.886   0.806 -0.0036  0.3151 -0.2829
  423MPD2    C5 6365   0.662   0.957   0.903 -0.2687 -0.5445  0.2311
  423MPD2     H 6366   0.754   0.586   0.843  0.8249  0.3321 -1.2589
  423MPD2    H1 6367   0.530   0.950   0.753  1.5422  1.0693 -1.4072
  423MPD2    H2 6368   0.797   0.959   1.057 -0.0621  1.2824 -1.6183
  423MPD2    H3 6369   0.639   1.061   0.919 -0.2372 -0.7279  1.4694
  423MPD2     N 6370   0.555   0.691   0.671  0.6441 -0.1277 -0.1498
  423MPD2    H5 6371   0.507   0.764   0.620  0.8928  1.0291  1.2536
  423MPD2    N1 6372   0.894   0.689   1.017  0.2260  0.7298  0.0832
  423MPD2    H7 6373   0.889   0.589   1.001 -2.6102  0.7235  0.8817
  424TMC3    C1 6374   1.039   0.646   1.207 -0.0269  0.9279 -0.1135
  424TMC3    C2 6375   1.087   0.529   1.169  0.4692  0.1273 -0.1709
  424TMC3    C3 6376   1.125   0.441   1.267  0.4280 -0.4566 -0.6593
  424TMC3    C4 6377   1.039   0.685   1.336  0.6991 -0.2490  0.2138
  424TMC3    C5 6378   1.086   0.595   1.431  0.4827 -0.6074 -0.6146
  424TMC3    C6 6379   1.137   0.473   1.395 -0.7875  0.3869 -0.4715
  424TMC3     C 6380   0.977   0.742   1.109  0.1501 -1.1007  0.0083
  424TMC3     O 6381   0.992   0.858   1.137 -0.0822  0.0546  0.3465
  424TMC3     H 6382   1.092   0.502   1.064 -2.0777  0.7362 -0.4274
  424TMC3    H1 6383   1.000   0.785   1.352 -1.0025 -1.2411  2.2247
  424TMC3    H2 6384   1.155   0.393   1.467 -0.9532  0.9215  0.1683
  424TMC3    C7 6385   1.006   0.581   1.556 -0.1543 -1.1967  0.5135
  424TMC3    C8 6386   1.204   0.333   1.216  0.4622 -0.3321 -0.1542
  424TMC3    O1 6387   1.063   0.523   1.648 -0.3243  0.2958 -0.2615
  424TMC3    O2 6388   1.173   0.279   1.108  0.3269  0.9388  0.6525
  425MPD2     C 6389   4.226   0.026  17.342  0.8612  0.6163  0.2333
  425MPD2    C1 6390   4.141   4.680  17.400  0.1135  0.6943  0.4622
  425MPD2    C2 6391   4.032   4.737  17.466  0.5715  0.1443 -0.1571
  425MPD2    C3 6392   4.007   0.131  17.462 -0.7714  0.2110  1.1515
  425MPD2    C4 6393   4.097   0.218  17.398 -0.1260 -0.0532 -0.2169
  425MPD2    C5 6394   4.204   0.158  17.335  0.2176 -0.2888  0.2092
  425MPD2     H 6395   3.958   4.673  17.512  0.9040  0.4288  0.7625
  425MPD2    H1 6396   4.092   0.324  17.380  1.2729  0.0264 -0.1631
  425MPD2    H2 6397   4.310   4.722  17.289 -0.1136  0.1384 -0.9255
  425MPD2    H3 6398   4.278   0.217  17.280 -1.4486 -0.1893 -1.9437
  425MPD2     N 6399   3.877   0.171  17.508  0.1973  0.7845 -0.1543
  425MPD2    H5 6400   3.822   0.095  17.548  0.6024  1.4604  1.6797
  425MPD2    N1 6401   4.159   4.545  17.377 -0.4218 -0.4380 -0.1043
  425MPD2    H7 6402   4.244   4.524  17.325 -0.9134  1.1161 -1.5261
  426TMC3    C1 6403   4.119   4.312  17.369 -1.0189 -0.1199  0.4298
  426TMC3    C2 6404   4.160   4.309  17.243 -0.2497  0.6108  0.1674
  426TMC3    C3 6405   4.161   4.187  17.187  0.5421  0.0529 -0.4615
  426TMC3    C4 6406   4.096   4.201  17.442 -0.0922 -0.6970  0.1262
  426TMC3    C5 6407   4.091   4.083  17.382 -0.2345 -0.4023  0.7653
  426TMC3    C6 6408   4.140   4.074  17.257  0.4824  0.0230 -0.1157
  426TMC3     C 6409   4.084   4.445  17.433  0.5419 -0.2275 -0.0011
  426TMC3     O 6410   3.997   4.454  17.518  0.3279  0.4298  0.4170
  426TMC3     H 6411   4.174   4.401  17.188  0.7597  0.5661  0.3569
  426TMC3    H1 6412   4.073   4.224  17.546  0.3610  1.9126 -0.3353
  426TMC3    H2 6413   4.151   3.979  17.206 -0.9173  0.2112 -0.7631
  426TMC3    C7 6414   4.003   3.979  17.422 -0.4451 -0.4908 -0.0516
  426TMC3    C8 6415   4.192   4.161  17.050 -0.9387 -0.0947 -0.1483
  426TMC3    O1 6416   4.003   3.883  17.349  0.4712 -0.1726 -0.5900
  426TMC3    O2 6417   4.246   4.058  17.020 -0.4429  0.2687 -0.2741
  427MPD2     C 6418   2.588   2.291  14.735  0.3527  0.0977  0.8384
  427MPD2    C1 6419   2.552   2.284  14.867 -0.2208 -0.3470  0.1935
  427MPD2    C2 6420   2.424   2.317  14.911  0.9353 -0.8513  0.0761
  427MPD2    C3 6421   2.334   2.356  14.819 -0.1778  0.1254  1.0709
  427MPD2    C4 6422   2.369   2.376  14.687 -0.0686 -0.3148  0.3956
  427MPD2    C5 6423   2.491   2.329  14.643 -0.0458  0.2708 -0.1490
  427MPD2     H 6424   2.397   2.305  15.016  0.8075 -0.5644  0.0751
  427MPD2    H1 6425   2.301   2.422  14.617  1.3758  2.0687  0.5796
  427MPD2    H2 6426   2.685   2.265  14.694  0.3404  0.4179  0.6002
  427MPD2    H3 6427   2.522   2.349  14.541  0.6505 -1.3042 -0.2466
  427MPD2     N 6428   2.211   2.417  14.851 -0.3230  0.4834 -0.0547
  427MPD2    H5 6429   2.152   2.419  14.768 -1.2558  0.4129  0.6002
  427MPD2    N1 6430   2.636   2.232  14.962  0.4860 -0.1160 -0.3665
  427MPD2    H7 6431   2.595   2.214  15.053  1.6331 -2.1966 -0.2467
  428TMC3    C1 6432   2.843   2.141  15.033  0.5325 -0.2733 -0.2505
  428TMC3    C2 6433   2.777   2.044  15.096 -0.2524  0.0187  0.0489
  428TMC3    C3 6434   2.822   2.014  15.219 -0.6906 -0.1528  0.6439
  428TMC3    C4 6435   2.953   2.204  15.083 -0.0444  0.0225  0.0484
  428TMC3    C5 6436   2.988   2.178  15.213 -0.5650  0.0970 -0.0448
  428TMC3    C6 6437   2.920   2.086  15.281  0.7583 -0.0755 -0.3076
  428TMC3     C 6438   2.770   2.218  14.936  0.4285 -0.3762  0.2174
  428TMC3     O 6439   2.832   2.296  14.862 -0.6542  0.4944  0.6927
  428TMC3     H 6440   2.685   2.007  15.053 -0.9161  0.4140  1.1318
  428TMC3    H1 6441   2.997   2.288  15.032 -0.0624  0.5570  0.9251
  428TMC3    H2 6442   2.947   2.072  15.385 -0.6045  3.1724  0.4819
  428TMC3    C7 6443   3.097   2.244  15.281 -0.2525 -0.1358  0.0939
  428TMC3    C8 6444   2.725   1.945  15.300  0.3051 -0.0185  0.4163
  428TMC3    O1 6445   3.100   2.230  15.401  0.2563 -0.0551  0.9244
  428TMC3    O2 6446   2.669   1.845  15.250 -0.1792 -0.1166  0.4480
  429MPD2     C 6447   3.548   2.083   0.015 -0.7109  0.1626  0.0102
  429MPD2    C1 6448   3.667   2.125  17.723  0.5627 -0.3081 -0.1990
  429MPD2    C2 6449   3.674   2.230  17.640  0.5028  0.1289 -0.4381
  429MPD2    C3 6450   3.560   2.291  17.595  0.0421 -0.1411  0.5526
  429MPD2    C4 6451   3.434   2.246  17.634 -0.5670 -0.5715  0.1386
  429MPD2    C5 6452   3.428   2.147  17.728  0.6280  0.4762 -0.3665
  429MPD2     H 6453   3.767   2.276  17.610  1.1654 -0.8344  0.1701
  429MPD2    H1 6454   3.351   2.302  17.591 -1.5782 -1.9393  0.3136
  429MPD2    H2 6455   3.536   2.005   0.090 -3.0818  0.0177 -0.5294
  429MPD2    H3 6456   3.329   2.118   0.004  0.1672 -1.3870 -3.2881
  429MPD2     N 6457   3.577   2.397  17.498 -0.7525 -0.3526  0.7115
  429MPD2    H5 6458   3.670   2.430  17.473 -1.2798  1.6224  1.4266
  429MPD2    N1 6459   3.789   2.061  17.752  0.0393 -0.3337 -0.1997
  429MPD2    H7 6460   3.866   2.110  17.706  0.0610 -0.3871 -0.2198
  430TMC3    C1 6461   3.539   2.555  17.329  0.0130  0.9118  0.2840
  430TMC3    C2 6462   3.456   2.656  17.275 -0.2028  0.3350  0.6662
  430TMC3    C3 6463   3.520   2.751  17.195  0.3931 -0.1142  0.0534
  430TMC3    C4 6464   3.667   2.531  17.291 -0.4418 -0.7473 -0.3604
  430TMC3    C5 6465   3.722   2.618  17.197 -0.4455 -0.6226  0.2349
  430TMC3    C6 6466   3.648   2.733  17.157  0.8241 -0.0987 -0.2812
  430TMC3     C 6467   3.480   2.470  17.435  1.0844 -0.2878 -0.3070
  430TMC3     O 6468   3.362   2.482  17.471 -0.1567  0.3591  0.0528
  430TMC3     H 6469   3.363   2.678  17.327 -0.0863 -0.7005  1.3247
  430TMC3    H1 6470   3.719   2.437  17.302  1.0625  0.2497  1.1351
  430TMC3    H2 6471   3.691   2.788  17.073 -2.5222  0.7140 -1.4447
  430TMC3    C7 6472   3.837   2.574  17.115 -0.3456  0.3332  0.1495
  430TMC3    C8 6473   3.438   2.819  17.098  0.4305 -0.6097 -0.3730
  430TMC3    O1 6474   3.923   2.655  17.084  0.3611 -1.3008 -0.2096
  430TMC3    O2 6475   3.494   2.901  17.024 -0.6595  0.4606 -0.3706
  431MPD2     C 6476   4.580   2.156  12.685  0.0563 -0.8628  0.2662
  431MPD2    C1 6477   4.582   2.224  12.564  0.5561 -0.5392  0.3321
  431MPD2    C2 6478   4.605   2.163  12.444 -0.2825  0.3927  0.4381
  431MPD2    C3 6479   4.624   2.028  12.445  0.3326 -0.2118  0.1014
  431MPD2    C4 6480   4.638   1.959  12.564  0.5444 -0.2771 -0.0507
  431MPD2    C5 6481   4.615   2.022  12.684  0.2520  0.1041  0.1043
  431MPD2     H 6482   4.603   2.217  12.350 -0.8029 -0.7764 -0.2211
  431MPD2    H1 6483   4.657   1.852  12.564 -3.7205 -1.0597  2.4247
  431MPD2    H2 6484   4.553   2.202  12.779  0.7323  0.7726 -0.3329
  431MPD2    H3 6485   4.632   1.962  12.772 -0.4460 -0.9195 -0.4627
  431MPD2     N 6486   4.652   1.958  12.326 -0.6807 -0.7873  0.1203
  431MPD2    H5 6487   4.681   1.862  12.339 -0.0233 -0.5044  0.6994
  431MPD2    N1 6488   4.561   2.364  12.560 -0.0474 -0.3496 -0.5788
  431MPD2    H7 6489   4.551   2.403  12.466 -0.6129  1.8873  0.4002
  432TMC3    C1 6490   4.623   1.884  12.097  0.8831  0.4821  0.4286
  432TMC3    C2 6491   4.609   1.913  11.961 -0.0404 -0.0067  0.5118
  432TMC3    C3 6492   4.549   1.817  11.879 -0.5130 -0.5752 -0.5411
  432TMC3    C4 6493   4.563   1.776  12.153 -0.1525 -0.2064  0.2296
  432TMC3    C5 6494   4.484   1.697  12.071  0.6795  0.2403  0.2068
  432TMC3    C6 6495   4.493   1.709  11.937  0.1361 -0.0961 -0.1683
  432TMC3     C 6496   4.626   1.999  12.194 -0.5351 -0.2358  0.1795
  432TMC3     O 6497   4.618   2.111  12.142  0.0676 -0.2777 -0.3708
  432TMC3     H 6498   4.642   2.010  11.927  1.9846 -0.4670  1.1883
  432TMC3    H1 6499   4.563   1.742  12.256 -0.6304 -2.3992 -0.4749
  432TMC3    H2 6500   4.448   1.632  11.876 -1.3871  0.7080 -0.0708
  432TMC3    C7 6501   4.372   1.613  12.122  0.1978  0.1736  0.3426
  432TMC3    C8 6502   4.567   1.818  11.735 -0.0848 -0.5682 -0.0666
  432TMC3    O1 6503   4.314   1.531  12.054  1.2498  0.5478  0.1397
  432TMC3    O2 6504   4.529   1.709  11.688 -0.1904 -0.7669  0.8667
  433MPD2     C 6505   3.335   0.364  11.013 -0.6110  0.2170 -0.5145
  433MPD2    C1 6506   3.285   0.240  11.066  0.3203  0.2763  0.0502
  433MPD2    C2 6507   3.321   0.205  11.201 -0.8085 -0.2697  0.7205
  433MPD2    C3 6508   3.359   0.310  11.292  0.0563 -0.3891 -0.2940
  433MPD2    C4 6509   3.386   0.434  11.232 -0.1414  0.6750  0.4780
  433MPD2    C5 6510   3.387   0.452  11.098  0.4141 -0.3951  0.8639
  433MPD2     H 6511   3.296   0.106  11.235 -1.2676  0.0626  1.3626
  433MPD2    H1 6512   3.425   0.518  11.289 -2.1504  1.9295  0.0219
  433MPD2    H2 6513   3.319   0.395  10.910 -3.7949  1.2210  0.2879
  433MPD2    H3 6514   3.417   0.552  11.070  0.4724  0.0969  2.6557
  433MPD2     N 6515   3.377   0.276  11.428 -0.3869 -0.6241 -0.0966
  433MPD2    H5 6516   3.365   0.178  11.449  0.4029 -0.8701 -0.7836
  433MPD2    N1 6517   3.213   0.152  10.979  0.5720 -0.3818 -0.2775
  433MPD2    H7 6518   3.185   0.187  10.888 -0.2861  1.0544  0.5307
  434TMC3    C1 6519   3.079   4.709  10.911  0.6951  0.7646  0.0572
  434TMC3    C2 6520   3.063   4.572  10.933  0.0548  0.2202 -0.5960
  434TMC3    C3 6521   3.106   4.477  10.841  0.0723 -1.0876  0.7145
  434TMC3    C4 6522   3.121   0.010  10.791 -0.6264  0.0811 -0.4342
  434TMC3    C5 6523   3.156   4.656  10.696 -0.8668 -0.2351  0.4338
  434TMC3    C6 6524   3.147   4.519  10.718  0.0882  0.2676  0.8945
  434TMC3     C 6525   3.139   0.045  11.021  0.0808 -0.6183 -0.7294
  434TMC3     O 6526   3.137   4.735  11.134  0.0355  0.7384  0.3877
  434TMC3     H 6527   3.021   4.539  11.028  1.2323 -1.4068 -0.6340
  434TMC3    H1 6528   3.144   0.111  10.759 -2.3286  0.3593 -0.7515
  434TMC3    H2 6529   3.191   4.452  10.645  0.8148  0.1465  1.4454
  434TMC3    C7 6530   3.165   4.691  10.557  0.0840 -0.0536  0.2251
  434TMC3    C8 6531   3.163   4.360  10.895 -0.5369  0.1872 -0.0778
  434TMC3    O1 6532   3.212   0.062  10.525 -0.5501 -0.3367 -0.2168
  434TMC3    O2 6533   3.087   4.299  10.965  0.4352 -0.2152 -0.0601
  435MPD2     C 6534   0.883   1.402  15.887  0.5856 -0.3815  0.1552
  435MPD2    C1 6535   0.861   1.314  15.992 -0.0196 -0.3248 -0.3608
  435MPD2    C2 6536   0.967   1.244  16.049 -0.0839  1.1717 -0.3382
  435MPD2    C3 6537   1.095   1.269  16.014 -0.4328  0.5228 -0.2768
  435MPD2    C4 6538   1.119   1.353  15.912  0.4724 -0.9498 -0.1026
  435MPD2    C5 6539   1.016   1.423  15.846  0.2680  0.1414 -0.3172
  435MPD2     H 6540   0.952   1.185  16.138 -1.3139  1.3433 -0.4201
  435MPD2    H1 6541   1.222   1.371  15.886  0.7016 -1.8637  0.1897
  435MPD2    H2 6542   0.798   1.445  15.834 -0.2015 -0.2778  1.4951
  435MPD2    H3 6543   1.042   1.490  15.765 -0.6624  1.0919  0.1609
  435MPD2     N 6544   1.195   1.192  16.081 -0.2274 -0.3802  0.2223
  435MPD2    H5 6545   1.158   1.128  16.151 -0.3259  1.8936  2.2378
  435MPD2    N1 6546   0.734   1.283  16.043  0.4987 -0.0003 -0.3368
  435MPD2    H7 6547   0.724   1.205  16.107  0.0351 -0.4815 -0.9954
  436TMC3    C1 6548   0.350   1.346  16.255 -0.6569 -0.1724  0.0060
  436TMC3    C2 6549   0.442   1.391  16.162 -0.3460  0.2826 -0.0367
  436TMC3    C3 6550   0.499   1.305  16.077  0.9050  0.6816 -0.2748
  436TMC3    C4 6551   0.314   1.209  16.261 -0.4522  0.8637 -0.6007
  436TMC3    C5 6552   0.379   1.124  16.177  0.7191 -0.0860 -0.3884
  436TMC3    C6 6553   0.469   1.171  16.076  0.0320  0.0831  0.2514
  436TMC3     C 6554   0.366   1.410  16.382  0.0561 -0.4377 -0.3956
  436TMC3     O 6555   0.477   1.438  16.425 -0.0174 -0.2504 -0.3374
  436TMC3     H 6556   0.478   1.493  16.166 -0.3254  0.3452 -1.5220
  436TMC3    H1 6557   0.250   1.168  16.338 -0.3775  1.3009 -0.2984
  436TMC3    H2 6558   0.515   1.101  16.006 -0.2615 -0.7813  0.9212
  436TMC3    C7 6559   0.377   0.981  16.205  0.0421 -0.0117  0.8323
  436TMC3    C8 6560   0.619   1.362  16.021  0.4481  0.1503  0.2062
  436TMC3    O1 6561   0.289   0.944  16.282  0.7555  0.1139 -0.0061
  436TMC3    O2 6562   0.611   1.474  15.971 -0.4080 -0.1796 -0.3991
  437TMC3    C1 6563   4.159   3.207  11.996  0.3993  0.0776 -0.0575
  437TMC3    C2 6564   4.086   3.181  11.881 -0.0651 -0.5281  0.0307
  437TMC3    C3 6565   4.154   3.170  11.767 -0.2377  0.3095  0.2062
  437TMC3    C4 6566   4.291   3.219  11.999  0.2173  0.5489 -0.1418
  437TMC3    C5 6567   4.358   3.218  11.876  0.9637  0.3551  0.5536
  437TMC3    C6 6568   4.289   3.191  11.760  0.1311  0.0956  0.3264
  437TMC3     C 6569   4.095   3.234  12.126 -0.4802 -0.1339 -0.7611
  437TMC3     O 6570   4.161   3.288  12.212  0.5080  0.5012  0.0716
  437TMC3     H 6571   3.978   3.174  11.886 -0.2496  1.1589 -1.7266
  437TMC3    H1 6572   4.341   3.228  12.095 -1.1540 -0.4107  0.6587
  437TMC3    H2 6573   4.344   3.181  11.667  0.1671  0.5230  0.3017
  437TMC3    C7 6574   4.500   3.230  11.868 -0.7812 -0.4626  0.6149
  437TMC3    C8 6575   4.081   3.158  11.643 -0.9866  0.0583 -0.0896
  437TMC3    O1 6576   4.554   3.206  11.761 -0.5950 -0.1123 -0.0392
  437TMC3    O2 6577   3.959   3.159  11.655  0.1438 -0.2528 -0.1005
  438MPD2     C 6578   1.511   3.858  16.604  0.1533  0.1506 -1.2035
  438MPD2    C1 6579   1.620   3.781  16.630 -0.1464  0.9973  0.0087
  438MPD2    C2 6580   1.619   3.695  16.743 -0.1046  0.1639 -0.3638
  438MPD2    C3 6581   1.507   3.691  16.829  0.5275  0.4520 -0.7320
  438MPD2    C4 6582   1.397   3.769  16.799 -0.2603 -0.7472 -0.4768
  438MPD2    C5 6583   1.400   3.847  16.680 -0.4651 -0.0892  0.3874
  438MPD2     H 6584   1.709   3.636  16.754 -1.5159 -1.9370 -0.0753
  438MPD2    H1 6585   1.311   3.764  16.865  0.1334  3.2304  0.3377
  438MPD2    H2 6586   1.502   3.919  16.515  0.2458  0.1003 -1.2470
  438MPD2    H3 6587   1.317   3.904  16.639  0.6105  1.9713  1.0642
  438MPD2     N 6588   1.502   3.610  16.946 -0.5895  0.3464  0.3221
  438MPD2    H5 6589   1.429   3.622  17.016 -1.3527  0.0470 -0.4295
  438MPD2    N1 6590   1.740   3.806  16.556  0.1336  0.3378 -0.2501
  438MPD2    H7 6591   1.822   3.750  16.576  0.1175  1.1759  2.1241
  439TMC3    C1 6592   1.901   3.890  16.425 -0.2006 -0.0406 -0.1378
  439TMC3    C2 6593   1.927   3.854  16.300 -0.4105 -0.2558 -0.5257
  439TMC3    C3 6594   2.058   3.815  16.271  0.1655  0.5010 -0.6263
  439TMC3    C4 6595   1.991   3.895  16.526  0.7885 -0.7096 -0.1634
  439TMC3    C5 6596   2.116   3.847  16.499  0.2499  0.0799  1.0811
  439TMC3    C6 6597   2.150   3.810  16.371 -0.2496 -0.0164  0.3854
  439TMC3     C 6598   1.760   3.890  16.455 -0.1721  0.4076 -0.0679
  439TMC3     O 6599   1.677   3.925  16.374 -0.8894 -0.6131 -0.0129
  439TMC3     H 6600   1.847   3.832  16.230 -1.1257 -1.1754  0.5866
  439TMC3    H1 6601   1.957   3.895  16.629 -2.8528 -1.8710 -1.3678
  439TMC3    H2 6602   2.247   3.764  16.359 -0.0088  0.8808 -0.9854
  439TMC3    C7 6603   2.201   3.798  16.613  0.4785 -0.1741 -0.1154
  439TMC3    C8 6604   2.084   3.736  16.152 -0.3200  0.0070 -0.8249
  439TMC3    O1 6605   2.281   3.707  16.600  0.8182  0.2187  0.0727
  439TMC3    O2 6606   2.171   3.652  16.158  0.0904 -0.0695 -0.4001
  440MPD2     C 6607   0.174   4.458  15.035  0.4016  0.7020 -0.1037
  440MPD2    C1 6608   0.291   4.496  15.105 -0.0146 -0.3477  1.0551
  440MPD2    C2 6609   0.372   4.400  15.152 -0.2246 -0.3361  0.2577
  440MPD2    C3 6610   0.335   4.268  15.145 -0.0793 -1.0939 -0.2677
  440MPD2    C4 6611   0.216   4.236  15.091  0.6923 -0.7719 -0.6236
  440MPD2    C5 6612   0.129   4.329  15.041  0.5900  0.8122 -0.3364
  440MPD2     H 6613   0.465   4.427  15.202  0.4047 -2.2949  0.1668
  440MPD2    H1 6614   0.192   4.131  15.086 -0.1823 -0.4386 -3.4828
  440MPD2    H2 6615   0.108   4.529  14.987  0.1466 -1.7664 -3.3953
  440MPD2    H3 6616   0.031   4.305  15.003  0.7713 -2.9085  1.4698
  440MPD2     N 6617   0.417   4.160  15.187 -0.4780  0.2827 -0.0778
  440MPD2    H5 6618   0.370   4.071  15.204  1.1849 -0.8857 -1.5707
  440MPD2    N1 6619   0.332   4.633  15.109  0.0317 -0.6139 -0.4142
  440MPD2    H7 6620   0.426   4.653  15.142 -0.0808 -0.4477 -0.1960
  441TMC3    C1 6621   0.618   4.090  15.292  0.2639 -0.0517  0.3260
  441TMC3    C2 6622   0.735   4.143  15.347  0.0542  0.1790 -0.1875
  441TMC3    C3 6623   0.782   4.088  15.464 -0.4631 -0.2229 -0.5402
  441TMC3    C4 6624   0.553   3.995  15.357 -0.5662  0.6129  0.4164
  441TMC3    C5 6625   0.604   3.943  15.471 -0.1698 -0.6206 -0.1393
  441TMC3    C6 6626   0.713   3.986  15.533  0.1036 -0.4944 -1.0036
  441TMC3     C 6627   0.551   4.172  15.194  0.0060 -0.4385 -0.0586
  441TMC3     O 6628   0.616   4.266  15.148  0.1476  0.0669 -0.0838
  441TMC3     H 6629   0.796   4.209  15.286  0.9906  1.4934  2.1517
  441TMC3    H1 6630   0.460   3.951  15.322  0.3940 -0.6338 -0.5990
  441TMC3    H2 6631   0.741   3.954  15.632  2.4994  1.6731 -0.9716
  441TMC3    C7 6632   0.534   3.842  15.549 -0.3786  0.2910 -0.4732
  441TMC3    C8 6633   0.857   4.170  15.556 -0.0526 -0.4493 -0.4375
  441TMC3    O1 6634   0.410   3.836  15.533  0.4790 -0.1829  0.2201
  441TMC3    O2 6635   0.900   4.120  15.655 -0.4924  0.1553  0.4450
  442MPD2     C 6636   3.815   4.082  16.368  0.3671  0.1473 -0.0917
  442MPD2    C1 6637   3.763   3.996  16.469 -0.2178  0.5857 -0.5582
  442MPD2    C2 6638   3.742   3.863  16.436 -0.1928 -0.8760 -0.1518
  442MPD2    C3 6639   3.762   3.811  16.306  0.0445 -0.0211  0.3738
  442MPD2    C4 6640   3.817   3.894  16.207  0.1923  0.4234 -0.3941
  442MPD2    C5 6641   3.843   4.029  16.237  0.3595 -0.3663 -0.5068
  442MPD2     H 6642   3.697   3.801  16.512 -0.9811 -0.8454 -0.5888
  442MPD2    H1 6643   3.841   3.852  16.110 -1.7540 -1.6677  0.0501
  442MPD2    H2 6644   3.833   4.188  16.383  0.3782  0.1683 -0.2548
  442MPD2    H3 6645   3.876   4.092  16.156 -4.1136  2.1358 -0.3498
  442MPD2     N 6646   3.724   3.686  16.263  0.0138  0.3912 -0.1205
  442MPD2    H5 6647   3.736   3.670  16.163  1.7765  0.2203  0.1240
  442MPD2    N1 6648   3.729   4.034  16.600  0.3524  0.4553 -0.1191
  442MPD2    H7 6649   3.692   3.964  16.663 -0.9577  0.6571 -0.6792
  443TMC3    C1 6650   3.679   4.169  16.778  0.0910  0.6256 -0.2928
  443TMC3    C2 6651   3.722   4.283  16.840  0.1522 -0.4041 -0.9925
  443TMC3    C3 6652   3.636   4.342  16.923 -0.1742  0.2445  0.0562
  443TMC3    C4 6653   3.555   4.119  16.796 -0.3383  0.6283 -0.3204
  443TMC3    C5 6654   3.470   4.190  16.871 -0.3173 -0.4637 -0.6953
  443TMC3    C6 6655   3.510   4.298  16.939  0.0019 -0.0893  0.1490
  443TMC3     C 6656   3.730   4.162  16.648 -0.6499 -0.1578 -0.1190
  443TMC3     O 6657   3.759   4.264  16.591 -0.1564 -0.2458 -0.5522
  443TMC3     H 6658   3.827   4.310  16.838  0.6134 -2.0973  0.5316
  443TMC3    H1 6659   3.518   4.049  16.722 -1.1548 -0.9715  1.5795
  443TMC3    H2 6660   3.436   4.362  16.985  1.4074  1.7768 -0.1788
  443TMC3    C7 6661   3.331   4.190  16.826 -0.4928 -0.5783 -0.5431
  443TMC3    C8 6662   3.646   4.489  16.928  0.6643  0.4198 -0.2655
  443TMC3    O1 6663   3.280   4.297  16.802  0.8481  0.0079  0.0435
  443TMC3    O2 6664   3.584   4.558  17.013 -0.2201  0.3141 -0.1375
  444MPD2     C 6665   3.798   3.972  17.090 -0.3708  0.4917 -0.5544
  444MPD2    C1 6666   3.738   3.865  17.151  0.2931  0.4225 -0.3619
  444MPD2    C2 6667   3.761   3.738  17.097 -0.4630  0.5402  1.1996
  444MPD2    C3 6668   3.855   3.719  17.002  0.6527 -0.0298  0.8427
  444MPD2    C4 6669   3.916   3.827  16.941 -0.0482  0.2369  0.4879
  444MPD2    C5 6670   3.886   3.953  16.988  0.1384 -0.4656 -0.8700
  444MPD2     H 6671   3.700   3.662  17.144  1.6750 -2.2956 -0.5884
  444MPD2    H1 6672   3.977   3.819  16.853 -1.6690  0.6178 -0.6733
  444MPD2    H2 6673   3.793   4.073  17.128 -1.7232  0.4932 -0.7488
  444MPD2    H3 6674   3.935   4.037  16.942  0.8121  0.7356  2.0491
  444MPD2     N 6675   3.877   3.585  16.972 -0.4173 -0.2876  0.4080
  444MPD2    H5 6676   3.803   3.522  17.002 -2.0587  0.9888 -0.9476
  444MPD2    N1 6677   3.652   3.885  17.263 -0.0750  0.3601 -0.8832
  444MPD2    H7 6678   3.620   3.803  17.315 -0.4746  1.3075  0.3672
  445TMC3    C1 6679   3.969   3.408  16.841  0.0427  0.3163 -0.4100
  445TMC3    C2 6680   3.844   3.349  16.830 -0.2178 -0.0330 -0.1591
  445TMC3    C3 6681   3.838   3.248  16.747  0.5245 -0.1604 -0.4787
  445TMC3    C4 6682   4.067   3.356  16.756 -0.2233  0.1411 -0.1106
  445TMC3    C5 6683   4.056   3.248  16.679 -0.7903 -0.2927 -0.4798
  445TMC3    C6 6684   3.933   3.187  16.675  0.1923  0.4235 -0.1553
  445TMC3     C 6685   3.981   3.543  16.889  0.2394  0.5034  0.0310
  445TMC3     O 6686   4.093   3.591  16.869  0.1103  0.1633  0.5307
  445TMC3     H 6687   3.769   3.361  16.907 -1.1115  1.5951 -1.3012
  445TMC3    H1 6688   4.161   3.409  16.747 -1.1001  1.3680 -2.2916
  445TMC3    H2 6689   3.908   3.107  16.606  2.8702 -0.9441  0.4474
  445TMC3    C7 6690   4.154   3.233  16.569 -0.6986  0.0081 -0.8134
  445TMC3    C8 6691   3.702   3.218  16.699  0.0740  0.0306 -0.0429
  445TMC3    O1 6692   4.234   3.322  16.538  0.0795 -0.1022  0.0837
  445TMC3    O2 6693   3.680   3.102  16.674 -0.6565 -0.2711 -0.3533
  446MPD2     C 6694   3.070   4.268  11.445 -0.1972  0.1076  0.4701
  446MPD2    C1 6695   3.062   4.309  11.312 -0.6750  1.2864 -0.2271
  446MPD2    C2 6696   3.157   4.395  11.258 -0.0200  0.2572 -0.2948
  446MPD2    C3 6697   3.265   4.433  11.327 -0.0420  0.4125 -0.2833
  446MPD2    C4 6698   3.283   4.385  11.456 -0.3848  0.3235  0.1745
  446MPD2    C5 6699   3.183   4.310  11.519  0.1932  0.6969  0.2052
  446MPD2     H 6700   3.147   4.430  11.155  0.6470 -0.3075 -0.5507
  446MPD2    H1 6701   3.361   4.434  11.513 -0.5517 -0.3820  1.0061
  446MPD2    H2 6702   2.994   4.211  11.496  0.4262 -1.3173 -0.1972
  446MPD2    H3 6703   3.181   4.279  11.623  0.8066 -2.6565 -0.7674
  446MPD2     N 6704   3.356   4.523  11.262 -0.1338  0.3737  0.0006
  446MPD2    H5 6705   3.337   4.544  11.164  1.1223  0.6357 -0.1878
  446MPD2    N1 6706   2.959   4.261  11.235 -0.5373  0.1668  0.8324
  446MPD2    H7 6707   2.945   4.308  11.147 -1.0068 -0.2119  0.7041
  447TMC3    C1 6708   3.552   4.636  11.213  0.6432 -0.2385  0.0168
  447TMC3    C2 6709   3.510   4.629  11.084 -0.4302  0.3006  0.7513
  447TMC3    C3 6710   3.590   4.690  10.999 -0.2995  0.4829  0.0433
  447TMC3    C4 6711   3.663   4.694  11.263 -0.3530 -0.4985 -0.2150
  447TMC3    C5 6712   3.740   0.026  11.175 -0.0502  0.3061  0.7830
  447TMC3    C6 6713   3.702   0.015  11.044 -0.3868 -0.1421 -0.1515
  447TMC3     C 6714   3.483   4.551  11.309  0.4730  0.3828 -0.2115
  447TMC3     O 6715   3.536   4.519  11.415  0.1850  0.6817 -0.1921
  447TMC3     H 6716   3.412   4.600  11.048  0.5762  0.3266 -1.9937
  447TMC3    H1 6717   3.680   4.712  11.368  2.0869 -2.7490 -0.2418
  447TMC3    H2 6718   3.767   0.058  10.969 -1.3861  3.5206  1.0677
  447TMC3    C7 6719   3.888   0.029  11.194 -0.8511  0.7614  0.6127
  447TMC3    C8 6720   3.529   0.019  10.890  0.3843  0.3943 -0.1731
  447TMC3    O1 6721   3.960   0.008  11.098  0.2738  0.1392  0.0163
  447TMC3    O2 6722   3.433   4.704  10.841 -0.6614 -0.5064 -0.6127
  448TMC3    C1 6723   1.513   0.504  17.297  0.2936  0.3548 -0.1182
  448TMC3    C2 6724   1.507   0.407  17.203  0.0290 -0.2882 -0.0263
  448TMC3    C3 6725   1.545   0.280  17.234  0.6821  0.8347 -0.6753
  448TMC3    C4 6726   1.560   0.482  17.426 -0.0315  0.0178 -0.5063
  448TMC3    C5 6727   1.599   0.354  17.453  0.5233 -0.2743  0.2165
  448TMC3    C6 6728   1.596   0.258  17.357  0.8473  0.3667  0.4809
  448TMC3     C 6729   1.425   0.614  17.280  0.0590  0.0976 -0.0974
  448TMC3     O 6730   1.408   0.651  17.162  0.2368 -0.2998 -0.3677
  448TMC3     H 6731   1.455   0.418  17.108 -0.2148  0.7166  0.2213
  448TMC3    H1 6732   1.569   0.557  17.505 -0.5028  1.2810 -1.6515
  448TMC3    H2 6733   1.628   0.156  17.376 -0.1446  0.1775  1.1316
  448TMC3    C7 6734   1.715   0.340  17.541  0.4537 -0.3692  0.3177
  448TMC3    C8 6735   1.615   0.203  17.133 -0.3794 -0.6089  0.4684
  448TMC3    O1 6736   1.765   0.444  17.587  0.2829 -0.3539  0.0825
  448TMC3    O2 6737   1.640   0.085  17.160  0.5457  0.6543  0.7309
  449MPD2     C 6738   3.251   3.299  13.948 -0.2682 -0.1599  0.5574
  449MPD2    C1 6739   3.126   3.322  13.901  0.1885  0.3920 -0.2468
  449MPD2    C2 6740   3.046   3.397  13.985  0.4662 -0.4962 -0.1332
  449MPD2    C3 6741   3.094   3.469  14.087  0.3087 -0.3669  0.3911
  449MPD2    C4 6742   3.224   3.449  14.129  0.0264  0.4067 -0.4128
  449MPD2    C5 6743   3.300   3.358  14.065  0.1427 -0.4085  0.2166
  449MPD2     H 6744   2.942   3.418  13.964  0.9583  0.1335 -1.9599
  449MPD2    H1 6745   3.266   3.492  14.219  0.7350 -1.0365 -0.0559
  449MPD2    H2 6746   3.316   3.226  13.903 -0.5661 -0.5489  0.7601
  449MPD2    H3 6747   3.400   3.331  14.095 -0.0494  0.5752  1.7819
  449MPD2     N 6748   3.001   3.556  14.157 -0.4518 -0.6828  0.1448
  449MPD2    H5 6749   2.908   3.536  14.122  0.1797 -0.0447 -1.9116
  449MPD2    N1 6750   3.074   3.281  13.779 -0.0530 -0.6666 -0.5090
  449MPD2    H7 6751   2.978   3.306  13.758 -0.1656 -0.2948  0.4863
  450TMC3    C1 6752   3.054   3.199  13.563 -0.4854  0.1801 -0.0804
  450TMC3    C2 6753   3.127   3.218  13.451  0.3742  0.4946  0.5222
  450TMC3    C3 6754   3.063   3.258  13.337 -0.0429 -0.4024  0.2852
  450TMC3    C4 6755   2.920   3.229  13.577  0.7129 -0.3236  0.5713
  450TMC3    C5 6756   2.858   3.284  13.473  0.6624 -0.4371  0.4146
  450TMC3    C6 6757   2.929   3.296  13.352  0.0280  0.3379  1.0942
  450TMC3     C 6758   3.137   3.212  13.682  0.1163  0.1634  0.8216
  450TMC3     O 6759   3.248   3.162  13.686 -0.2611  0.4961  0.3704
  450TMC3     H 6760   3.232   3.190  13.444  0.2289 -0.5822  2.7401
  450TMC3    H1 6761   2.865   3.188  13.661  0.5334 -0.7281  0.2549
  450TMC3    H2 6762   2.875   3.337  13.267  1.5391 -0.3770 -0.2201
  450TMC3    C7 6763   2.732   3.353  13.499 -0.6923 -0.5216  0.4755
  450TMC3    C8 6764   3.122   3.301  13.210 -0.3248 -0.4307 -0.0798
  450TMC3    O1 6765   2.684   3.398  13.396 -0.1519 -0.5602 -0.2358
  450TMC3    O2 6766   3.073   3.387  13.138  0.2464  0.4685  0.1344
  451MPD2     C 6767   0.009   2.781   1.091 -0.1614 -0.1191 -0.1500
  451MPD2    C1 6768   4.694   2.753   0.962 -0.2198  0.4637 -0.5796
  451MPD2    C2 6769   0.035   2.687   0.869 -0.4193 -0.0119 -0.1316
  451MPD2    C3 6770   0.157   2.636   0.906 -0.2653  0.5381  0.0228
  451MPD2    C4 6771   0.205   2.664   1.035 -0.2341 -0.0530  0.0363
  451MPD2    C5 6772   0.129   2.740   1.120  0.5775 -0.3560 -0.3404
  451MPD2     H 6773   0.007   2.670   0.765 -1.6051  3.0391 -0.3112
  451MPD2    H1 6774   0.299   2.627   1.075  0.4393 -1.7019 -3.0192
  451MPD2    H2 6775   4.699   2.842   1.165  0.6644  1.2962 -0.7540
  451MPD2    H3 6776   0.167   2.768   1.218 -0.5737  1.2453 -0.3415
  451MPD2     N 6777   0.248   2.562   0.820  0.0199 -0.0730 -0.2298
  451MPD2    H5 6778   0.341   2.546   0.858  0.3355 -0.7753 -1.3153
  451MPD2    N1 6779   4.561   2.794   0.939  0.8844  0.0014 -0.2151
  451MPD2    H7 6780   4.506   2.834   1.015  0.8999  1.3199 -0.8889
  452TMC3    C1 6781   0.340   2.463   0.627  0.4752 -0.9758 -0.1674
  452TMC3    C2 6782   0.430   2.391   0.704 -0.3801 -0.1599 -0.2908
  452TMC3    C3 6783   0.520   2.314   0.639 -0.3902  0.0854  0.6509
  452TMC3    C4 6784   0.327   2.448   0.492 -0.4198 -0.3771  0.3570
  452TMC3    C5 6785   0.419   2.360   0.436 -0.0810 -0.5007  0.3473
  452TMC3    C6 6786   0.516   2.298   0.505 -0.1231 -0.1626 -0.0358
  452TMC3     C 6787   0.228   2.528   0.685 -0.5709 -0.8579 -0.2135
  452TMC3     O 6788   0.132   2.548   0.611  0.0403 -0.5654 -0.0184
  452TMC3     H 6789   0.426   2.400   0.812  1.3632 -0.8942 -0.1647
  452TMC3    H1 6790   0.266   2.515   0.434 -0.7640  0.1702  1.3452
  452TMC3    H2 6791   0.581   2.230   0.452 -0.0841  0.0957 -0.3173
  452TMC3    C7 6792   0.391   2.313   0.303 -0.4115  0.1818 -0.0805
  452TMC3    C8 6793   0.596   2.213   0.710  0.1284 -0.4584  0.7847
  452TMC3    O1 6794   0.489   2.287   0.229  0.0014  0.1433 -0.9967
  452TMC3    O2 6795   0.636   2.112   0.653  0.3386  0.1467 -0.2182
  453TMC3    C1 6796   0.795   4.107  11.923 -0.3281  0.1087  0.2353
  453TMC3    C2 6797   0.717   4.001  11.959  0.0820  0.3508  0.1390
  453TMC3    C3 6798   0.631   3.946  11.868  0.5107  0.3018 -0.2150
  453TMC3    C4 6799   0.780   4.168  11.801  0.0098 -0.3965 -0.1399
  453TMC3    C5 6800   0.687   4.113  11.712  0.0168  0.7180 -0.0978
  453TMC3    C6 6801   0.627   3.993  11.734  0.7039  0.0249 -0.0530
  453TMC3     C 6802   0.893   4.163  12.023  0.0581 -0.0145 -0.1787
  453TMC3     O 6803   0.971   4.247  11.982  0.0279  0.0022  0.2002
  453TMC3     H 6804   0.741   3.941  12.046  1.7364  0.6081 -0.1422
  453TMC3    H1 6805   0.832   4.263  11.789  0.1247 -0.6047 -1.3091
  453TMC3    H2 6806   0.567   3.947  11.657  1.5987 -0.6297 -0.3505
  453TMC3    C7 6807   0.700   4.151  11.571  0.3754  0.1485  0.1627
  453TMC3    C8 6808   0.597   3.809  11.898 -0.2837 -0.4246  0.7151
  453TMC3    O1 6809   0.632   4.095  11.487  0.3588  0.1626 -0.6299
  453TMC3    O2 6810   0.579   3.785  12.023 -0.4712  0.2001  0.8846
  454MPD2     C 6811   4.071   3.965  15.652 -0.5043 -0.0744 -0.7281
  454MPD2    C1 6812   4.149   3.861  15.680 -0.2638 -0.3012  0.7254
  454MPD2    C2 6813   4.182   3.831  15.810 -0.3307  0.3824  0.0957
  454MPD2    C3 6814   4.161   3.917  15.911  0.0801  0.6305  0.5783
  454MPD2    C4 6815   4.090   4.032  15.877  0.2295 -0.1973 -0.0989
  454MPD2    C5 6816   4.043   4.053  15.750 -0.7266 -0.2522  0.4184
  454MPD2     H 6817   4.230   3.737  15.837 -1.7270  0.6384  3.4813
  454MPD2    H1 6818   4.067   4.105  15.954 -0.0092  0.9653 -1.2643
  454MPD2    H2 6819   4.026   3.973  15.553 -2.0102  0.5249  0.0035
  454MPD2    H3 6820   3.991   4.147  15.738  0.6484  0.5325  0.5934
  454MPD2     N 6821   4.199   3.897  16.051 -0.0639 -0.6132  0.0928
  454MPD2    H5 6822   4.170   3.971  16.115 -3.1738 -1.3821 -0.4302
  454MPD2    N1 6823   4.175   3.759  15.582 -0.4242  0.8315  0.1606
  454MPD2    H7 6824   4.232   3.685  15.623 -0.7648  0.9861  0.9248
  455TMC3    C1 6825   4.194   3.746  16.237  0.2570 -0.1682 -0.0040
  455TMC3    C2 6826   4.194   3.842  16.339  0.1955  0.3323  0.6110
  455TMC3    C3 6827   4.147   3.804  16.460 -0.2888 -0.3315  0.1077
  455TMC3    C4 6828   4.147   3.620  16.260 -0.0716  0.0712  0.3763
  455TMC3    C5 6829   4.100   3.585  16.385  0.7419 -0.2906  0.0211
  455TMC3    C6 6830   4.103   3.674  16.485  0.0432 -0.5636  0.2381
  455TMC3     C 6831   4.227   3.774  16.099 -0.2741  0.5579  0.3843
  455TMC3     O 6832   4.256   3.671  16.039  0.0202 -0.5141  0.0945
  455TMC3     H 6833   4.220   3.945  16.318  2.3938 -0.7398 -1.8616
  455TMC3    H1 6834   4.146   3.552  16.175  0.7684 -1.6833  1.7715
  455TMC3    H2 6835   4.094   3.636  16.587  1.5781  1.3632  1.0943
  455TMC3    C7 6836   4.008   3.471  16.397 -0.5642  0.2114  0.1059
  455TMC3    C8 6837   4.184   3.889  16.574 -0.3745  0.3325  0.0473
  455TMC3    O1 6838   3.911   3.481  16.466  0.3494 -0.1415 -0.0222
  455TMC3    O2 6839   4.193   3.845  16.685 -0.1519  0.0454 -0.4556
  456MPD2     C 6840   2.194   4.155  16.060 -0.4454 -0.0505  0.4778
  456MPD2    C1 6841   2.273   4.089  16.148 -0.9641  0.4356  0.5144
  456MPD2    C2 6842   2.275   4.127  16.281  0.1318  1.0425  0.3099
  456MPD2    C3 6843   2.208   4.242  16.326 -0.1549 -0.1852 -0.2481
  456MPD2    C4 6844   2.131   4.305  16.234  0.7580  0.1951 -0.3638
  456MPD2    C5 6845   2.132   4.268  16.105  0.4838 -0.4743 -0.2387
  456MPD2     H 6846   2.338   4.070  16.349  1.4339  2.6049  0.4153
  456MPD2    H1 6847   2.078   4.396  16.257  0.7805  0.4003 -1.1352
  456MPD2    H2 6848   2.182   4.124  15.956  0.1837  1.6271 -0.0917
  456MPD2    H3 6849   2.067   4.321  16.036 -1.1620 -0.5877  1.2097
  456MPD2     N 6850   2.230   4.290  16.462 -0.5275  0.5320  0.4446
  456MPD2    H5 6851   2.271   4.223  16.526 -0.0508  1.0529  0.6855
  456MPD2    N1 6852   2.342   3.974  16.092 -0.5610 -0.8156 -0.0235
  456MPD2    H7 6853   2.322   3.954  15.995  0.1982  0.7299 -0.4970
  457TMC3    C1 6854   2.173   4.426  16.647 -0.2416 -0.7914  1.2776
  457TMC3    C2 6855   2.078   4.517  16.692 -0.6386 -0.1429  0.6480
  457TMC3    C3 6856   2.064   4.535  16.825 -0.0032  0.8388  0.0950
  457TMC3    C4 6857   2.263   4.374  16.726 -0.1107  0.2606  0.4776
  457TMC3    C5 6858   2.248   4.398  16.863  0.5569 -0.5501 -0.0776
  457TMC3    C6 6859   2.142   4.465  16.914  0.2615  0.8026 -0.4990
  457TMC3     C 6860   2.190   4.411  16.503  0.6325  0.6267  0.0438
  457TMC3     O 6861   2.138   4.501  16.441 -0.2787  0.1436 -0.8488
  457TMC3     H 6862   2.001   4.552  16.624 -0.2842  0.9219  0.7810
  457TMC3    H1 6863   2.347   4.322  16.683 -0.9535 -0.3933 -0.3828
  457TMC3    H2 6864   2.129   4.484  17.019 -0.1588 -3.2300  0.1932
  457TMC3    C7 6865   2.346   4.341  16.952 -0.9211  0.0147  0.1514
  457TMC3    C8 6866   1.989   4.643  16.875 -0.1808 -0.0575  0.3738
  457TMC3    O1 6867   2.315   4.331  17.070  0.1028  0.3163 -0.5677
  457TMC3    O2 6868   1.958   4.643  16.992  0.1610  0.1017 -0.2332
  458MPD2     C 6869   0.186   3.411  12.067  0.4664  0.0280  0.6243
  458MPD2    C1 6870   0.110   3.370  12.168 -0.1021  0.0937  0.5995
  458MPD2    C2 6871   4.725   3.310  12.139 -0.1562 -0.7068 -0.7145
  458MPD2    C3 6872   4.681   3.300  12.012  0.2744 -0.1134 -0.6520
  458MPD2    C4 6873   0.020   3.346  11.908 -0.2095 -0.6540 -0.2046
  458MPD2    C5 6874   0.138   3.408  11.943  0.3965 -0.2092 -0.3643
  458MPD2     H 6875   4.668   3.278  12.226  1.0392 -0.1180  0.2899
  458MPD2    H1 6876   4.733   3.357  11.804  0.4999 -0.6249 -0.3841
  458MPD2    H2 6877   0.281   3.463  12.076  0.9613 -1.1977  2.4163
  458MPD2    H3 6878   0.187   3.461  11.862  3.8888 -2.1446  0.4524
  458MPD2     N 6879   4.553   3.266  11.988  0.8627  0.4621  0.3738
  458MPD2    H5 6880   4.513   3.244  12.078  2.8632 -2.0004  0.6607
  458MPD2    N1 6881   0.164   3.378  12.294  0.5170  0.4985  0.3001
  458MPD2    H7 6882   0.264   3.389  12.306  0.4706  0.4900  0.7060
  459TMC3    C1 6883   0.168   3.395  12.530 -0.2228 -0.3332 -0.3791
  459TMC3    C2 6884   0.290   3.453  12.518  0.7686 -0.1650  0.1689
  459TMC3    C3 6885   0.385   3.424  12.611 -0.3347 -0.3462 -0.2055
  459TMC3    C4 6886   0.131   3.309  12.632  0.2245 -0.3458  0.3395
  459TMC3    C5 6887   0.233   3.286  12.722  0.0976 -0.1236  0.0694
  459TMC3    C6 6888   0.349   3.344  12.720 -0.3995 -0.6830 -0.7519
  459TMC3     C 6889   0.094   3.369  12.409 -0.1773 -0.0725 -0.6458
  459TMC3     O 6890   4.712   3.348  12.431  0.0526  0.0688 -0.1620
  459TMC3     H 6891   0.312   3.519  12.434  0.2172  0.2866  0.3776
  459TMC3    H1 6892   0.042   3.248  12.625  0.3405 -0.3325 -1.3101
  459TMC3    H2 6893   0.428   3.314  12.788  0.2480 -1.7046 -1.9438
  459TMC3    C7 6894   0.214   3.182  12.820 -0.2422  0.0345 -0.1560
  459TMC3    C8 6895   0.524   3.443  12.568 -0.8389  0.1007  0.1605
  459TMC3    O1 6896   0.124   3.098  12.802 -0.0583 -0.2385 -0.2372
  459TMC3    O2 6897   0.532   3.460  12.448  0.0695 -0.2171 -0.1479
  460MPD2     C 6898   3.593   0.371  10.803 -0.2250 -0.5150  0.2623
  460MPD2    C1 6899   3.539   0.247  10.780  0.3955 -0.7435  0.8226
  460MPD2    C2 6900   3.448   0.229  10.677  0.1734 -0.1109  0.1145
  460MPD2    C3 6901   3.402   0.340  10.616  0.3448 -0.0553  0.1287
  460MPD2    C4 6902   3.447   0.465  10.645  0.0777  0.1365  0.0397
  460MPD2    C5 6903   3.533   0.475  10.748 -0.0940  0.3868 -0.2375
  460MPD2     H 6904   3.415   0.131  10.644 -0.7567 -0.6626  2.6771
  460MPD2    H1 6905   3.398   0.555  10.611  0.9645  0.2360 -0.9581
  460MPD2    H2 6906   3.664   0.394  10.882 -1.3204 -0.7037  1.2900
  460MPD2    H3 6907   3.557   0.577  10.776 -1.5655  1.0334 -1.3329
  460MPD2     N 6908   3.307   0.315  10.511  0.2440  0.3623  0.5488
  460MPD2    H5 6909   3.272   0.221  10.493 -2.9249  1.5350  0.6267
  460MPD2    N1 6910   3.583   0.144  10.866 -0.3565  0.0941  0.4136
  460MPD2    H7 6911   3.653   0.175  10.933  1.6194 -1.7151 -0.7931
  461TMC3    C1 6912   3.164   0.365  10.332 -0.3642 -0.1540  0.1760
  461TMC3    C2 6913   3.201   0.257  10.256  0.2795  0.6661 -0.1282
  461TMC3    C3 6914   3.151   0.255  10.134  0.5297  0.5636  0.2911
  461TMC3    C4 6915   3.079   0.451  10.282 -0.2473  0.2327 -0.8287
  461TMC3    C5 6916   3.024   0.441  10.157 -0.0161 -0.6343 -0.3274
  461TMC3    C6 6917   3.068   0.343  10.076  0.3126  0.1928  0.1936
  461TMC3     C 6918   3.249   0.415  10.443 -0.6955  0.0467 -0.4418
  461TMC3     O 6919   3.230   0.527  10.482 -0.0967 -0.2676 -0.2148
  461TMC3     H 6920   3.274   0.189  10.299 -0.4823 -0.3438 -0.4414
  461TMC3    H1 6921   3.042   0.532  10.344  1.2154  0.5134 -0.3398
  461TMC3    H2 6922   3.050   0.342   9.969 -1.9643 -1.8781  0.5925
  461TMC3    C7 6923   2.974   0.551  10.086  0.5181 -0.2032  0.3616
  461TMC3    C8 6924   3.232   0.187  10.038 -0.5463 -0.8254 -0.2414
  461TMC3    O1 6925   2.933   0.534   9.973 -0.1558  0.6759 -0.2400
  461TMC3    O2 6926   3.354   0.184  10.054 -0.0683 -0.2682  0.1033
  462TMC3    C1 6927   4.718   1.888   0.616  0.4558 -0.5714 -0.2300
  462TMC3    C2 6928   0.068   1.814   0.551  0.6734 -0.2901  0.2041
  462TMC3    C3 6929   0.018   1.692   0.506  0.0813  0.2256 -0.6569
  462TMC3    C4 6930   4.583   1.859   0.637  0.0490 -0.3297  0.0173
  462TMC3    C5 6931   4.547   1.731   0.606  0.7667  0.1477 -0.4501
  462TMC3    C6 6932   4.634   1.640   0.540 -0.6800 -0.1414 -1.1511
  462TMC3     C 6933   0.020   2.013   0.682 -0.8942  0.2861  0.2347
  462TMC3     O 6934   4.679   2.106   0.691 -0.1247  0.0210  0.3301
  462TMC3     H 6935   0.173   1.839   0.538  0.7299 -0.4314  0.3777
  462TMC3    H1 6936   4.518   1.938   0.675  0.7709  0.1593  0.2260
  462TMC3    H2 6937   4.625   1.533   0.527  1.3925 -0.2869 -1.2845
  462TMC3    C7 6938   4.411   1.690   0.596  0.4717 -0.1197 -0.0348
  462TMC3    C8 6939   0.103   1.617   0.422 -0.1377  0.4187  0.5641
  462TMC3    O1 6940   4.398   1.573   0.561  0.5382  0.4614 -0.0689
  462TMC3    O2 6941   0.226   1.636   0.429  0.0139  0.2517  0.2028
  463MPD2     C 6942   1.381   4.227   1.419 -0.1673 -0.8276 -0.2815
  463MPD2    C1 6943   1.265   4.261   1.467  0.7463  0.4038 -0.5768
  463MPD2    C2 6944   1.239   4.380   1.534  0.5559  0.5449 -0.4633
  463MPD2    C3 6945   1.341   4.472   1.539 -0.1245 -0.2762  0.0346
  463MPD2    C4 6946   1.466   4.438   1.485 -0.2655 -0.0426  0.1992
  463MPD2    C5 6947   1.480   4.317   1.419  0.0430  0.2965 -0.3732
  463MPD2     H 6948   1.137   4.396   1.566  0.4845 -1.0345  0.1149
  463MPD2    H1 6949   1.557   4.497   1.497 -0.2907 -0.2430  1.3662
  463MPD2    H2 6950   1.397   4.135   1.363  0.5167 -0.2689 -0.9989
  463MPD2    H3 6951   1.576   4.290   1.378  1.8679 -0.7439  4.6112
  463MPD2     N 6952   1.332   4.604   1.607  0.1749 -0.0155  0.0086
  463MPD2    H5 6953   1.417   4.658   1.614  2.1170 -2.9165 -1.2770
  463MPD2    N1 6954   1.152   4.176   1.456 -0.7142  0.0721 -0.1163
  463MPD2    H7 6955   1.061   4.216   1.477 -0.2716  1.8307 -1.5931
  464TMC3    C1 6956   1.016   3.994   1.401  0.1514  0.6060 -0.5223
  464TMC3    C2 6957   0.924   4.060   1.474 -0.2335 -0.0480 -0.3090
  464TMC3    C3 6958   0.795   4.066   1.427 -0.2881 -0.5496  0.7849
  464TMC3    C4 6959   0.984   3.944   1.273 -0.7629  0.8947  0.1662
  464TMC3    C5 6960   0.857   3.952   1.232  0.0932  0.0160 -0.1872
  464TMC3    C6 6961   0.754   4.011   1.305  0.1773 -0.1258 -0.4030
  464TMC3     C 6962   1.150   4.047   1.402 -1.1327 -0.6121 -0.8192
  464TMC3     O 6963   1.235   3.992   1.335 -0.1482 -0.1593 -0.7131
  464TMC3     H 6964   0.951   4.107   1.568  3.8618 -0.6833 -1.1791
  464TMC3    H1 6965   1.062   3.899   1.213 -0.6156  1.4067 -0.0270
  464TMC3    H2 6966   0.656   4.037   1.268  0.2204 -0.1556 -0.5380
  464TMC3    C7 6967   0.827   3.867   1.120 -0.3873 -0.1778  0.6798
  464TMC3    C8 6968   0.715   4.169   1.487 -0.2072  0.6523  0.0551
  464TMC3    O1 6969   0.902   3.787   1.073 -0.6194  0.4802 -0.5430
  464TMC3    O2 6970   0.779   4.258   1.537 -0.0936 -0.2802  0.0249
  465MPD2     C 6971   1.582   4.238  16.878 -0.7954  0.2744 -0.2345
  465MPD2    C1 6972   1.459   4.183  16.887 -0.0768 -0.0753  0.0620
  465MPD2    C2 6973   1.390   4.163  16.769  0.6150  0.2668  0.1585
  465MPD2    C3 6974   1.426   4.218  16.648  0.1785  0.1271  0.0884
  465MPD2    C4 6975   1.556   4.269  16.646  0.3262  0.2508  0.5439
  465MPD2    C5 6976   1.632   4.280  16.761  0.6529 -0.1522  0.1771
  465MPD2     H 6977   1.292   4.118  16.778  0.6877 -0.3376 -2.0386
  465MPD2    H1 6978   1.596   4.310  16.554 -0.1886 -0.1321  0.1490
  465MPD2    H2 6979   1.652   4.229  16.960 -0.2827 -0.9094 -0.8080
  465MPD2    H3 6980   1.730   4.325  16.750 -0.3173  2.2057  1.1501
  465MPD2     N 6981   1.337   4.210  16.534 -0.3077 -0.4023 -0.5151
  465MPD2    H5 6982   1.256   4.150  16.546  0.2046 -1.1954 -0.9475
  465MPD2    N1 6983   1.405   4.115  17.003  0.4357 -0.3209  0.0746
  465MPD2    H7 6984   1.320   4.064  16.980  2.0950 -2.1905 -1.9005
  466TMC3    C1 6985   1.031   4.191  16.324  0.0998  0.4803  0.0355
  466TMC3    C2 6986   1.006   4.298  16.256 -0.5372 -0.0780 -0.7537
  466TMC3    C3 6987   1.109   4.374  16.213  0.3886 -0.5257 -0.5199
  466TMC3    C4 6988   1.160   4.153  16.349  0.4427  0.8139  0.4471
  466TMC3    C5 6989   1.265   4.239  16.320 -0.4517 -0.3097 -0.1905
  466TMC3    C6 6990   1.237   4.351  16.242  0.4730 -0.5518 -0.2523
  466TMC3     C 6991   0.931   4.112  16.380  0.0647  0.3083 -0.3250
  466TMC3     O 6992   0.979   4.042  16.470 -0.1640 -0.3364  0.0877
  466TMC3     H 6993   0.906   4.340  16.262 -0.9275 -0.7753 -2.3445
  466TMC3    H1 6994   1.185   4.060  16.398  0.0435  0.4246 -0.0953
  466TMC3    H2 6995   1.306   4.434  16.228 -0.7130  0.4178 -0.3702
  466TMC3    C7 6996   1.372   4.257  16.412  0.1374 -0.3698 -0.7244
  466TMC3    C8 6997   1.092   4.513  16.221 -0.9304 -0.2567 -0.0607
  466TMC3    O1 6998   1.472   4.321  16.380  0.1127  0.2308 -0.1201
  466TMC3    O2 6999   1.150   4.585  16.137  0.2174 -0.2795 -0.4572
  467TMC3    C1 7000   2.356   2.067  13.585 -0.0212  0.8760  0.0808
  467TMC3    C2 7001   2.376   2.194  13.618  0.3424  0.2547  0.1099
  467TMC3    C3 7002   2.277   2.266  13.682  0.3506 -0.0709  0.5578
  467TMC3    C4 7003   2.242   2.002  13.618 -0.0980 -0.1791  0.1475
  467TMC3    C5 7004   2.141   2.072  13.684 -0.0953 -0.3106  0.7716
  467TMC3    C6 7005   2.162   2.201  13.724 -0.3651  0.6101 -0.6115
  467TMC3     C 7006   2.460   2.011  13.506  0.8604 -0.6842 -0.7497
  467TMC3     O 7007   2.551   2.081  13.467 -0.1731  0.0741 -0.3503
  467TMC3     H 7008   2.466   2.242  13.581  0.1808  1.2666  1.0420
  467TMC3    H1 7009   2.227   1.898  13.592 -1.6565 -0.4078  1.9478
  467TMC3    H2 7010   2.091   2.259  13.782 -2.5199 -1.9847 -0.6658
  467TMC3    C7 7011   2.020   2.001  13.721 -0.0778 -0.7838  0.3128
  467TMC3    C8 7012   2.282   2.407  13.710 -0.0468  0.1650  0.1779
  467TMC3    O1 7013   2.048   1.892  13.768  0.3079  0.8483 -0.4947
  467TMC3    O2 7014   2.182   2.474  13.673 -0.5853 -0.1805  0.2888
  468MPD2     C 7015   0.721   0.571  11.277  0.2434  0.4164 -0.6281
  468MPD2    C1 7016   0.810   0.555  11.181 -0.2307  0.1466 -0.4949
  468MPD2    C2 7017   0.838   0.425  11.140 -0.3016 -0.2287 -0.9179
  468MPD2    C3 7018   0.749   0.323  11.179  0.0858 -0.3347 -0.0728
  468MPD2    C4 7019   0.666   0.338  11.284 -0.7821 -1.2639  0.9337
  468MPD2    C5 7020   0.664   0.466  11.335 -0.4124  0.5940 -0.5663
  468MPD2     H 7021   0.921   0.416  11.070  0.0340 -0.7724 -0.4496
  468MPD2    H1 7022   0.600   0.258  11.314 -1.3357 -1.2606 -0.2673
  468MPD2    H2 7023   0.690   0.671  11.306 -1.4630 -0.3873  0.2986
  468MPD2    H3 7024   0.592   0.496  11.410  2.5215  1.6052  1.8108
  468MPD2     N 7025   0.758   0.197  11.121  0.2307  0.2920  0.1040
  468MPD2    H5 7026   0.710   0.124  11.171  0.2102 -1.1148 -1.9488
  468MPD2    N1 7027   0.895   0.656  11.128  0.2717 -0.0715 -0.2553
  468MPD2    H7 7028   0.976   0.624  11.075  0.2031 -2.3408  0.9822
  469TMC3    C1 7029   0.972   0.875  11.076  0.2027 -1.1883 -0.0022
  469TMC3    C2 7030   1.098   0.830  11.100  0.3614 -0.4849 -0.3539
  469TMC3    C3 7031   1.200   0.912  11.059  0.2719 -0.1303 -0.8450
  469TMC3    C4 7032   0.948   0.998  11.023 -0.3177  0.0935 -0.4573
  469TMC3    C5 7033   1.044   1.072  10.970  0.5421  1.1622 -0.0185
  469TMC3    C6 7034   1.173   1.033  10.990 -0.4701  0.0253  0.1897
  469TMC3     C 7035   0.873   0.793  11.139  0.3889 -0.0799 -0.1595
  469TMC3     O 7036   0.783   0.854  11.191  0.2153 -0.2309 -0.0021
  469TMC3     H 7037   1.116   0.743  11.162 -1.2810 -1.4965 -1.3054
  469TMC3    H1 7038   0.843   1.022  11.015 -0.5581 -0.3911  1.2284
  469TMC3    H2 7039   1.255   1.095  10.956  0.3433 -1.2811 -0.2305
  469TMC3    C7 7040   1.030   1.218  10.994 -0.6686  0.0620 -0.2737
  469TMC3    C8 7041   1.279   0.940  11.177  0.3694 -0.5773 -0.5332
  469TMC3    O1 7042   1.057   1.291  10.899  0.2772  0.3125 -0.3868
  469TMC3    O2 7043   1.285   1.055  11.222 -0.7535 -0.0277 -0.1067
  470TMC3    C1 7044   3.447   0.670   0.377  0.4668  0.1794 -0.3514
  470TMC3    C2 7045   3.510   0.787   0.407  0.2628 -0.4041  0.2140
  470TMC3    C3 7046   3.441   0.855   0.509  0.5071 -0.6428 -0.7080
  470TMC3    C4 7047   3.346   0.618   0.451 -0.1754  0.3114 -0.4670
  470TMC3    C5 7048   3.301   0.681   0.557  0.1258 -0.3609 -0.4986
  470TMC3    C6 7049   3.334   0.809   0.588 -0.3057  0.3413 -0.6079
  470TMC3     C 7050   3.526   0.563   0.304 -0.7413 -0.5472  0.6489
  470TMC3     O 7051   3.470   0.456   0.293  0.2982  0.3058 -0.1042
  470TMC3     H 7052   3.595   0.834   0.359  1.2073 -2.1601  0.1909
  470TMC3    H1 7053   3.309   0.517   0.435  0.1094  0.1342 -0.0039
  470TMC3    H2 7054   3.270   0.865   0.654  0.7450 -0.1808  0.8548
  470TMC3    C7 7055   3.188   0.624   0.615  0.0912 -0.3696 -0.1940
  470TMC3    C8 7056   3.488   0.997   0.540 -0.6262 -0.3609 -1.1633
  470TMC3    O1 7057   3.127   0.544   0.548  0.3087 -0.2888  0.0267
  470TMC3    O2 7058   3.526   1.063   0.445 -0.4423  0.2105  0.7829
  471MPD2     C 7059   3.121   2.768  16.707 -0.0778 -0.7941 -0.3478
  471MPD2    C1 7060   3.260   2.797  16.710  0.3417  0.3437 -0.4178
  471MPD2    C2 7061   3.319   2.795  16.834  0.1773  0.5475  0.1951
  471MPD2    C3 7062   3.244   2.767  16.952 -0.1018  0.0530  0.7794
  471MPD2    C4 7063   3.108   2.731  16.944  0.3938  0.0867 -0.1642
  471MPD2    C5 7064   3.046   2.729  16.821  0.2955 -0.5458  0.0475
  471MPD2     H 7065   3.427   2.803  16.839  0.1322  1.3449 -0.1606
  471MPD2    H1 7066   3.041   2.699  17.024 -0.8043  2.3686 -0.2457
  471MPD2    H2 7067   3.073   2.764  16.610 -0.4280 -0.7595 -0.1751
  471MPD2    H3 7068   2.944   2.694  16.813 -0.3400  1.6740 -1.3294
  471MPD2     N 7069   3.306   2.768  17.081 -0.3258  0.4758  0.8624
  471MPD2    H5 7070   3.254   2.724  17.157 -1.8069 -0.1475 -0.5043
  471MPD2    N1 7071   3.349   2.816  16.599 -0.6804 -0.2988 -0.6147
  471MPD2    H7 7072   3.450   2.809  16.605 -0.6953  1.3580  1.6407
  472TMC3    C1 7073   3.416   2.792  16.371  0.3184  0.2866 -0.1941
  472TMC3    C2 7074   3.365   2.768  16.245 -0.2289 -0.2405 -0.0308
  472TMC3    C3 7075   3.409   2.649  16.177  0.6419 -0.1198 -0.1218
  472TMC3    C4 7076   3.515   2.705  16.415  0.1673  0.3583 -0.3278
  472TMC3    C5 7077   3.555   2.588  16.349  0.5164 -0.3862 -0.4147
  472TMC3    C6 7078   3.506   2.558  16.223  0.1004  0.1984 -0.4380
  472TMC3     C 7079   3.307   2.819  16.471  0.3767 -0.1502 -0.5343
  472TMC3     O 7080   3.191   2.818  16.432 -0.3056  0.2011  0.1892
  472TMC3     H 7081   3.280   2.825  16.208 -1.5144 -1.3182  1.2754
  472TMC3    H1 7082   3.554   2.698  16.515 -1.1652  0.4708  0.1928
  472TMC3    H2 7083   3.540   2.477  16.161 -0.2893 -1.5637  1.6322
  472TMC3    C7 7084   3.546   2.475  16.445  0.3178 -0.1014 -0.2717
  472TMC3    C8 7085   3.293   2.567  16.132 -0.0828  0.5382 -0.9610
  472TMC3    O1 7086   3.609   2.477  16.549 -0.5383  0.4037  0.0464
  472TMC3    O2 7087   3.304   2.445  16.144  0.3259 -0.0233  0.1561
  473MPD2     C 7088   3.545   4.682  14.257  0.6519  0.4014  0.4700
  473MPD2    C1 7089   3.472   4.735  14.153 -0.0894 -0.3474  0.5268
  473MPD2    C2 7090   3.462   0.132  14.137 -0.2113  0.3242 -0.0053
  473MPD2    C3 7091   3.530   0.219  14.227 -0.2284  0.3298  0.0774
  473MPD2    C4 7092   3.601   0.164  14.331  0.0792  0.8495  0.7976
  473MPD2    C5 7093   3.602   0.030  14.348  0.2391  0.0216 -0.3257
  473MPD2     H 7094   3.401   0.173  14.058  0.9451  1.5742 -0.2535
  473MPD2    H1 7095   3.661   0.218  14.404 -1.7600  2.6603  0.9565
  473MPD2    H2 7096   3.561   4.578  14.286  0.8372  0.1731 -0.4615
  473MPD2    H3 7097   3.656   4.733  14.434  0.8146  2.2978  0.3098
  473MPD2     N 7098   3.529   0.361  14.222 -1.0742 -0.0873  0.4921
  473MPD2    H5 7099   3.595   0.416  14.277 -1.2973  0.7955 -0.1210
  473MPD2    N1 7100   3.407   4.659  14.056 -0.5413 -0.0006 -0.5862
  473MPD2    H7 7101   3.362   4.708  13.979 -1.3545  2.0770  1.2135
  474TMC3    C1 7102   3.457   0.572  14.188  0.0959  0.4061  0.1613
  474TMC3    C2 7103   3.451   0.676  14.098 -0.2759 -0.0730 -0.3013
  474TMC3    C3 7104   3.502   0.800  14.135 -0.3284  0.1070 -0.1526
  474TMC3    C4 7105   3.507   0.596  14.317 -0.1268 -0.7448 -0.1443
  474TMC3    C5 7106   3.565   0.720  14.346  0.1476 -0.6514  0.5274
  474TMC3    C6 7107   3.567   0.820  14.251  0.1690  0.1092 -0.5436
  474TMC3     C 7108   3.454   0.436  14.144  0.0852  0.4395  0.6007
  474TMC3     O 7109   3.383   0.409  14.045 -0.2957 -0.5020  0.0696
  474TMC3     H 7110   3.419   0.655  13.997  1.3293 -1.9730 -0.4147
  474TMC3    H1 7111   3.489   0.536  14.405  3.1982 -0.8981  0.4396
  474TMC3    H2 7112   3.618   0.915  14.264 -0.7753  0.5286  0.0773
  474TMC3    C7 7113   3.680   0.710  14.444  0.3331 -0.5040 -0.5833
  474TMC3    C8 7114   3.442   0.912  14.056 -0.0674 -0.0527 -0.2128
  474TMC3    O1 7115   3.702   0.592  14.474  0.2345  0.1047  0.1440
  474TMC3    O2 7116   3.348   0.880  13.982  0.0633 -0.4650  0.4833
  475MPD2     C 7117   1.738   2.771  10.328 -0.0825  0.5034  0.3068
  475MPD2    C1 7118   1.730   2.911  10.323  0.3128  0.7721  1.0442
  475MPD2    C2 7119   1.605   2.973  10.349 -0.5292  0.1414 -0.4923
  475MPD2    C3 7120   1.497   2.900  10.401 -0.2801 -0.0898 -0.7972
  475MPD2    C4 7121   1.501   2.766  10.408  0.2460 -0.4733  0.4915
  475MPD2    C5 7122   1.619   2.705  10.362  0.3008 -0.1353 -0.0061
  475MPD2     H 7123   1.605   3.078  10.321 -1.3590  0.4447  0.6392
  475MPD2    H1 7124   1.420   2.706  10.446 -1.9213  1.7575 -0.5813
  475MPD2    H2 7125   1.827   2.713  10.306 -0.5568 -0.7303  1.6729
  475MPD2    H3 7126   1.629   2.597  10.362 -2.3072 -0.3650  1.0796
  475MPD2     N 7127   1.386   2.973  10.455  0.1195  0.3319 -0.1625
  475MPD2    H5 7128   1.381   3.070  10.428  0.6825  0.0113 -1.3940
  475MPD2    N1 7129   1.843   2.990  10.295  0.1656 -0.2501 -0.1538
  475MPD2    H7 7130   1.833   3.089  10.311  1.4354 -0.7972  4.0793
  476TMC3    C1 7131   2.040   3.067  10.204 -0.4372 -0.0895  0.0149
  476TMC3    C2 7132   1.974   3.145  10.111  0.2894  0.1275 -0.1301
  476TMC3    C3 7133   1.977   3.282  10.119  0.0042 -0.0944  0.3445
  476TMC3    C4 7134   2.075   3.137  10.314  0.3521  0.0042  0.3338
  476TMC3    C5 7135   2.081   3.269  10.326 -0.5215  0.3094 -0.2543
  476TMC3    C6 7136   2.033   3.345  10.225 -0.7078 -0.4012 -0.0752
  476TMC3     C 7137   1.960   2.947  10.232 -0.4032 -0.5335 -0.9245
  476TMC3     O 7138   1.989   2.837  10.181 -1.0688  0.4588 -0.4637
  476TMC3     H 7139   1.945   3.103  10.016  1.8204  0.1297 -0.6015
  476TMC3    H1 7140   2.132   3.078  10.386 -0.2932  0.6633  1.3788
  476TMC3    H2 7141   2.048   3.452  10.226  0.1121 -0.5115 -0.5444
  476TMC3    C7 7142   2.043   3.318  10.460  0.2311 -0.9167 -0.6383
  476TMC3    C8 7143   1.847   3.335  10.088 -0.2906  0.3785 -0.0369
  476TMC3    O1 7144   2.060   3.435  10.497  0.1901 -0.3105  0.2011
  476TMC3    O2 7145   1.831   3.458  10.088  0.4873 -0.1136  0.2759
  477MPD2     C 7146   3.950   3.942  11.465  0.1357  0.0520  0.1507
  477MPD2    C1 7147   3.885   3.869  11.567  0.1357 -0.3809 -0.8891
  477MPD2    C2 7148   3.942   3.859  11.697 -0.2270 -0.0306 -0.1844
  477MPD2    C3 7149   4.046   3.946  11.719  0.7618 -0.3408  0.0038
  477MPD2    C4 7150   4.101   4.036  11.622  0.0388  0.0418 -0.2041
  477MPD2    C5 7151   4.059   4.018  11.490 -0.1065 -0.2724 -0.3184
  477MPD2     H 7152   3.899   3.807  11.782 -0.3086 -1.4161 -1.0788
  477MPD2    H1 7153   4.169   4.118  11.637  0.2265 -0.3262  1.0135
  477MPD2    H2 7154   3.905   3.949  11.367  3.1879 -2.9033 -1.4893
  477MPD2    H3 7155   4.100   4.079  11.410 -0.3421 -1.4264 -1.3171
  477MPD2     N 7156   4.107   3.943  11.848 -0.3634  0.3143 -0.2199
  477MPD2    H5 7157   4.087   3.861  11.903 -1.2621 -0.5829 -1.8913
  477MPD2    N1 7158   3.755   3.815  11.535 -0.1999 -0.0626 -0.2275
  477MPD2    H7 7159   3.714   3.849  11.449 -2.4276 -0.8075  0.5458
  478TMC3    C1 7160   3.540   3.764  11.579  0.5485  0.2589 -0.1884
  478TMC3    C2 7161   3.473   3.818  11.684 -0.0031 -0.4280  0.1050
  478TMC3    C3 7162   3.416   3.946  11.668  0.7888 -0.2046  0.1503
  478TMC3    C4 7163   3.536   3.814  11.455 -0.0265 -0.0086 -0.5174
  478TMC3    C5 7164   3.464   3.927  11.439 -0.1018 -0.0052 -0.1696
  478TMC3    C6 7165   3.405   4.002  11.542 -0.2930  0.3956 -0.0444
  478TMC3     C 7166   3.677   3.744  11.621  0.2080 -0.6121  0.1234
  478TMC3     O 7167   3.696   3.725  11.737 -0.2802  0.2774  0.3710
  478TMC3     H 7168   3.498   3.795  11.787  0.9945 -0.0994 -0.0684
  478TMC3    H1 7169   3.567   3.763  11.365 -0.2795 -1.9253  0.4558
  478TMC3    H2 7170   3.365   4.098  11.516 -1.2516  0.2677  0.9807
  478TMC3    C7 7171   3.520   4.012  11.331  0.5531  1.0786  0.3443
  478TMC3    C8 7172   3.389   4.025  11.791 -0.2467  0.4933  0.6919
  478TMC3    O1 7173   3.632   3.977  11.287 -0.1068 -0.1403  0.0595
  478TMC3    O2 7174   3.358   3.962  11.893 -0.7283 -0.3601 -0.4143
  479MPD2     C 7175   3.377   2.433  15.116 -0.2300 -0.4288 -0.5477
  479MPD2    C1 7176   3.303   2.374  15.221 -0.2587  0.1855  0.1493
  479MPD2    C2 7177   3.345   2.395  15.352  0.9109 -0.3801 -0.1759
  479MPD2    C3 7178   3.445   2.483  15.384 -0.0440  0.1924 -0.0879
  479MPD2    C4 7179   3.527   2.526  15.280  0.2277  0.0222 -0.1205
  479MPD2    C5 7180   3.482   2.509  15.149 -0.2042  0.0481 -0.1184
  479MPD2     H 7181   3.278   2.359  15.430 -0.9171  0.5071 -1.3339
  479MPD2    H1 7182   3.622   2.576  15.291  0.7098 -1.0084  0.4172
  479MPD2    H2 7183   3.354   2.422  15.011 -0.5104  1.4286 -0.6907
  479MPD2    H3 7184   3.545   2.538  15.065 -1.3094  0.4256 -0.8175
  479MPD2     N 7185   3.491   2.504  15.513  0.2304 -0.3541 -0.0791
  479MPD2    H5 7186   3.581   2.550  15.522 -1.4537  2.1514  4.0853
  479MPD2    N1 7187   3.191   2.288  15.186 -0.2207 -0.9653 -0.3211
  479MPD2    H7 7188   3.159   2.273  15.091 -0.6073  2.3791 -0.7221
  480TMC3    C1 7189   3.081   2.428  15.752  0.5175  0.2238  0.1910
  480TMC3    C2 7190   3.008   2.516  15.681 -0.6308 -0.2468 -0.3833
  480TMC3    C3 7191   3.070   2.585  15.575  0.1071 -0.1423  0.0702
  480TMC3    C4 7192   3.214   2.413  15.727  0.1393 -0.0760  0.3180
  480TMC3    C5 7193   3.279   2.487  15.627  0.3009 -0.2006  0.7643
  480TMC3    C6 7194   3.207   2.580  15.556 -0.1424  0.5932  0.2404
  480TMC3     C 7195   3.023   2.318  15.822 -0.4055  0.1343  0.4956
  480TMC3     O 7196   3.094   2.230  15.870  0.4883  0.2009  0.1165
  480TMC3     H 7197   2.902   2.530  15.698  0.0807  3.1421  1.2382
  480TMC3    H1 7198   3.270   2.333  15.774 -1.2339  0.8910  3.5620
  480TMC3    H2 7199   3.270   2.643  15.494 -0.1063  0.5652  0.2486
  480TMC3    C7 7200   3.421   2.494  15.633  0.2902 -0.2154 -0.0675
  480TMC3    C8 7201   2.986   2.589  15.457  0.2687  0.4405 -0.0618
  480TMC3    O1 7202   3.474   2.499  15.742 -0.3672  0.3831  0.4778
  480TMC3    O2 7203   2.867   2.567  15.482 -0.5102  0.1626 -0.4259
  481MPD2     C 7204   0.345   1.840  14.195  0.9091 -0.0829  0.6334
  481MPD2    C1 7205   0.229   1.774  14.229 -0.2614 -0.1424  1.1129
  481MPD2    C2 7206   0.219   1.745  14.363  0.2594 -0.1303 -0.2056
  481MPD2    C3 7207   0.307   1.781  14.465  0.2253 -0.1540  0.4243
  481MPD2    C4 7208   0.417   1.857  14.427 -0.2148 -0.6070  0.3156
  481MPD2    C5 7209   0.434   1.879  14.293 -0.8249 -0.2924 -0.8923
  481MPD2     H 7210   0.134   1.687  14.398  0.9040 -1.4767 -0.8788
  481MPD2    H1 7211   0.500   1.866  14.497  1.0905 -2.3264 -1.0074
  481MPD2    H2 7212   0.364   1.866  14.092 -2.3325 -1.5751 -0.3448
  481MPD2    H3 7213   0.527   1.918  14.253 -0.6570  1.7293  1.5505
  481MPD2     N 7214   0.288   1.761  14.611  0.7192  0.0584  0.6409
  481MPD2    H5 7215   0.356   1.800  14.675 -1.0811  0.6189  2.2295
  481MPD2    N1 7216   0.135   1.735  14.130 -0.0735 -0.0917  0.1181
  481MPD2    H7 7217   0.170   1.755  14.037  0.9152 -1.2618  0.2392
  482TMC3    C1 7218   4.671   1.655  14.030 -0.2410 -0.1594  0.3042
  482TMC3    C2 7219   4.567   1.569  14.058  0.3244 -0.1847 -0.3539
  482TMC3    C3 7220   4.448   1.598  13.998 -0.2877  0.4826 -0.1928
  482TMC3    C4 7221   4.669   1.752  13.940 -0.2747 -0.6129  0.1993
  482TMC3    C5 7222   4.552   1.767  13.871  0.3861  0.5314 -0.4013
  482TMC3    C6 7223   4.439   1.692  13.897 -0.2252 -0.7735  0.0497
  482TMC3     C 7224   0.019   1.664  14.146 -0.0113  0.1275 -0.4514
  482TMC3     O 7225   4.711   1.617  14.249 -0.3422 -0.0025 -0.4614
  482TMC3     H 7226   4.584   1.488  14.129 -0.2421 -0.2050 -0.2430
  482TMC3    H1 7227   0.011   1.821  13.925 -0.2262 -1.6310 -4.1616
  482TMC3    H2 7228   4.350   1.709  13.837  0.0742 -1.4617 -0.5852
  482TMC3    C7 7229   4.547   1.880  13.782  0.4245 -0.0047  1.3817
  482TMC3    C8 7230   4.342   1.506  14.042 -0.3430 -0.4485 -0.1871
  482TMC3    O1 7231   4.593   1.986  13.820  0.3306 -0.4371 -0.1114
  482TMC3    O2 7232   4.393   1.402  14.087 -0.1368 -0.2930  0.3272
  483TMC3    C1 7233   3.798   0.506   1.185 -0.7460  0.9347  0.1533
  483TMC3    C2 7234   3.840   0.632   1.162 -0.0676  0.4191 -0.3161
  483TMC3    C3 7235   3.960   0.639   1.094 -1.0838  0.3935 -0.7100
  483TMC3    C4 7236   3.867   0.392   1.149 -0.0095  0.0956  0.3185
  483TMC3    C5 7237   3.986   0.410   1.082 -0.5401  0.0904 -0.1548
  483TMC3    C6 7238   4.028   0.536   1.045 -0.5344 -0.0444 -0.4160
  483TMC3     C 7239   3.680   0.492   1.269  0.0570  0.4804 -0.1018
  483TMC3     O 7240   3.655   0.595   1.330 -0.1989  0.1512  0.4396
  483TMC3     H 7241   3.779   0.711   1.204  1.4752  0.7895  1.2295
  483TMC3    H1 7242   3.837   0.295   1.185 -1.4537  0.4535  0.0756
  483TMC3    H2 7243   4.122   0.560   0.997 -0.9749  0.8552 -0.8202
  483TMC3    C7 7244   4.079   0.297   1.083  0.0518  0.5200 -0.1587
  483TMC3    C8 7245   3.998   0.765   1.036 -0.2639  0.2627  0.6189
  483TMC3    O1 7246   4.036   0.188   1.115 -0.3890  0.4106  0.5495
  483TMC3    O2 7247   4.059   0.767   0.931  0.1290 -0.2636 -0.4055
  484MPD2     C 7248   0.825   3.526  12.771  0.0214  0.0409 -0.0168
  484MPD2    C1 7249   0.747   3.505  12.659  0.2194  0.8635  0.0727
  484MPD2    C2 7250   0.803   3.547  12.536  0.4679 -0.1426  0.1113
  484MPD2    C3 7251   0.939   3.581  12.519 -0.0370  0.4264  0.1100
  484MPD2    C4 7252   1.012   3.605  12.637 -0.2315 -0.1388 -0.4821
  484MPD2    C5 7253   0.953   3.582  12.764  0.6138 -0.4432  0.2224
  484MPD2     H 7254   0.741   3.529  12.449  0.1328 -1.4139  0.6283
  484MPD2    H1 7255   1.115   3.635  12.623 -0.1501 -0.0836  0.2367
  484MPD2    H2 7256   0.782   3.501  12.868  1.4376 -0.5013  0.4667
  484MPD2    H3 7257   1.006   3.590  12.859  2.1101 -0.6239 -0.5939
  484MPD2     N 7258   0.987   3.633  12.399  0.7701 -0.1843  0.2780
  484MPD2    H5 7259   1.081   3.672  12.407  0.4063  0.4124  1.6861
  484MPD2    N1 7260   0.611   3.461  12.667  0.9055  0.7017 -0.2484
  484MPD2    H7 7261   0.585   3.451  12.765 -0.9762 -2.8591 -1.1034
  485TMC3    C1 7262   0.995   3.661  12.169 -0.0090 -1.1613 -0.7852
  485TMC3    C2 7263   1.106   3.746  12.185 -0.3584  0.2884  0.3044
  485TMC3    C3 7264   1.148   3.824  12.077  0.3392 -0.4081 -0.2474
  485TMC3    C4 7265   0.918   3.673  12.051 -0.5090  0.4806 -0.3910
  485TMC3    C5 7266   0.964   3.748  11.951  0.3299  0.3188  0.1517
  485TMC3    C6 7267   1.075   3.822  11.959  0.3311 -0.4725 -0.5770
  485TMC3     C 7268   0.913   3.627  12.281 -0.1751  0.2795 -0.2416
  485TMC3     O 7269   0.789   3.626  12.268  0.8087  0.4898 -0.1192
  485TMC3     H 7270   1.177   3.727  12.265  0.3008 -1.9404 -0.7934
  485TMC3    H1 7271   0.834   3.605  12.042 -0.8969  0.7917  0.7965
  485TMC3    H2 7272   1.111   3.870  11.868  2.6970  0.3421  0.8007
  485TMC3    C7 7273   0.970   3.680  11.821 -0.2755 -0.4890  0.4063
  485TMC3    C8 7274   1.285   3.811  12.036 -0.3031  0.0576 -0.5518
  485TMC3    O1 7275   0.967   3.752  11.721  0.0792 -0.3479  0.4511
  485TMC3    O2 7276   1.320   3.900  11.954  0.2365 -0.2173 -0.1310
  486MPD2     C 7277   2.143   1.931  13.266  0.4040 -0.2088 -0.5334
  486MPD2    C1 7278   2.260   1.963  13.197 -0.2575 -0.0476 -0.7637
  486MPD2    C2 7279   2.298   2.094  13.208  0.1536  0.1010  0.0732
  486MPD2    C3 7280   2.222   2.191  13.276  0.1744  0.0874  0.0794
  486MPD2    C4 7281   2.100   2.153  13.333 -0.0766  0.4043 -0.3538
  486MPD2    C5 7282   2.066   2.018  13.337 -0.2137 -0.0009 -0.2978
  486MPD2     H 7283   2.385   2.126  13.152  1.4036 -0.0145  1.9269
  486MPD2    H1 7284   2.027   2.225  13.368 -0.3019 -0.0381  0.0964
  486MPD2    H2 7285   2.113   1.827  13.269 -1.5149  0.3473 -0.7308
  486MPD2    H3 7286   1.973   1.978  13.376  0.5313 -1.4847 -0.0928
  486MPD2     N 7287   2.273   2.323  13.263 -0.3062  0.1505 -0.0976
  486MPD2    H5 7288   2.354   2.334  13.203  0.7627 -0.1281  1.2941
  486MPD2    N1 7289   2.318   1.864  13.112 -0.2329  0.3086 -0.3009
  486MPD2    H7 7290   2.267   1.777  13.103 -0.3286  0.5468 -2.0763
  487TMC3    C1 7291   2.474   1.737  13.009  0.0982 -0.0137 -0.1138
  487TMC3    C2 7292   2.381   1.634  13.033 -0.3825 -0.2877 -0.0471
  487TMC3    C3 7293   2.425   1.507  13.024 -0.6897  0.4794 -0.0117
  487TMC3    C4 7294   2.607   1.706  12.984 -0.0782 -0.2305  0.1663
  487TMC3    C5 7295   2.636   1.573  12.980  0.8010 -0.3868  0.8633
  487TMC3    C6 7296   2.549   1.467  12.997  0.0917  0.5434  0.2548
  487TMC3     C 7297   2.438   1.869  13.053  0.1446  0.7541  0.4237
  487TMC3     O 7298   2.517   1.961  13.026 -0.7463 -0.0179  0.1564
  487TMC3     H 7299   2.273   1.636  13.031 -0.3790  0.0880  0.1344
  487TMC3    H1 7300   2.678   1.782  12.951  1.5596 -2.2581 -0.9224
  487TMC3    H2 7301   2.586   1.379  13.048 -1.8713 -0.0637  0.6581
  487TMC3    C7 7302   2.778   1.553  12.961  0.0046  0.4600  0.2964
  487TMC3    C8 7303   2.343   1.420  13.106  0.4043  0.3060  0.4997
  487TMC3    O1 7304   2.852   1.651  12.971  0.1913 -0.1872 -0.5354
  487TMC3    O2 7305   2.271   1.480  13.185  0.6773  0.1197  0.0476
  488MPD2     C 7306   3.220   0.152  15.979  0.6722  0.0054  0.4465
  488MPD2    C1 7307   3.278   0.049  16.049 -0.1531 -0.1212 -0.4098
  488MPD2    C2 7308   3.201   4.691  16.104 -0.5003  1.1893 -0.0176
  488MPD2    C3 7309   3.061   4.701  16.098  0.9693 -0.0283  0.1887
  488MPD2    C4 7310   3.004   0.075  16.044  0.2473 -0.1514 -0.0623
  488MPD2    C5 7311   3.085   0.166  15.971  0.6842  1.3216  0.7333
  488MPD2     H 7312   3.249   4.611  16.160  2.3471  1.9691 -1.3159
  488MPD2    H1 7313   2.897   0.091  16.045  0.3560  0.5536  0.5473
  488MPD2    H2 7314   3.274   0.232  15.929  2.4500 -2.2175 -1.2155
  488MPD2    H3 7315   3.044   0.248  15.914  3.8322  2.4484  0.0927
  488MPD2     N 7316   2.981   4.606  16.163  0.0548 -0.1673  0.4799
  488MPD2    H5 7317   3.034   4.536  16.215  0.3779  0.6121  1.1908
  488MPD2    N1 7318   3.417   0.031  16.068  0.0859  0.7078  0.4654
  488MPD2    H7 7319   3.444   4.697  16.132 -1.0364  0.2230  0.3818
  489TMC3    C1 7320   2.790   4.530  16.273  0.8133  0.2420 -0.3659
  489TMC3    C2 7321   2.871   4.426  16.301  0.6194 -0.2279  0.4179
  489TMC3    C3 7322   2.831   4.338  16.391 -0.2608 -0.1253  0.4313
  489TMC3    C4 7323   2.664   4.550  16.324  0.2763  0.2236  0.0712
  489TMC3    C5 7324   2.631   4.466  16.429  0.4501  0.1204 -0.6762
  489TMC3    C6 7325   2.713   4.363  16.469 -0.0957  0.3180 -0.2992
  489TMC3     C 7326   2.844   4.612  16.175 -0.3087  0.6997  0.2128
  489TMC3     O 7327   2.760   4.678  16.116 -0.8394  0.0637  0.4678
  489TMC3     H 7328   2.953   4.393  16.238  1.9577  0.3486  1.8572
  489TMC3    H1 7329   2.599   4.632  16.295 -0.0447  0.1660  0.6113
  489TMC3    H2 7330   2.672   4.292  16.540  0.9565 -0.1880 -0.1930
  489TMC3    C7 7331   2.550   4.521  16.539 -0.1788  0.3174 -0.2927
  489TMC3    C8 7332   2.936   4.261  16.454 -0.5107  0.4213  0.5832
  489TMC3    O1 7333   2.548   4.458  16.642 -0.5833 -0.1546  0.1837
  489TMC3    O2 7334   3.049   4.300  16.443  0.1843  0.1975  0.2195
  490MPD2     C 7335   3.839   3.068  17.065  0.0153 -0.7201 -0.5629
  490MPD2    C1 7336   3.778   3.169  17.136 -0.3413  0.1575 -0.6594
  490MPD2    C2 7337   3.867   3.260  17.199  0.3235  0.1222  0.5325
  490MPD2    C3 7338   4.007   3.239  17.204 -0.3861 -0.4007 -0.6028
  490MPD2    C4 7339   4.058   3.134  17.133  0.2139 -0.2906 -0.3755
  490MPD2    C5 7340   3.974   3.069  17.047 -0.1454  0.5671  0.9607
  490MPD2     H 7341   3.810   3.337  17.249 -0.3257  0.7807 -1.2526
  490MPD2    H1 7342   4.165   3.116  17.137  0.0158 -1.2967  0.3825
  490MPD2    H2 7343   3.776   3.006  17.002 -2.2712  1.3216 -0.3029
  490MPD2    H3 7344   4.011   2.995  16.977 -1.5007  0.1744  0.6613
  490MPD2     N 7345   4.094   3.325  17.281 -0.3947 -0.0403  0.0490
  490MPD2    H5 7346   4.189   3.291  17.283  0.0854  1.2705 -1.3776
  490MPD2    N1 7347   3.643   3.196  17.115 -0.0430  0.1805 -0.9130
  490MPD2    H7 7348   3.588   3.125  17.067  0.2540 -0.9357  0.4161
  491TMC3    C1 7349   3.447   3.289  17.139 -0.1455  0.0016 -1.1866
  491TMC3    C2 7350   3.413   3.173  17.202  0.3731  0.1620 -0.1417
  491TMC3    C3 7351   3.278   3.164  17.227 -0.3829  1.0088  0.8695
  491TMC3    C4 7352   3.366   3.394  17.097  0.3057 -0.2791  0.3203
  491TMC3    C5 7353   3.236   3.376  17.119  0.1286 -0.1284 -0.3117
  491TMC3    C6 7354   3.194   3.267  17.192 -0.0927  0.2256  0.4050
  491TMC3     C 7355   3.584   3.317  17.129 -0.0410 -0.5039  0.2580
  491TMC3     O 7356   3.623   3.434  17.148  0.1045 -0.1146  0.9947
  491TMC3     H 7357   3.480   3.096  17.239  0.5625 -0.5706 -1.9633
  491TMC3    H1 7358   3.404   3.479  17.042 -2.2866  0.2269 -0.7044
  491TMC3    H2 7359   3.093   3.247  17.226 -0.3427 -2.5479 -1.9095
  491TMC3    C7 7360   3.135   3.432  17.040 -0.0037 -0.1182 -0.3475
  491TMC3    C8 7361   3.235   3.105  17.351  0.6977  0.0805  0.0154
  491TMC3    O1 7362   3.142   3.549  17.016  0.4684 -0.1379  0.3012
  491TMC3    O2 7363   3.316   3.105  17.438 -0.1894  0.1228 -0.3013
  492MPD2     C 7364   3.553   3.366  11.337 -0.0678 -0.4614 -0.9840
  492MPD2    C1 7365   3.510   3.245  11.294  0.5516 -0.0859 -0.7307
  492MPD2    C2 7366   3.537   3.133  11.366 -0.1605  0.4769 -0.1852
  492MPD2    C3 7367   3.619   3.142  11.474  0.0161  0.5588 -0.2519
  492MPD2    C4 7368   3.664   3.266  11.515 -0.2108 -0.5777  0.0817
  492MPD2    C5 7369   3.621   3.381  11.451  0.3752  0.1171  0.0981
  492MPD2     H 7370   3.489   3.041  11.334 -0.9441  1.3098 -1.4167
  492MPD2    H1 7371   3.724   3.282  11.604 -1.0998 -1.7105  0.8810
  492MPD2    H2 7372   3.537   3.454  11.275 -0.7587  0.1069 -0.0040
  492MPD2    H3 7373   3.656   3.478  11.486 -2.1686  1.0783  0.0271
  492MPD2     N 7374   3.664   3.025  11.545 -1.0862 -0.4454  0.0344
  492MPD2    H5 7375   3.745   3.034  11.604 -0.8590 -0.1234 -0.3232
  492MPD2    N1 7376   3.437   3.242  11.174 -0.6265  0.3100 -0.1824
  492MPD2    H7 7377   3.419   3.335  11.136  1.2331  1.2518  1.2181
  493TMC3    C1 7378   3.348   3.174  10.959 -0.1483  0.0171 -0.1335
  493TMC3    C2 7379   3.336   3.308  10.927 -0.1882 -0.2238 -0.3451
  493TMC3    C3 7380   3.249   3.332  10.823  0.1373  0.5714  0.6095
  493TMC3    C4 7381   3.267   3.074  10.908  0.6955 -0.2156  1.0775
  493TMC3    C5 7382   3.178   3.110  10.814  0.2092 -0.2427  0.1758
  493TMC3    C6 7383   3.180   3.236  10.766 -0.1099  0.1796 -0.2254
  493TMC3     C 7384   3.400   3.133  11.094  0.4790 -0.3896 -0.4359
  493TMC3     O 7385   3.417   3.015  11.118  0.1653 -0.2051  0.8540
  493TMC3     H 7386   3.383   3.389  10.982  1.4718 -1.7740  0.5259
  493TMC3    H1 7387   3.281   2.970  10.935  0.7213 -1.1523 -2.6226
  493TMC3    H2 7388   3.109   3.265  10.688 -0.2123  1.9134  0.5172
  493TMC3    C7 7389   3.105   3.015  10.735  0.5849 -0.0058  0.0422
  493TMC3    C8 7390   3.236   3.463  10.774 -0.0320  0.1770  0.0972
  493TMC3    O1 7391   3.044   3.061  10.636  0.2391  0.6095  0.9407
  493TMC3    O2 7392   3.124   3.474  10.724  0.2463 -0.2665  0.0662
  494TMC3    C1 7393   0.037   0.292   0.663 -0.4653 -0.0519  0.8317
  494TMC3    C2 7394   4.737   0.166   0.647 -0.4499  1.0208 -0.4515
  494TMC3    C3 7395   4.689   0.124   0.529 -0.4508  0.4329 -0.3010
  494TMC3    C4 7396   0.057   0.383   0.561  0.1858  0.4049  0.0318
  494TMC3    C5 7397   0.007   0.339   0.447 -0.4564 -0.1602 -0.2541
  494TMC3    C6 7398   4.691   0.209   0.428 -0.2157 -0.3311 -1.2118
  494TMC3     C 7399   0.100   0.321   0.795 -0.8017 -0.2585  0.2341
  494TMC3     O 7400   0.106   0.222   0.870  0.7588  0.2904 -0.6288
  494TMC3     H 7401   4.736   0.096   0.730  0.4617  0.7955 -0.6300
  494TMC3    H1 7402   0.104   0.479   0.579 -0.6653  0.8022  0.0895
  494TMC3    H2 7403   4.652   0.177   0.332  2.4649 -2.0048 -1.7316
  494TMC3    C7 7404   0.025   0.421   0.331 -0.0536 -0.4311 -0.3792
  494TMC3    C8 7405   4.703   4.720   0.520 -0.9029  0.1392 -0.2293
  494TMC3    O1 7406   4.737   0.357   0.227  0.0897  0.0660 -0.3015
  494TMC3    O2 7407   0.056   4.678   0.579 -0.0435  0.0993  0.2932
  495TMC3    C1 7408   3.216   2.370  14.594 -0.7759 -0.2028 -0.2722
  495TMC3    C2 7409   3.161   2.420  14.481 -0.1701 -0.4196 -0.1573
  495TMC3    C3 7410   3.128   2.552  14.481  0.2994 -0.1354  0.0964
  495TMC3    C4 7411   3.237   2.449  14.703 -0.4753 -0.2038 -0.1875
  495TMC3    C5 7412   3.211   2.584  14.697 -0.3515 -0.1143 -0.4333
  495TMC3    C6 7413   3.142   2.636  14.591  0.2258  0.2945  0.3155
  495TMC3     C 7414   3.154   2.247  14.645  0.0740 -0.1034  0.2641
  495TMC3     O 7415   3.180   2.210  14.758 -0.1140  0.3290  0.3352
  495TMC3     H 7416   3.162   2.367  14.386  1.1160  0.5768 -0.7041
  495TMC3    H1 7417   3.294   2.412  14.787  0.8636  0.1710 -0.9244
  495TMC3    H2 7418   3.117   2.741  14.584  0.2549  0.3252  0.6670
  495TMC3    C7 7419   3.180   2.627  14.834 -0.1156 -0.8863  0.9694
  495TMC3    C8 7420   3.045   2.592  14.378  0.2186  0.0958  0.0004
  495TMC3    O1 7421   3.265   2.617  14.919 -0.4206 -0.0315 -0.1439
  495TMC3    O2 7422   2.983   2.502  14.321 -0.2570  0.0348  0.0553
  496MPD2     C 7423   0.357   2.958  14.660  0.2958  0.5699  0.4736
  496MPD2    C1 7424   0.424   2.898  14.761 -0.5700  0.0212 -0.1004
  496MPD2    C2 7425   0.355   2.820  14.851 -0.0813  0.0339  0.0335
  496MPD2    C3 7426   0.216   2.815  14.844  0.0371  0.2810  0.0120
  496MPD2    C4 7427   0.152   2.884  14.741 -0.6004  0.1613 -0.0646
  496MPD2    C5 7428   0.222   2.949  14.647  0.8299  0.6373  0.2210
  496MPD2     H 7429   0.406   2.764  14.929 -1.2827 -0.5730  0.3783
  496MPD2    H1 7430   0.046   2.861  14.740 -0.4830 -0.3473 -0.9082
  496MPD2    H2 7431   0.409   3.018  14.586 -0.2967  1.3856  0.7202
  496MPD2    H3 7432   0.173   2.993  14.560 -1.8606 -0.1060  1.3471
  496MPD2     N 7433   0.135   2.731  14.932 -0.7322  0.3624  0.7107
  496MPD2    H5 7434   0.036   2.733  14.912 -1.0517 -2.2749  2.0891
  496MPD2    N1 7435   0.569   2.900  14.754  0.0253 -0.0165  0.5616
  496MPD2    H7 7436   0.619   2.961  14.691 -0.0462 -0.8093 -0.2670
  497TMC3    C1 7437   0.077   2.560  15.085 -0.0200 -0.4680  0.7949
  497TMC3    C2 7438   4.735   2.496  15.000 -1.5819  0.8723 -0.7486
  497TMC3    C3 7439   4.627   2.422  15.050  0.1237 -0.4740 -0.2141
  497TMC3    C4 7440   0.064   2.539  15.217 -0.1989  0.3966  0.1039
  497TMC3    C5 7441   4.693   2.468  15.266  0.4817 -0.3576 -0.8328
  497TMC3    C6 7442   4.604   2.407  15.184  0.4804 -0.0887  1.3187
  497TMC3     C 7443   0.182   2.651  15.040 -0.6614 -0.1326  0.1030
  497TMC3     O 7444   0.288   2.653  15.102  0.0999 -0.0645  0.6149
  497TMC3     H 7445   0.014   2.498  14.893  1.7059  0.1461 -0.1956
  497TMC3    H1 7446   0.130   2.594  15.283  0.1715  2.3795 -1.9099
  497TMC3    H2 7447   4.527   2.343  15.227  0.4504  0.3436  1.8998
  497TMC3    C7 7448   4.706   2.398  15.393  0.1458 -0.5870 -0.2819
  497TMC3    C8 7449   4.544   2.348  14.961 -0.7343  0.3966  0.7561
  497TMC3    O1 7450   4.661   2.284  15.399 -0.7141 -0.2578  0.1760
  497TMC3    O2 7451   4.510   2.241  15.006  0.8240 -0.4785 -0.2887
  498MPD2     C 7452   1.042   2.596   9.887 -0.0175 -0.6096  0.2482
  498MPD2    C1 7453   0.975   2.719   9.879  0.6330 -0.6068  0.2675
  498MPD2    C2 7454   0.851   2.731   9.941  0.2858 -0.2019  0.6273
  498MPD2    C3 7455   0.791   2.624  10.011 -0.2034 -0.2859 -0.2420
  498MPD2    C4 7456   0.861   2.500  10.010  0.4513  0.3616  0.2081
  498MPD2    C5 7457   0.986   2.491   9.954  1.0567 -0.2576 -0.4800
  498MPD2     H 7458   0.793   2.822   9.936  0.0425 -0.3126  1.3683
  498MPD2    H1 7459   0.827   2.402  10.039  3.5657 -0.6658  0.3646
  498MPD2    H2 7460   1.139   2.574   9.842 -0.6051 -0.4096 -1.1133
  498MPD2    H3 7461   1.031   2.393   9.968  0.0134 -0.7007 -0.2508
  498MPD2     N 7462   0.664   2.636  10.072  0.2270 -0.2710 -0.3414
  498MPD2    H5 7463   0.609   2.711  10.033  0.6595 -0.6422 -1.6767
  498MPD2    N1 7464   1.033   2.841   9.826  0.2020  0.1870 -0.0792
  498MPD2    H7 7465   0.974   2.924   9.827 -0.8270 -0.5383 -1.4858
  499TMC3    C1 7466   1.205   2.974   9.723 -0.2900  0.1083 -0.0161
  499TMC3    C2 7467   1.345   2.988   9.711 -0.3220  0.1296  0.2305
  499TMC3    C3 7468   1.397   3.112   9.688  0.0659  0.7695  0.5646
  499TMC3    C4 7469   1.119   3.075   9.689 -0.5236  0.8461  0.2155
  499TMC3    C5 7470   1.178   3.194   9.659  1.0848  0.1805  0.5179
  499TMC3    C6 7471   1.315   3.211   9.657 -0.0790 -0.1595  0.6054
  499TMC3     C 7472   1.165   2.851   9.787  0.3007 -1.0874 -0.1585
  499TMC3     O 7473   1.256   2.770   9.791 -0.0554  0.6868  0.2154
  499TMC3     H 7474   1.418   2.912   9.736 -1.1005 -0.4761  0.6737
  499TMC3    H1 7475   1.012   3.059   9.690 -0.7795  2.5523 -2.4173
  499TMC3    H2 7476   1.357   3.305   9.625  1.1369 -0.9479 -0.1437
  499TMC3    C7 7477   1.106   3.312   9.623 -0.3986  0.1186 -0.1432
  499TMC3    C8 7478   1.538   3.124   9.700 -0.0917  0.0299  0.3131
  499TMC3    O1 7479   1.174   3.414   9.596  0.0691  0.4099 -0.0409
  499TMC3    O2 7480   1.608   3.026   9.707  0.0551  0.0458 -0.0275
  500MPD2     C 7481   2.232   4.047  10.543  0.1979 -0.2926  0.5084
  500MPD2    C1 7482   2.248   4.095  10.415  0.4101 -0.3907  0.1126
  500MPD2    C2 7483   2.128   4.132  10.349 -1.1000  0.7998  0.1658
  500MPD2    C3 7484   2.008   4.090  10.386 -0.2093 -0.0171  0.1613
  500MPD2    C4 7485   1.999   4.017  10.503 -0.6224  0.0302  0.7242
  500MPD2    C5 7486   2.107   4.013  10.586  0.2802  0.6332 -0.3364
  500MPD2     H 7487   2.140   4.181  10.253 -0.9726 -0.0765 -0.2698
  500MPD2    H1 7488   1.906   3.991  10.550 -1.6998  1.6661 -0.5014
  500MPD2    H2 7489   2.319   4.038  10.606  0.3929  4.1406  0.9073
  500MPD2    H3 7490   2.092   3.971  10.685  3.6408  0.0209 -0.0835
  500MPD2     N 7491   1.895   4.104  10.305  0.5541 -0.0608 -0.5278
  500MPD2    H5 7492   1.815   4.048  10.332  0.8338  0.5055  1.4283
  500MPD2    N1 7493   2.373   4.117  10.356 -0.2498 -0.4120  0.1067
  500MPD2    H7 7494   2.371   4.167  10.267  0.7980  2.1162  1.5117
  501TMC3    C1 7495   2.608   4.112  10.323 -0.2422  0.1161  0.0443
  501TMC3    C2 7496   2.606   4.221  10.234  0.1324  0.1828 -0.1475
  501TMC3    C3 7497   2.726   4.245  10.172 -0.5973 -0.4537  0.8582
  501TMC3    C4 7498   2.716   4.034  10.353 -0.3832  0.0903 -0.3516
  501TMC3    C5 7499   2.831   4.064  10.287  0.1773  0.2081  0.1378
  501TMC3    C6 7500   2.834   4.157  10.183 -0.1895  0.0141 -0.2901
  501TMC3     C 7501   2.496   4.073  10.404  0.1821 -0.2279  1.3243
  501TMC3     O 7502   2.522   4.003  10.499 -0.1201  0.0879 -0.2895
  501TMC3     H 7503   2.535   4.303  10.232 -0.7835 -0.6476 -1.2920
  501TMC3    H1 7504   2.721   3.976  10.444 -0.6194  1.2263  0.3953
  501TMC3    H2 7505   2.926   4.164  10.126 -0.8589 -1.0872 -1.5060
  501TMC3    C7 7506   2.954   4.045  10.367  0.9647  0.1905 -0.7053
  501TMC3    C8 7507   2.759   4.391  10.160 -0.5680 -0.6793  0.3582
  501TMC3    O1 7508   2.954   3.956  10.450  0.3609  0.1975 -0.2631
  501TMC3    O2 7509   2.703   4.474  10.229 -0.3194  0.0589 -0.1262
  502TMC3    C1 7510   2.872   3.451  14.825  0.6200 -0.4757 -0.6149
  502TMC3    C2 7511   2.873   3.581  14.790 -0.2779 -0.5919  0.2152
  502TMC3    C3 7512   2.753   3.638  14.757 -0.2371 -0.0907  0.0607
  502TMC3    C4 7513   2.757   3.372  14.826  0.2187 -0.4262 -0.0260
  502TMC3    C5 7514   2.640   3.428  14.784  0.1069 -0.1083  0.0839
  502TMC3    C6 7515   2.634   3.561  14.747 -0.0929  0.0369  0.1124
  502TMC3     C 7516   2.948   3.427  14.946 -0.1503 -0.4524 -0.0790
  502TMC3     O 7517   3.054   3.481  14.968 -0.2385  0.0709  0.1811
  502TMC3     H 7518   2.972   3.624  14.787  0.0299 -1.2658  0.6400
  502TMC3    H1 7519   2.760   3.266  14.846 -0.6298 -0.4627 -0.1234
  502TMC3    H2 7520   2.540   3.609  14.721  0.1897  1.2402  1.2883
  502TMC3    C7 7521   2.530   3.377  14.866 -0.1999  0.5061  0.2029
  502TMC3    C8 7522   2.750   3.780  14.751  1.1685 -0.1921  1.2205
  502TMC3    O1 7523   2.571   3.308  14.958  0.0232  0.2125  0.0732
  502TMC3    O2 7524   2.639   3.831  14.749  0.0704 -0.3890 -0.0208
  503MPD2     C 7525   0.097   4.062  17.072  0.3723 -0.5844 -0.3534
  503MPD2    C1 7526   0.173   4.103  17.181  0.7382  0.2651  0.0489
  503MPD2    C2 7527   0.220   4.014  17.272 -0.2756  0.4905 -0.1550
  503MPD2    C3 7528   0.198   3.882  17.258  0.4600 -0.1876 -0.4224
  503MPD2    C4 7529   0.121   3.833  17.156  0.1438  0.2112  0.3581
  503MPD2    C5 7530   0.065   3.927  17.062  0.0008  0.5578  0.1146
  503MPD2     H 7531   0.278   4.048  17.357 -1.6857 -0.0601  1.0284
  503MPD2    H1 7532   0.093   3.729  17.149 -1.9042  0.9000 -1.9120
  503MPD2    H2 7533   0.057   4.128  16.996  1.7697  1.2283  0.5014
  503MPD2    H3 7534   0.025   3.882  16.972  1.0248 -2.5794  1.2132
  503MPD2     N 7535   0.268   3.793  17.344 -0.2233 -0.1680 -0.3472
  503MPD2    H5 7536   0.234   3.697  17.352  0.1954 -0.2083  0.8586
  503MPD2    N1 7537   0.206   4.238  17.203  0.4732  0.6570 -0.1293
  503MPD2    H7 7538   0.251   4.255  17.292  1.6989  1.1885 -0.8583
  504TMC3    C1 7539   0.452   3.706  17.469  0.3600  1.2170 -0.0568
  504TMC3    C2 7540   0.383   3.605  17.519  0.0091  0.0137 -0.1570
  504TMC3    C3 7541   0.442   3.481  17.522 -0.8570 -0.2310 -0.5590
  504TMC3    C4 7542   0.581   3.690  17.433  0.7743  0.2199  0.5803
  504TMC3    C5 7543   0.638   3.563  17.422  0.9566 -0.2647  0.3486
  504TMC3    C6 7544   0.567   3.457  17.474 -0.6407  0.1163 -0.0641
  504TMC3     C 7545   0.389   3.825  17.413  0.4643  0.9329  0.0635
  504TMC3     O 7546   0.456   3.926  17.423 -0.5535 -0.4532  0.7214
  504TMC3     H 7547   0.279   3.612  17.546  0.2179 -2.5181  1.2839
  504TMC3    H1 7548   0.642   3.771  17.394  1.1049 -0.8028 -1.0086
  504TMC3    H2 7549   0.609   3.358  17.457  0.3841  0.3799  0.9404
  504TMC3    C7 7550   0.714   3.543  17.303  0.7124 -0.2334  0.2202
  504TMC3    C8 7551   0.361   3.375  17.571  0.0135  0.1696  0.2722
  504TMC3    O1 7552   0.815   3.613  17.296  0.0168 -0.1499  0.0621
  504TMC3    O2 7553   0.250   3.365  17.533  0.0104  0.1996  0.1712
  505MPD2     C 7554   4.289   2.793  10.373 -0.3136  0.0275 -0.0028
  505MPD2    C1 7555   4.208   2.692  10.420 -0.3729  0.3524 -0.2458
  505MPD2    C2 7556   4.207   2.678  10.560  0.1024  0.5573  0.1976
  505MPD2    C3 7557   4.296   2.754  10.641  0.8344 -0.2958 -0.2389
  505MPD2    C4 7558   4.387   2.843  10.590  0.1827 -0.2638  0.0815
  505MPD2    C5 7559   4.377   2.865  10.453  0.4486  0.2371  0.3246
  505MPD2     H 7560   4.143   2.606  10.609  0.7273  0.8362  1.4322
  505MPD2    H1 7561   4.448   2.907  10.653  0.8932 -1.3813  0.5360
  505MPD2    H2 7562   4.284   2.808  10.265 -0.2289  1.7229  0.2315
  505MPD2    H3 7563   4.446   2.932  10.402 -0.8994  0.5518 -1.0882
  505MPD2     N 7564   4.286   2.736  10.778  0.4345 -0.3434 -0.0181
  505MPD2    H5 7565   4.209   2.681  10.815 -0.8396  1.4152 -0.0041
  505MPD2    N1 7566   4.133   2.609  10.333  0.2247 -0.2857  0.3679
  505MPD2    H7 7567   4.128   2.631  10.235 -1.3505 -1.1331  0.2488
  506TMC3    C1 7568   4.006   2.435  10.265 -0.2426 -0.4256  0.1090
  506TMC3    C2 7569   4.108   2.390  10.186 -0.0778 -0.0915  0.7666
  506TMC3    C3 7570   4.099   2.259  10.147 -1.0206 -0.0611 -0.0972
  506TMC3    C4 7571   3.901   2.351  10.310  0.1777  0.0307 -0.1214
  506TMC3    C5 7572   3.905   2.225  10.273 -0.8017 -0.0534 -0.5502
  506TMC3    C6 7573   3.994   2.184  10.176  0.0477 -0.0656  0.6129
  506TMC3     C 7574   4.047   2.510  10.376  0.5939  0.0687  0.3813
  506TMC3     O 7575   4.008   2.477  10.488  0.3046 -0.5595 -0.1457
  506TMC3     H 7576   4.177   2.462  10.143 -0.9942 -1.1553 -2.5045
  506TMC3    H1 7577   3.825   2.387  10.379  1.3261 -1.3839  1.8867
  506TMC3    H2 7578   3.996   2.078  10.154  0.7108  0.8310 -3.6344
  506TMC3    C7 7579   3.880   2.135  10.382  0.5941 -0.2242 -0.2261
  506TMC3    C8 7580   4.206   2.217  10.054 -0.0120  0.7033 -0.2454
  506TMC3    O1 7581   3.880   2.014  10.356 -0.2035  0.5515  0.2536
  506TMC3    O2 7582   4.173   2.134   9.972  0.2407  0.0423 -0.4186
  507TMC3    C1 7583   1.035   3.915  15.406  0.2257  0.0219 -0.4777
  507TMC3    C2 7584   0.986   3.859  15.289  0.1168  0.6390 -0.0863
  507TMC3    C3 7585   1.029   3.919  15.170  0.6609  0.3572  0.1556
  507TMC3    C4 7586   1.105   4.035  15.409 -0.3879  0.7591 -0.3696
  507TMC3    C5 7587   1.148   4.093  15.285 -0.0741 -0.4589 -0.2210
  507TMC3    C6 7588   1.112   4.028  15.169 -0.3474 -0.1892  0.0250
  507TMC3     C 7589   1.017   3.839  15.532 -0.2175 -0.1951 -0.5239
  507TMC3     O 7590   0.914   3.770  15.535  0.4598 -0.5107  0.4155
  507TMC3     H 7591   0.931   3.767  15.304 -1.8403  1.5240 -1.7594
  507TMC3    H1 7592   1.133   4.072  15.507 -0.9216 -1.8677  0.7640
  507TMC3    H2 7593   1.127   4.076  15.073 -1.0333  0.5447  0.2812
  507TMC3    C7 7594   1.129   4.232  15.287 -0.3634 -0.3320 -0.2645
  507TMC3    C8 7595   0.921   3.937  15.072 -0.0896 -0.8187  0.6017
  507TMC3    O1 7596   1.163   4.290  15.389 -0.3428  0.3437 -0.1987
  507TMC3    O2 7597   0.932   4.038  15.002  0.4740  0.3350  0.3438
  508MPD2     C 7598   1.564   1.404  16.408  0.4770  0.1946  0.7539
  508MPD2    C1 7599   1.693   1.438  16.399 -0.8378 -0.2057  0.3859
  508MPD2    C2 7600   1.738   1.494  16.276 -0.0570 -0.5478  0.3297
  508MPD2    C3 7601   1.646   1.526  16.172 -0.0707  0.1427 -0.1162
  508MPD2    C4 7602   1.514   1.483  16.188 -0.1667 -0.1203 -0.3982
  508MPD2    C5 7603   1.482   1.416  16.303  0.6819 -0.6673  0.6493
  508MPD2     H 7604   1.837   1.535  16.261  0.6866 -2.8326 -1.1365
  508MPD2    H1 7605   1.432   1.490  16.118 -0.5769 -0.1802  0.0759
  508MPD2    H2 7606   1.531   1.357  16.500  0.6709  2.8850  2.2036
  508MPD2    H3 7607   1.384   1.373  16.322  0.1280 -0.0020 -0.6463
  508MPD2     N 7608   1.694   1.587  16.055 -0.4636 -0.4934 -0.1771
  508MPD2    H5 7609   1.789   1.624  16.052  0.1917 -2.1439  0.3235
  508MPD2    N1 7610   1.771   1.412  16.507 -0.4150 -0.0588  0.0827
  508MPD2    H7 7611   1.721   1.383  16.590 -1.3707 -1.0363 -0.8350
  509TMC3    C1 7612   1.646   1.828  15.646 -0.0696 -0.3888 -0.2094
  509TMC3    C2 7613   1.777   1.876  15.657  0.4685 -0.0447 -0.7968
  509TMC3    C3 7614   1.860   1.826  15.761 -0.5339 -0.3014 -0.8565
  509TMC3    C4 7615   1.595   1.749  15.745 -0.8172  0.0310 -0.1462
  509TMC3    C5 7616   1.676   1.705  15.851  0.1103  0.1705 -0.7040
  509TMC3    C6 7617   1.807   1.746  15.862  0.3583  0.2162  0.5793
  509TMC3     C 7618   1.554   1.885  15.551  0.2854 -0.1046  0.1332
  509TMC3     O 7619   1.472   1.804  15.511 -0.1725  0.2512 -0.4861
  509TMC3     H 7620   1.820   1.941  15.581  0.3581  0.3136 -0.5538
  509TMC3    H1 7621   1.488   1.732  15.739 -1.0868  1.9197 -0.4361
  509TMC3    H2 7622   1.868   1.706  15.942  1.4631  0.4244 -0.1632
  509TMC3    C7 7623   1.613   1.611  15.948 -0.5192  0.1972 -0.7324
  509TMC3    C8 7624   2.003   1.866  15.771 -0.8397 -0.4409  0.0220
  509TMC3    O1 7625   1.509   1.552  15.916 -0.3072 -0.0282  0.0948
  509TMC3    O2 7626   2.078   1.797  15.835  0.2101  0.1222  0.3823
  510MPD2     C 7627   4.218   2.810  14.168  0.1735  0.1671 -0.1006
  510MPD2    C1 7628   4.284   2.774  14.287 -0.3054 -0.7636 -0.6858
  510MPD2    C2 7629   4.426   2.771  14.288 -0.8518 -0.0331 -0.4240
  510MPD2    C3 7630   4.499   2.824  14.183  0.3267 -0.1208  0.4700
  510MPD2    C4 7631   4.427   2.866  14.072  0.0291  0.0838 -0.3603
  510MPD2    C5 7632   4.297   2.866  14.067 -0.1627  0.0362  0.7342
  510MPD2     H 7633   4.465   2.737  14.383 -4.2655  1.4826  1.4960
  510MPD2    H1 7634   4.474   2.912  13.985  0.0725  0.6319 -0.0472
  510MPD2    H2 7635   4.113   2.831  14.155 -0.2536 -1.2178  1.1108
  510MPD2    H3 7636   4.249   2.903  13.978 -1.8495  0.2824  1.7465
  510MPD2     N 7637   4.636   2.811  14.182  0.0077  0.0430 -0.1613
  510MPD2    H5 7638   4.681   2.768  14.262 -0.0116 -0.7545 -0.5787
  510MPD2    N1 7639   4.212   2.726  14.398 -0.2341 -0.1365 -0.8124
  510MPD2    H7 7640   4.112   2.723  14.379 -0.2504  0.3034 -0.8056
  511TMC3    C1 7641   4.156   2.634  14.601 -0.2034  0.3496  0.6379
  511TMC3    C2 7642   4.171   2.663  14.736  0.6710 -0.2163 -0.2669
  511TMC3    C3 7643   4.137   2.556  14.826 -0.9653 -0.4095 -0.2459
  511TMC3    C4 7644   4.134   2.508  14.558 -0.4721 -0.2254 -0.0488
  511TMC3    C5 7645   4.114   2.409  14.649  0.1755 -0.0411  0.2967
  511TMC3    C6 7646   4.102   2.433  14.785  0.2033  0.2331  0.7280
  511TMC3     C 7647   4.255   2.703  14.525  0.1085  0.1802 -0.5713
  511TMC3     O 7648   4.361   2.727  14.584  0.2905 -0.2132  0.0409
  511TMC3     H 7649   4.195   2.765  14.762  2.0565 -0.3697 -0.9609
  511TMC3    H1 7650   4.138   2.494  14.451  2.5970 -1.1097  0.1811
  511TMC3    H2 7651   4.045   2.366  14.848  1.1443 -0.8542  0.4226
  511TMC3    C7 7652   4.054   2.290  14.589  0.6139 -0.2519  0.3644
  511TMC3    C8 7653   4.107   2.593  14.965  0.3880  0.3149  0.0505
  511TMC3    O1 7654   3.998   2.302  14.480 -0.0354  0.1236  0.7245
  511TMC3    O2 7655   4.100   2.713  14.993  0.7035  0.8509 -0.4481
  512TMC3    C1 7656   3.516   1.878  12.999 -0.5356  0.1843  0.3032
  512TMC3    C2 7657   3.520   1.837  13.131  1.0486  0.5304  0.4388
  512TMC3    C3 7658   3.475   1.718  13.168 -1.3664  0.3083  0.3182
  512TMC3    C4 7659   3.441   1.806  12.908 -0.4436 -0.0082 -0.5566
  512TMC3    C5 7660   3.380   1.693  12.955  0.4539  0.7017  0.5835
  512TMC3    C6 7661   3.408   1.644  13.078 -0.1993  0.1896  0.4356
  512TMC3     C 7662   3.547   2.025  12.963  0.2127  0.0529  0.3393
  512TMC3     O 7663   3.562   2.041  12.842  0.6479 -0.0695  0.0226
  512TMC3     H 7664   3.566   1.902  13.205  2.9798 -0.2828 -0.0552
  512TMC3    H1 7665   3.425   1.858  12.814  0.2644  0.4583 -0.4267
  512TMC3    H2 7666   3.353   1.563  13.125 -2.9154  1.3711 -0.6742
  512TMC3    C7 7667   3.325   1.596  12.862  0.3656  0.1116 -0.8143
  512TMC3    C8 7668   3.484   1.666  13.297 -0.2338 -0.2646 -0.0752
  512TMC3    O1 7669   3.274   1.633  12.758 -0.6790 -0.2603 -0.0782
  512TMC3    O2 7670   3.471   1.545  13.309  0.5925  0.2815 -0.3795
  513MPD2     C 7671   0.103   2.308  12.886 -0.3934 -0.8605  0.5955
  513MPD2    C1 7672   0.150   2.218  12.789  1.4312  0.8051  0.6375
  513MPD2    C2 7673   0.174   2.088  12.831  0.1587  0.0841 -0.3454
  513MPD2    C3 7674   0.157   2.045  12.958  0.1657  0.3661  0.5603
  513MPD2    C4 7675   0.119   2.132  13.060  0.9176  0.3846 -0.0346
  513MPD2    C5 7676   0.077   2.257  13.014 -0.4580 -0.5555 -0.1716
  513MPD2     H 7677   0.189   2.018  12.749  0.0566  1.3613 -1.4627
  513MPD2    H1 7678   0.115   2.116  13.167 -0.0418  1.0648  0.0348
  513MPD2    H2 7679   0.069   2.409  12.867 -1.5651 -1.5416 -0.8761
  513MPD2    H3 7680   0.037   2.325  13.089 -0.5933 -0.9925  0.1582
  513MPD2     N 7681   0.210   1.914  12.979  0.4466  1.0545  0.0708
  513MPD2    H5 7682   0.256   1.872  12.899 -1.0292 -1.1051  0.3567
  513MPD2    N1 7683   0.182   2.252  12.661 -0.0217  0.2080  0.0073
  513MPD2    H7 7684   0.203   2.170  12.605 -1.3799 -0.6661  0.7869
  514TMC3    C1 7685   0.221   2.382  12.462  0.4668 -0.4236  0.4838
  514TMC3    C2 7686   0.330   2.455  12.441  0.1215  0.0358 -0.8810
  514TMC3    C3 7687   0.427   2.396  12.367 -0.0728 -0.3355  0.0123
  514TMC3    C4 7688   0.199   2.259  12.409 -0.4346 -0.8920 -0.5244
  514TMC3    C5 7689   0.302   2.199  12.342 -0.0111  0.0782  0.1876
  514TMC3    C6 7690   0.411   2.277  12.313  0.2292  0.4312 -0.7141
  514TMC3     C 7691   0.182   2.380  12.604 -0.0673 -0.7245  0.2158
  514TMC3     O 7692   0.161   2.487  12.663  0.1239 -0.3347 -0.4535
  514TMC3     H 7693   0.344   2.555  12.479  1.5338 -1.8853  3.5490
  514TMC3    H1 7694   0.117   2.191  12.430 -0.8786 -0.7093 -1.6501
  514TMC3    H2 7695   0.509   2.239  12.285  0.0985 -1.1778  1.0693
  514TMC3    C7 7696   0.349   2.070  12.397  0.3081  0.6008  0.6262
  514TMC3    C8 7697   0.497   2.492  12.291 -0.5674 -0.6005 -0.0998
  514TMC3    O1 7698   0.279   2.031  12.490  0.1711 -0.9820  0.1978
  514TMC3    O2 7699   0.496   2.609  12.325  0.3350 -0.1637  0.4690
  515MPD2     C 7700   3.558   4.206  14.979  0.3194  0.1129  0.8037
  515MPD2    C1 7701   3.537   4.248  14.846  0.1123  0.3824 -0.4100
  515MPD2    C2 7702   3.613   4.352  14.802  0.2123  0.3027  0.4560
  515MPD2    C3 7703   3.698   4.420  14.886 -0.6991 -0.0851 -0.3913
  515MPD2    C4 7704   3.704   4.378  15.015 -0.3984 -0.2818  0.4448
  515MPD2    C5 7705   3.632   4.274  15.062  0.6660  0.3183  0.6203
  515MPD2     H 7706   3.615   4.379  14.698 -1.6706 -0.6591  0.1778
  515MPD2    H1 7707   3.765   4.429  15.089  0.6587  0.3674 -0.8660
  515MPD2    H2 7708   3.506   4.118  15.015  0.3496 -0.9818 -1.8194
  515MPD2    H3 7709   3.637   4.258  15.169 -0.0636  1.2060  0.7908
  515MPD2     N 7710   3.777   4.529  14.842  0.6263 -0.8741  0.0414
  515MPD2    H5 7711   3.836   4.569  14.915 -0.4062 -1.4811  1.2036
  515MPD2    N1 7712   3.452   4.183  14.756 -0.1116  0.1138 -0.0255
  515MPD2    H7 7713   3.450   4.215  14.660  2.2497 -0.9005 -0.4335
  516TMC3    C1 7714   3.332   4.015  14.656 -0.8219  0.4046 -0.4628
  516TMC3    C2 7715   3.227   4.089  14.607  0.6806  0.5431 -0.4312
  516TMC3    C3 7716   3.124   4.034  14.543  0.1373 -0.9165  0.1087
  516TMC3    C4 7717   3.319   3.882  14.652  0.2307  0.9457  0.6848
  516TMC3    C5 7718   3.212   3.823  14.585 -0.3888  0.2103  0.4455
  516TMC3    C6 7719   3.111   3.902  14.531  0.4478 -0.5577 -0.3185
  516TMC3     C 7720   3.400   4.059  14.774  0.1450 -0.6570 -0.4961
  516TMC3     O 7721   3.412   3.987  14.874 -1.2966  0.4421 -0.2715
  516TMC3     H 7722   3.231   4.196  14.622 -1.5127  0.7965 -1.5786
  516TMC3    H1 7723   3.394   3.825  14.705 -1.7471 -1.3835  0.9981
  516TMC3    H2 7724   3.028   3.847  14.489 -1.7788  1.9176  0.8525
  516TMC3    C7 7725   3.197   3.689  14.632  0.4041 -0.1638  0.5448
  516TMC3    C8 7726   3.007   4.114  14.502  0.4154 -0.7079  0.3707
  516TMC3    O1 7727   3.219   3.678  14.751  0.1885 -0.2302 -0.5140
  516TMC3    O2 7728   2.919   4.060  14.438 -0.3128  0.0322 -0.3288
  517MPD2     C 7729   3.337   0.802  17.747  0.6402  0.3453  0.1292
  517MPD2    C1 7730   3.472   0.766  17.741  0.3470 -0.0982 -0.5048
  517MPD2    C2 7731   3.564   0.857   0.025 -0.0702  0.6657 -0.9723
  517MPD2    C3 7732   3.538   0.987   0.077 -0.0742  0.1699 -0.8822
  517MPD2    C4 7733   3.403   1.010   0.098 -0.0809  1.0220  0.4795
  517MPD2    C5 7734   3.308   0.918   0.054 -0.5789 -0.2648 -0.5545
  517MPD2     H 7735   3.669   0.831   0.029 -0.8956 -2.4925  0.0589
  517MPD2    H1 7736   3.370   1.101   0.148 -1.8944  0.6823 -0.0921
  517MPD2    H2 7737   3.257   0.744  17.702  0.6284  0.1960  0.3454
  517MPD2    H3 7738   3.204   0.943   0.075 -0.5135  0.2484 -0.8356
  517MPD2     N 7739   3.634   1.073   0.135  0.0801 -0.1575 -0.4576
  517MPD2    H5 7740   3.614   1.169   0.160  0.0176 -0.9697  2.6196
  517MPD2    N1 7741   3.523   0.635  17.703  0.3987  0.0721  0.0587
  517MPD2    H7 7742   3.623   0.623  17.690  0.3185 -0.2780 -0.2442
  518TMC3    C1 7743   3.515   0.410  17.661  0.3368 -0.8802 -0.3285
  518TMC3    C2 7744   3.446   0.292  17.672  0.3421  0.2022  0.3712
  518TMC3    C3 7745   3.497   0.179  17.613 -0.2111 -0.0562  0.0236
  518TMC3    C4 7746   3.638   0.413  17.597  0.1441  0.2175 -0.7099
  518TMC3    C5 7747   3.689   0.298  17.544  0.7172  0.0531  0.2608
  518TMC3    C6 7748   3.620   0.180  17.550 -0.0515  0.6930 -0.2059
  518TMC3     C 7749   3.441   0.526  17.675  0.6971 -0.0755  0.3497
  518TMC3     O 7750   3.323   0.512  17.704  0.7827  0.3751  0.0884
  518TMC3     H 7751   3.353   0.288  17.726  0.2484  0.2785  0.2155
  518TMC3    H1 7752   3.696   0.505  17.590  0.0179  0.0105 -4.4796
  518TMC3    H2 7753   3.661   0.089  17.508 -0.5612 -0.3088  1.4947
  518TMC3    C7 7754   3.826   0.300  17.506  0.1519 -0.3482  0.2801
  518TMC3    C8 7755   3.428   0.053  17.618 -0.1337 -0.3777 -0.1959
  518TMC3    O1 7756   3.877   0.407  17.473  0.0734  0.0541 -0.8171
  518TMC3    O2 7757   3.452   4.716  17.527 -0.3406  0.0283  0.7634
  519MPD2     C 7758   0.101   3.916  13.807  0.2675 -0.1043  0.0797
  519MPD2    C1 7759   4.730   3.879  13.875 -0.4884 -0.2250  0.0249
  519MPD2    C2 7760   4.726   3.759  13.941  0.6812  0.0016  0.1389
  519MPD2    C3 7761   0.093   3.665  13.915 -0.3185 -0.1390 -0.6176
  519MPD2    C4 7762   0.203   3.703  13.843  0.1019  0.0921 -0.0661
  519MPD2    C5 7763   0.205   3.825  13.783  0.2212  0.0834 -0.5620
  519MPD2     H 7764   4.642   3.723  14.000 -1.0775  2.7311 -0.7049
  519MPD2    H1 7765   0.285   3.633  13.828  0.0373  0.6104 -2.8556
  519MPD2    H2 7766   0.110   4.020  13.778  0.5669  0.2815  1.5684
  519MPD2    H3 7767   0.280   3.861  13.713 -0.4097  1.1971 -0.6621
  519MPD2     N 7768   0.097   3.538  13.978  0.1789  1.6359  0.1438
  519MPD2    H5 7769   0.181   3.484  13.963  0.8897  3.2686 -1.7331
  519MPD2    N1 7770   4.628   3.977  13.890  0.2406  0.1193 -0.2816
  519MPD2    H7 7771   4.631   4.066  13.841 -1.1509  0.2056 -0.1983
  520TMC3    C1 7772   0.022   3.362  14.112  0.5102  0.6126  0.2079
  520TMC3    C2 7773   4.658   3.277  14.150  0.0103  0.0810  0.2003
  520TMC3    C3 7774   4.691   3.169  14.230  0.2161 -0.2191 -0.3897
  520TMC3    C4 7775   0.156   3.328  14.143 -0.9305  0.0951 -0.0989
  520TMC3    C5 7776   0.184   3.220  14.221  0.1784  0.3393  0.5631
  520TMC3    C6 7777   0.081   3.138  14.268 -0.2086 -0.8394 -0.2774
  520TMC3     C 7778   4.726   3.476  14.031  0.1025  0.1936 -0.2812
  520TMC3     O 7779   4.604   3.500  14.026 -0.3121 -0.2249 -0.1613
  520TMC3     H 7780   4.558   3.318  14.137 -0.5039 -0.9924  0.7671
  520TMC3    H1 7781   0.242   3.377  14.099 -0.6376  0.6035  1.0426
  520TMC3    H2 7782   0.101   3.062  14.344  0.1027  1.1225  1.6052
  520TMC3    C7 7783   0.312   3.150  14.214  0.9711 -0.0629 -0.2747
  520TMC3    C8 7784   4.585   3.115  14.317  0.0949 -0.2241 -0.0615
  520TMC3    O1 7785   0.352   3.104  14.319 -0.1179 -0.4334 -0.0647
  520TMC3    O2 7786   4.618   3.051  14.419 -0.0065  0.4174  0.1304
  521MPD2     C 7787   0.556   1.449   0.140 -0.2163  0.5122 -0.5095
  521MPD2    C1 7788   0.544   1.472   0.002  0.1423 -0.0975 -0.0063
  521MPD2    C2 7789   0.656   1.445  17.681  0.2419  0.0486  0.0444
  521MPD2    C3 7790   0.782   1.414  17.742  0.5908 -0.6609  0.4284
  521MPD2    C4 7791   0.789   1.388   0.116  0.9226  0.6021  1.1666
  521MPD2    C5 7792   0.674   1.408   0.198 -0.6017  0.0782 -0.6873
  521MPD2     H 7793   0.651   1.454  17.573 -0.8554  0.3335  0.1174
  521MPD2    H1 7794   0.872   1.371   0.184  0.7463 -0.6335  1.0599
  521MPD2    H2 7795   0.480   1.474   0.213 -2.0381 -1.3790 -1.7398
  521MPD2    H3 7796   0.687   1.396   0.305  0.7721  1.6949 -0.6793
  521MPD2     N 7797   0.896   1.421  17.657 -0.0783 -0.3452 -0.0576
  521MPD2    H5 7798   0.885   1.448  17.560 -0.0083  2.8004  0.8080
  521MPD2    N1 7799   0.418   1.504  17.704 -0.1353 -0.0470  0.3583
  521MPD2    H7 7800   0.341   1.515   0.011 -0.7617 -2.1102 -0.0095
  522TMC3    C1 7801   1.127   1.444  17.603 -0.2997 -0.4994 -0.2105
  522TMC3    C2 7802   1.251   1.387  17.612  0.2299  0.2323  0.4109
  522TMC3    C3 7803   1.350   1.424  17.525  0.3338  0.6536  0.9423
  522TMC3    C4 7804   1.095   1.538  17.505 -0.9309  0.4158 -0.3646
  522TMC3    C5 7805   1.203   1.578  17.426  0.2885 -0.2586 -0.0322
  522TMC3    C6 7806   1.326   1.517  17.433  0.1684  0.6528  0.0875
  522TMC3     C 7807   1.022   1.408  17.700 -0.2609  0.2286 -0.6161
  522TMC3     O 7808   1.060   1.351   0.048  0.3531  0.2924 -0.1007
  522TMC3     H 7809   1.265   1.311  17.688  2.4425  0.9162  0.6881
  522TMC3    H1 7810   1.006   1.598  17.514 -2.2269 -1.6325  0.4825
  522TMC3    H2 7811   1.405   1.558  17.370  0.1033  0.6298 -0.0086
  522TMC3    C7 7812   1.197   1.697  17.345 -0.0960 -0.0001 -0.0909
  522TMC3    C8 7813   1.484   1.372  17.538  0.2823 -0.4433 -0.1720
  522TMC3    O1 7814   1.301   1.744  17.300  0.3105 -0.4221  0.0125
  522TMC3    O2 7815   1.507   1.314  17.646 -0.2432  0.1795  0.3899
  523MPD2     C 7816   3.079   0.898  10.088 -0.7515  0.2971  0.3879
  523MPD2    C1 7817   2.998   0.789  10.056 -0.2990  0.4647  0.0673
  523MPD2    C2 7818   2.900   0.810   9.968 -0.5474 -0.3040  0.2284
  523MPD2    C3 7819   2.887   0.919   9.895 -0.0841 -0.2718  0.9244
  523MPD2    C4 7820   2.970   1.025   9.920 -0.0131 -0.3694  0.0696
  523MPD2    C5 7821   3.068   1.015  10.019  0.6727 -0.4730  0.2919
  523MPD2     H 7822   2.826   0.734   9.948 -1.0227 -0.2112  1.6146
  523MPD2    H1 7823   2.960   1.121   9.872 -1.3299 -1.5817 -2.0968
  523MPD2    H2 7824   3.162   0.883  10.156 -2.1693  1.4982  2.3486
  523MPD2    H3 7825   3.131   1.102  10.034  0.2781 -0.4398  1.7969
  523MPD2     N 7826   2.793   0.936   9.791 -0.1814 -0.3407  0.1163
  523MPD2    H5 7827   2.825   1.011   9.730 -1.7233  1.0759  1.0213
  523MPD2    N1 7828   3.026   0.669  10.128 -0.2676 -0.4896 -0.1672
  523MPD2    H7 7829   3.090   0.677  10.206  0.6097  0.2929 -0.9726
  524TMC3    C1 7830   2.597   0.923   9.649 -0.3507  0.0619  0.8638
  524TMC3    C2 7831   2.500   0.845   9.583  0.6085  0.0409 -0.0568
  524TMC3    C3 7832   2.389   0.919   9.541 -0.2122  0.9748  0.0065
  524TMC3    C4 7833   2.593   1.063   9.646  0.0769 -0.0010  0.3760
  524TMC3    C5 7834   2.490   1.130   9.582  0.0792  0.1337 -0.8678
  524TMC3    C6 7835   2.385   1.061   9.530 -0.6825 -0.2805  0.3675
  524TMC3     C 7836   2.683   0.855   9.749 -0.1358 -0.2064  0.0990
  524TMC3     O 7837   2.638   0.761   9.814  0.3965  0.0120 -0.0054
  524TMC3     H 7838   2.502   0.741   9.612  3.2560  0.2376  0.4676
  524TMC3    H1 7839   2.671   1.118   9.697 -1.9847  2.3754  1.0001
  524TMC3    H2 7840   2.301   1.114   9.487  1.0598  3.6481  1.8677
  524TMC3    C7 7841   2.497   1.273   9.591 -0.8781 -0.8566  0.3254
  524TMC3    C8 7842   2.274   0.837   9.493 -0.1495  0.1802  0.2806
  524TMC3    O1 7843   2.608   1.324   9.589 -0.4904 -0.8513  0.4241
  524TMC3    O2 7844   2.173   0.902   9.461 -0.4068  0.7237 -0.2928
  525MPD2     C 7845   1.455   3.349  14.476  1.5179 -0.2228  0.5819
  525MPD2    C1 7846   1.583   3.364  14.536  0.1112  0.3433 -0.3444
  525MPD2    C2 7847   1.659   3.474  14.498 -0.5635 -0.4407 -0.6232
  525MPD2    C3 7848   1.614   3.560  14.400  0.0136 -0.2178 -0.0707
  525MPD2    C4 7849   1.488   3.545  14.345 -0.1577 -0.0029 -0.3440
  525MPD2    C5 7850   1.414   3.437  14.387  0.6788 -0.2831  0.2490
  525MPD2     H 7851   1.760   3.473  14.537  0.0699  0.6918 -2.2234
  525MPD2    H1 7852   1.440   3.602  14.266 -0.0692 -0.2373 -0.5660
  525MPD2    H2 7853   1.382   3.273  14.501  0.8339 -0.0128 -0.7940
  525MPD2    H3 7854   1.309   3.440  14.362  0.7538 -0.7938 -0.1180
  525MPD2     N 7855   1.689   3.661  14.333  0.4651  0.9911 -0.2420
  525MPD2    H5 7856   1.627   3.724  14.281  0.5984  1.5728  0.3087
  525MPD2    N1 7857   1.631   3.271  14.629 -0.3310 -0.1781 -0.0322
  525MPD2    H7 7858   1.728   3.281  14.656  0.0925 -0.5018 -1.4352
  526TMC3    C1 7859   1.613   3.154  14.822  0.8889 -0.2618 -0.6333
  526TMC3    C2 7860   1.537   3.187  14.935  0.2316  0.1213 -0.3922
  526TMC3    C3 7861   1.613   3.172  15.056  0.7427 -0.1272 -0.7187
  526TMC3    C4 7862   1.739   3.118  14.816 -0.0615 -0.4897  0.6038
  526TMC3    C5 7863   1.803   3.092  14.932 -0.7679  0.1034 -0.4309
  526TMC3    C6 7864   1.739   3.129  15.049 -0.5776 -0.5900  0.3761
  526TMC3     C 7865   1.551   3.188  14.697  0.1921  0.4530 -0.0906
  526TMC3     O 7866   1.431   3.162  14.684 -0.0564  0.5375 -0.2449
  526TMC3     H 7867   1.433   3.216  14.930  0.7410  1.6463 -1.7634
  526TMC3    H1 7868   1.790   3.109  14.721 -2.1995  0.1468 -0.6106
  526TMC3    H2 7869   1.799   3.130  15.140 -0.0263  0.6051  0.0039
  526TMC3    C7 7870   1.944   3.045  14.939 -0.0049 -0.0810 -0.4222
  526TMC3    C8 7871   1.572   3.268  15.164  0.1609  0.4098  0.1774
  526TMC3    O1 7872   2.000   3.049  15.049  0.6784  0.3121 -0.9115
  526TMC3    O2 7873   1.654   3.279  15.254  0.0751  0.9299 -0.2508
  527MPD2     C 7874   0.554   0.469   1.761  0.3440 -0.3290  0.4827
  527MPD2    C1 7875   0.535   0.533   1.642 -0.3286  0.6398 -0.6274
  527MPD2    C2 7876   0.645   0.585   1.573 -0.3868  0.1551  0.1150
  527MPD2    C3 7877   0.771   0.571   1.619  0.3373 -0.5762  0.4373
  527MPD2    C4 7878   0.785   0.520   1.745  0.5736 -0.9613 -0.0258
  527MPD2    C5 7879   0.681   0.461   1.815 -0.6191  0.1495  0.5899
  527MPD2     H 7880   0.630   0.638   1.480  0.6356  2.0313  1.0229
  527MPD2    H1 7881   0.883   0.501   1.786  1.2519 -0.7188 -1.5360
  527MPD2    H2 7882   0.468   0.425   1.811  1.0666  0.0566  2.0530
  527MPD2    H3 7883   0.698   0.403   1.905 -0.2723 -2.3018 -1.0426
  527MPD2     N 7884   0.872   0.605   1.528  0.3504  0.1468  0.7926
  527MPD2    H5 7885   0.845   0.655   1.444  0.6258  0.3907  0.8499
  527MPD2    N1 7886   0.405   0.557   1.579 -0.0934 -0.3688 -0.4971
  527MPD2    H7 7887   0.409   0.617   1.497  0.3127 -1.4248 -1.2374
  528TMC3    C1 7888   0.182   0.566   1.529  0.1448  0.3531 -0.0544
  528TMC3    C2 7889   0.204   0.691   1.475  0.5095  0.2507  0.5239
  528TMC3    C3 7890   0.105   0.746   1.399  0.3752  0.5142  0.0121
  528TMC3    C4 7891   0.066   0.491   1.504 -0.1591 -0.4651  0.4039
  528TMC3    C5 7892   4.718   0.544   1.414  0.1181  0.7324  0.0257
  528TMC3    C6 7893   0.000   0.670   1.363  0.3099 -0.5094  0.0945
  528TMC3     C 7894   0.288   0.501   1.607 -0.0694 -0.8000  0.2953
  528TMC3     O 7895   0.259   0.408   1.674 -0.4123 -0.1558 -0.0130
  528TMC3     H 7896   0.296   0.742   1.499  0.7303 -0.2009  0.6357
  528TMC3    H1 7897   0.053   0.391   1.544  1.4852 -1.1489 -0.7700
  528TMC3    H2 7898   4.661   0.717   1.307  3.1340  1.0226 -2.6228
  528TMC3    C7 7899   4.578   0.493   1.415  0.3911 -0.3973 -0.5823
  528TMC3    C8 7900   0.140   0.855   1.308 -0.1434  0.4986 -0.2349
  528TMC3    O1 7901   4.490   0.573   1.391 -0.0919  0.1610 -0.5539
  528TMC3    O2 7902   0.223   0.929   1.362  0.0211  0.7262 -0.1811
  529MPD2     C 7903   1.918   3.828   0.745  0.3116  0.3806  0.3963
  529MPD2    C1 7904   2.009   3.816   0.646 -0.7988 -0.0581  0.1703
  529MPD2    C2 7905   1.978   3.888   0.535 -0.1439 -0.2025  0.1985
  529MPD2    C3 7906   1.868   3.975   0.520  0.9254  0.0045  0.5670
  529MPD2    C4 7907   1.777   3.979   0.621  0.1912  0.3729  0.3209
  529MPD2    C5 7908   1.801   3.901   0.730  0.1591 -0.5269 -0.1890
  529MPD2     H 7909   2.051   3.877   0.456 -1.0955 -0.2010 -0.6849
  529MPD2    H1 7910   1.687   4.040   0.620 -1.2052 -1.6719 -0.1082
  529MPD2    H2 7911   1.939   3.779   0.840 -0.1955  0.5581  0.5990
  529MPD2    H3 7912   1.728   3.927   0.807  0.0156  1.1605 -0.8912
  529MPD2     N 7913   1.849   4.060   0.409  0.3514 -0.2944  0.3621
  529MPD2    H5 7914   1.760   4.109   0.411 -0.3679 -1.6167  1.1400
  529MPD2    N1 7915   2.123   3.735   0.649  0.3276  0.6103 -0.0807
  529MPD2    H7 7916   2.164   3.713   0.559  0.0306 -1.1232  0.2137
  530TMC3    C1 7917   2.292   3.602   0.721  0.0848 -0.2844 -0.0244
  530TMC3    C2 7918   2.386   3.608   0.820 -0.1273 -0.8964  0.2801
  530TMC3    C3 7919   2.434   3.493   0.886  0.1793 -0.3677 -0.6079
  530TMC3    C4 7920   2.252   3.475   0.679  0.0079 -0.2415  0.5280
  530TMC3    C5 7921   2.288   3.364   0.753 -1.0351 -0.6277  0.5878
  530TMC3    C6 7922   2.371   3.374   0.863  0.8441  0.3195 -0.3773
  530TMC3     C 7923   2.172   3.671   0.759 -0.8947  0.2307 -0.3871
  530TMC3     O 7924   2.149   3.692   0.876 -0.2588 -0.3371  0.4052
  530TMC3     H 7925   2.424   3.706   0.844  1.4955 -1.5835  0.5349
  530TMC3    H1 7926   2.166   3.455   0.617  0.7464  0.3675 -0.6830
  530TMC3    H2 7927   2.402   3.293   0.928 -0.0413 -1.3059 -1.9591
  530TMC3    C7 7928   2.238   3.238   0.711  0.1945  0.6932 -0.7145
  530TMC3    C8 7929   2.511   3.507   1.013  0.2990  0.4793 -0.0392
  530TMC3    O1 7930   2.211   3.225   0.590  0.4500 -0.0252  0.4401
  530TMC3    O2 7931   2.529   3.614   1.062 -0.2801 -0.2954  0.2383
  531MPD2     C 7932   0.649   1.679  12.467 -0.2832 -0.1327 -0.3930
  531MPD2    C1 7933   0.555   1.731  12.553 -0.1221 -0.4097 -0.9465
  531MPD2    C2 7934   0.495   1.848  12.510  0.1636  0.3074 -0.0081
  531MPD2    C3 7935   0.530   1.905  12.386 -0.2579 -0.2088  0.3551
  531MPD2    C4 7936   0.627   1.844  12.311  0.3235  0.0030 -0.1675
  531MPD2    C5 7937   0.692   1.735  12.351 -0.6372  0.3311  0.6210
  531MPD2     H 7938   0.428   1.905  12.573  2.3743  1.4825  1.2615
  531MPD2    H1 7939   0.645   1.879  12.210 -0.3530  0.5988 -0.0819
  531MPD2    H2 7940   0.695   1.585  12.498  0.5393  0.3889 -0.0430
  531MPD2    H3 7941   0.770   1.683  12.296 -0.1767  1.4389  0.2306
  531MPD2     N 7942   0.458   2.013  12.331 -0.5919  0.0397  0.0958
  531MPD2    H5 7943   0.485   2.047  12.240 -0.3695 -0.4883 -0.0380
  531MPD2    N1 7944   0.516   1.661  12.668  0.0431  0.2246  0.0428
  531MPD2    H7 7945   0.549   1.565  12.674 -0.1293  0.2200  0.9187
  532TMC3    C1 7946   0.415   1.632  12.890  0.4635 -0.4191  0.0359
  532TMC3    C2 7947   0.307   1.675  12.953  0.5703  0.5895 -0.2236
  532TMC3    C3 7948   0.319   1.737  13.072 -0.3654  0.6002 -0.0091
  532TMC3    C4 7949   0.533   1.621  12.953 -0.0470  0.2879  0.0120
  532TMC3    C5 7950   0.541   1.664  13.085 -0.4177  0.6248 -0.6559
  532TMC3    C6 7951   0.431   1.717  13.152 -0.0226 -0.2882  0.1079
  532TMC3     C 7952   0.434   1.706  12.770  0.3179  0.6708 -0.3295
  532TMC3     O 7953   0.374   1.814  12.774 -0.2119 -0.3863  0.0632
  532TMC3     H 7954   0.216   1.688  12.894  1.4206  0.0608 -1.6405
  532TMC3    H1 7955   0.612   1.587  12.888  1.2887  1.2958  1.1081
  532TMC3    H2 7956   0.441   1.771  13.246  1.3144  2.4489 -1.6130
  532TMC3    C7 7957   0.643   1.622  13.180 -0.7369 -0.2529 -0.3818
  532TMC3    C8 7958   0.235   1.854  13.100 -0.9192 -0.1309  0.7669
  532TMC3    O1 7959   0.649   1.684  13.288 -0.5189 -0.2625 -0.5526
  532TMC3    O2 7960   0.224   1.894  13.211  0.2731 -0.5790 -0.7289
  533TMC3    C1 7961   1.869   3.774  14.230 -0.3139 -0.4854  0.0080
  533TMC3    C2 7962   1.965   3.868  14.262  0.8430  0.5662 -0.5420
  533TMC3    C3 7963   1.972   3.983  14.193  0.6047  0.3088  0.3407
  533TMC3    C4 7964   1.776   3.797  14.134  0.0163  0.5465 -0.0655
  533TMC3    C5 7965   1.773   3.926  14.074  0.1914  0.1000 -0.7619
  533TMC3    C6 7966   1.880   4.011  14.092 -0.0775  0.4953  0.0966
  533TMC3     C 7967   1.823   3.689  14.343 -0.3483 -0.2575  0.4493
  533TMC3     O 7968   1.901   3.643  14.423 -0.1288 -0.0478  0.2816
  533TMC3     H 7969   2.027   3.856  14.351  1.0669  1.7061 -0.5476
  533TMC3    H1 7970   1.703   3.727  14.094 -0.0390  0.3792  0.3317
  533TMC3    H2 7971   1.882   4.107  14.042 -2.1918  0.6949  0.4159
  533TMC3    C7 7972   1.659   3.982  14.148 -0.5166 -0.3827 -0.7631
  533TMC3    C8 7973   2.040   4.092  14.267  0.2651  0.1067  0.0826
  533TMC3    O1 7974   1.585   3.892  14.196  0.2998  0.8558  0.2919
  533TMC3    O2 7975   2.095   4.060  14.372 -0.0205  0.2698 -0.6158
  534MPD2     C 7976   0.674   3.769   0.872 -0.2511 -0.4587  0.2808
  534MPD2    C1 7977   0.622   3.839   0.976  0.6118  0.1121 -0.0902
  534MPD2    C2 7978   0.484   3.865   0.974  0.4465  0.3682  0.2975
  534MPD2    C3 7979   0.399   3.814   0.878  0.1130 -0.6005 -0.2736
  534MPD2    C4 7980   0.454   3.727   0.789  0.6415 -0.0548 -0.0819
  534MPD2    C5 7981   0.589   3.699   0.789  0.3999 -0.5861 -0.1029
  534MPD2     H 7982   0.435   3.930   1.045  2.6978  1.5755  0.7361
  534MPD2    H1 7983   0.395   3.672   0.717 -0.2302  2.3198 -1.1952
  534MPD2    H2 7984   0.779   3.746   0.860 -0.1754 -0.4529  0.9420
  534MPD2    H3 7985   0.644   3.650   0.709  1.8936 -1.1766  1.2995
  534MPD2     N 7986   0.262   3.828   0.876 -0.3697 -0.1441  0.1386
  534MPD2    H5 7987   0.219   3.794   0.791 -1.6847  1.2889  0.2475
  534MPD2    N1 7988   0.700   3.895   1.082 -0.0869  0.4409  0.0402
  534MPD2    H7 7989   0.647   3.957   1.143 -1.8671 -1.7118  0.6900
  535TMC3    C1 7990   0.049   3.873   0.957  0.4454 -0.1763 -0.1476
  535TMC3    C2 7991   4.712   3.836   1.065  0.0618  0.1623  0.0960
  535TMC3    C3 7992   4.575   3.850   1.039  0.4334  0.3366 -0.2298
  535TMC3    C4 7993   0.003   3.914   0.837 -0.0295  0.3391  0.5956
  535TMC3    C5 7994   4.606   3.926   0.824  0.5266 -0.5153  0.0537
  535TMC3    C6 7995   4.521   3.883   0.921 -0.6998  0.4422  0.2869
  535TMC3     C 7996   0.191   3.874   0.977 -0.0900  0.1302  0.6402
  535TMC3     O 7997   0.227   3.893   1.093  0.4694  0.1843  0.2564
  535TMC3     H 7998   0.015   3.805   1.160 -3.4451 -0.0873  1.6228
  535TMC3    H1 7999   0.071   3.959   0.767  1.9880 -1.4274  1.4313
  535TMC3    H2 8000   4.415   3.894   0.901 -1.2063  2.0004  3.7163
  535TMC3    C7 8001   4.548   4.017   0.729  0.1253 -0.0244 -0.3060
  535TMC3    C8 8002   4.484   3.789   1.128 -0.0263 -0.1339 -0.4927
  535TMC3    O1 8003   4.456   3.981   0.656 -0.0981  0.4636  0.4853
  535TMC3    O2 8004   4.370   3.838   1.112  0.1762  0.3878  0.2363
  536MPD2     C 8005   2.967   2.949  16.171  0.3658  0.4221 -0.1985
  536MPD2    C1 8006   2.839   2.909  16.195  0.1488 -0.4293 -0.0387
  536MPD2    C2 8007   2.744   2.948  16.100  0.0409 -0.5228  0.7806
  536MPD2    C3 8008   2.771   3.038  16.000  0.7610 -0.0029  0.0803
  536MPD2    C4 8009   2.899   3.082  15.989  0.7261 -0.1612 -0.0137
  536MPD2    C5 8010   2.998   3.032  16.068 -0.0523  1.0066 -0.0233
  536MPD2     H 8011   2.642   2.914  16.108 -0.2451  0.5154  1.4933
  536MPD2    H1 8012   2.925   3.140  15.901 -1.4478 -1.2679 -1.4072
  536MPD2    H2 8013   3.051   2.914  16.229 -0.0427 -0.6016 -0.2333
  536MPD2    H3 8014   3.099   3.069  16.057  1.5111 -3.7756 -1.4399
  536MPD2     N 8015   2.687   3.090  15.903 -0.0303  0.2591 -0.3874
  536MPD2    H5 8016   2.731   3.159  15.843  2.6730  1.4202  2.9375
  536MPD2    N1 8017   2.812   2.832  16.311  0.4818 -0.2663  0.2678
  536MPD2    H7 8018   2.886   2.831  16.381 -0.8099 -1.7334  1.5960
  537TMC3    C1 8019   2.689   2.770  16.490  0.0999 -0.2463  0.3604
  537TMC3    C2 8020   2.720   2.884  16.558  0.0851 -0.0923 -0.1866
  537TMC3    C3 8021   2.701   2.877  16.691  0.0220 -0.1063  0.1416
  537TMC3    C4 8022   2.622   2.661  16.545  0.0126 -0.4810  0.3846
  537TMC3    C5 8023   2.625   2.653  16.682  0.2673  0.4087  0.4277
  537TMC3    C6 8024   2.661   2.760  16.754  0.5542  0.2488  0.0540
  537TMC3     C 8025   2.691   2.773  16.348 -0.0585  0.3328  0.3679
  537TMC3     O 8026   2.602   2.735  16.274 -0.5629 -0.0500  0.3692
  537TMC3     H 8027   2.773   2.964  16.507  0.3947  0.0140  0.3039
  537TMC3    H1 8028   2.592   2.576  16.485 -1.5258  0.5166 -0.2637
  537TMC3    H2 8029   2.629   2.770  16.858 -2.1082  2.0749 -0.9258
  537TMC3    C7 8030   2.536   2.547  16.733 -0.2971  0.0209  0.5398
  537TMC3    C8 8031   2.753   2.985  16.767 -0.1391  0.3284  0.9555
  537TMC3    O1 8032   2.460   2.498  16.649 -0.0350  0.2854 -0.4027
  537TMC3    O2 8033   2.782   2.958  16.884  0.1351  0.2635  0.2537
  538TMC3    C1 8034   4.178   0.720  10.876  0.5649  0.1765  0.5332
  538TMC3    C2 8035   4.269   0.800  10.812  0.0348  0.2046 -0.4874
  538TMC3    C3 8036   4.233   0.928  10.810 -1.0715  0.0153  0.0216
  538TMC3    C4 8037   4.062   0.763  10.943 -0.1563  0.1800 -0.1161
  538TMC3    C5 8038   4.044   0.892  10.939 -0.2188  0.5499  0.2318
  538TMC3    C6 8039   4.117   0.979  10.868  0.3179  0.7460 -0.6836
  538TMC3     C 8040   4.218   0.579  10.914  0.2232 -0.1986  0.0142
  538TMC3     O 8041   4.285   0.506  10.833  0.3393  0.1055  0.4320
  538TMC3     H 8042   4.343   0.755  10.747  0.2699 -1.7891  1.1268
  538TMC3    H1 8043   4.002   0.701  11.009 -0.6910  2.1945  1.2616
  538TMC3    H2 8044   4.068   1.074  10.849 -0.3325  0.4655 -0.4419
  538TMC3    C7 8045   3.899   0.920  10.978 -0.6606  0.0009 -0.3662
  538TMC3    C8 8046   4.328   1.010  10.745 -0.4306 -0.1210  0.3958
  538TMC3    O1 8047   3.826   0.824  10.983 -0.6580 -0.3294  0.4513
  538TMC3    O2 8048   4.386   0.972  10.649  0.0352 -0.5951  0.1669
  539MPD2     C 8049   3.351   4.241  11.997  0.1772 -0.1387 -0.2716
  539MPD2    C1 8050   3.381   4.271  11.861 -0.6671 -0.0628 -0.5080
  539MPD2    C2 8051   3.416   4.404  11.831  0.0112 -0.0819 -0.5180
  539MPD2    C3 8052   3.433   4.497  11.938  0.1533 -0.0272  0.2106
  539MPD2    C4 8053   3.414   4.461  12.072 -0.6095  0.3576 -0.0070
  539MPD2    C5 8054   3.375   4.337  12.096  0.0986  0.0758  0.8068
  539MPD2     H 8055   3.436   4.427  11.727 -2.1365 -1.6672 -1.2735
  539MPD2    H1 8056   3.411   4.521  12.162 -0.9966  0.0618  0.1802
  539MPD2    H2 8057   3.316   4.141  12.018 -1.0588 -0.1471 -2.3944
  539MPD2    H3 8058   3.348   4.307  12.197  1.0806  3.4483  2.0631
  539MPD2     N 8059   3.454   4.639  11.909  0.6489 -0.4177  0.1743
  539MPD2    H5 8060   3.470   4.696  11.991 -2.0168  1.1415 -0.3970
  539MPD2    N1 8061   3.398   4.161  11.762  0.5490  0.7694 -0.1025
  539MPD2    H7 8062   3.437   4.197  11.676 -1.1861 -2.4249 -2.2703
  540TMC3    C1 8063   3.426   0.108  11.789 -0.1076  0.0500 -0.1267
  540TMC3    C2 8064   3.428   0.162  11.661 -0.0596 -0.3509 -0.2966
  540TMC3    C3 8065   3.409   0.296  11.651  0.6210  0.3648  0.9665
  540TMC3    C4 8066   3.415   0.184  11.899 -0.5036 -0.4452  0.1801
  540TMC3    C5 8067   3.411   0.321  11.883 -0.5100  0.4076  0.3763
  540TMC3    C6 8068   3.410   0.384  11.760  0.3798  0.6209  0.4642
  540TMC3     C 8069   3.433   4.703  11.793  0.7345  0.3484 -0.5061
  540TMC3     O 8070   3.423   4.646  11.683 -0.2733  0.1799  1.0904
  540TMC3     H 8071   3.427   0.100  11.572 -2.3555 -0.6312 -0.0725
  540TMC3    H1 8072   3.439   0.146  11.998 -1.8936 -1.0072  0.2945
  540TMC3    H2 8073   3.384   0.488  11.749 -0.7225  0.1964 -1.0017
  540TMC3    C7 8074   3.413   0.399  12.004 -0.6035 -0.3821 -0.6475
  540TMC3    C8 8075   3.408   0.363  11.528  0.3860  0.8661  0.1691
  540TMC3    O1 8076   3.387   0.343  12.111  0.4680 -0.3659 -0.8023
  540TMC3    O2 8077   3.406   0.483  11.530  0.2738  0.1673 -0.7111
  541MPD2     C 8078   1.584   1.856  13.401  0.6194 -0.0155  0.1404
  541MPD2    C1 8079   1.672   1.763  13.350  0.1864  0.9127 -0.4333
  541MPD2    C2 8080   1.735   1.800  13.227 -0.0298 -0.7649  0.2813
  541MPD2    C3 8081   1.727   1.928  13.170 -0.1290  1.1877 -0.3931
  541MPD2    C4 8082   1.633   2.014  13.224  0.0206  0.1255 -0.0741
  541MPD2    C5 8083   1.572   1.983  13.341 -0.3782 -0.3782 -0.3186
  541MPD2     H 8084   1.814   1.735  13.192 -0.8520 -0.8402 -1.4141
  541MPD2    H1 8085   1.622   2.119  13.199 -1.4899 -0.1116 -0.4661
  541MPD2    H2 8086   1.526   1.835  13.489  0.1119  1.6995  0.2152
  541MPD2    H3 8087   1.503   2.056  13.383  0.9230  0.5114  0.2611
  541MPD2     N 8088   1.816   1.974  13.076  0.2605  0.3160 -0.7452
  541MPD2    H5 8089   1.805   2.070  13.046  1.2396  0.7796  0.3963
  541MPD2    N1 8090   1.675   1.632  13.410 -0.0722  0.5431 -0.9239
  541MPD2    H7 8091   1.607   1.636  13.485 -0.7491 -0.0180 -1.5056
  542TMC3    C1 8092   2.003   1.980  12.941 -0.1180  0.1167 -0.5357
  542TMC3    C2 8093   2.076   1.910  12.848  0.3971  1.1553 -0.4541
  542TMC3    C3 8094   2.168   1.974  12.769 -0.1386 -0.7268 -0.6846
  542TMC3    C4 8095   2.018   2.113  12.956  0.3278  0.5477 -0.1688
  542TMC3    C5 8096   2.107   2.168  12.874 -0.9176 -0.0673 -0.2852
  542TMC3    C6 8097   2.187   2.105  12.777 -0.4556  0.2177 -0.0170
  542TMC3     C 8098   1.910   1.898  13.020 -0.5303  0.2270 -0.0104
  542TMC3     O 8099   1.942   1.778  13.024  0.3732  0.0391  0.5877
  542TMC3     H 8100   2.075   1.802  12.837  2.2041  0.9463  1.2709
  542TMC3    H1 8101   1.972   2.172  13.034  1.1989  1.5873 -0.4497
  542TMC3    H2 8102   2.247   2.154  12.701 -1.9320  1.0153 -0.6697
  542TMC3    C7 8103   2.118   2.310  12.901  0.7642 -0.6083  0.0059
  542TMC3    C8 8104   2.269   1.897  12.697  0.3962  0.2426 -0.0343
  542TMC3    O1 8105   2.017   2.370  12.928 -0.3181 -0.0925  0.1023
  542TMC3    O2 8106   2.251   1.778  12.672  0.3630  0.1657  0.1023
  543TMC3    C1 8107   1.571   3.451  17.103 -0.8716 -0.1617 -0.1521
  543TMC3    C2 8108   1.588   3.320  17.130 -0.0516 -0.4954  0.0897
  543TMC3    C3 8109   1.586   3.274  17.261 -0.4345 -0.5803  0.3336
  543TMC3    C4 8110   1.569   3.540  17.206 -0.5709 -0.4403  0.9286
  543TMC3    C5 8111   1.584   3.495  17.336  0.1563  0.6122 -0.2268
  543TMC3    C6 8112   1.580   3.359  17.372 -0.0613  0.3029  0.9758
  543TMC3     C 8113   1.584   3.503  16.968  0.8283 -0.7715 -0.0849
  543TMC3     O 8114   1.652   3.436  16.893  0.1082  0.6016  0.0912
  543TMC3     H 8115   1.603   3.258  17.042 -0.0929  1.0031 -0.9644
  543TMC3    H1 8116   1.535   3.642  17.188 -1.0111 -0.4096  1.9171
  543TMC3    H2 8117   1.601   3.323  17.472  1.1411  1.1358  1.0209
  543TMC3    C7 8118   1.566   3.587  17.445  0.3891 -0.1929 -0.3934
  543TMC3    C8 8119   1.587   3.127  17.272 -0.1693  0.5044  0.7516
  543TMC3    O1 8120   1.554   3.536  17.554  0.4120  0.6938  0.9400
  543TMC3    O2 8121   1.647   3.069  17.181  0.3298 -0.3390  0.3155
  544MPD2     C 8122   1.525   2.713  17.565  0.1625 -0.0059 -0.4142
  544MPD2    C1 8123   1.568   2.723  17.432  0.6640  0.0008 -0.2592
  544MPD2    C2 8124   1.573   2.844  17.369  0.4116  1.0424  0.5121
  544MPD2    C3 8125   1.535   2.960  17.443  0.9695 -0.0222  0.5952
  544MPD2    C4 8126   1.476   2.942  17.568 -0.3171  0.3312  0.0306
  544MPD2    C5 8127   1.477   2.818  17.628 -1.0721 -0.1114 -0.2911
  544MPD2     H 8128   1.630   2.860  17.278  1.0594 -0.8858  0.5835
  544MPD2    H1 8129   1.437   3.025  17.627  0.4833  1.4299 -0.9914
  544MPD2    H2 8130   1.532   2.618  17.617 -0.9232  0.5492  0.7476
  544MPD2    H3 8131   1.441   2.811  17.730  1.1099 -0.2658  0.4771
  544MPD2     N 8132   1.546   3.088  17.392 -0.1161 -0.1243 -0.9864
  544MPD2    H5 8133   1.513   3.153  17.462  0.2905  0.2216 -1.1198
  544MPD2    N1 8134   1.603   2.605  17.373 -0.0604 -0.4611  0.0587
  544MPD2    H7 8135   1.584   2.519  17.425 -2.9903 -0.0829 -0.3869
  545TMC3    C1 8136   1.667   2.449  17.212 -0.6263  0.3302 -0.6224
  545TMC3    C2 8137   1.624   2.407  17.088  0.6164  0.3282 -0.2588
  545TMC3    C3 8138   1.616   2.275  17.060  0.6319 -0.5336  0.0624
  545TMC3    C4 8139   1.712   2.361  17.303  0.2628  0.3772  0.3428
  545TMC3    C5 8140   1.700   2.232  17.275 -0.2024  0.1942 -0.1488
  545TMC3    C6 8141   1.653   2.179  17.152 -0.3072 -0.3544 -0.4482
  545TMC3     C 8142   1.645   2.587  17.244 -0.1339 -0.0916  0.1580
  545TMC3     O 8143   1.624   2.660  17.148 -0.5654  0.0989 -0.1291
  545TMC3     H 8144   1.604   2.482  17.013  2.3714  1.0799  0.0293
  545TMC3    H1 8145   1.737   2.390  17.405 -1.7021  2.1531  0.3179
  545TMC3    H2 8146   1.668   2.075  17.125  0.9403 -0.9613  2.6406
  545TMC3    C7 8147   1.753   2.142  17.372  0.7880 -0.1699  0.0064
  545TMC3    C8 8148   1.533   2.248  16.950 -0.4472  0.3297 -0.5391
  545TMC3    O1 8149   1.834   2.177  17.458  0.4692 -0.1200  0.5183
  545TMC3    O2 8150   1.521   2.337  16.864  0.2076  0.1045 -0.0182
  546MPD2     C 8151   2.945   3.343  17.584  0.0720 -1.1327  0.8267
  546MPD2    C1 8152   2.946   3.431  17.479 -0.4022 -0.5651  0.2955
  546MPD2    C2 8153   3.028   3.546  17.484 -0.4233 -0.5875  0.7921
  546MPD2    C3 8154   3.100   3.572  17.597  1.1666  0.2405 -0.3521
  546MPD2    C4 8155   3.089   3.488  17.704 -0.2064  0.4231  0.2351
  546MPD2    C5 8156   3.016   3.376  17.696  0.3787 -0.1798  1.1525
  546MPD2     H 8157   3.035   3.613  17.398  0.6381 -0.2693  1.1311
  546MPD2    H1 8158   3.132   3.505   0.044  0.5267  2.7769 -0.5190
  546MPD2    H2 8159   2.884   3.254  17.582 -4.2201  1.8089 -1.1007
  546MPD2    H3 8160   3.021   3.299   0.014 -1.3672  0.7345  2.1959
  546MPD2     N 8161   3.193   3.672  17.605  0.5253 -0.4777 -1.2339
  546MPD2    H5 8162   3.238   3.690  17.693 -0.5189  0.3509 -0.8635
  546MPD2    N1 8163   2.863   3.398  17.367 -0.1866  0.0246  0.0463
  546MPD2    H7 8164   2.802   3.318  17.377 -1.0356  0.8599  1.5420
  547TMC3    C1 8165   2.750   3.416  17.159  0.3685  0.7136  0.4393
  547TMC3    C2 8166   2.656   3.500  17.097  0.4648  0.7764 -0.4043
  547TMC3    C3 8167   2.545   3.433  17.051 -0.1767 -0.3024 -0.1148
  547TMC3    C4 8168   2.732   3.280  17.164  0.1918  0.0116 -0.3751
  547TMC3    C5 8169   2.623   3.219  17.106 -1.0010 -0.1695  0.1288
  547TMC3    C6 8170   2.526   3.296  17.052 -0.4104  0.0976 -0.1238
  547TMC3     C 8171   2.844   3.470  17.246 -0.8588  0.6484  0.2580
  547TMC3     O 8172   2.904   3.573  17.208 -0.3508  0.3178 -0.0503
  547TMC3     H 8173   2.676   3.607  17.096 -0.3911  0.9490  1.7835
  547TMC3    H1 8174   2.816   3.219  17.194  1.1962  1.1959 -0.7618
  547TMC3    H2 8175   2.426   3.257  17.038 -0.0293 -1.3387  1.1335
  547TMC3    C7 8176   2.613   3.074  17.122 -0.0362 -0.3707 -0.5594
  547TMC3    C8 8177   2.450   3.510  16.990 -0.1566  0.8293 -0.4387
  547TMC3    O1 8178   2.679   3.022  17.209 -0.1202  0.1609  0.6201
  547TMC3    O2 8179   2.371   3.459  16.910 -0.4252  0.4021 -0.2212
  548MPD2     C 8180   2.718   3.706  12.599 -0.2611  0.1482  0.7119
  548MPD2    C1 8181   2.654   3.615  12.678 -0.0551 -0.2097  0.4176
  548MPD2    C2 8182   2.731   3.515  12.740 -0.4688  0.3119  0.0711
  548MPD2    C3 8183   2.864   3.499  12.711  0.1438 -0.1460  0.4907
  548MPD2    C4 8184   2.923   3.596  12.635  0.2154 -0.0213  0.3116
  548MPD2    C5 8185   2.852   3.701  12.585  0.6336  0.2759 -0.0514
  548MPD2     H 8186   2.672   3.441  12.793  0.3269  0.7466  1.5435
  548MPD2    H1 8187   3.031   3.591  12.625  0.1855 -2.1056  1.2649
  548MPD2    H2 8188   2.662   3.788  12.556  0.2372 -0.2976 -0.7779
  548MPD2    H3 8189   2.900   3.785  12.535  1.3996 -0.0011  0.2305
  548MPD2     N 8190   2.923   3.385  12.777  0.1178 -0.2342  0.0920
  548MPD2    H5 8191   2.867   3.341  12.849 -0.1660 -1.4022 -0.8329
  548MPD2    N1 8192   2.510   3.625  12.693 -0.1135  0.1210 -0.2025
  548MPD2    H7 8193   2.471   3.710  12.653  1.0867  0.5154 -0.5479
  549TMC3    C1 8194   2.293   3.576  12.750 -0.2213  0.0239 -0.7248
  549TMC3    C2 8195   2.253   3.702  12.718  0.3520 -0.3218 -0.2565
  549TMC3    C3 8196   2.121   3.714  12.684  0.6764  0.2738  0.3711
  549TMC3    C4 8197   2.208   3.469  12.770 -0.4457 -0.0785  0.6480
  549TMC3    C5 8198   2.071   3.492  12.745  0.4573 -0.0154  0.7686
  549TMC3    C6 8199   2.030   3.614  12.693 -0.1299  0.2357  0.7225
  549TMC3     C 8200   2.433   3.544  12.773  0.4705 -0.1184 -0.0106
  549TMC3     O 8201   2.468   3.460  12.853 -0.3032 -0.1467  0.0254
  549TMC3     H 8202   2.322   3.785  12.722 -1.3120  1.0090  1.2101
  549TMC3    H1 8203   2.245   3.370  12.795  1.5557  0.3607 -0.6434
  549TMC3    H2 8204   1.924   3.632  12.678  0.0452  0.2561 -0.4667
  549TMC3    C7 8205   1.970   3.393  12.797  0.3171  0.4008  0.0907
  549TMC3    C8 8206   2.060   3.844  12.678  0.0014  0.4697 -0.0289
  549TMC3    O1 8207   1.848   3.411  12.785 -0.4928  0.4510  0.1730
  549TMC3    O2 8208   1.950   3.844  12.625 -0.0270  0.0079  0.6931
  550TMC3    C1 8209   1.274   1.629  12.213  0.6218  0.1867  0.4972
  550TMC3    C2 8210   1.295   1.740  12.289  0.4150  0.1044  0.1147
  550TMC3    C3 8211   1.199   1.828  12.303 -0.9074  0.6792 -0.1118
  550TMC3    C4 8212   1.166   1.620  12.131 -0.2555 -0.2934 -0.1913
  550TMC3    C5 8213   1.072   1.720  12.133  0.0026 -0.8210  0.1540
  550TMC3    C6 8214   1.088   1.822  12.219  0.0056 -0.2843 -0.7642
  550TMC3     C 8215   1.386   1.554  12.181 -0.0995  0.3171  0.2337
  550TMC3     O 8216   1.430   1.487  12.272 -0.0253 -0.3949  0.4193
  550TMC3     H 8217   1.369   1.729  12.367  2.0936 -0.9482 -1.6159
  550TMC3    H1 8218   1.163   1.528  12.073  0.4006 -0.5715  0.2122
  550TMC3    H2 8219   1.018   1.905  12.216 -1.3090 -1.3878 -0.7557
  550TMC3    C7 8220   1.015   1.767  12.012 -0.0643 -1.0605 -0.2768
  550TMC3    C8 8221   1.218   1.953  12.369  0.4383 -0.3542  0.4757
  550TMC3    O1 8222   0.947   1.870  12.014  0.0591  0.2553 -0.3395
  550TMC3    O2 8223   1.135   2.036  12.346  0.1444  1.0493  0.6121
  551TMC3    C1 8224   3.532   4.699  13.566 -0.4380 -0.1264  0.3936
  551TMC3    C2 8225   3.550   0.040  13.460  0.1076  0.3801  0.6374
  551TMC3    C3 8226   3.596   0.160  13.487  0.2066  0.7652 -0.2689
  551TMC3    C4 8227   3.568   4.726  13.691 -0.1326 -0.4264  0.1223
  551TMC3    C5 8228   3.625   0.110  13.712 -0.4529  0.8062 -0.0906
  551TMC3    C6 8229   3.644   0.197  13.609  0.2837  0.8071  0.0591
  551TMC3     C 8230   3.473   4.569  13.545 -0.4959  0.4396  0.0252
  551TMC3     O 8231   3.529   4.466  13.584 -0.3640 -0.9086  0.6741
  551TMC3     H 8232   3.523   0.005  13.361 -2.7983  0.1378  1.5254
  551TMC3    H1 8233   3.557   4.656  13.774 -2.0366  1.5079  1.4747
  551TMC3    H2 8234   3.689   0.294  13.622  0.1742  0.7617  0.7583
  551TMC3    C7 8235   3.699   0.130  13.837  0.4812  0.9879 -0.6787
  551TMC3    C8 8236   3.642   0.241  13.374  0.3074 -0.4696 -0.5871
  551TMC3    O1 8237   3.740   0.030  13.898  0.4123  0.2388  0.5697
  551TMC3    O2 8238   3.601   0.214  13.259 -0.6551  0.6369  0.1453
  552MPD2     C 8239   1.111   1.716  13.904  0.2065  0.1315 -0.0066
  552MPD2    C1 8240   1.112   1.604  13.992  0.5231  0.3626 -0.5131
  552MPD2    C2 8241   1.172   1.620  14.115  0.5495  0.1776  0.3694
  552MPD2    C3 8242   1.248   1.734  14.140 -0.9258  0.8634 -0.0238
  552MPD2    C4 8243   1.243   1.844  14.054 -0.8556 -0.2109  0.3655
  552MPD2    C5 8244   1.164   1.837  13.946  0.0761 -1.0212 -0.2897
  552MPD2     H 8245   1.187   1.537  14.183 -1.5463 -0.2522  0.3235
  552MPD2    H1 8246   1.301   1.934  14.073  1.9091 -2.1188  0.9890
  552MPD2    H2 8247   1.070   1.714  13.803  0.0035  0.8538  0.0614
  552MPD2    H3 8248   1.162   1.919  13.875  0.6751 -1.8391 -1.2601
  552MPD2     N 8249   1.349   1.754  14.243  0.4566 -0.5600 -0.2053
  552MPD2    H5 8250   1.407   1.835  14.226  2.4323 -1.9609 -0.0673
  552MPD2    N1 8251   1.059   1.476  13.953  0.2027  0.0392  0.7239
  552MPD2    H7 8252   1.050   1.412  14.030  2.3692  1.2694  2.0200
  553TMC3    C1 8253   0.974   1.296  13.833  0.1073  0.0756 -0.1579
  553TMC3    C2 8254   0.879   1.257  13.743 -0.0096  0.0722  0.4922
  553TMC3    C3 8255   0.854   1.126  13.731 -0.3911 -0.1589  0.1110
  553TMC3    C4 8256   1.038   1.213  13.919  0.6906  0.1867  0.7185
  553TMC3    C5 8257   1.008   1.080  13.907 -1.0993 -0.0882 -0.2857
  553TMC3    C6 8258   0.917   1.039  13.811  0.0782  0.0675  0.3143
  553TMC3     C 8259   1.003   1.440  13.836 -0.1142  0.2074  0.4512
  553TMC3     O 8260   0.972   1.508  13.738 -0.2479 -0.1784 -0.1353
  553TMC3     H 8261   0.828   1.329  13.681  1.3530  1.8408  1.4140
  553TMC3    H1 8262   1.130   1.233  13.972  0.9973 -2.0508  1.0159
  553TMC3    H2 8263   0.904   0.933  13.789 -0.1751  0.4405 -1.3238
  553TMC3    C7 8264   1.076   0.972  13.978 -0.6144  0.6335 -0.4526
  553TMC3    C8 8265   0.813   1.075  13.600  0.2453  0.8180  0.3818
  553TMC3    O1 8266   1.068   0.857  13.945 -0.1479 -1.0437 -0.3066
  553TMC3    O2 8267   0.853   0.963  13.567  0.1447  0.0321 -0.7812
  554TMC3    C1 8268   2.602   0.240  12.117 -0.4338  0.1092 -0.4439
  554TMC3    C2 8269   2.548   0.165  12.019 -0.1091  0.1110 -0.4465
  554TMC3    C3 8270   2.631   0.133  11.914  0.0037  0.5782  0.1009
  554TMC3    C4 8271   2.725   0.302  12.114  0.4703  0.0229 -0.7053
  554TMC3    C5 8272   2.803   0.266  12.011 -0.9976 -0.8495 -0.0306
  554TMC3    C6 8273   2.760   0.175  11.916 -0.8724 -0.5415  0.4093
  554TMC3     C 8274   2.550   0.190  12.246 -0.2462  0.8200 -0.2557
  554TMC3     O 8275   2.472   0.095  12.251  0.1391 -0.0976  0.1000
  554TMC3     H 8276   2.448   0.124  12.029  0.1283 -0.3699 -0.0591
  554TMC3    H1 8277   2.769   0.359  12.195  0.1250 -0.8444  0.1001
  554TMC3    H2 8278   2.827   0.145  11.836  2.2100  1.8537  2.0533
  554TMC3    C7 8279   2.917   0.351  11.970  0.0757 -0.4530 -0.1960
  554TMC3    C8 8280   2.574   0.078  11.786  0.8146 -0.8840  0.5022
  554TMC3    O1 8281   2.980   0.300  11.881 -0.0032  0.8980 -0.9429
  554TMC3    O2 8282   2.636   0.095  11.682  0.1170 -0.4388  0.6093
  555TMC3    C1 8283   1.938   0.905  15.315 -0.9753 -0.2881 -0.3137
  555TMC3    C2 8284   2.015   0.942  15.422  0.2739  0.1849  0.3651
  555TMC3    C3 8285   2.130   0.869  15.448 -0.3222 -0.4520  0.2086
  555TMC3    C4 8286   1.950   0.784  15.255 -0.2016  0.4788 -0.3368
  555TMC3    C5 8287   2.059   0.712  15.281  0.6275 -0.2109 -0.2625
  555TMC3    C6 8288   2.157   0.758  15.372 -0.0416  0.3683  0.1461
  555TMC3     C 8289   1.849   0.997  15.255  0.3666  0.5817  0.7608
  555TMC3     O 8290   1.878   1.112  15.291  0.1918  0.0158 -0.2608
  555TMC3     H 8291   2.004   1.043  15.460 -1.6467 -0.5450  1.7051
  555TMC3    H1 8292   1.887   0.740  15.178  0.0730 -0.6278  0.0672
  555TMC3    H2 8293   2.251   0.705  15.380 -0.1393 -0.2586 -2.7583
  555TMC3    C7 8294   2.054   0.569  15.262 -0.7318  0.0433  0.0498
  555TMC3    C8 8295   2.229   0.906  15.540 -0.6585 -0.5456 -0.5010
  555TMC3    O1 8296   1.943   0.521  15.245 -0.7133  0.2811 -0.3273
  555TMC3    O2 8297   2.340   0.861  15.526 -0.1996 -0.1104  0.4584
  556MPD2     C 8298   0.439   1.967  10.437 -0.3580  0.4304  0.5326
  556MPD2    C1 8299   0.309   1.946  10.478 -0.2607  0.7107  0.4259
  556MPD2    C2 8300   0.235   1.840  10.421 -0.2628  0.5790  0.1107
  556MPD2    C3 8301   0.299   1.759  10.329 -0.3464  0.2399 -0.3316
  556MPD2    C4 8302   0.430   1.779  10.296 -0.4040  0.2947 -0.9698
  556MPD2    C5 8303   0.504   1.873  10.362 -0.0563  0.2307 -0.2659
  556MPD2     H 8304   0.137   1.817  10.460  1.8120 -1.6301  4.0502
  556MPD2    H1 8305   0.495   1.711  10.242 -1.3635  0.4191 -2.2817
  556MPD2    H2 8306   0.504   2.043  10.478  1.1788 -0.7591  0.2816
  556MPD2    H3 8307   0.604   1.888  10.323  0.0250  2.7846  0.9013
  556MPD2     N 8308   0.225   1.644  10.292 -0.1134 -0.5232  0.0570
  556MPD2    H5 8309   0.129   1.635  10.326  0.1188 -1.5496  0.4157
  556MPD2    N1 8310   0.249   2.015  10.585 -0.2725 -0.3941 -0.1679
  556MPD2    H7 8311   0.155   1.993  10.617 -0.6150  3.1732  1.3617
  557TMC3    C1 8312   0.159   1.437  10.209  0.6174 -0.7290 -0.4242
  557TMC3    C2 8313   0.195   1.342  10.114  0.9625 -0.2048 -0.3857
  557TMC3    C3 8314   0.126   1.227  10.129 -0.2247  0.0557  0.1284
  557TMC3    C4 8315   0.087   1.409  10.317 -0.0634  0.5035 -0.3884
  557TMC3    C5 8316   0.026   1.289  10.323  0.0090 -0.0225  0.5910
  557TMC3    C6 8317   0.043   1.198  10.227 -0.6634 -0.4707  0.3296
  557TMC3     C 8318   0.265   1.537  10.220  0.0345  0.7866  0.3267
  557TMC3     O 8319   0.377   1.522  10.176 -0.5005  0.0488  0.0520
  557TMC3     H 8320   0.258   1.360  10.028  1.9772 -0.7892  0.2336
  557TMC3    H1 8321   0.070   1.486  10.391  0.5872 -2.0987  2.4548
  557TMC3    H2 8322   4.730   1.104  10.231 -2.3488  0.4890  0.6774
  557TMC3    C7 8323   4.664   1.253  10.418 -0.1091 -0.1296 -0.5109
  557TMC3    C8 8324   0.155   1.130  10.023  0.7258 -0.7649 -0.1909
  557TMC3    O1 8325   4.597   1.147  10.411 -0.2148  0.8976  0.6594
  557TMC3    O2 8326   0.189   1.181   9.918  0.1433 -0.2614 -0.6516
  558TMC3    C1 8327   1.761   4.148  10.123  0.0426 -0.4679 -0.9896
  558TMC3    C2 8328   1.657   4.146  10.211 -0.3182  0.0579  0.1052
  558TMC3    C3 8329   1.530   4.130  10.168  0.2737  0.3908  0.0235
  558TMC3    C4 8330   1.730   4.151   9.988 -0.0316  0.3379  0.7593
  558TMC3    C5 8331   1.596   4.147   9.952 -0.3721 -0.1344  0.6978
  558TMC3    C6 8332   1.499   4.114  10.042  0.4548  0.0919  0.1375
  558TMC3     C 8333   1.894   4.148  10.175 -1.1316 -0.0327  1.4654
  558TMC3     O 8334   1.986   4.167  10.102  0.1020 -0.3224  0.2335
  558TMC3     H 8335   1.669   4.167  10.316  1.3153  0.6098 -0.2047
  558TMC3    H1 8336   1.804   4.130   9.911 -0.2405  1.4384  0.2545
  558TMC3    H2 8337   1.400   4.091  10.003 -0.5073  2.8333  0.9695
  558TMC3    C7 8338   1.570   4.172   9.811  0.1178  0.0819  0.0888
  558TMC3    C8 8339   1.424   4.109  10.264 -0.2429 -0.3487  0.3657
  558TMC3    O1 8340   1.667   4.175   9.732 -0.1738 -0.0383  0.3732
  558TMC3    O2 8341   1.317   4.163  10.245  0.0052  0.0259 -0.3001
  559MPD2     C 8342   2.310   4.442  10.530 -0.3376  0.2468  0.1816
  559MPD2    C1 8343   2.256   4.390  10.644 -0.0631  1.0992 -0.2613
  559MPD2    C2 8344   2.335   4.334  10.744  0.7351 -0.1767 -0.3129
  559MPD2    C3 8345   2.469   4.315  10.718 -0.1888  0.9646  0.1540
  559MPD2    C4 8346   2.530   4.360  10.601 -0.2620  0.0627  0.2421
  559MPD2    C5 8347   2.448   4.431  10.512 -0.7186 -0.2328 -0.7024
  559MPD2     H 8348   2.293   4.322  10.843 -0.7951  1.8311 -0.7388
  559MPD2    H1 8349   2.635   4.346  10.578 -0.0788  1.2066  0.4064
  559MPD2    H2 8350   2.256   4.496  10.453 -0.0867  2.4604  1.5787
  559MPD2    H3 8351   2.491   4.481  10.426 -0.1787 -2.1189 -1.5105
  559MPD2     N 8352   2.527   4.227  10.807  0.8159 -0.2572 -0.3823
  559MPD2    H5 8353   2.470   4.175  10.873 -0.2339  1.4348  0.0416
  559MPD2    N1 8354   2.122   4.397  10.676 -0.2760  0.0391 -0.8580
  559MPD2    H7 8355   2.093   4.357  10.765 -1.7327  3.2753  0.1036
  560TMC3    C1 8356   2.685   4.122  10.945  0.6435 -0.1094  0.3456
  560TMC3    C2 8357   2.574   4.056  10.991  0.2872 -0.3936  0.0384
  560TMC3    C3 8358   2.560   4.042  11.126 -0.4008 -0.6343 -0.5875
  560TMC3    C4 8359   2.790   4.157  11.025  0.0662  0.4928 -0.1732
  560TMC3    C5 8360   2.773   4.132  11.162  0.1210  0.4960 -0.3164
  560TMC3    C6 8361   2.665   4.071  11.214 -0.1153 -0.2909 -0.5220
  560TMC3     C 8362   2.666   4.198  10.821 -0.2040 -0.4122  0.8217
  560TMC3     O 8363   2.759   4.261  10.770 -0.2109 -0.5922  1.0095
  560TMC3     H 8364   2.498   4.021  10.922  1.4946 -2.3504 -0.2997
  560TMC3    H1 8365   2.884   4.176  10.974 -0.3427 -0.3052 -1.2144
  560TMC3    H2 8366   2.656   4.066  11.322 -0.4487  4.9974 -0.2949
  560TMC3    C7 8367   2.876   4.154  11.264  0.1553  0.3855 -0.2005
  560TMC3    C8 8368   2.417   4.047  11.165 -0.8721 -0.3693  0.4547
  560TMC3    O1 8369   2.876   4.074  11.353 -0.5079  0.4708 -0.1763
  560TMC3    O2 8370   2.334   4.045  11.072  0.2440  0.5265  0.3345
  561TMC3    C1 8371   0.319   3.788  11.396  0.7143  0.3221 -0.6396
  561TMC3    C2 8372   0.303   3.742  11.526  0.4010  0.4466 -0.1899
  561TMC3    C3 8373   0.273   3.830  11.633  0.4044 -0.4084  0.0148
  561TMC3    C4 8374   0.277   3.920  11.380 -0.7398  0.6119  0.3594
  561TMC3    C5 8375   0.240   3.994  11.485 -0.7524  0.4578  0.2044
  561TMC3    C6 8376   0.243   3.957  11.613 -0.5896 -0.8018 -0.8923
  561TMC3     C 8377   0.289   3.699  11.283  0.2365 -1.4068 -0.6340
  561TMC3     O 8378   0.213   3.610  11.296 -0.1576 -0.2161 -0.2290
  561TMC3     H 8379   0.310   3.636  11.547  0.7547  0.6332  0.6726
  561TMC3    H1 8380   0.275   3.956  11.278  0.5960 -2.2130 -0.6586
  561TMC3    H2 8381   0.244   4.031  11.692 -0.9050  1.2355 -2.8022
  561TMC3    C7 8382   0.221   4.139  11.462  0.3134 -0.5131  1.2981
  561TMC3    C8 8383   0.249   3.784  11.766 -0.4400  0.4813  0.0823
  561TMC3    O1 8384   0.128   4.185  11.530 -0.1049  0.4549  0.3404
  561TMC3    O2 8385   0.307   3.677  11.799 -0.9638 -0.2174 -0.0939
  562TMC3    C1 8386   2.514   0.850  16.114 -0.5960 -0.3174  0.4007
  562TMC3    C2 8387   2.391   0.873  16.176 -0.2776  0.0413 -0.0677
  562TMC3    C3 8388   2.274   0.861  16.103  0.2064  0.3160  0.3919
  562TMC3    C4 8389   2.513   0.791  15.985 -0.9941  0.0335  0.2215
  562TMC3    C5 8390   2.392   0.774  15.918 -0.2706 -0.2330 -0.5983
  562TMC3    C6 8391   2.272   0.814  15.975  0.2722 -1.2895 -0.3102
  562TMC3     C 8392   2.635   0.832  16.188  0.1372  0.2108 -0.1868
  562TMC3     O 8393   2.727   0.771  16.138 -0.2042 -0.0212 -0.3068
  562TMC3     H 8394   2.395   0.901  16.281  2.7640 -1.1778  0.1489
  562TMC3    H1 8395   2.608   0.762  15.940 -0.4137 -0.8006  1.9969
  562TMC3    H2 8396   2.181   0.799  15.918 -1.7675  1.7192  2.1464
  562TMC3    C7 8397   2.374   0.673  15.814 -0.9287  0.2764  0.2332
  562TMC3    C8 8398   2.154   0.927  16.154 -0.3121  0.0322  0.7081
  562TMC3    O1 8399   2.262   0.652  15.769 -0.2588 -0.0202 -0.2374
  562TMC3    O2 8400   2.164   0.968  16.268 -0.0215 -0.2144  0.1647
  563MPD2     C 8401   3.752   1.940  15.846  0.4674  0.8309 -0.5365
  563MPD2    C1 8402   3.742   1.990  15.977  0.0610  0.0253 -0.1629
  563MPD2    C2 8403   3.858   1.992  16.052  0.0660 -0.3966  0.1922
  563MPD2    C3 8404   3.970   1.936  16.007  1.0442  0.6570  0.0187
  563MPD2    C4 8405   3.982   1.882  15.874 -0.2686  0.0066  0.0755
  563MPD2    C5 8406   3.876   1.904  15.793 -0.3983  0.5243 -0.3640
  563MPD2     H 8407   3.856   2.019  16.157  1.0266  1.6387 -0.2989
  563MPD2    H1 8408   4.075   1.865  15.820  0.4335  1.6777  0.7636
  563MPD2    H2 8409   3.662   1.946  15.786  0.1197  0.4000 -0.0568
  563MPD2    H3 8410   3.885   1.877  15.689 -0.5673  1.3972 -0.6007
  563MPD2     N 8411   4.078   1.943  16.096 -0.7422 -0.4836  0.2995
  563MPD2    H5 8412   4.067   2.000  16.180  0.3551 -2.0858  1.5322
  563MPD2    N1 8413   3.624   2.033  16.024  0.3855  0.0321  0.3043
  563MPD2    H7 8414   3.544   2.002  15.969  1.1661 -0.5661 -0.4829
  564TMC3    C1 8415   3.507   2.032  16.226 -0.6009  0.1586  0.1292
  564TMC3    C2 8416   3.428   1.927  16.175  0.7619  0.2627 -0.5947
  564TMC3    C3 8417   3.394   1.823  16.268  0.4543 -0.4720  0.1044
  564TMC3    C4 8418   3.538   2.030  16.358 -0.0351  0.6028 -0.0565
  564TMC3    C5 8419   3.505   1.929  16.438  0.3423 -0.0267  0.5206
  564TMC3    C6 8420   3.414   1.829  16.398 -0.0754 -0.7001  0.0596
  564TMC3     C 8421   3.612   2.094  16.146 -0.4374  0.5010 -0.1621
  564TMC3     O 8422   3.682   2.182  16.197  0.2397  0.5220  0.0880
  564TMC3     H 8423   3.374   1.920  16.082 -1.0267 -1.6539  0.5960
  564TMC3    H1 8424   3.616   2.096  16.397 -0.6113  0.1016  1.9560
  564TMC3    H2 8425   3.391   1.753  16.471  2.4658 -2.1605 -0.6779
  564TMC3    C7 8426   3.613   1.878  16.528 -0.1950  0.1249  0.2382
  564TMC3    C8 8427   3.432   1.693  16.221 -0.0150 -0.3351 -0.1687
  564TMC3    O1 8428   3.694   1.961  16.571  0.2191  0.1446  0.1810
  564TMC3    O2 8429   3.412   1.602  16.301 -0.5149  0.4243  0.5133
  565TMC3    C1 8430   3.880   2.994  10.303 -0.0200  0.8418  0.5840
  565TMC3    C2 8431   3.864   2.904  10.410 -0.0008  0.2086 -0.0785
  565TMC3    C3 8432   3.760   2.816  10.406 -0.3348 -0.4408 -0.1937
  565TMC3    C4 8433   3.800   2.985  10.192 -0.1334  0.4429  0.2509
  565TMC3    C5 8434   3.692   2.903  10.197  0.1070 -0.5653  0.2507
  565TMC3    C6 8435   3.672   2.811  10.301  0.9535 -0.3026  0.1707
  565TMC3     C 8436   4.008   3.065  10.288 -0.3291  0.0708  0.0084
  565TMC3     O 8437   4.040   3.095  10.176  0.1442 -0.1511  0.2705
  565TMC3     H 8438   3.942   2.897  10.484  0.3041 -0.0796 -0.4243
  565TMC3    H1 8439   3.814   3.046  10.104  1.1395  1.6808  1.3032
  565TMC3    H2 8440   3.578   2.758  10.304  0.6548  0.0164 -3.0074
  565TMC3    C7 8441   3.603   2.905  10.083 -0.7198 -0.1318  0.1735
  565TMC3    C8 8442   3.742   2.707  10.509 -0.0196  0.3019  0.3732
  565TMC3    O1 8443   3.607   3.003  10.012 -0.4550 -0.1752  0.2874
  565TMC3    O2 8444   3.800   2.742  10.612  0.5103  0.8092  0.2492
  566MPD2     C 8445   1.190   0.000  14.680  0.3974  0.0855  0.2167
  566MPD2    C1 8446   1.179   0.041  14.547 -0.0392 -0.4874  0.1171
  566MPD2    C2 8447   1.079   4.731  14.463 -0.4130  0.3622 -0.3032
  566MPD2    C3 8448   0.997   4.635  14.513 -0.0271  0.3663 -0.4068
  566MPD2    C4 8449   1.004   4.596  14.645 -1.1908  0.2396 -0.4259
  566MPD2    C5 8450   1.104   4.643  14.722 -0.6657 -0.3463 -0.1943
  566MPD2     H 8451   1.074   0.026  14.360 -0.6836  0.5524 -0.2256
  566MPD2    H1 8452   0.936   4.520  14.682 -0.0342 -0.2633  0.6355
  566MPD2    H2 8453   1.262   0.048  14.745  1.6901  0.1189 -1.2484
  566MPD2    H3 8454   1.116   4.598  14.819 -0.4308  1.6869  0.7075
  566MPD2     N 8455   0.898   4.592  14.421  0.0629 -0.0576  0.3832
  566MPD2    H5 8456   0.909   4.614  14.322  1.1681 -2.0702  0.0482
  566MPD2    N1 8457   1.279   0.125  14.500 -0.6373  0.4165  0.5807
  566MPD2    H7 8458   1.366   0.128  14.552 -0.6687  1.4655  0.5747
  567TMC3    C1 8459   1.395   0.282  14.350 -0.1120  1.0848  0.5724
  567TMC3    C2 8460   1.400   0.342  14.227  0.4064 -0.2684 -0.1397
  567TMC3    C3 8461   1.521   0.367  14.177 -0.1819 -0.8883  0.1572
  567TMC3    C4 8462   1.503   0.281  14.438  0.7242 -0.5635  0.6090
  567TMC3    C5 8463   1.629   0.293  14.376  0.7856 -0.1036  0.1111
  567TMC3    C6 8464   1.644   0.337  14.245 -0.3571 -0.5404 -0.6796
  567TMC3     C 8465   1.271   0.208  14.387  0.1536 -0.8785  0.7613
  567TMC3     O 8466   1.173   0.229  14.317  0.2275  0.4487  0.5561
  567TMC3     H 8467   1.312   0.337  14.164  0.3311  0.3425 -0.0867
  567TMC3    H1 8468   1.493   0.247  14.540  0.2699  0.9995  1.0710
  567TMC3    H2 8469   1.747   0.333  14.210  0.4423 -1.6664  1.7572
  567TMC3    C7 8470   1.744   0.301  14.470  0.1469  1.4103  0.4377
  567TMC3    C8 8471   1.528   0.388  14.032 -0.4678 -0.2022  0.0756
  567TMC3    O1 8472   1.857   0.315  14.421 -0.0424  0.3977 -0.0144
  567TMC3    O2 8473   1.426   0.403  13.969 -0.1515 -0.0625 -0.2474
  568MPD2     C 8474   4.032   0.287  16.432 -0.3545 -0.6181 -0.4862
  568MPD2    C1 8475   4.000   0.378  16.532 -0.2135 -0.0504 -0.2077
  568MPD2    C2 8476   3.956   0.500  16.493 -0.2475  0.8765  0.4476
  568MPD2    C3 8477   3.919   0.518  16.358 -0.3223  0.3767 -0.5742
  568MPD2    C4 8478   3.960   0.428  16.260  0.6251 -0.5337 -0.2267
  568MPD2    C5 8479   4.018   0.313  16.305 -0.6219 -0.7274  0.9441
  568MPD2     H 8480   3.919   0.570  16.567 -0.5195 -0.4158  1.5241
  568MPD2    H1 8481   3.932   0.435  16.155  0.0913 -1.8818 -0.1814
  568MPD2    H2 8482   4.084   0.195  16.456 -0.2322  0.0009  1.6752
  568MPD2    H3 8483   4.038   0.240  16.227  0.6240 -0.6568  1.1905
  568MPD2     N 8484   3.854   0.637  16.327  0.4623 -0.4839 -0.6153
  568MPD2    H5 8485   3.819   0.698  16.401  0.2478 -1.6470  0.2337
  568MPD2    N1 8486   4.012   0.343  16.671  0.2566  0.0950  0.2891
  568MPD2    H7 8487   4.054   0.252  16.685  0.4521  0.4842  2.2129
  569TMC3    C1 8488   3.748   0.806  16.208  0.4284 -0.4200 -0.1719
  569TMC3    C2 8489   3.673   0.820  16.324  0.1977 -0.0158 -0.3163
  569TMC3    C3 8490   3.646   0.945  16.368 -0.4183  0.0215  0.0324
  569TMC3    C4 8491   3.806   0.912  16.148  0.3167 -0.0843  0.5766
  569TMC3    C5 8492   3.785   1.035  16.202  0.1598 -0.1509 -0.3258
  569TMC3    C6 8493   3.709   1.056  16.314  0.4662 -0.1203  1.0731
  569TMC3     C 8494   3.826   0.680  16.201  0.3645  0.3150 -0.1295
  569TMC3     O 8495   3.890   0.650  16.098 -0.3708 -0.1992  0.2208
  569TMC3     H 8496   3.626   0.739  16.378  1.8677 -1.8022 -1.5558
  569TMC3    H1 8497   3.862   0.896  16.056  2.2038  3.6295  1.0886
  569TMC3    H2 8498   3.692   1.155  16.354  0.9806  0.5027 -0.2540
  569TMC3    C7 8499   3.796   1.149  16.113 -0.0108  0.1942  0.1260
  569TMC3    C8 8500   3.556   0.962  16.479  0.0331 -0.4260  0.0859
  569TMC3    O1 8501   3.857   1.135  16.008 -0.8352 -0.0431 -0.2492
  569TMC3    O2 8502   3.464   0.888  16.498 -0.5453 -0.0601 -0.4073
  570TMC3    C1 8503   3.645   0.071  16.043  0.3679 -0.5433 -0.4366
  570TMC3    C2 8504   3.747   0.064  15.952  0.8092 -0.0681  0.3431
  570TMC3    C3 8505   3.879   0.056  16.000 -0.1881 -0.0716  0.3384
  570TMC3    C4 8506   3.657   0.065  16.177 -0.1207 -0.2141  0.3589
  570TMC3    C5 8507   3.785   0.026  16.218 -0.5191  0.3390  0.1527
  570TMC3    C6 8508   3.899   0.029  16.138  0.0121  0.8274 -0.0686
  570TMC3     C 8509   3.513   0.096  15.996  0.3043 -0.7853 -1.1675
  570TMC3     O 8510   3.504   0.163  15.894 -0.2463  0.9196 -0.0361
  570TMC3     H 8511   3.723   0.072  15.846 -3.7780 -1.6725  1.2551
  570TMC3    H1 8512   3.579   0.086  16.250 -1.2204 -1.1170 -0.5609
  570TMC3    H2 8513   3.997   0.020  16.184 -0.2193 -2.2292 -0.1715
  570TMC3    C7 8514   3.805   4.730  16.358  0.6880 -0.5000 -0.0467
  570TMC3    C8 8515   3.988   0.020  15.906 -0.4675 -0.5602  0.0013
  570TMC3    O1 8516   3.887   4.638  16.374 -0.0172 -0.3125 -0.2700
  570TMC3    O2 8517   3.955   0.001  15.791 -0.1135 -0.4545  0.0250
  571MPD2     C 8518   0.574   1.315   0.543 -0.3238 -0.2459 -0.1648
  571MPD2    C1 8519   0.694   1.299   0.606 -0.1636 -0.1094  0.2860
  571MPD2    C2 8520   0.759   1.413   0.655 -0.4707 -0.7786 -0.2733
  571MPD2    C3 8521   0.705   1.538   0.632 -0.6710  0.2783  0.0618
  571MPD2    C4 8522   0.585   1.551   0.557  0.5703  0.0299 -0.0231
  571MPD2    C5 8523   0.524   1.441   0.512  0.0064  0.4675  0.3496
  571MPD2     H 8524   0.857   1.403   0.700 -1.1023 -2.9623  0.6032
  571MPD2    H1 8525   0.550   1.649   0.529 -0.5231 -0.8807 -1.8578
  571MPD2    H2 8526   0.509   1.230   0.529 -2.3974  1.3117  0.0251
  571MPD2    H3 8527   0.435   1.449   0.451  0.3370 -0.5382 -0.2569
  571MPD2     N 8528   0.783   1.657   0.655 -0.0245 -0.4008 -0.1203
  571MPD2    H5 8529   0.755   1.737   0.600  1.5908  0.2260 -0.0297
  571MPD2    N1 8530   0.740   1.172   0.617  0.2490  0.0852  0.1146
  571MPD2    H7 8531   0.681   1.101   0.576  1.8440 -1.3276  0.2763
  572TMC3    C1 8532   0.970   1.789   0.728 -0.0625 -0.5478 -0.7093
  572TMC3    C2 8533   1.055   1.798   0.823  0.5812 -0.3774  0.0828
  572TMC3    C3 8534   1.180   1.846   0.786 -0.6687 -0.0278  0.2816
  572TMC3    C4 8535   0.987   1.839   0.597 -0.1481  0.1914 -0.3108
  572TMC3    C5 8536   1.103   1.901   0.574  0.4044  0.2944  0.3535
  572TMC3    C6 8537   1.200   1.904   0.667  0.5832 -0.1983  0.0522
  572TMC3     C 8538   0.888   1.669   0.742  0.3103 -0.3217 -0.3815
  572TMC3     O 8539   0.920   1.594   0.826 -1.1781 -0.2415  0.1257
  572TMC3     H 8540   1.040   1.750   0.919  0.8133 -0.2801  0.1684
  572TMC3    H1 8541   0.913   1.833   0.518  0.4791  1.9385 -1.0251
  572TMC3    H2 8542   1.301   1.942   0.653  0.2026  0.5958 -0.5169
  572TMC3    C7 8543   1.104   1.988   0.461 -0.4538 -0.0833  0.5805
  572TMC3    C8 8544   1.296   1.781   0.842  0.9394  0.2177 -0.8843
  572TMC3    O1 8545   1.005   2.032   0.413 -0.7070  0.1346  0.6681
  572TMC3    O2 8546   1.406   1.828   0.816 -0.0265  0.1520 -0.0524
  573MPD2     C 8547   2.657   1.341   0.656  0.6980 -0.3841 -0.5044
  573MPD2    C1 8548   2.522   1.352   0.645  0.2777 -0.2876  0.2552
  573MPD2    C2 8549   2.457   1.398   0.530  0.0005 -0.5789 -0.5186
  573MPD2    C3 8550   2.535   1.470   0.444 -0.4416  0.5769  0.1025
  573MPD2    C4 8551   2.669   1.473   0.464 -0.2168 -0.0481  0.3998
  573MPD2    C5 8552   2.735   1.414   0.567 -0.4432 -0.3887 -0.1090
  573MPD2     H 8553   2.349   1.389   0.522 -0.1660  0.1561  0.9341
  573MPD2    H1 8554   2.725   1.538   0.397 -2.2747  2.4061  1.0739
  573MPD2    H2 8555   2.709   1.302   0.743 -0.9356  0.2660  0.7815
  573MPD2    H3 8556   2.842   1.425   0.581 -0.5041  2.0417 -1.5347
  573MPD2     N 8557   2.481   1.548   0.338 -0.0949  0.4582  0.0208
  573MPD2    H5 8558   2.544   1.607   0.286 -0.1524 -0.5411 -1.1695
  573MPD2    N1 8559   2.448   1.273   0.743 -0.8539  0.5446  0.1883
  573MPD2    H7 8560   2.511   1.229   0.810  0.2106  0.7254 -0.6823
  574TMC3    C1 8561   2.329   1.637   0.174 -0.6975  1.0916 -0.0213
  574TMC3    C2 8562   2.212   1.612   0.108  0.1138 -0.3149  0.5402
  574TMC3    C3 8563   2.180   1.682  17.758  0.3814 -0.2385  0.0789
  574TMC3    C4 8564   2.416   1.730   0.135 -0.1518 -0.1600  0.1352
  574TMC3    C5 8565   2.375   1.812   0.034  0.7476 -0.4406  0.0015
  574TMC3    C6 8566   2.256   1.788  17.720 -0.4034  0.0761 -0.4071
  574TMC3     C 8567   2.349   1.556   0.297  0.5167  0.3378  0.0133
  574TMC3     O 8568   2.251   1.484   0.332 -0.1693 -0.0352  0.0055
  574TMC3     H 8569   2.143   1.535   0.142 -1.6347 -0.0257 -2.3913
  574TMC3    H1 8570   2.495   1.757   0.204  2.0574  0.5222 -2.6448
  574TMC3    H2 8571   2.235   1.854  17.637  0.4822  0.6531 -0.1770
  574TMC3    C7 8572   2.442   1.935   0.020  0.1918  0.6887 -0.6949
  574TMC3    C8 8573   2.043   1.661  17.712 -0.2800  0.8584 -0.3588
  574TMC3    O1 8574   2.370   2.026  17.744  0.4965 -0.0669 -0.4573
  574TMC3    O2 8575   1.978   1.569   0.005  0.0701  0.4745 -0.0893
  575TMC3    C1 8576   4.028   2.326  11.226  0.0218  0.1483  0.0966
  575TMC3    C2 8577   4.014   2.194  11.248 -0.0012 -0.0348  0.0520
  575TMC3    C3 8578   3.901   2.134  11.201 -0.0663  0.0475 -0.0263
  575TMC3    C4 8579   3.951   2.397  11.134 -0.4024  0.0680  0.1025
  575TMC3    C5 8580   3.850   2.327  11.075 -0.2540 -0.2342 -0.2644
  575TMC3    C6 8581   3.821   2.201  11.111  1.2506  0.4342 -0.7307
  575TMC3     C 8582   4.155   2.383  11.276  0.4203  0.3085 -0.3820
  575TMC3     O 8583   4.240   2.302  11.308  0.1117 -0.0051 -0.3084
  575TMC3     H 8584   4.075   2.137  11.317  1.8248  1.6054 -0.2068
  575TMC3    H1 8585   3.986   2.489  11.088 -0.9648  0.0812 -0.3033
  575TMC3    H2 8586   3.736   2.150  11.068  0.2869  0.2156  1.4126
  575TMC3    C7 8587   3.801   2.388  10.947  0.0326  0.0700 -0.3354
  575TMC3    C8 8588   3.895   1.988  11.198 -0.0480 -0.3189 -0.6364
  575TMC3    O1 8589   3.822   2.506  10.926 -0.2650 -0.3687 -0.3623
  575TMC3    O2 8590   3.847   1.934  11.102 -0.1547 -0.0734  0.0821
  576MPD2     C 8591   3.845   4.286  12.516 -0.1570 -0.3786 -0.1367
  576MPD2    C1 8592   3.945   4.331  12.426 -0.9103 -0.6798  0.4034
  576MPD2    C2 8593   3.955   4.475  12.405 -0.2340  0.0650  0.3942
  576MPD2    C3 8594   3.890   4.560  12.496  0.1257  0.7923 -0.5825
  576MPD2    C4 8595   3.799   4.508  12.593  0.2429  0.1761  0.6185
  576MPD2    C5 8596   3.778   4.374  12.596 -0.2752 -0.4036  0.0150
  576MPD2     H 8597   4.028   4.517  12.336 -1.3696  0.9927 -0.2462
  576MPD2    H1 8598   3.753   4.567  12.671 -2.9183 -1.2948 -0.1329
  576MPD2    H2 8599   3.820   4.180  12.517  1.9817 -0.8957 -2.6420
  576MPD2    H3 8600   3.701   4.333  12.661 -0.6120  1.2037  0.6220
  576MPD2     N 8601   3.909   4.701  12.476  0.3591 -0.9575  0.6798
  576MPD2    H5 8602   3.974   4.725  12.402 -1.0105 -1.0751 -0.5710
  576MPD2    N1 8603   4.025   4.251  12.338 -0.0047 -0.5150 -0.3587
  576MPD2    H7 8604   4.087   4.298  12.273 -0.4175  0.6991  0.1346
  577TMC3    C1 8605   4.134   4.061  12.259  0.3047  0.1293 -1.1883
  577TMC3    C2 8606   4.236   3.983  12.293  0.0557  0.3185  0.2658
  577TMC3    C3 8607   4.316   3.920  12.203  0.0664  1.0853 -0.3447
  577TMC3    C4 8608   4.111   4.091  12.130  0.3061  0.0906 -0.0094
  577TMC3    C5 8609   4.189   4.022  12.038  0.2467 -0.6743 -0.0924
  577TMC3    C6 8610   4.286   3.929  12.070  0.9074 -0.3297 -0.0934
  577TMC3     C 8611   4.045   4.117  12.355 -0.3523 -0.5151  0.2014
  577TMC3     O 8612   4.000   4.037  12.439 -0.0671 -0.1040  0.2196
  577TMC3     H 8613   4.258   3.965  12.398 -2.9489 -1.1093  0.6436
  577TMC3    H1 8614   4.030   4.157  12.103  0.2762  0.6965  1.5907
  577TMC3    H2 8615   4.348   3.889  11.991 -0.2565 -0.6826 -0.8333
  577TMC3    C7 8616   4.151   4.055  11.909  0.4588  0.1615  0.3878
  577TMC3    C8 8617   4.453   3.896  12.235 -0.0667 -0.3440  0.2424
  577TMC3    O1 8618   4.125   4.173  11.881  0.0168  0.7984  0.2633
  577TMC3    O2 8619   4.476   3.852  12.346 -0.1182  0.3918 -0.2199
  578MPD2     C 8620   3.656   4.352   1.138  0.4320 -0.1135  0.0845
  578MPD2    C1 8621   3.551   4.283   1.187  0.5598  0.4746  0.3706
  578MPD2    C2 8622   3.569   4.157   1.250  0.8145  0.3551  0.2779
  578MPD2    C3 8623   3.694   4.104   1.255  0.4880 -0.2479  0.2653
  578MPD2    C4 8624   3.801   4.168   1.200 -0.5648  0.1665  0.3361
  578MPD2    C5 8625   3.776   4.291   1.140  0.6124 -0.4408  0.3669
  578MPD2     H 8626   3.485   4.100   1.289  0.4149  0.5041 -0.3552
  578MPD2    H1 8627   3.899   4.121   1.195  1.1017  3.7331 -1.2865
  578MPD2    H2 8628   3.639   4.448   1.090  3.1721 -0.9912 -2.5911
  578MPD2    H3 8629   3.858   4.346   1.097 -0.4897  1.1104  0.2605
  578MPD2     N 8630   3.705   3.983   1.331  0.5773 -0.5333  0.2107
  578MPD2    H5 8631   3.620   3.953   1.378 -0.4851  0.5918 -0.9979
  578MPD2    N1 8632   3.422   4.351   1.183 -0.0931 -0.3337 -0.0885
  578MPD2    H7 8633   3.423   4.451   1.168  1.6636 -0.7909 -3.0288
  579TMC3    C1 8634   3.787   3.806   1.452  1.8502 -0.4539  0.5061
  579TMC3    C2 8635   3.902   3.771   1.517  0.1156  0.2946 -0.1146
  579TMC3    C3 8636   3.919   3.638   1.543  0.7829  0.7032  0.1344
  579TMC3    C4 8637   3.702   3.711   1.411 -0.6545 -0.1604 -0.0187
  579TMC3    C5 8638   3.724   3.579   1.438 -0.1247 -0.9537 -0.2290
  579TMC3    C6 8639   3.834   3.542   1.507  0.0796  0.1039  0.2060
  579TMC3     C 8640   3.814   3.921   1.367  0.7519 -0.0957 -0.0854
  579TMC3     O 8641   3.929   3.935   1.329 -0.0850 -0.0987 -0.9177
  579TMC3     H 8642   3.965   3.856   1.539 -1.1825  0.1097  4.3047
  579TMC3    H1 8643   3.616   3.730   1.348  0.2729  0.1270 -1.2201
  579TMC3    H2 8644   3.851   3.437   1.525 -1.2236 -0.2871 -0.9021
  579TMC3    C7 8645   3.654   3.479   1.362 -0.3795  0.3817  0.2630
  579TMC3    C8 8646   4.054   3.592   1.565  0.4951  0.1190  0.9231
  579TMC3    O1 8647   3.707   3.377   1.332  0.2077  0.4346 -0.4746
  579TMC3    O2 8648   4.068   3.490   1.632 -0.6312 -0.1041  0.6353
  580TMC3    C1 8649   2.606   3.381  12.424 -0.4662 -1.0292  0.8019
  580TMC3    C2 8650   2.719   3.400  12.341  0.5995  0.2434  0.5501
  580TMC3    C3 8651   2.821   3.309  12.358 -0.2396  0.2048 -0.5839
  580TMC3    C4 8652   2.602   3.290  12.527  0.2872  0.4169 -0.1635
  580TMC3    C5 8653   2.710   3.201  12.545 -0.3850 -0.1548 -0.1829
  580TMC3    C6 8654   2.811   3.209  12.457 -0.0972  0.1397  0.5026
  580TMC3     C 8655   2.486   3.455  12.383  0.5115  1.1425 -0.5594
  580TMC3     O 8656   2.497   3.530  12.289  0.1342  0.5075  0.2348
  580TMC3     H 8657   2.719   3.480  12.268  2.4828 -0.2538  0.0048
  580TMC3    H1 8658   2.523   3.289  12.602  1.5766  0.4622  1.2031
  580TMC3    H2 8659   2.903   3.158  12.483  0.3103  0.6074 -0.0231
  580TMC3    C7 8660   2.706   3.117  12.657 -0.0428  0.2824 -0.0815
  580TMC3    C8 8661   2.924   3.313  12.256  0.3867  0.0872 -0.0482
  580TMC3    O1 8662   2.631   3.155  12.746 -0.3817 -0.0165 -0.1785
  580TMC3    O2 8663   3.041   3.285  12.288  0.4641 -0.3170  0.3108
  581MPD2     C 8664   0.007   3.390  14.543  0.3378  0.2606  0.0766
  581MPD2    C1 8665   0.043   3.440  14.667 -0.2170  0.5023 -0.5817
  581MPD2    C2 8666   4.686   3.505  14.739 -0.4388 -0.2397  0.1720
  581MPD2    C3 8667   4.551   3.508  14.703  1.0371  0.7963  0.2783
  581MPD2    C4 8668   4.518   3.451  14.581 -0.1121  0.2479  0.4986
  581MPD2    C5 8669   4.621   3.410  14.506 -0.0923  0.5719  0.0202
  581MPD2     H 8670   4.701   3.542  14.840 -1.9520  1.7145 -0.3013
  581MPD2    H1 8671   4.418   3.465  14.544  0.1966 -1.0900 -0.8459
  581MPD2    H2 8672   0.072   3.339  14.472  0.9000  0.4345  0.4644
  581MPD2    H3 8673   4.593   3.375  14.407  1.3613 -0.3198 -0.0743
  581MPD2     N 8674   4.459   3.572  14.784  0.1684  0.0872  0.0004
  581MPD2    H5 8675   4.487   3.658  14.830  1.3881 -0.8557  1.0209
  581MPD2    N1 8676   0.177   3.411  14.717  0.2012  0.1566  0.3768
  581MPD2    H7 8677   0.241   3.357  14.661 -1.7470 -0.6988 -1.0537
  582TMC3    C1 8678   0.318   3.344  14.887 -0.1195  0.6027  0.4114
  582TMC3    C2 8679   0.382   3.375  15.004  0.3685  0.6191  0.0993
  582TMC3    C3 8680   0.394   3.285  15.105  0.6434 -0.4030 -0.2325
  582TMC3    C4 8681   0.252   3.224  14.886 -0.9466 -0.2659 -0.0625
  582TMC3    C5 8682   0.248   3.150  15.003 -0.2607 -0.0374 -0.5775
  582TMC3    C6 8683   0.326   3.164  15.107 -0.1933  0.1453  0.3168
  582TMC3     C 8684   0.226   3.444  14.843  0.3821  0.1582 -0.6102
  582TMC3     O 8685   0.167   3.498  14.935 -0.4209 -0.4704 -0.4422
  582TMC3     H 8686   0.432   3.471  15.015  2.3839 -0.6132  1.8660
  582TMC3    H1 8687   0.180   3.189  14.813 -0.6644  0.2360 -0.5761
  582TMC3    H2 8688   0.326   3.103  15.197  1.9808 -1.1135 -0.5258
  582TMC3    C7 8689   0.115   3.124  15.050 -0.2875  0.3044  0.1944
  582TMC3    C8 8690   0.455   3.330  15.229  0.1941 -0.0293  0.0528
  582TMC3    O1 8691   0.074   3.018  15.097  0.2561  0.1699 -0.4156
  582TMC3    O2 8692   0.393   3.426  15.282  0.4932  0.7511 -0.4070
  583MPD2     C 8693   0.575   0.028  16.833  0.0788 -0.5237 -0.5081
  583MPD2    C1 8694   0.568   0.165  16.804  0.5739 -0.0408  0.3515
  583MPD2    C2 8695   0.500   0.249  16.889  1.1796 -0.0813  0.4978
  583MPD2    C3 8696   0.448   0.203  17.003  0.0081  0.4101 -0.1761
  583MPD2    C4 8697   0.468   0.073  17.042  1.0228  0.1645  0.5181
  583MPD2    C5 8698   0.525   4.727  16.958  0.1965 -0.4116  0.0624
  583MPD2     H 8699   0.497   0.356  16.872 -1.7013  0.0239  1.7669
  583MPD2    H1 8700   0.423   0.041  17.136  0.1405 -1.1370 -0.3324
  583MPD2    H2 8701   0.626   4.687  16.782  0.6037 -0.5395  0.0329
  583MPD2    H3 8702   0.530   4.622  16.985  2.3179  0.2086  2.1241
  583MPD2     N 8703   0.374   0.288  17.091  0.4548  0.5293 -0.5045
  583MPD2    H5 8704   0.342   0.377  17.055 -2.6320 -0.7177 -0.8563
  583MPD2    N1 8705   0.627   0.228  16.692  0.1875  0.7490  0.7445
  583MPD2    H7 8706   0.607   0.327  16.679  0.4509  0.6672 -0.2843
  584TMC3    C1 8707   0.289   0.394  17.290  0.3104  0.0727  0.9913
  584TMC3    C2 8708   0.210   0.475  17.211 -0.1639  0.6261  0.0773
  584TMC3    C3 8709   0.153   0.584  17.275 -0.0742  0.2143 -0.0490
  584TMC3    C4 8710   0.306   0.415  17.426 -0.1646 -0.3120  0.1911
  584TMC3    C5 8711   0.245   0.525  17.481 -0.3964  0.1082  0.5025
  584TMC3    C6 8712   0.164   0.612  17.409  0.6123  0.2128  0.3206
  584TMC3     C 8713   0.350   0.274  17.230  0.2184 -0.6297 -0.3116
  584TMC3     O 8714   0.369   0.183  17.309  0.5589  0.6264 -0.1115
  584TMC3     H 8715   0.179   0.448  17.110  2.4846  1.7802 -1.0361
  584TMC3    H1 8716   0.366   0.340  17.476  2.4794 -0.0408 -2.5791
  584TMC3    H2 8717   0.103   0.688  17.455  1.0189  0.5067  0.3691
  584TMC3    C7 8718   0.262   0.539  17.624  0.2376  0.0294  0.6127
  584TMC3    C8 8719   0.066   0.679  17.205 -0.3721  0.2276  0.0742
  584TMC3    O1 8720   0.292   0.439  17.687 -0.9865 -1.0521  0.2288
  584TMC3    O2 8721   0.005   0.632  17.112  0.0444  0.0181  0.1011
  585MPD2     C 8722   3.943   3.893   0.318  0.1480 -0.3694 -0.7163
  585MPD2    C1 8723   4.004   3.966   0.225  0.1605  0.5426 -0.8451
  585MPD2    C2 8724   4.074   3.919   0.116 -0.3223  0.4002  0.2789
  585MPD2    C3 8725   4.073   3.787   0.099  0.2844 -0.2051  0.5545
  585MPD2    C4 8726   4.033   3.705   0.203  0.3834 -0.2618 -0.3244
  585MPD2    C5 8727   3.963   3.759   0.316 -0.3455  0.0869  0.2087
  585MPD2     H 8728   4.125   3.987   0.048  2.1394 -2.5545 -0.8222
  585MPD2    H1 8729   4.038   3.598   0.192 -0.1938 -0.3322  0.1063
  585MPD2    H2 8730   3.894   3.937   0.404 -2.4549 -0.1992 -2.2635
  585MPD2    H3 8731   3.940   3.690   0.396 -0.1355  1.0353  1.0843
  585MPD2     N 8732   4.136   3.725  17.750  0.5054 -0.0362  0.7364
  585MPD2    H5 8733   4.124   3.626  17.735  0.4358  0.1624 -0.5730
  585MPD2    N1 8734   3.984   4.106   0.244  0.0203  0.6221  0.9595
  585MPD2    H7 8735   3.933   4.132   0.328  2.1842  0.1734  2.4098
  586TMC3    C1 8736   4.239   3.684  17.550 -0.2916 -0.4915  0.4005
  586TMC3    C2 8737   4.352   3.693  17.479 -0.6667 -0.1234 -0.1179
  586TMC3    C3 8738   4.376   3.603  17.375  0.5729 -0.3573  0.1896
  586TMC3    C4 8739   4.141   3.591  17.516  0.2180 -0.3887 -0.1518
  586TMC3    C5 8740   4.162   3.509  17.408 -0.2685  0.3841 -0.0273
  586TMC3    C6 8741   4.279   3.512  17.339 -0.5943 -0.2094 -0.6972
  586TMC3     C 8742   4.198   3.789  17.645 -0.1112 -0.6242 -0.4180
  586TMC3     O 8743   4.241   3.902  17.626 -0.1372  0.0250 -0.7028
  586TMC3     H 8744   4.425   3.768  17.507  0.8347 -1.9440  0.8867
  586TMC3    H1 8745   4.038   3.597  17.551  0.1435 -0.7116 -0.3171
  586TMC3    H2 8746   4.286   3.445  17.254 -1.6994 -0.4280 -0.6189
  586TMC3    C7 8747   4.050   3.429  17.354  0.1954  0.4239 -1.0409
  586TMC3    C8 8748   4.492   3.615  17.295 -0.1940 -0.0220 -0.3387
  586TMC3    O1 8749   3.937   3.460  17.394  0.4773  0.0130  0.0705
  586TMC3    O2 8750   4.574   3.707  17.318  0.3162 -0.4633  0.1440
  587TMC3    C1 8751   1.557   2.905  15.871 -0.1247  0.0106 -0.1312
  587TMC3    C2 8752   1.589   3.013  15.949 -0.6303 -0.3581 -0.3193
  587TMC3    C3 8753   1.720   3.030  15.971 -0.6196 -0.5127  0.6381
  587TMC3    C4 8754   1.646   2.822  15.812  0.0885  0.3410 -0.0600
  587TMC3    C5 8755   1.779   2.854  15.831 -0.4131 -0.3486 -0.7961
  587TMC3    C6 8756   1.815   2.945  15.925 -0.4288  0.3877 -1.0662
  587TMC3     C 8757   1.419   2.872  15.848 -0.2587  0.8780  0.0240
  587TMC3     O 8758   1.342   2.904  15.937  0.5465  0.1249 -0.0746
  587TMC3     H 8759   1.520   3.095  15.961 -0.5823 -0.6391  1.8472
  587TMC3    H1 8760   1.620   2.734  15.754  1.4269  0.2834 -0.5717
  587TMC3    H2 8761   1.918   2.960  15.952 -0.8591  1.3083  0.0860
  587TMC3    C7 8762   1.872   2.753  15.803  0.5276  0.2576 -0.4118
  587TMC3    C8 8763   1.770   3.168  15.997  0.2040 -0.3357  0.2547
  587TMC3    O1 8764   1.821   2.646  15.777 -0.0763 -0.1608 -0.3183
  587TMC3    O2 8765   1.874   3.204  15.945  0.2388  0.5928  0.0699
  588TMC3    C1 8766   3.810   0.127  10.018 -0.6656 -0.2240  0.0486
  588TMC3    C2 8767   3.852   0.029   9.930  0.4515  0.0664 -0.8759
  588TMC3    C3 8768   3.942   4.684   9.962  0.1452  0.7016  0.5666
  588TMC3    C4 8769   3.867   0.139  10.142 -0.4551  0.3831 -0.2021
  588TMC3    C5 8770   3.975   0.056  10.172 -0.1423  0.3243 -0.4353
  588TMC3    C6 8771   4.011   4.699  10.079 -0.1288 -0.2429  0.0485
  588TMC3     C 8772   3.703   0.217   9.989  0.6455  0.5048 -0.9285
  588TMC3     O 8773   3.638   0.198   9.891 -0.3875  0.6259 -0.5550
  588TMC3     H 8774   3.785   0.006   9.847  0.4432 -1.8619 -0.3288
  588TMC3    H1 8775   3.836   0.198  10.227 -0.5719  0.5528 -0.3615
  588TMC3    H2 8776   4.097   4.634  10.093  0.2569 -0.1982 -2.2786
  588TMC3    C7 8777   4.087   0.120  10.247  0.2193 -0.0126 -0.7704
  588TMC3    C8 8778   3.914   4.558   9.903  0.1545  0.1125 -0.4743
  588TMC3    O1 8779   4.196   0.097  10.202 -0.2450  0.1347 -0.2612
  588TMC3    O2 8780   3.899   4.552   9.781 -0.2265 -0.1818  0.5343
  589TMC3    C1 8781   3.546   1.894   0.446  0.0116 -0.4062 -0.1476
  589TMC3    C2 8782   3.637   1.951   0.533 -1.3371  0.1346 -0.5343
  589TMC3    C3 8783   3.722   1.868   0.604  0.3910 -0.1089 -0.4726
  589TMC3    C4 8784   3.549   1.757   0.419  0.2667 -0.0526  0.2400
  589TMC3    C5 8785   3.617   1.681   0.508 -0.9728 -0.6924  0.4035
  589TMC3    C6 8786   3.705   1.728   0.606  0.8486 -0.8604 -0.6064
  589TMC3     C 8787   3.424   1.962   0.415 -0.3880 -0.2261  0.4679
  589TMC3     O 8788   3.348   1.922   0.334 -0.1684  0.1696  0.0553
  589TMC3     H 8789   3.643   2.059   0.541 -1.2276 -0.0066  1.2406
  589TMC3    H1 8790   3.479   1.717   0.346 -1.0052  1.4493  0.6381
  589TMC3    H2 8791   3.767   1.659   0.662  1.4595  1.0155  1.0263
  589TMC3    C7 8792   3.577   1.545   0.527  0.3126 -0.3140 -0.7344
  589TMC3    C8 8793   3.798   1.924   0.717 -0.0836  0.4857 -0.9003
  589TMC3    O1 8794   3.523   1.492   0.429 -0.5778  0.2161 -0.2292
  589TMC3    O2 8795   3.827   1.844   0.806  0.3793  0.2223  0.8354
  590MPD2     C 8796   2.523   1.557  17.050 -0.0877  0.2467 -0.0418
  590MPD2    C1 8797   2.474   1.545  16.925  0.1427  0.0603 -0.9003
  590MPD2    C2 8798   2.540   1.608  16.824 -0.3764  0.0611  0.5633
  590MPD2    C3 8799   2.658   1.670  16.843  0.8677  0.0851 -0.1886
  590MPD2    C4 8800   2.717   1.677  16.967 -0.0343  0.0619  0.2632
  590MPD2    C5 8801   2.642   1.622  17.073  0.2882  0.2764  0.1101
  590MPD2     H 8802   2.500   1.611  16.723  0.7810 -4.0770 -0.0101
  590MPD2    H1 8803   2.809   1.733  16.977 -0.0520  0.0708  0.3793
  590MPD2    H2 8804   2.469   1.523  17.138  0.8840 -0.5740  0.2296
  590MPD2    H3 8805   2.667   1.624  17.179 -0.0739  1.6180  0.1663
  590MPD2     N 8806   2.713   1.729  16.728  0.7550 -0.0221 -0.0231
  590MPD2    H5 8807   2.661   1.736  16.641 -0.6194  0.1159  0.8123
  590MPD2    N1 8808   2.338   1.499  16.905 -0.0846  0.4331 -0.2560
  590MPD2    H7 8809   2.275   1.496  16.984  0.7862  0.9842  0.4580
  591TMC3    C1 8810   2.888   1.796  16.585 -0.2357 -0.1460  0.2996
  591TMC3    C2 8811   2.972   1.712  16.518 -0.3757 -0.2284 -0.4695
  591TMC3    C3 8812   2.979   1.717  16.385  0.1488  0.2501 -0.1720
  591TMC3    C4 8813   2.800   1.871  16.515 -0.4105  0.1130 -0.0459
  591TMC3    C5 8814   2.813   1.867  16.376 -0.3498 -0.9827  0.3260
  591TMC3    C6 8815   2.901   1.795  16.311 -0.7217  0.2863 -0.1867
  591TMC3     C 8816   2.845   1.755  16.716 -0.0309 -0.4248 -0.3287
  591TMC3     O 8817   2.939   1.715  16.782 -0.6526  0.0531  0.1116
  591TMC3     H 8818   3.049   1.657  16.572 -0.2835 -0.6772 -1.0526
  591TMC3    H1 8819   2.718   1.914  16.570 -0.3342 -0.0735  0.2112
  591TMC3    H2 8820   2.905   1.783  16.203  2.6362  1.1879 -0.1449
  591TMC3    C7 8821   2.732   1.955  16.295 -0.5939 -0.7259 -0.2545
  591TMC3    C8 8822   3.053   1.613  16.322 -0.1924  0.6270  0.7214
  591TMC3    O1 8823   2.618   1.972  16.330 -0.1979  0.2040 -0.4954
  591TMC3    O2 8824   3.099   1.641  16.211  0.0950 -0.0175 -0.1539
  592MPD2     C 8825   3.039   2.701  11.575 -0.1758  0.5309  0.1683
  592MPD2    C1 8826   3.128   2.733  11.676  0.1521  0.5628  0.1813
  592MPD2    C2 8827   3.142   2.635  11.780  0.5076  0.2794 -0.3016
  592MPD2    C3 8828   3.066   2.524  11.787 -0.0247 -0.1647  0.3166
  592MPD2    C4 8829   2.980   2.492  11.684  0.9247 -1.0541 -0.0079
  592MPD2    C5 8830   2.978   2.580  11.572  0.5585  0.0955 -0.1173
  592MPD2     H 8831   3.216   2.646  11.858  1.2119 -2.8860 -0.5502
  592MPD2    H1 8832   2.932   2.397  11.663  1.4625 -1.2192 -0.5006
  592MPD2    H2 8833   3.024   2.774  11.496 -1.5303  0.0148 -0.0556
  592MPD2    H3 8834   2.922   2.548  11.485  0.9543  0.2902 -0.4463
  592MPD2     N 8835   3.081   2.440  11.902  0.3627 -0.3247 -0.3098
  592MPD2    H5 8836   3.141   2.465  11.979  3.3058 -0.7383 -2.4637
  592MPD2    N1 8837   3.187   2.865  11.672  0.6760  0.5794 -0.3064
  592MPD2    H7 8838   3.146   2.933  11.608  2.4232  1.9690  0.0744
  593TMC3    C1 8839   3.349   3.036  11.707 -0.3372  0.2480  0.7967
  593TMC3    C2 8840   3.413   3.085  11.813 -0.4481 -0.6599  0.2997
  593TMC3    C3 8841   3.430   3.222  11.830 -0.1876  0.0822  1.3474
  593TMC3    C4 8842   3.293   3.118  11.613 -0.9650 -0.7553  0.0262
  593TMC3    C5 8843   3.305   3.256  11.626 -0.1075 -0.9629 -0.2107
  593TMC3    C6 8844   3.388   3.312  11.729  0.5649 -0.8413  0.3149
  593TMC3     C 8845   3.307   2.896  11.727  0.3505  0.1899 -0.3435
  593TMC3     O 8846   3.382   2.829  11.792  0.3592 -0.0174  0.0980
  593TMC3     H 8847   3.441   3.026  11.900 -0.2461  0.6814  1.1455
  593TMC3    H1 8848   3.277   3.081  11.512 -0.9089  1.8819 -0.9519
  593TMC3    H2 8849   3.397   3.419  11.743  0.8695 -0.4967 -2.4787
  593TMC3    C7 8850   3.261   3.349  11.529  0.1256 -0.1624 -0.9636
  593TMC3    C8 8851   3.407   3.271  11.968  0.4428  0.1785 -0.1885
  593TMC3    O1 8852   3.287   3.467  11.547  0.1301  0.5955  0.1824
  593TMC3    O2 8853   3.348   3.195  12.043 -0.6493  0.3623  0.4823
  594MPD2     C 8854   1.770   2.061  14.077 -1.3130  0.1336  0.3679
  594MPD2    C1 8855   1.827   2.031  14.196 -0.3541  0.0413 -0.7282
  594MPD2    C2 8856   1.937   2.095  14.234  0.2334  0.3348 -0.1257
  594MPD2    C3 8857   1.994   2.188  14.158  0.3461 -0.2540 -0.1388
  594MPD2    C4 8858   1.942   2.220  14.035  0.2537  0.0159 -0.2957
  594MPD2    C5 8859   1.818   2.159  14.001  0.4671 -0.3251 -0.1884
  594MPD2     H 8860   1.986   2.075  14.328  2.8044  0.5935 -1.3878
  594MPD2    H1 8861   1.985   2.296  13.970  1.3690 -0.4175 -0.0784
  594MPD2    H2 8862   1.670   2.028  14.051 -1.1174  0.9961 -1.4780
  594MPD2    H3 8863   1.774   2.200  13.911 -0.9199  0.8594  1.0311
  594MPD2     N 8864   2.101   2.258  14.214 -0.5780  0.0189  0.7776
  594MPD2    H5 8865   2.125   2.231  14.309  2.6983 -2.7010 -0.8211
  594MPD2    N1 8866   1.757   1.938  14.280 -0.2253  0.2274  0.0751
  594MPD2    H7 8867   1.659   1.928  14.256 -0.6228  0.4981  1.5881
  595TMC3    C1 8868   2.417   2.605  14.211  0.2141  0.0619  0.1876
  595TMC3    C2 8869   2.381   2.475  14.168 -0.0371 -0.0246  0.3222
  595TMC3    C3 8870   2.271   2.424  14.225 -0.7797  0.1816  0.4842
  595TMC3    C4 8871   2.353   2.668  14.315 -0.2578  0.2669 -0.1541
  595TMC3    C5 8872   2.260   2.598  14.380  0.0599 -0.9953 -0.2155
  595TMC3    C6 8873   2.206   2.480  14.332  0.2670 -1.0103 -0.0069
  595TMC3     C 8874   2.559   2.618  14.203 -0.5322  0.0450 -0.6542
  595TMC3     O 8875   2.629   2.518  14.197 -0.0485 -0.4027 -0.2809
  595TMC3     H 8876   2.423   2.433  14.077 -2.0338  1.2052 -1.1819
  595TMC3    H1 8877   2.397   2.759  14.354 -1.6743  0.8698  0.0318
  595TMC3    H2 8878   2.121   2.432  14.379  0.8116 -1.1737  0.8050
  595TMC3    C7 8879   2.209   2.656  14.502 -0.2812  0.5264  0.6183
  595TMC3    C8 8880   2.186   2.343  14.146 -0.8535  0.4551  0.1535
  595TMC3    O1 8881   2.091   2.637  14.521 -0.3464 -0.1146 -0.1702
  595TMC3    O2 8882   2.200   2.351  14.026 -0.0308 -0.2755 -0.3165
  596MPD2     C 8883   1.236   0.151  17.021  0.5002 -1.0352  0.3671
  596MPD2    C1 8884   1.246   0.283  16.975 -0.0401 -0.6557 -0.0964
  596MPD2    C2 8885   1.317   0.312  16.860 -1.0137  0.0268 -0.2379
  596MPD2    C3 8886   1.384   0.213  16.792  0.4821 -0.8541 -0.1321
  596MPD2    C4 8887   1.370   0.083  16.841  0.0053  0.6407  0.6855
  596MPD2    C5 8888   1.293   0.057  16.950 -0.3423 -0.1180 -0.0332
  596MPD2     H 8889   1.311   0.409  16.811 -0.9224  0.7202  1.1094
  596MPD2    H1 8890   1.417   0.002  16.787 -1.5550  2.0017 -2.7460
  596MPD2    H2 8891   1.192   0.128  17.117 -2.7739  2.7311 -0.2031
  596MPD2    H3 8892   1.286   4.693  16.980  1.2645 -0.0101  0.7475
  596MPD2     N 8893   1.443   0.228  16.662  0.2366  0.2654 -0.0484
  596MPD2    H5 8894   1.485   0.145  16.621  0.8125 -0.3772  1.8507
  596MPD2    N1 8895   1.188   0.395  17.035 -0.6968  0.3794 -0.0512
  596MPD2    H7 8896   1.205   0.483  16.987  0.3138  0.6188  0.7334
  597TMC3    C1 8897   1.065   0.545  17.187 -0.3812 -0.1550 -0.7239
  597TMC3    C2 8898   1.110   0.652  17.118 -0.5137  0.3092 -0.1266
  597TMC3    C3 8899   1.052   0.767  17.140  0.0378 -0.2167  0.5428
  597TMC3    C4 8900   0.962   0.559  17.277 -0.1082  0.3085  0.1344
  597TMC3    C5 8901   0.902   0.684  17.295 -0.1618 -0.3466  0.6128
  597TMC3    C6 8902   0.941   0.789  17.216 -0.1753 -0.5120 -1.3530
  597TMC3     C 8903   1.107   0.410  17.149  0.2584  0.8899 -0.4087
  597TMC3     O 8904   1.090   0.329  17.236  0.3257 -0.5401  0.2586
  597TMC3     H 8905   1.188   0.643  17.043  0.6574  1.6442  0.8951
  597TMC3    H1 8906   0.938   0.482  17.350 -0.3372 -0.6546 -0.9608
  597TMC3    H2 8907   0.901   0.890  17.225 -2.2568 -1.3362 -1.3415
  597TMC3    C7 8908   0.809   0.688  17.404 -0.1398  0.3926 -0.5837
  597TMC3    C8 8909   1.098   0.890  17.074 -0.2636  0.2799  0.3713
  597TMC3    O1 8910   0.820   0.600  17.491  0.3737  0.6277 -0.2176
  597TMC3    O2 8911   1.023   0.985  17.056 -0.2233 -0.0780 -0.1868
  598TMC3    C1 8912   3.602   1.735  15.259  0.3322 -0.3010  0.6242
  598TMC3    C2 8913   3.467   1.722  15.283  0.2453 -0.6293  0.1177
  598TMC3    C3 8914   3.392   1.725  15.169  0.2454  0.1580 -0.2901
  598TMC3    C4 8915   3.657   1.773  15.140 -0.4840  0.0040 -0.1616
  598TMC3    C5 8916   3.579   1.764  15.030 -0.2543  0.0526  0.5204
  598TMC3    C6 8917   3.444   1.744  15.038 -0.1392  0.5779  0.4563
  598TMC3     C 8918   3.684   1.707  15.376  0.4049 -0.3096 -0.3191
  598TMC3     O 8919   3.629   1.660  15.470 -0.1215  0.1465  0.7074
  598TMC3     H 8920   3.433   1.710  15.385  1.8390  2.8725  1.0567
  598TMC3    H1 8921   3.764   1.771  15.121  0.1060  1.4220  2.9502
  598TMC3    H2 8922   3.376   1.756  14.954  0.0109  0.0176  0.2491
  598TMC3    C7 8923   3.624   1.803  14.897  0.3623 -0.1520  0.4387
  598TMC3    C8 8924   3.251   1.704  15.181 -0.0125 -0.8807 -0.2504
  598TMC3    O1 8925   3.549   1.763  14.810 -0.0147 -0.0031 -0.2331
  598TMC3    O2 8926   3.192   1.651  15.085 -0.2920 -0.4586 -0.7000
  599MPD2     C 8927   3.619   3.326  15.435 -0.3158  0.2047 -0.1053
  599MPD2    C1 8928   3.736   3.322  15.512 -0.5897  0.0417 -0.3604
  599MPD2    C2 8929   3.721   3.308  15.648  0.8022 -0.1116 -0.0305
  599MPD2    C3 8930   3.592   3.300  15.703 -0.2510 -0.0889  0.8839
  599MPD2    C4 8931   3.482   3.293  15.627 -0.3727  0.2005 -0.1598
  599MPD2    C5 8932   3.494   3.298  15.490  0.0907  0.1214 -0.0326
  599MPD2     H 8933   3.807   3.311  15.714 -0.4043  1.1006  1.5261
  599MPD2    H1 8934   3.386   3.287  15.677  0.5321  2.3607  1.8605
  599MPD2    H2 8935   3.633   3.356  15.332  0.7834 -0.0897 -0.0505
  599MPD2    H3 8936   3.404   3.300  15.429 -0.1215  0.5034  0.2917
  599MPD2     N 8937   3.577   3.307  15.845 -0.5860 -0.6168 -0.3535
  599MPD2    H5 8938   3.486   3.286  15.885  1.0996 -0.3813  3.6598
  599MPD2    N1 8939   3.861   3.352  15.452  0.2318 -0.2783 -0.0735
  599MPD2    H7 8940   3.862   3.384  15.356 -0.4714 -1.4793 -0.4732
  600TMC3    C1 8941   3.633   3.346  16.068  0.4564  0.0209 -0.2737
  600TMC3    C2 8942   3.534   3.268  16.118  0.7689  0.3564  0.9621
  600TMC3    C3 8943   3.488   3.285  16.242 -0.9138  0.0943  0.8857
  600TMC3    C4 8944   3.671   3.457  16.133 -0.3977 -0.2283 -0.4188
  600TMC3    C5 8945   3.608   3.478  16.255  0.4050  0.3324  0.5191
  600TMC3    C6 8946   3.516   3.398  16.310 -0.0050  0.7205  0.5693
  600TMC3     C 8947   3.681   3.335  15.926 -0.1419  0.3061 -0.4509
  600TMC3     O 8948   3.785   3.395  15.906 -0.1247 -0.4779  0.2379
  600TMC3     H 8949   3.498   3.176  16.074 -0.9193  1.2557  0.4475
  600TMC3    H1 8950   3.749   3.525  16.101 -0.3073  0.4993  1.3616
  600TMC3    H2 8951   3.467   3.418  16.405 -0.6246  0.0437  0.3958
  600TMC3    C7 8952   3.645   3.601  16.336 -0.4828  0.4719 -0.6124
  600TMC3    C8 8953   3.364   3.218  16.276 -0.1250 -0.1013 -0.8143
  600TMC3    O1 8954   3.590   3.612  16.446 -0.1383  0.2802  0.0524
  600TMC3    O2 8955   3.362   3.099  16.301 -0.3037 -0.1980  0.5353
  601MPD2     C 8956   1.384   2.250   0.104 -0.3169 -0.5222 -0.4911
  601MPD2    C1 8957   1.247   2.243   0.127  0.0250  0.2994  0.6425
  601MPD2    C2 8958   1.194   2.157   0.227 -0.4596  0.2759  0.2550
  601MPD2    C3 8959   1.278   2.090   0.310  0.1635 -0.3332 -0.2208
  601MPD2    C4 8960   1.411   2.107   0.289  0.5624  0.3312 -0.0699
  601MPD2    C5 8961   1.462   2.175   0.186 -0.0049  0.8113 -0.1685
  601MPD2     H 8962   1.086   2.163   0.237 -0.3470 -0.2408  1.7629
  601MPD2    H1 8963   1.478   2.055   0.357  1.9069  2.1162 -0.0293
  601MPD2    H2 8964   1.423   2.324   0.036  3.1229 -0.2761  1.7628
  601MPD2    H3 8965   1.568   2.192   0.175 -0.0802  0.0517 -2.0034
  601MPD2     N 8966   1.236   2.012   0.423  0.2442  0.0776  0.4869
  601MPD2    H5 8967   1.305   1.966   0.481  1.7199  2.4795  0.6049
  601MPD2    N1 8968   1.155   2.327   0.055  0.5474 -0.4513 -0.2474
  601MPD2    H7 8969   1.055   2.306   0.056  0.2042  1.2395 -0.0722
  602TMC3    C1 8970   1.080   2.512  17.683  0.0492 -0.1928 -0.4033
  602TMC3    C2 8971   1.129   2.634  17.623  0.2363 -0.0361 -0.2236
  602TMC3    C3 8972   1.074   2.677  17.505  0.0270 -0.4245 -0.1991
  602TMC3    C4 8973   0.973   2.454  17.624 -0.3309 -0.0263 -0.1030
  602TMC3    C5 8974   0.914   2.511  17.511  0.0856  0.1617  0.4135
  602TMC3    C6 8975   0.966   2.623  17.448 -0.2753 -0.1728  0.2023
  602TMC3     C 8976   1.186   2.439  17.741 -0.3137  0.2411 -0.2570
  602TMC3     O 8977   1.297   2.491  17.727  0.0640  0.2396  0.1163
  602TMC3     H 8978   1.213   2.688  17.665 -0.1368  1.2733 -1.1775
  602TMC3    H1 8979   0.937   2.356  17.651 -3.3965  1.0583 -0.1934
  602TMC3    H2 8980   0.916   2.674  17.366 -1.0935 -1.5046 -0.1236
  602TMC3    C7 8981   0.834   2.422  17.439 -0.3932  0.2838  0.2846
  602TMC3    C8 8982   1.156   2.770  17.426 -0.0928 -0.7932  0.8841
  602TMC3    O1 8983   0.791   2.319  17.484  0.2819  0.1380  0.4718
  602TMC3    O2 8984   1.196   2.874  17.478 -0.1627  0.5293  0.2968
  603TMC3    C1 8985   3.322   2.487  11.111  0.2452 -0.1913  0.4533
  603TMC3    C2 8986   3.424   2.448  11.194 -0.0244  0.1091  0.9397
  603TMC3    C3 8987   3.535   2.529  11.199 -0.1318  0.5698  0.2914
  603TMC3    C4 8988   3.335   2.592  11.024  0.4567  0.3967 -0.8147
  603TMC3    C5 8989   3.455   2.649  11.017  0.5983  0.0494 -0.1854
  603TMC3    C6 8990   3.557   2.625  11.104  0.1614 -0.5556  0.5846
  603TMC3     C 8991   3.192   2.428  11.139  0.5013 -0.4352  0.1552
  603TMC3     O 8992   3.093   2.480  11.096 -0.1284 -0.3050  0.2192
  603TMC3     H 8993   3.412   2.373  11.270  0.1053  1.0290  1.8743
  603TMC3    H1 8994   3.243   2.639  10.991 -0.7438 -0.6428  1.0113
  603TMC3    H2 8995   3.660   2.657  11.092  0.1498 -1.1781 -1.1728
  603TMC3    C7 8996   3.489   2.740  10.906 -0.3437  0.2332 -0.2614
  603TMC3    C8 8997   3.638   2.507  11.298 -0.4352 -0.4869 -0.6313
  603TMC3    O1 8998   3.581   2.816  10.928  0.8844 -0.1895 -0.6759
  603TMC3    O2 8999   3.643   2.399  11.350  0.6153 -0.2931 -0.2938
  604MPD2     C 9000   0.173   1.541  16.836  0.5160  0.5315 -0.3108
  604MPD2    C1 9001   0.070   1.527  16.752  0.9526  0.3908  0.1866
  604MPD2    C2 9002   0.089   1.486  16.622 -0.4322 -0.3807 -0.1375
  604MPD2    C3 9003   0.215   1.446  16.584 -0.0513  1.2936  0.2781
  604MPD2    C4 9004   0.325   1.457  16.675 -0.8520  0.4401 -0.5533
  604MPD2    C5 9005   0.305   1.518  16.797  0.8255  0.0858 -0.7020
  604MPD2     H 9006   0.007   1.496  16.553 -0.1146 -0.1855 -0.4893
  604MPD2    H1 9007   0.430   1.436  16.656 -1.6290 -1.4454 -2.6834
  604MPD2    H2 9008   0.163   1.587  16.933 -0.5302 -1.0819  0.3554
  604MPD2    H3 9009   0.377   1.529  16.878 -0.5005 -0.6930  0.5924
  604MPD2     N 9010   0.239   1.419  16.446  0.1236  0.1487 -0.2049
  604MPD2    H5 9011   0.163   1.412  16.379  0.6561  0.5085 -0.8483
  604MPD2    N1 9012   4.689   1.588  16.783  0.3159  0.3873  0.3367
  604MPD2    H7 9013   4.697   1.649  16.864  1.3375  0.5759  0.1019
  605TMC3    C1 9014   4.466   1.649  16.791  0.1406  0.0027  0.6481
  605TMC3    C2 9015   4.497   1.728  16.898 -0.5231 -0.7300  0.2786
  605TMC3    C3 9016   4.408   1.835  16.923 -0.2884  0.8213  0.2209
  605TMC3    C4 9017   4.356   1.678  16.711  0.4088  0.7783  0.2091
  605TMC3    C5 9018   4.277   1.786  16.741 -0.0314  0.0008 -0.4148
  605TMC3    C6 9019   4.298   1.868  16.846  0.4037  0.1651  0.5160
  605TMC3     C 9020   4.564   1.569  16.727 -0.2483 -0.0010 -0.4443
  605TMC3     O 9021   4.529   1.496  16.637  0.2237 -0.4433  0.9165
  605TMC3     H 9022   4.576   1.719  16.971 -1.1695  4.0091  1.5499
  605TMC3    H1 9023   4.340   1.614  16.625  2.3178  0.2210  0.2704
  605TMC3    H2 9024   4.231   1.949  16.873  1.3008  1.4492 -1.1130
  605TMC3    C7 9025   4.143   1.780  16.697  0.2377  0.1567  0.1382
  605TMC3    C8 9026   4.478   1.942  16.989  0.8320  0.7429 -0.4324
  605TMC3    O1 9027   4.067   1.858  16.748 -0.0300  0.5846 -0.2038
  605TMC3    O2 9028   4.541   1.921  17.094 -0.1063  0.5523 -0.4636
  606TMC3    C1 9029   0.963   0.149  17.650  0.3356 -0.7431  0.6825
  606TMC3    C2 9030   0.940   0.080   0.007 -0.2488 -0.0245  0.3141
  606TMC3    C3 9031   0.922   4.688  17.757  0.2913 -0.5079  0.2150
  606TMC3    C4 9032   0.962   0.088  17.527 -0.2602  0.4282  1.0933
  606TMC3    C5 9033   0.948   4.690  17.527  0.4089 -0.2703 -0.2213
  606TMC3    C6 9034   0.927   4.618  17.641  0.5890 -0.3412  0.0098
  606TMC3     C 9035   0.977   0.291  17.657  0.3191  0.2239  0.1523
  606TMC3     O 9036   0.921   0.354  17.570 -0.6719  0.1935 -0.4018
  606TMC3     H 9037   0.932   0.137   0.100 -0.6325  1.1294 -0.4276
  606TMC3    H1 9038   0.978   0.139  17.433  1.7083 -0.1226  1.1213
  606TMC3    H2 9039   0.922   4.510  17.639  0.3677 -0.2838 -2.4308
  606TMC3    C7 9040   0.988   4.619  17.411 -0.3784  0.4585 -0.4769
  606TMC3    C8 9041   0.958   4.616   0.119  1.0102 -1.1146 -0.2178
  606TMC3    O1 9042   1.060   4.680  17.337  0.2887 -0.2311 -0.4820
  606TMC3    O2 9043   0.903   4.632   0.226  0.1630 -0.1154  0.1222
  607MPD2     C 9044   3.381   2.277  11.926 -0.3116 -0.1635  0.1383
  607MPD2    C1 9045   3.435   2.393  11.988 -0.3241 -0.3343 -1.0549
  607MPD2    C2 9046   3.437   2.396  12.124 -0.4851  0.9509  0.3178
  607MPD2    C3 9047   3.395   2.289  12.206  0.5166  0.1328 -0.2885
  607MPD2    C4 9048   3.350   2.170  12.149  0.1390 -0.4602  0.3910
  607MPD2    C5 9049   3.340   2.171  12.006 -0.8999  0.1496  0.2690
  607MPD2     H 9050   3.489   2.484  12.161 -1.7969  1.5488  0.7258
  607MPD2    H1 9051   3.342   2.076  12.201 -0.1558 -0.8877 -0.4186
  607MPD2    H2 9052   3.358   2.263  11.821 -0.3280  0.0206  0.1172
  607MPD2    H3 9053   3.313   2.088  11.942 -0.3710  1.0089 -1.0745
  607MPD2     N 9054   3.444   2.289  12.343  0.4751 -0.4327 -0.3620
  607MPD2    H5 9055   3.488   2.375  12.374  1.2986 -0.8226 -0.4541
  607MPD2    N1 9056   3.503   2.494  11.914 -0.5394 -0.3138  0.3825
  607MPD2    H7 9057   3.543   2.573  11.963 -1.7846  0.6820 -0.2014
  608TMC3    C1 9058   3.614   2.625  11.756 -0.0302  0.2291 -0.0515
  608TMC3    C2 9059   3.692   2.662  11.858 -0.1685 -0.4269 -0.2406
  608TMC3    C3 9060   3.756   2.783  11.847 -0.5828  0.8178 -0.5965
  608TMC3    C4 9061   3.616   2.686  11.633  0.1968  0.0175  0.5408
  608TMC3    C5 9062   3.675   2.807  11.624 -0.0661 -0.0443 -0.4009
  608TMC3    C6 9063   3.743   2.861  11.732  0.3072  0.2533  0.4692
  608TMC3     C 9064   3.518   2.516  11.778  0.5232 -0.0500 -0.1692
  608TMC3     O 9065   3.478   2.450  11.682  0.5529  0.4957 -0.1151
  608TMC3     H 9066   3.727   2.593  11.934  0.7126  0.2184 -0.0610
  608TMC3    H1 9067   3.545   2.647  11.562  0.9164  1.2286 -0.8434
  608TMC3    H2 9068   3.782   2.962  11.730 -1.6737  1.0012 -0.2160
  608TMC3    C7 9069   3.610   2.897  11.532 -0.4900 -0.1265  1.0794
  608TMC3    C8 9070   3.820   2.840  11.959  0.3055  0.2047  0.5796
  608TMC3    O1 9071   3.529   2.852  11.447 -0.0995  0.4587 -0.2174
  608TMC3    O2 9072   3.909   2.920  11.936  0.0622 -0.1731 -0.2868
  609TMC3    C1 9073   1.478   0.890   9.857  0.3249 -0.0400 -0.2752
  609TMC3    C2 9074   1.424   0.808   9.759  0.1235 -0.0116  0.2494
  609TMC3    C3 9075   1.516   0.750   9.674  0.2341 -0.1893  0.1846
  609TMC3    C4 9076   1.603   0.923   9.880 -0.6552  0.6804 -0.1827
  609TMC3    C5 9077   1.696   0.864   9.792 -0.8085  0.4255 -0.5997
  609TMC3    C6 9078   1.651   0.782   9.687 -0.3600 -0.6485 -0.1571
  609TMC3     C 9079   1.383   0.952   9.945 -0.6978 -0.7336 -1.4205
  609TMC3     O 9080   1.284   0.887   9.970 -0.3040  0.8256  0.0223
  609TMC3     H 9081   1.316   0.799   9.756 -0.1040  2.5687  0.7934
  609TMC3    H1 9082   1.637   0.969   9.972 -0.5486  1.4253 -0.5935
  609TMC3    H2 9083   1.715   0.744   9.609 -1.1322 -0.1398 -1.0376
  609TMC3    C7 9084   1.839   0.872   9.834 -0.0012 -0.0072  0.1220
  609TMC3    C8 9085   1.476   0.746   9.535 -0.7475  0.0910 -0.8743
  609TMC3    O1 9086   1.868   0.967   9.906 -0.3470 -0.5851 -0.2295
  609TMC3    O2 9087   1.548   0.791   9.453  0.1633 -0.3223 -0.5433
  610TMC3    C1 9088   4.254   2.667  12.208 -0.1848 -0.7277  0.3627
  610TMC3    C2 9089   4.171   2.591  12.127 -0.1719 -0.0286  0.0553
  610TMC3    C3 9090   4.083   2.512  12.192 -0.2175 -0.2514  0.4649
  610TMC3    C4 9091   4.250   2.670  12.338  0.7966  0.3503 -0.9574
  610TMC3    C5 9092   4.156   2.593  12.392 -0.2389 -0.1908  0.6883
  610TMC3    C6 9093   4.069   2.515  12.325  0.4312 -0.4708 -0.6808
  610TMC3     C 9094   4.349   2.752  12.145  0.6244  1.0433 -0.9600
  610TMC3     O 9095   4.389   2.843  12.213  0.3913 -0.0527 -0.3860
  610TMC3     H 9096   4.171   2.604  12.020  2.2198 -1.4807 -0.1283
  610TMC3    H1 9097   4.303   2.744  12.397  2.7517 -2.0506  0.2906
  610TMC3    H2 9098   3.986   2.460  12.367 -0.6237  0.8461 -1.0253
  610TMC3    C7 9099   4.157   2.588  12.539  0.3423  0.0038 -0.2370
  610TMC3    C8 9100   3.974   2.473  12.110  0.2958 -0.6878  0.0293
  610TMC3    O1 9101   4.190   2.687  12.604 -0.4485  0.4432 -0.2877
  610TMC3    O2 9102   3.959   2.537  12.006 -0.5707 -0.4322  0.1460
  611MPD2     C 9103   2.745   2.176  10.530  0.1079  0.6438 -0.0501
  611MPD2    C1 9104   2.713   2.185  10.392  0.1633 -0.4180 -0.6648
  611MPD2    C2 9105   2.774   2.279  10.318  0.0454 -1.0613 -0.5463
  611MPD2    C3 9106   2.862   2.376  10.369 -0.3489 -0.2040 -0.4205
  611MPD2    C4 9107   2.892   2.361  10.502  0.6296  0.0046  0.1285
  611MPD2    C5 9108   2.838   2.260  10.579 -0.4812  0.1641 -0.1047
  611MPD2     H 9109   2.744   2.281  10.214 -0.1813  1.6197 -0.4188
  611MPD2    H1 9110   2.958   2.431  10.551  2.1308 -0.1759 -1.6499
  611MPD2    H2 9111   2.710   2.099  10.598 -0.9666  2.7797  1.8230
  611MPD2    H3 9112   2.875   2.249  10.680 -1.5919 -1.7453  0.0935
  611MPD2     N 9113   2.920   2.484  10.303 -0.0258 -0.3657 -0.3761
  611MPD2    H5 9114   2.963   2.555  10.361 -1.0068  0.0759 -0.2021
  611MPD2    N1 9115   2.620   2.103  10.328  0.3848  0.2217  0.9137
  611MPD2    H7 9116   2.608   2.108  10.228 -0.3729 -0.0829  0.9855
  612TMC3    C1 9117   2.954   2.630  10.123 -0.3654 -1.0523  0.4521
  612TMC3    C2 9118   3.060   2.679  10.193  0.5215 -0.7826  0.1835
  612TMC3    C3 9119   3.103   2.806  10.162  0.6865  0.3435 -1.2360
  612TMC3    C4 9120   2.894   2.695  10.018 -0.3232  0.4021  0.1239
  612TMC3    C5 9121   2.924   2.831  10.003  0.1686 -0.6030 -0.0416
  612TMC3    C6 9122   3.022   2.889  10.084 -0.0485 -0.0330 -0.6700
  612TMC3     C 9123   2.902   2.505  10.167  0.0894  0.2545  0.5349
  612TMC3     O 9124   2.839   2.445  10.077 -1.0123  0.0462 -0.2629
  612TMC3     H 9125   3.104   2.620  10.272 -1.9198 -0.6809  1.6429
  612TMC3    H1 9126   2.831   2.644   9.946  0.2134 -0.2054  0.0850
  612TMC3    H2 9127   3.046   2.994  10.074  3.0445 -0.5816  1.0402
  612TMC3    C7 9128   2.847   2.901   9.899 -0.1597  0.0702 -0.1839
  612TMC3    C8 9129   3.196   2.877  10.250  0.1678  0.6450  0.4074
  612TMC3    O1 9130   2.778   2.844   9.821  0.1823 -0.7799  0.4334
  612TMC3    O2 9131   3.209   2.998  10.241 -0.3858  0.2220  0.5687
  613MPD2     C 9132   3.442   0.707  16.048  0.0664  0.3379  0.5558
  613MPD2    C1 9133   3.314   0.721  15.999  0.2197  0.6704 -1.2366
  613MPD2    C2 9134   3.264   0.630  15.907 -0.0347  0.5292 -0.0741
  613MPD2    C3 9135   3.344   0.527  15.857 -0.3649 -0.3656  0.7068
  613MPD2    C4 9136   3.470   0.516  15.910 -0.4897 -0.2141  0.0741
  613MPD2    C5 9137   3.522   0.607  16.001  0.4157 -0.3126 -0.0226
  613MPD2     H 9138   3.167   0.655  15.866 -0.5892 -0.5536  0.5704
  613MPD2    H1 9139   3.539   0.436  15.884  1.8986  2.4075 -1.5630
  613MPD2    H2 9140   3.485   0.784  16.112 -0.1999 -0.6001  1.8696
  613MPD2    H3 9141   3.624   0.592  16.035  1.1939  2.9919 -0.9857
  613MPD2     N 9142   3.306   0.446  15.748  0.0030 -0.5969 -0.3140
  613MPD2    H5 9143   3.380   0.387  15.710 -1.0088 -2.4221  0.5743
  613MPD2    N1 9144   3.238   0.841  16.038  0.6669  0.3945 -0.1868
  613MPD2    H7 9145   3.287   0.913  16.089 -0.5230  1.1888 -0.1846
  614TMC3    C1 9146   3.060   0.975  15.994 -0.1521  0.0036 -0.5304
  614TMC3    C2 9147   3.121   1.017  15.880  0.0289 -0.4770 -0.1210
  614TMC3    C3 9148   3.034   1.048  15.777  0.2578 -0.6108  1.1630
  614TMC3    C4 9149   2.930   0.999  16.018  0.3485  0.2719 -0.8760
  614TMC3    C5 9150   2.844   1.043  15.916 -0.1354 -0.3730  0.1294
  614TMC3    C6 9151   2.895   1.068  15.791  0.6270 -0.3363 -0.2196
  614TMC3     C 9152   3.102   0.847  16.028 -0.5029 -0.2559 -0.1588
  614TMC3     O 9153   3.018   0.759  16.019  0.0811  0.4445 -0.1442
  614TMC3     H 9154   3.224   0.985  15.867  0.0906  0.7915 -2.6410
  614TMC3    H1 9155   2.887   0.960  16.109  1.7118 -1.1764 -0.8554
  614TMC3    H2 9156   2.822   1.085  15.713  0.2826  1.8464  0.5789
  614TMC3    C7 9157   2.711   1.100  15.943  0.0045  0.3676  0.2392
  614TMC3    C8 9158   3.069   0.983  15.651 -0.4475 -0.7347  0.1380
  614TMC3    O1 9159   2.684   1.154  16.051 -0.5331  0.0560  0.1863
  614TMC3    O2 9160   3.163   0.903  15.657 -0.2279 -0.2225  0.1529
  615MPD2     C 9161   1.219   1.732  16.157 -0.3436  0.2797 -0.3900
  615MPD2    C1 9162   1.319   1.821  16.156 -0.0289  0.1316 -0.6159
  615MPD2    C2 9163   1.328   1.908  16.051 -0.5043  0.4395 -0.0162
  615MPD2    C3 9164   1.241   1.907  15.946 -0.0160  0.3399  0.4835
  615MPD2    C4 9165   1.142   1.819  15.946  0.2712 -0.0247 -0.3286
  615MPD2    C5 9166   1.133   1.730  16.045  0.2366  0.7991 -0.2946
  615MPD2     H 9167   1.412   1.976  16.056  1.0576 -1.5823  1.2060
  615MPD2    H1 9168   1.086   1.802  15.855 -0.0105  0.9285 -0.3275
  615MPD2    H2 9169   1.194   1.666  16.239 -2.1410  1.4932  0.0449
  615MPD2    H3 9170   1.059   1.651  16.053  2.0745 -0.6311  2.5997
  615MPD2     N 9171   1.268   1.984  15.830  0.3386  0.0728  0.0119
  615MPD2    H5 9172   1.187   2.018  15.779 -0.1352 -1.8300 -0.4925
  615MPD2    N1 9173   1.410   1.844  16.264 -0.1777 -0.0133 -0.4774
  615MPD2    H7 9174   1.477   1.920  16.255  0.7467 -0.7837 -0.0553
  616TMC3    C1 9175   1.556   1.770  16.426  0.0235  0.4982  0.1948
  616TMC3    C2 9176   1.657   1.796  16.336  0.3354 -0.6467  0.0349
  616TMC3    C3 9177   1.779   1.823  16.383  0.1194  0.0656 -0.2255
  616TMC3    C4 9178   1.584   1.759  16.557  0.2684 -0.1285 -0.5302
  616TMC3    C5 9179   1.708   1.790  16.604 -0.3021 -0.5186 -0.0798
  616TMC3    C6 9180   1.805   1.829  16.516 -0.0366  0.1838  0.3673
  616TMC3     C 9181   1.419   1.766  16.375 -0.3499 -0.0788  0.0400
  616TMC3     O 9182   1.344   1.681  16.415 -1.0774  0.2712  0.3913
  616TMC3     H 9183   1.643   1.797  16.228 -0.3169 -0.4158  0.1275
  616TMC3    H1 9184   1.499   1.738  16.622  0.8258 -1.2223 -0.1681
  616TMC3    H2 9185   1.897   1.869  16.558 -0.7637  0.9871  1.1689
  616TMC3    C7 9186   1.742   1.786  16.746 -0.4617  0.1191 -0.1913
  616TMC3    C8 9187   1.875   1.865  16.280  0.3188  0.8839 -0.5383
  616TMC3    O1 9188   1.671   1.708  16.809  0.1921  0.4923 -0.2521
  616TMC3    O2 9189   1.837   1.865  16.167 -0.1909  0.7834  0.1653
  617MPD2     C 9190   4.500   4.652  13.250  0.4121  0.9401  0.6363
  617MPD2    C1 9191   4.550   4.593  13.360 -0.1418 -0.1156  0.1802
  617MPD2    C2 9192   4.469   4.526  13.452 -0.5992  0.4161 -0.2953
  617MPD2    C3 9193   4.329   4.516  13.433 -1.4383  0.0201  0.3866
  617MPD2    C4 9194   4.281   4.580  13.323  0.6286 -0.6340  0.6106
  617MPD2    C5 9195   4.365   4.648  13.238 -0.1955 -0.0656  0.2223
  617MPD2     H 9196   4.510   4.478  13.540  0.1274  2.7495  0.6305
  617MPD2    H1 9197   4.177   4.572  13.293  0.2942 -0.4895  1.7096
  617MPD2    H2 9198   4.566   4.711  13.188  0.7526 -0.6475 -0.5219
  617MPD2    H3 9199   4.312   4.693  13.155 -0.2858 -1.4019 -0.4374
  617MPD2     N 9200   4.251   4.436  13.517  0.1350  0.3833  0.7295
  617MPD2    H5 9201   4.155   4.435  13.485  0.7652 -0.4282 -1.1806
  617MPD2    N1 9202   4.694   4.588  13.370 -0.3399  0.0884  0.0560
  617MPD2    H7 9203   4.733   4.667  13.321 -1.1818  0.4217 -0.0780
  618TMC3    C1 9204   0.167   4.535  13.466  0.1526  0.4498 -0.1272
  618TMC3    C2 9205   0.232   4.477  13.578  0.0815 -0.7295  0.3459
  618TMC3    C3 9206   0.350   4.538  13.615  0.4183  0.8463 -0.2991
  618TMC3    C4 9207   0.221   4.636  13.388  0.5980 -0.1916 -0.3928
  618TMC3    C5 9208   0.336   4.690  13.433  0.4499 -0.0894  0.1615
  618TMC3    C6 9209   0.399   4.645  13.544 -0.0478  0.3009 -0.3869
  618TMC3     C 9210   0.028   4.498  13.450  0.0719 -0.6318 -0.2493
  618TMC3     O 9211   4.730   4.400  13.515 -0.7915  0.0843 -0.4668
  618TMC3     H 9212   0.189   4.393  13.630 -1.9088 -1.1088 -1.8976
  618TMC3    H1 9213   0.181   4.661  13.291  0.0509  0.2846 -0.0489
  618TMC3    H2 9214   0.492   4.693  13.574 -0.9571  0.2193  2.5126
  618TMC3    C7 9215   0.399   0.041  13.334  0.0470  0.4307  0.0887
  618TMC3    C8 9216   0.438   4.471  13.714  0.3005  0.6605 -0.1313
  618TMC3    O1 9217   0.328   0.137  13.298 -0.2494  0.1555 -0.4556
  618TMC3    O2 9218   0.509   4.540  13.786  0.0912  0.1707 -0.6597
  619MPD2     C 9219   1.149   0.581  13.528 -0.6805  0.6897  0.3678
  619MPD2    C1 9220   1.028   0.622  13.478  0.3959  0.1805 -0.8349
  619MPD2    C2 9221   0.919   0.638  13.558 -0.1339 -0.2154  0.1885
  619MPD2    C3 9222   0.928   0.626  13.697 -0.9084  0.1291  0.3936
  619MPD2    C4 9223   1.052   0.588  13.751 -0.8821 -0.9965 -0.1733
  619MPD2    C5 9224   1.163   0.567  13.668 -0.7589  0.2721 -0.1756
  619MPD2     H 9225   0.829   0.678  13.513  0.4006  0.2168 -0.4997
  619MPD2    H1 9226   1.072   0.582  13.857  0.0386 -2.8236 -0.4609
  619MPD2    H2 9227   1.236   0.573  13.464 -1.7621 -1.0750 -0.8842
  619MPD2    H3 9228   1.251   0.532  13.719 -0.4342  1.4907  0.0978
  619MPD2     N 9229   0.817   0.648  13.782  0.0635  0.0762  0.0652
  619MPD2    H5 9230   0.840   0.637  13.880  1.5227 -0.3376 -0.3249
  619MPD2    N1 9231   1.014   0.649  13.346 -0.1114 -0.4200 -0.5754
  619MPD2    H7 9232   0.920   0.668  13.313 -0.2365  0.9213  0.5387
  620TMC3    C1 9233   1.046   0.746  13.146 -0.4299  0.3450  0.3901
  620TMC3    C2 9234   0.923   0.690  13.111 -0.0549 -0.2723  0.3698
  620TMC3    C3 9235   0.827   0.760  13.040 -0.3926  0.6115 -0.2200
  620TMC3    C4 9236   1.079   0.873  13.115  0.2230  0.3119  0.0814
  620TMC3    C5 9237   0.999   0.938  13.036  0.0571  0.8129 -0.2247
  620TMC3    C6 9238   0.879   0.878  12.983  0.2348 -0.3164  0.4671
  620TMC3     C 9239   1.112   0.687  13.257  0.2508  0.2956  0.1383
  620TMC3     O 9240   1.233   0.661  13.248  0.2820 -0.0594 -0.3054
  620TMC3     H 9241   0.901   0.585  13.126  2.6730 -0.8735  0.1954
  620TMC3    H1 9242   1.159   0.919  13.172 -1.0060  3.4187 -0.6947
  620TMC3    H2 9243   0.812   0.945  12.931  1.6795 -0.2185 -1.2686
  620TMC3    C7 9244   0.971   1.083  13.052  0.2187 -0.5663 -0.0685
  620TMC3    C8 9245   0.731   0.794  13.144  0.5866 -0.2959 -0.0449
  620TMC3    O1 9246   0.902   1.136  12.963  0.1266  0.1852  0.1066
  620TMC3    O2 9247   0.746   0.737  13.251 -0.3370  0.3293 -0.2276
  621MPD2     C 9248   1.080   0.867  10.719 -0.0902 -0.0155 -0.0335
  621MPD2    C1 9249   1.110   0.736  10.732 -0.2192 -0.6694  0.2667
  621MPD2    C2 9250   1.235   0.688  10.714 -0.5097 -0.9047 -0.6435
  621MPD2    C3 9251   1.337   0.770  10.681 -0.2333  0.3773 -0.2771
  621MPD2    C4 9252   1.310   0.906  10.678 -0.6348  0.4958 -0.6459
  621MPD2    C5 9253   1.181   0.958  10.696 -0.2588 -0.1614 -0.2611
  621MPD2     H 9254   1.253   0.582  10.728  1.7759 -0.4119  0.1407
  621MPD2    H1 9255   1.387   0.981  10.686 -1.1911  1.0119 -0.0784
  621MPD2    H2 9256   0.977   0.900  10.727 -0.6447 -2.0225  1.1663
  621MPD2    H3 9257   1.170   1.066  10.689 -1.8875 -0.3012  0.1003
  621MPD2     N 9258   1.475   0.720  10.671  0.0280 -1.1425  0.4569
  621MPD2    H5 9259   1.487   0.627  10.710 -1.6823 -1.1448  0.9686
  621MPD2    N1 9260   1.005   0.641  10.744  0.1352  0.5014 -0.3198
  621MPD2    H7 9261   1.029   0.543  10.730  0.2479  0.7588 -1.9383
  622TMC3    C1 9262   0.782   0.564  10.738 -0.6603 -0.1491  0.4145
  622TMC3    C2 9263   0.698   0.519  10.830  0.6513 -0.3177  0.0291
  622TMC3    C3 9264   0.654   0.391  10.816 -0.2045 -0.2306  0.4975
  622TMC3    C4 9265   0.816   0.479  10.639 -0.0266  0.3324  0.0121
  622TMC3    C5 9266   0.766   0.351  10.626 -0.4635  0.1076  0.6111
  622TMC3    C6 9267   0.690   0.299  10.726  0.3703  0.0486  0.3108
  622TMC3     C 9268   0.874   0.666  10.779  0.2166 -0.2714 -0.1016
  622TMC3     O 9269   0.825   0.765  10.828 -0.4326 -0.2969  0.4370
  622TMC3     H 9270   0.663   0.590  10.905  0.8246 -0.7835  0.5557
  622TMC3    H1 9271   0.894   0.500  10.567 -0.5339 -0.4074 -0.7578
  622TMC3    H2 9272   0.635   0.206  10.724  0.5475 -0.0400 -0.3003
  622TMC3    C7 9273   0.743   0.301  10.486 -0.3245  0.2466  0.0210
  622TMC3    C8 9274   0.544   0.342  10.910  0.0639  0.2164 -0.2479
  622TMC3    O1 9275   0.676   0.203  10.477  0.2310  0.0177 -0.1820
  622TMC3    O2 9276   0.501   0.228  10.905 -0.0129  0.2623  0.1259
  623MPD2     C 9277   0.125   1.745  16.148  0.0872 -0.1319  0.2368
  623MPD2    C1 9278   0.055   1.753  16.263 -0.0987 -0.2765 -0.9779
  623MPD2    C2 9279   0.130   1.771  16.378  0.5133  0.2373 -0.5273
  623MPD2    C3 9280   0.266   1.782  16.375  0.4711  0.2458 -0.6215
  623MPD2    C4 9281   0.340   1.756  16.261 -0.4708 -0.5286 -0.0209
  623MPD2    C5 9282   0.263   1.747  16.143  0.7455  0.4008 -0.1133
  623MPD2     H 9283   0.087   1.781  16.478  2.5308  0.3607  0.3233
  623MPD2    H1 9284   0.448   1.763  16.259 -0.4790  0.2408  1.9362
  623MPD2    H2 9285   0.078   1.730  16.052 -0.1630  0.0686  0.3277
  623MPD2    H3 9286   0.318   1.734  16.050 -2.4970  0.9030 -2.0811
  623MPD2     N 9287   0.325   1.828  16.500 -0.1840 -0.1210  0.7418
  623MPD2    H5 9288   0.260   1.844  16.576  2.0350 -1.4373  2.9333
  623MPD2    N1 9289   4.656   1.766  16.263 -0.0198  0.5678 -0.6624
  623MPD2    H7 9290   4.605   1.791  16.179 -1.9510 -0.7130  0.1246
  624TMC3    C1 9291   0.546   1.789  16.862 -0.1423  0.1495  0.8821
  624TMC3    C2 9292   0.443   1.863  16.919 -0.4780 -0.4512 -0.2270
  624TMC3    C3 9293   0.362   1.941  16.851 -0.5267 -0.3004 -0.1747
  624TMC3    C4 9294   0.577   1.805  16.730  0.1979  0.4217  0.0433
  624TMC3    C5 9295   0.496   1.887  16.659  0.2013 -0.1980 -0.1214
  624TMC3    C6 9296   0.388   1.952  16.715  0.1665 -0.4911  0.2415
  624TMC3     C 9297   0.664   1.751  16.947 -0.4805 -0.5569 -0.4686
  624TMC3     O 9298   0.644   1.681  17.044  0.4277 -0.0115  0.1135
  624TMC3     H 9299   0.436   1.860  17.027 -1.0824  0.1128 -0.2567
  624TMC3    H1 9300   0.663   1.756  16.685  0.8749  0.7368  0.9968
  624TMC3    H2 9301   0.319   2.008  16.652 -0.0259  1.3619  2.0861
  624TMC3    C7 9302   0.465   1.848  16.522 -0.5661 -0.8637 -0.3624
  624TMC3    C8 9303   0.250   1.995  16.921 -0.1573 -0.0538 -0.3005
  624TMC3    O1 9304   0.556   1.844  16.437  0.2599 -0.2516  0.1945
  624TMC3    O2 9305   0.199   1.917  17.001  0.5712  0.8627 -0.4422
  625MPD2     C 9306   1.025   2.792   0.822 -0.3672 -0.2538  0.5188
  625MPD2    C1 9307   1.065   2.871   0.720  0.2411 -0.3140  0.0615
  625MPD2    C2 9308   1.188   2.851   0.672 -0.2479  0.8298  0.1823
  625MPD2    C3 9309   1.276   2.758   0.731 -0.5440  0.1200 -0.2026
  625MPD2    C4 9310   1.230   2.682   0.838 -0.4358 -0.1090 -0.2657
  625MPD2    C5 9311   1.101   2.687   0.874  0.5496  0.4487  0.4293
  625MPD2     H 9312   1.213   2.906   0.582 -1.8988  0.1251 -0.6901
  625MPD2    H1 9313   1.305   2.613   0.876 -1.6999 -0.2488  1.9523
  625MPD2    H2 9314   0.930   2.806   0.872 -0.0152  1.9312  0.5827
  625MPD2    H3 9315   1.045   2.624   0.942 -1.0289 -0.5940 -1.8019
  625MPD2     N 9316   1.414   2.758   0.685  0.0778  0.1550 -0.4856
  625MPD2    H5 9317   1.443   2.842   0.635  0.2075  0.1456 -0.4270
  625MPD2    N1 9318   0.978   2.962   0.652  0.1420  0.1522  0.6128
  625MPD2    H7 9319   1.011   3.017   0.573  2.5027 -1.7252  0.3097
  626TMC3    C1 9320   0.800   3.102   0.610 -0.2122  0.2936 -0.5832
  626TMC3    C2 9321   0.754   3.048   0.497 -0.0145 -0.5174 -0.5666
  626TMC3    C3 9322   0.618   3.065   0.468  0.0857 -0.3740  0.9294
  626TMC3    C4 9323   0.719   3.186   0.682 -0.0036 -0.1343 -0.6667
  626TMC3    C5 9324   0.590   3.197   0.649  0.6117  0.8183  0.0819
  626TMC3    C6 9325   0.532   3.141   0.538 -0.4483  0.3757  0.5287
  626TMC3     C 9326   0.854   3.001   0.697 -0.2783 -0.0302 -0.1823
  626TMC3     O 9327   0.796   2.985   0.803  1.0645  0.2095  0.2726
  626TMC3     H 9328   0.804   2.974   0.434  0.1942 -0.3839 -0.5580
  626TMC3    H1 9329   0.763   3.219   0.776  0.2948  0.1215 -0.8960
  626TMC3    H2 9330   0.430   3.157   0.507 -0.6134 -1.1373  0.3377
  626TMC3    C7 9331   0.509   3.256   0.750 -0.2313  0.4259 -0.0233
  626TMC3    C8 9332   0.577   3.035   0.337 -0.5417 -0.8001 -0.6187
  626TMC3    O1 9333   0.530   3.213   0.867 -0.9695  0.2069 -0.3727
  626TMC3    O2 9334   0.670   3.032   0.254 -0.0095 -0.3664 -0.4108
  627MPD2     C 9335   3.629   3.574  14.626 -0.6095 -0.4802 -0.4145
  627MPD2    C1 9336   3.738   3.508  14.677  0.3348 -0.0939 -0.1249
  627MPD2    C2 9337   3.732   3.373  14.681  0.0937 -0.7729 -0.0682
  627MPD2    C3 9338   3.627   3.307  14.632 -0.1081 -0.0538  0.8648
  627MPD2    C4 9339   3.521   3.374  14.575  0.3727 -0.1542 -0.1803
  627MPD2    C5 9340   3.522   3.507  14.572  0.5446 -0.6981  0.1693
  627MPD2     H 9341   3.814   3.307  14.709  0.9241  0.2416 -0.0805
  627MPD2    H1 9342   3.438   3.320  14.532 -1.5764  0.0281  3.3557
  627MPD2    H2 9343   3.620   3.682  14.630 -1.1868 -0.5685  0.8935
  627MPD2    H3 9344   3.434   3.549  14.525  1.1398 -0.0311 -0.3501
  627MPD2     N 9345   3.637   3.168  14.635 -0.9242 -0.3707  0.6759
  627MPD2    H5 9346   3.719   3.122  14.674  0.8377  0.9785 -1.4616
  627MPD2    N1 9347   3.858   3.572  14.712  0.0910 -0.4627  0.0577
  627MPD2    H7 9348   3.927   3.511  14.753 -0.0406  0.4162  1.5946
  628TMC3    C1 9349   4.036   3.719  14.700  0.6376 -0.1406  0.0798
  628TMC3    C2 9350   4.113   3.631  14.772  0.7347 -0.3084  0.4176
  628TMC3    C3 9351   4.242   3.665  14.793  0.6554 -0.2976 -0.5122
  628TMC3    C4 9352   4.083   3.838  14.651  0.0102 -0.6087  0.7993
  628TMC3    C5 9353   4.215   3.860  14.662  0.0864 -0.7792 -0.0493
  628TMC3    C6 9354   4.298   3.769  14.718  0.4296 -0.2008 -0.3694
  628TMC3     C 9355   3.895   3.696  14.672 -0.4733 -0.0650 -0.2192
  628TMC3     O 9356   3.838   3.779  14.600 -0.2589 -0.7511 -0.4842
  628TMC3     H 9357   4.075   3.544  14.824 -2.1379 -0.8300 -2.5244
  628TMC3    H1 9358   4.018   3.919  14.621  2.6938  1.6538  1.1200
  628TMC3    H2 9359   4.402   3.796  14.731  0.9416 -1.7694 -1.2188
  628TMC3    C7 9360   4.276   3.978  14.611  0.1409  0.4423 -0.2588
  628TMC3    C8 9361   4.325   3.551  14.768  0.0553  0.3184 -0.1316
  628TMC3    O1 9362   4.392   3.999  14.650  0.9156  0.1505 -0.6281
  628TMC3    O2 9363   4.268   3.444  14.737  0.3707  0.5468 -0.5211
  629MPD2     C 9364   2.251   2.182  16.139  0.3890 -0.3408  0.2651
  629MPD2    C1 9365   2.266   2.159  16.277  0.6806 -0.1959 -0.0425
  629MPD2    C2 9366   2.186   2.058  16.330  0.6493  0.1992 -1.0346
  629MPD2    C3 9367   2.085   1.994  16.255 -0.4319  0.2343  0.0655
  629MPD2    C4 9368   2.070   2.031  16.124  0.0024 -0.5389  0.0160
  629MPD2    C5 9369   2.161   2.112  16.070  0.5334 -0.6604 -0.3190
  629MPD2     H 9370   2.191   2.040  16.437  0.1289 -2.3246 -1.4451
  629MPD2    H1 9371   2.003   1.980  16.055 -1.1254 -0.3052  0.9192
  629MPD2    H2 9372   2.309   2.257  16.087 -1.5438  0.2599 -1.0192
  629MPD2    H3 9373   2.164   2.121  15.963 -0.9831 -1.4745 -0.4215
  629MPD2     N 9374   1.991   1.913  16.336 -0.0316 -0.7590  0.7217
  629MPD2    H5 9375   2.012   1.902  16.435 -1.0068  0.4168  1.0639
  629MPD2    N1 9376   2.376   2.224  16.348  0.6512  0.2862  0.4293
  629MPD2    H7 9377   2.427   2.298  16.300 -0.3766  1.7468  1.5790
  630TMC3    C1 9378   2.558   2.230  16.504  0.1583 -0.5095  0.2175
  630TMC3    C2 9379   2.642   2.283  16.405 -0.2883 -0.1772 -0.7974
  630TMC3    C3 9380   2.773   2.311  16.427  0.8602 -0.6181 -0.2704
  630TMC3    C4 9381   2.600   2.216  16.637  0.1941  0.1341 -0.4266
  630TMC3    C5 9382   2.733   2.227  16.653 -0.1100 -0.3692  0.6052
  630TMC3    C6 9383   2.817   2.261  16.547  0.6989  0.4310  0.1316
  630TMC3     C 9384   2.426   2.179  16.468  0.1295  0.3216 -0.6544
  630TMC3     O 9385   2.380   2.090  16.537  0.0516  0.1447  0.8465
  630TMC3     H 9386   2.606   2.297  16.304  0.8386  2.1233 -0.9016
  630TMC3    H1 9387   2.540   2.166  16.712 -0.1386  0.2502 -0.6170
  630TMC3    H2 9388   2.924   2.242  16.554  0.3272 -2.0661 -1.0368
  630TMC3    C7 9389   2.792   2.197  16.783 -0.3170 -0.0567 -0.5233
  630TMC3    C8 9390   2.869   2.365  16.325  0.2276  0.0589  0.5266
  630TMC3    O1 9391   2.726   2.134  16.863 -0.0302 -0.0454 -0.1747
  630TMC3    O2 9392   2.984   2.371  16.361  0.2454  0.0012  1.1853
  631MPD2     C 9393   0.778   2.511  15.209  0.4742 -0.1732  0.1220
  631MPD2    C1 9394   0.899   2.556  15.158 -0.3346  0.0975  0.2888
  631MPD2    C2 9395   1.007   2.506  15.224  0.4487  0.1449 -0.0692
  631MPD2    C3 9396   1.001   2.411  15.322 -0.3273  0.5650  0.5558
  631MPD2    C4 9397   0.877   2.373  15.361  0.1351 -0.6035  0.5418
  631MPD2    C5 9398   0.760   2.423  15.314 -0.7949 -0.4835  0.1505
  631MPD2     H 9399   1.102   2.546  15.192 -0.0225 -2.0113 -4.0829
  631MPD2    H1 9400   0.863   2.298  15.439 -1.0510  0.3223  1.2144
  631MPD2    H2 9401   0.686   2.544  15.163  0.4239  0.1795  0.4780
  631MPD2    H3 9402   0.672   2.368  15.343 -1.2146 -0.5687 -1.2940
  631MPD2     N 9403   1.117   2.358  15.377  0.0776 -0.3759  0.1325
  631MPD2    H5 9404   1.206   2.405  15.362 -0.8384  0.9839 -1.0415
  631MPD2    N1 9405   0.903   2.637  15.044 -0.0543 -0.1657 -1.0836
  631MPD2    H7 9406   0.816   2.673  15.006  0.8579  4.5902  1.3655
  632TMC3    C1 9407   0.987   2.769  14.874  0.5400 -0.0784 -0.0276
  632TMC3    C2 9408   0.865   2.821  14.881  0.0617 -0.7890 -0.5176
  632TMC3    C3 9409   0.786   2.816  14.776  0.0702 -0.1102  0.3058
  632TMC3    C4 9410   1.016   2.698  14.756  0.3188 -0.4038  0.8324
  632TMC3    C5 9411   0.933   2.701  14.648  0.1283 -0.0648  0.8177
  632TMC3    C6 9412   0.816   2.771  14.649 -1.0620 -0.8484  0.2087
  632TMC3     C 9413   1.019   2.694  14.999 -0.1210  0.1689 -0.9181
  632TMC3     O 9414   1.139   2.684  15.037  0.4675  0.3348 -0.1468
  632TMC3     H 9415   0.835   2.875  14.970 -1.2829  1.2481 -2.2100
  632TMC3    H1 9416   1.104   2.635  14.756  1.9691  1.9530 -2.0778
  632TMC3    H2 9417   0.751   2.796  14.565  1.2643  1.0916 -1.0068
  632TMC3    C7 9418   0.980   2.658  14.518 -1.1308  0.0537  0.8126
  632TMC3    C8 9419   0.649   2.822  14.831  0.0808 -0.0776  0.6440
  632TMC3    O1 9420   0.896   2.681  14.429  0.2958  0.0012 -0.0487
  632TMC3    O2 9421   0.632   2.761  14.934 -0.0116 -0.2712  0.5259
  633MPD2     C 9422   0.595   4.531  17.411  0.5592  0.5114  0.4728
  633MPD2    C1 9423   0.634   4.513  17.284 -0.1152  0.2108 -0.0372
  633MPD2    C2 9424   0.613   4.388  17.224  0.0375  0.8947 -0.3560
  633MPD2    C3 9425   0.558   4.283  17.305 -0.2316  0.1151  0.4645
  633MPD2    C4 9426   0.522   4.301  17.436 -0.3534  0.5981 -0.0297
  633MPD2    C5 9427   0.548   4.427  17.487  0.6057  0.5026 -0.1216
  633MPD2     H 9428   0.645   4.381  17.121  1.0185 -1.0090  0.0801
  633MPD2    H1 9429   0.484   4.222  17.499  1.0232  0.6369  0.8568
  633MPD2    H2 9430   0.612   4.622  17.467  3.9376 -0.0624  0.3917
  633MPD2    H3 9431   0.528   4.453  17.590  0.3990 -0.3679  0.0501
  633MPD2     N 9432   0.543   4.152  17.262 -0.1076  0.4716 -0.0954
  633MPD2    H5 9433   0.529   4.080  17.332 -0.3365  0.4043 -0.2131
  633MPD2    N1 9434   0.691   4.622  17.203  0.3473  0.0508  0.1664
  633MPD2    H7 9435   0.702   4.603  17.104  0.8330 -0.0916  0.2466
  634TMC3    C1 9436   0.797   0.085  17.138 -0.2978  0.1051 -0.8594
  634TMC3    C2 9437   0.857   0.015  17.037  0.0517  0.1760  0.7233
  634TMC3    C3 9438   0.898   0.090  16.937  0.8719  0.7204 -0.0176
  634TMC3    C4 9439   0.777   0.221  17.141 -0.0270  0.0611  1.1464
  634TMC3    C5 9440   0.819   0.294  17.030  0.4928  0.6274 -0.1399
  634TMC3    C6 9441   0.877   0.222  16.927  0.3551 -0.5584  0.2202
  634TMC3     C 9442   0.725   0.005  17.241  0.3423  0.3713 -0.5818
  634TMC3     O 9443   0.705   0.060  17.348  0.0337  0.2479 -0.0758
  634TMC3     H 9444   0.888   4.652  17.047 -0.8999  0.1006  2.9050
  634TMC3    H1 9445   0.728   0.269  17.225 -1.3158  1.7750 -0.5918
  634TMC3    H2 9446   0.906   0.275  16.837  1.0964  0.4347  1.0374
  634TMC3    C7 9447   0.776   0.427  16.998  0.0928 -0.0967  0.1788
  634TMC3    C8 9448   0.951   0.021  16.823  1.2596  0.2852 -0.0515
  634TMC3    O1 9449   0.835   0.480  16.903  0.2573  0.3050  0.0030
  634TMC3    O2 9450   0.912   4.647  16.801 -0.4890  0.0834 -0.4087
  635TMC3    C1 9451   0.896   0.989   0.634 -0.0295 -0.1124 -0.2037
  635TMC3    C2 9452   0.854   0.925   0.518  0.5050  0.0338 -0.1467
  635TMC3    C3 9453   0.885   0.792   0.501 -0.8126  0.2686 -0.5611
  635TMC3    C4 9454   0.989   0.934   0.718  0.3760  0.3772  0.1796
  635TMC3    C5 9455   1.026   0.810   0.685  0.0143  0.0812  0.8039
  635TMC3    C6 9456   0.977   0.735   0.582  0.2494 -0.4389 -0.3740
  635TMC3     C 9457   0.866   1.130   0.664 -0.3366  0.2203  0.4454
  635TMC3     O 9458   0.957   1.190   0.725  0.0154  0.1860 -0.0519
  635TMC3     H 9459   0.785   0.977   0.453 -0.8218 -1.3784  0.1512
  635TMC3    H1 9460   1.032   0.994   0.797  2.1755 -2.1377  1.1303
  635TMC3    H2 9461   1.012   0.633   0.569  1.8298  0.2395 -1.4645
  635TMC3    C7 9462   1.144   0.747   0.753 -0.4694  0.8811  0.0938
  635TMC3    C8 9463   0.834   0.717   0.388  0.0520 -0.2252  0.8219
  635TMC3    O1 9464   1.195   0.653   0.699 -0.1450 -0.3210  0.5407
  635TMC3    O2 9465   0.773   0.774   0.299 -0.5112 -0.3515  0.1557
  636MPD2     C 9466   2.407   0.474  15.596  0.3299 -0.0800 -0.2353
  636MPD2    C1 9467   2.513   0.522  15.675 -0.1134  1.0343 -0.5995
  636MPD2    C2 9468   2.640   0.489  15.648 -0.5951 -0.1006  0.5580
  636MPD2    C3 9469   2.672   0.398  15.548  0.2674 -0.4359  0.0457
  636MPD2    C4 9470   2.570   0.351  15.465  0.2104  0.0833 -0.3217
  636MPD2    C5 9471   2.436   0.391  15.495  0.2737  0.0626  0.2553
  636MPD2     H 9472   2.718   0.531  15.711  2.3522 -1.8025 -1.9522
  636MPD2    H1 9473   2.583   0.300  15.371 -2.5138 -0.9810 -0.1244
  636MPD2    H2 9474   2.303   0.502  15.608  0.3428  1.0244 -2.7331
  636MPD2    H3 9475   2.357   0.350  15.432 -0.6247  1.7999  0.2459
  636MPD2     N 9476   2.812   0.376  15.528  0.1473  0.7936  0.0413
  636MPD2    H5 9477   2.883   0.397  15.597  1.1383  1.0286 -1.0391
  636MPD2    N1 9478   2.493   0.607  15.781  0.0988 -0.4381 -0.0928
  636MPD2    H7 9479   2.573   0.652  15.825 -1.0851  1.5551  0.0261
  637TMC3    C1 9480   3.003   0.322  15.429  0.3338 -0.2100 -0.4774
  637TMC3    C2 9481   3.058   0.300  15.553 -0.2091 -0.1217  0.5283
  637TMC3    C3 9482   3.183   0.364  15.574  0.5231 -0.2351  0.0830
  637TMC3    C4 9483   3.058   0.399  15.333 -0.9656  0.5058 -0.2633
  637TMC3    C5 9484   3.192   0.445  15.361 -0.7024  0.2215  0.6719
  637TMC3    C6 9485   3.254   0.419  15.477  0.3963  0.2225 -0.5665
  637TMC3     C 9486   2.863   0.313  15.417 -0.1906 -0.2846 -0.7964
  637TMC3     O 9487   2.810   0.301  15.307  0.0647 -0.2951 -0.4099
  637TMC3     H 9488   3.005   0.238  15.625 -2.5036 -1.0288 -1.9316
  637TMC3    H1 9489   3.017   0.403  15.233 -0.6133  0.4235 -0.4119
  637TMC3    H2 9490   3.347   0.474  15.489 -1.1751  2.5921  0.8329
  637TMC3    C7 9491   3.211   0.585  15.321  0.5558  0.4892 -0.0642
  637TMC3    C8 9492   3.179   0.434  15.694 -0.5295  0.5472 -0.0765
  637TMC3    O1 9493   3.291   0.653  15.381 -0.1006  0.5126 -0.4420
  637TMC3    O2 9494   3.073   0.471  15.744 -0.3575  0.0159 -0.2251
  638MPD2     C 9495   1.706   4.259  14.383  0.8336  0.1627 -0.6935
  638MPD2    C1 9496   1.673   4.136  14.337  0.8777 -0.1042  0.1428
  638MPD2    C2 9497   1.644   4.043  14.432  0.5883 -0.1956 -1.0025
  638MPD2    C3 9498   1.651   4.066  14.569  0.5977 -0.1982  0.3458
  638MPD2    C4 9499   1.683   4.192  14.614 -0.0872  0.5777 -0.8357
  638MPD2    C5 9500   1.709   4.285  14.519 -0.2576  0.6841 -0.2064
  638MPD2     H 9501   1.629   3.938  14.410  0.9214 -0.2963 -0.7430
  638MPD2    H1 9502   1.688   4.230  14.715 -1.5421 -0.4851 -0.3659
  638MPD2    H2 9503   1.731   4.345  14.323 -1.4065  0.0499 -1.7794
  638MPD2    H3 9504   1.749   4.382  14.547 -1.5534  1.0456  0.3690
  638MPD2     N 9505   1.614   3.970  14.660 -0.5644 -0.3364 -0.3074
  638MPD2    H5 9506   1.597   3.879  14.619  0.4876  0.1537 -1.8177
  638MPD2    N1 9507   1.689   4.105  14.198 -0.2514  0.4897 -0.2276
  638MPD2    H7 9508   1.731   4.183  14.148 -0.3262  1.4871  1.2866
  639TMC3    C1 9509   1.642   3.831  14.839 -0.9251 -0.6118 -0.4041
  639TMC3    C2 9510   1.532   3.756  14.795 -0.1155  0.4858  0.8040
  639TMC3    C3 9511   1.531   3.624  14.831 -0.3879 -0.6067  0.0578
  639TMC3    C4 9512   1.741   3.781  14.918 -0.1306 -0.9937  0.1862
  639TMC3    C5 9513   1.739   3.643  14.932  0.5317  0.4630 -0.4343
  639TMC3    C6 9514   1.629   3.570  14.903  0.6688  0.1265 -0.1074
  639TMC3     C 9515   1.636   3.970  14.800 -0.0103  0.5794 -0.2232
  639TMC3     O 9516   1.702   4.049  14.866  1.0447 -0.2023  0.1513
  639TMC3     H 9517   1.456   3.809  14.738  1.1053  0.0386 -1.2228
  639TMC3    H1 9518   1.829   3.840  14.940 -1.3858  0.3386  1.5595
  639TMC3    H2 9519   1.632   3.464  14.926  1.9764  0.1520 -0.1354
  639TMC3    C7 9520   1.847   3.573  15.000  0.4650 -0.3248 -1.1630
  639TMC3    C8 9521   1.425   3.536  14.798 -0.6133  0.1637 -0.5064
  639TMC3    O1 9522   1.822   3.534  15.114 -0.1320 -0.2173 -0.0275
  639TMC3    O2 9523   1.422   3.431  14.854  0.8867  0.0232  0.5150
  640MPD2     C 9524   1.785   2.316  10.052 -0.7267 -0.3343 -0.2181
  640MPD2    C1 9525   1.672   2.245  10.064  0.3507  0.7403 -0.2598
  640MPD2    C2 9526   1.551   2.313  10.082  0.2518 -0.2149  0.5181
  640MPD2    C3 9527   1.551   2.453  10.082  0.2647  0.5420  0.1700
  640MPD2    C4 9528   1.675   2.523  10.078 -0.8361 -0.1568  0.1805
  640MPD2    C5 9529   1.785   2.448  10.058 -0.9894 -0.2755  0.0729
  640MPD2     H 9530   1.453   2.266  10.078 -0.6711  1.7972 -0.5186
  640MPD2    H1 9531   1.680   2.631  10.083 -3.0658 -0.0794  0.6991
  640MPD2    H2 9532   1.881   2.266  10.039 -0.7219  0.3481 -2.8769
  640MPD2    H3 9533   1.881   2.499  10.059 -2.2166  2.0269  0.7774
  640MPD2     N 9534   1.438   2.536  10.107  0.6408  0.5170  0.4753
  640MPD2    H5 9535   1.463   2.634  10.100 -1.5633  0.8821 -2.1517
  640MPD2    N1 9536   1.679   2.105  10.063  0.3426 -0.4001 -0.0346
  640MPD2    H7 9537   1.768   2.066  10.033  0.7726  0.9824 -0.5996
  641TMC3    C1 9538   1.605   1.876  10.070 -0.2750  0.9791  0.4185
  641TMC3    C2 9539   1.726   1.841  10.022  0.0297  0.3520 -0.5873
  641TMC3    C3 9540   1.769   1.712  10.050 -0.1929  0.2903 -0.0954
  641TMC3    C4 9541   1.527   1.793  10.154  0.3839 -0.1487 -0.0380
  641TMC3    C5 9542   1.575   1.668  10.174  0.1580  0.3788  0.2976
  641TMC3    C6 9543   1.692   1.625  10.119 -0.0245 -0.3572 -0.4031
  641TMC3     C 9544   1.573   2.019  10.077  0.0112  0.2951  0.5155
  641TMC3     O 9545   1.461   2.039  10.125 -0.1136  0.1978 -0.9602
  641TMC3     H 9546   1.790   1.911   9.970 -0.1762 -1.1311 -2.8249
  641TMC3    H1 9547   1.442   1.839  10.203  0.5165  0.8101 -0.7015
  641TMC3    H2 9548   1.715   1.520  10.132 -0.8554 -0.5196 -0.2850
  641TMC3    C7 9549   1.511   1.596  10.287  0.1479  0.4232  0.0024
  641TMC3    C8 9550   1.897   1.661  10.012  0.2108  0.3663  0.0121
  641TMC3    O1 9551   1.391   1.621  10.303 -0.0932 -0.5672  0.1361
  641TMC3    O2 9552   1.898   1.544   9.985 -0.2231  0.0970  0.1014
  642TMC3    C1 9553   3.058   3.189  12.800 -0.6029  0.4290 -0.1298
  642TMC3    C2 9554   3.003   3.152  12.920 -0.1517 -0.2545  0.5953
  642TMC3    C3 9555   3.022   3.024  12.961  0.3860 -0.2640  0.2795
  642TMC3    C4 9556   3.144   3.101  12.734 -0.0867 -0.6003  0.2674
  642TMC3    C5 9557   3.172   2.984  12.790  0.5486  0.3642 -0.0546
  642TMC3    C6 9558   3.108   2.942  12.904  0.0501 -0.2735 -0.0114
  642TMC3     C 9559   3.032   3.317  12.732 -0.1809 -0.3091  0.7461
  642TMC3     O 9560   3.100   3.347  12.637 -0.0804  0.5681  0.1087
  642TMC3     H 9561   2.941   3.221  12.976  0.2795 -1.9054  3.1235
  642TMC3    H1 9562   3.170   3.128  12.632  2.6415 -1.9310  0.6143
  642TMC3    H2 9563   3.129   2.843  12.945  0.1371 -0.4883 -0.5839
  642TMC3    C7 9564   3.188   2.878  12.682 -0.4084 -0.4381  0.1092
  642TMC3    C8 9565   2.964   2.975  13.095 -0.2625  0.5131  0.2540
  642TMC3    O1 9566   3.189   2.899  12.559  0.3835 -0.0981  0.4764
  642TMC3    O2 9567   3.030   2.899  13.162  0.8214  0.1360 -0.3755
  643TMC3    C1 9568   2.580   2.766  17.751  0.5173  0.1430  0.2792
  643TMC3    C2 9569   2.479   2.861  17.746 -0.4607 -0.2840 -0.2239
  643TMC3    C3 9570   2.371   2.846  17.665 -0.1814  0.1084  0.0348
  643TMC3    C4 9571   2.575   2.659  17.665 -0.2271 -0.2931 -0.3435
  643TMC3    C5 9572   2.472   2.654  17.580  0.3585  0.8044  0.0995
  643TMC3    C6 9573   2.359   2.728  17.587 -0.3201  0.7502 -0.7079
  643TMC3     C 9574   2.636   2.755   0.126 -0.2992 -0.1930 -0.8233
  643TMC3     O 9575   2.563   2.806   0.209 -0.7938  0.1702 -0.3628
  643TMC3     H 9576   2.505   2.956   0.034  1.0990 -0.9230  0.2035
  643TMC3    H1 9577   2.657   2.590  17.647  0.2810  0.7050 -1.8489
  643TMC3    H2 9578   2.267   2.708  17.532  2.0406 -3.4431 -3.1069
  643TMC3    C7 9579   2.517   2.660  17.446  0.2515 -0.3626  0.3428
  643TMC3    C8 9580   2.319   2.968  17.596 -0.4357 -0.3010 -0.0366
  643TMC3    O1 9581   2.630   2.698  17.419  0.7696 -0.0963 -0.5270
  643TMC3    O2 9582   2.204   2.960  17.564 -0.3736  0.0410 -0.3387
  644MPD2     C 9583   1.736   2.400   9.744  0.4003 -0.1101 -0.0403
  644MPD2    C1 9584   1.645   2.305   9.698  0.1746  0.0951  0.4955
  644MPD2    C2 9585   1.532   2.358   9.643  0.8377 -0.1300 -0.2332
  644MPD2    C3 9586   1.499   2.490   9.634 -0.1048 -0.1285  0.0765
  644MPD2    C4 9587   1.594   2.583   9.672 -0.5176  0.0741  0.7718
  644MPD2    C5 9588   1.714   2.535   9.715  0.0287  0.3392  0.1733
  644MPD2     H 9589   1.442   2.299   9.629  0.8862 -0.2510 -0.0438
  644MPD2    H1 9590   1.574   2.690   9.667 -0.0007  0.1743  0.8254
  644MPD2    H2 9591   1.834   2.369   9.779 -0.3815 -4.1044 -1.4545
  644MPD2    H3 9592   1.792   2.602   9.750  1.7552 -1.6910  0.2069
  644MPD2     N 9593   1.380   2.529   9.578  0.4677  0.4378  0.3358
  644MPD2    H5 9594   1.304   2.462   9.585  0.7510 -0.0049 -0.9774
  644MPD2    N1 9595   1.674   2.164   9.703  0.6748  0.0143  0.5384
  644MPD2    H7 9596   1.759   2.144   9.755  1.6210 -0.4814 -1.1805
  645TMC3    C1 9597   1.221   2.679   9.497  0.2646 -1.0410  0.6189
  645TMC3    C2 9598   1.193   2.786   9.416  0.7253 -0.0854 -0.5647
  645TMC3    C3 9599   1.064   2.826   9.401  0.1005 -0.8681  0.1336
  645TMC3    C4 9600   1.113   2.605   9.546 -0.1693 -0.4013  0.2374
  645TMC3    C5 9601   0.982   2.647   9.530  0.0963 -0.0301 -0.4479
  645TMC3    C6 9602   0.959   2.762   9.462  0.5261  0.3903 -0.1107
  645TMC3     C 9603   1.360   2.654   9.529  0.1235  0.3261 -1.0728
  645TMC3     O 9604   1.441   2.734   9.491 -0.5531 -0.3602 -0.4914
  645TMC3     H 9605   1.278   2.846   9.384  1.0882  0.8843  2.2497
  645TMC3    H1 9606   1.129   2.528   9.621  0.3775 -0.4821  0.0408
  645TMC3    H2 9607   0.857   2.791   9.441  0.4454  1.1913  1.3657
  645TMC3    C7 9608   0.869   2.559   9.570 -0.7389 -0.4442  0.2378
  645TMC3    C8 9609   1.046   2.969   9.370  0.6861 -0.2729  0.6903
  645TMC3    O1 9610   0.760   2.610   9.574 -0.4101  0.0166  0.4539
  645TMC3    O2 9611   1.147   3.039   9.377 -0.4631 -0.3052 -0.0893
  646MPD2     C 9612   1.831   2.769  14.417 -0.6925  0.1663  0.3392
  646MPD2    C1 9613   1.759   2.743  14.533 -0.5682 -0.6462 -0.2367
  646MPD2    C2 9614   1.632   2.804  14.540  0.4437 -0.1441 -0.3794
  646MPD2    C3 9615   1.580   2.873  14.430 -0.2527 -0.1214 -0.1797
  646MPD2    C4 9616   1.651   2.895  14.317 -0.5857  0.2156  0.5071
  646MPD2    C5 9617   1.778   2.842  14.317 -0.8859 -0.5723  0.2909
  646MPD2     H 9618   1.568   2.801  14.628  1.5727 -1.0851  0.4197
  646MPD2    H1 9619   1.610   2.941  14.229 -0.6576 -2.0878 -0.6766
  646MPD2    H2 9620   1.931   2.733  14.398 -0.9175  0.6333 -1.6836
  646MPD2    H3 9621   1.836   2.862  14.227 -1.4854  0.1625  0.0613
  646MPD2     N 9622   1.438   2.910  14.442 -0.1185  0.8445 -0.0667
  646MPD2    H5 9623   1.391   2.898  14.532  1.5314 -2.2501  0.3811
  646MPD2    N1 9624   1.819   2.667  14.635  0.0243 -0.6606  0.2164
  646MPD2    H7 9625   1.905   2.623  14.606  0.4472  0.5492 -0.3484
  647TMC3    C1 9626   1.842   2.538  14.838  0.9209 -0.0339 -0.1484
  647TMC3    C2 9627   1.768   2.464  14.930 -0.1606 -0.5603  0.0173
  647TMC3    C3 9628   1.830   2.409  15.040  0.5635 -0.1810 -1.0001
  647TMC3    C4 9629   1.976   2.553  14.856 -0.7419  0.0496  0.3371
  647TMC3    C5 9630   2.036   2.507  14.973 -0.1148  0.3152 -0.5255
  647TMC3    C6 9631   1.960   2.438  15.063  0.4374 -0.0853  0.3747
  647TMC3     C 9632   1.771   2.633  14.759  0.1355  0.2861  0.0743
  647TMC3     O 9633   1.662   2.668  14.807 -0.1998  0.0337 -0.0870
  647TMC3     H 9634   1.660   2.451  14.920  0.2351 -0.8544 -3.8488
  647TMC3    H1 9635   2.030   2.602  14.776 -0.8537 -1.1221 -0.4684
  647TMC3    H2 9636   2.011   2.414  15.155  0.6429 -0.1143  0.2528
  647TMC3    C7 9637   2.174   2.472  14.975 -0.1717 -0.5584  0.0987
  647TMC3    C8 9638   1.753   2.354  15.151 -1.0264 -0.2042  0.1889
  647TMC3    O1 9639   2.234   2.489  15.079  0.8075  0.4786 -0.1473
  647TMC3    O2 9640   1.804   2.366  15.259 -0.6990 -0.0953  0.0298
  648TMC3    C1 9641   1.489   0.350  16.459  0.3081 -0.3795 -0.1190
  648TMC3    C2 9642   1.505   0.237  16.390  0.4717  0.9729 -0.4453
  648TMC3    C3 9643   1.498   0.234  16.256  0.2945 -0.3370 -0.6621
  648TMC3    C4 9644   1.454   0.466  16.391 -0.2293  0.0671 -0.3379
  648TMC3    C5 9645   1.435   0.453  16.253 -0.4004  0.5956  0.1261
  648TMC3    C6 9646   1.471   0.342  16.179  0.3512 -0.0533  0.0368
  648TMC3     C 9647   1.459   0.353  16.604  0.3441 -0.0023  0.0234
  648TMC3     O 9648   1.444   0.466  16.648 -0.0331 -0.3580 -0.2823
  648TMC3     H 9649   1.525   0.145  16.444  1.1801  0.9914 -0.6798
  648TMC3    H1 9650   1.428   0.564  16.430  0.5168  0.2571 -0.3099
  648TMC3    H2 9651   1.448   0.319  16.075 -0.2815 -0.1758  0.2018
  648TMC3    C7 9652   1.376   0.557  16.173 -0.2809 -0.2562 -0.2947
  648TMC3    C8 9653   1.488   0.097  16.201 -0.2427 -0.0210  0.0973
  648TMC3    O1 9654   1.417   0.559  16.056 -0.2534 -0.2384 -0.5800
  648TMC3    O2 9655   1.460   0.006  16.282  0.0136 -0.0564 -0.1936
  649TMC3    C1 9656   4.512   1.103  13.218 -0.8326  0.1114 -0.0649
  649TMC3    C2 9657   4.616   1.187  13.223  0.5124 -0.6514 -0.0794
  649TMC3    C3 9658   4.703   1.177  13.335  0.5382 -0.1019  0.4773
  649TMC3    C4 9659   4.480   1.010  13.313 -0.6401  0.1747  0.2361
  649TMC3    C5 9660   4.557   1.007  13.427  0.7324 -0.8625  0.2818
  649TMC3    C6 9661   4.666   1.089  13.443  0.3430  0.5295  0.0086
  649TMC3     C 9662   4.410   1.120  13.109  0.4504  0.1406  0.4516
  649TMC3     O 9663   4.376   1.232  13.072  0.0361 -0.4057 -0.0468
  649TMC3     H 9664   4.623   1.271  13.155 -1.3691 -0.7414 -0.3944
  649TMC3    H1 9665   4.390   0.949  13.309 -0.6690  0.1478  1.2790
  649TMC3    H2 9666   4.722   1.090  13.536  0.5625 -1.3706 -0.1176
  649TMC3    C7 9667   4.494   0.941  13.541 -0.5231 -0.0722  0.0078
  649TMC3    C8 9668   0.071   1.271  13.342  0.1266  0.2496 -0.0635
  649TMC3    O1 9669   4.393   0.995  13.579  0.2373 -0.4726 -0.2373
  649TMC3    O2 9670   0.094   1.339  13.246  0.2407  0.7645 -0.4985
  650TMC3    C1 9671   2.262   2.557  13.246  0.0005 -0.0266  0.4068
  650TMC3    C2 9672   2.178   2.666  13.246  0.4160  0.6213  0.2972
  650TMC3    C3 9673   2.250   2.780  13.215 -0.0781  0.2953  0.5249
  650TMC3    C4 9674   2.398   2.556  13.214  0.0594  0.1854 -0.3247
  650TMC3    C5 9675   2.464   2.678  13.197 -0.5312 -0.5110 -0.0272
  650TMC3    C6 9676   2.381   2.788  13.181 -0.6395 -0.1033 -0.1505
  650TMC3     C 9677   2.205   2.429  13.302 -0.1114 -0.0483 -0.2019
  650TMC3     O 9678   2.109   2.440  13.377  0.1996 -0.6302  0.2980
  650TMC3     H 9679   2.078   2.655  13.287  1.0195 -0.0778  1.5682
  650TMC3    H1 9680   2.467   2.472  13.216  1.8510  1.6845  1.8465
  650TMC3    H2 9681   2.430   2.881  13.155 -2.1535  1.3327  2.1022
  650TMC3    C7 9682   2.581   2.657  13.109 -0.4222  0.0026  0.0084
  650TMC3    C8 9683   2.178   2.898  13.172 -0.1612  0.0876 -0.0953
  650TMC3    O1 9684   2.662   2.575  13.149  0.5081 -0.9471 -0.6805
  650TMC3    O2 9685   2.231   3.001  13.206  0.6415 -0.5437 -0.0657
  651MPD2     C 9686   1.059   4.543  10.453 -0.3727 -0.3705  0.2108
  651MPD2    C1 9687   1.099   4.569  10.579 -1.0518 -0.4415 -0.6808
  651MPD2    C2 9688   1.233   4.562  10.615 -0.6004  0.4267  0.2247
  651MPD2    C3 9689   1.326   4.516  10.526  0.0893 -0.2118  0.1785
  651MPD2    C4 9690   1.289   4.501  10.394  0.5205  0.2725 -0.3724
  651MPD2    C5 9691   1.154   4.512  10.357 -0.2369  0.1612 -0.5368
  651MPD2     H 9692   1.266   4.578  10.716 -0.1564  0.8375  0.0115
  651MPD2    H1 9693   1.358   4.479  10.313 -1.5846 -1.3194 -1.7326
  651MPD2    H2 9694   0.955   4.548  10.423  0.3482 -0.9145 -2.3693
  651MPD2    H3 9695   1.124   4.500  10.254  1.8439 -1.6261 -0.9460
  651MPD2     N 9696   1.451   4.477  10.579 -0.1508 -0.0281 -0.7735
  651MPD2    H5 9697   1.453   4.478  10.681 -1.3609 -3.3095 -0.7381
  651MPD2    N1 9698   1.013   4.601  10.685  0.3923  0.2435  0.1143
  651MPD2    H7 9699   1.058   4.644  10.765 -1.4305  1.2347  0.5916
  652TMC3    C1 9700   1.893   4.424  10.649 -0.3136 -0.0316 -0.3540
  652TMC3    C2 9701   1.793   4.426  10.558  0.4271 -0.4512  0.2429
  652TMC3    C3 9702   1.665   4.387  10.598 -0.7542  0.4908 -0.7287
  652TMC3    C4 9703   1.867   4.368  10.775 -0.0776 -0.1296 -0.1473
  652TMC3    C5 9704   1.735   4.347  10.817 -0.0243 -0.2621  0.6338
  652TMC3    C6 9705   1.632   4.360  10.734  0.0226 -0.0411  0.3228
  652TMC3     C 9706   2.025   4.445  10.595  1.3262 -0.8068 -0.1089
  652TMC3     O 9707   2.028   4.497  10.481  0.5605 -0.5533 -0.0508
  652TMC3     H 9708   1.813   4.457  10.456 -0.1521 -1.0611 -0.0522
  652TMC3    H1 9709   1.942   4.374  10.853 -1.0788  0.3464  0.7842
  652TMC3    H2 9710   1.536   4.319  10.765  0.6996 -1.5500  0.4274
  652TMC3    C7 9711   1.711   4.329  10.961 -1.1093 -1.1798 -0.7355
  652TMC3    C8 9712   1.556   4.426  10.507 -0.4708 -0.0117 -0.2144
  652TMC3    O1 9713   1.602   4.279  10.989 -0.2631 -0.2358  0.0396
  652TMC3    O2 9714   1.581   4.427  10.386 -0.1462  0.2560  0.2943
  653MPD2     C 9715   0.178   0.086   0.189  0.0314 -0.7224  0.2551
  653MPD2    C1 9716   0.267   0.153   0.106 -0.7238 -0.9207  0.2414
  653MPD2    C2 9717   0.281   0.117  17.728 -0.3721  0.6926  0.4920
  653MPD2    C3 9718   0.213   0.006  17.674  0.3069  0.1660 -0.0356
  653MPD2    C4 9719   0.119   4.686  17.757  0.1388  0.1526  0.7567
  653MPD2    C5 9720   0.102   4.726   0.136  0.0004 -0.0664 -0.1478
  653MPD2     H 9721   0.358   0.170  17.675  0.2370 -1.1334 -0.4505
  653MPD2    H1 9722   0.061   4.607  17.712  0.0886  0.8538 -0.3974
  653MPD2    H2 9723   0.154   0.104   0.293 -0.7189 -0.5589  0.0511
  653MPD2    H3 9724   0.031   4.684   0.206  2.8034 -0.9594  2.1856
  653MPD2     N 9725   0.240   4.717  17.542  0.1150 -0.4304  0.4187
  653MPD2    H5 9726   0.300   0.041  17.492  0.3591  0.0336  1.3212
  653MPD2    N1 9727   0.343   0.266   0.159  0.8378 -0.2899 -0.0089
  653MPD2    H7 9728   0.381   0.335   0.095  0.2406 -2.7811 -3.0617
  654TMC3    C1 9729   0.220   4.601  17.344 -0.4433 -0.5625  0.2526
  654TMC3    C2 9730   0.172   4.701  17.273  0.0732  0.2335  0.2411
  654TMC3    C3 9731   0.167   4.682  17.137 -0.1032  0.2564  0.2440
  654TMC3    C4 9732   0.248   4.480  17.295 -0.2090  0.5478  0.1387
  654TMC3    C5 9733   0.230   4.468  17.159 -0.2161  0.5088 -0.5787
  654TMC3    C6 9734   0.201   4.569  17.078 -0.6497 -0.0390  0.1274
  654TMC3     C 9735   0.202   4.601  17.481  0.3136  0.0307  0.0825
  654TMC3     O 9736   0.140   4.503  17.525  0.0713  0.2385 -0.1135
  654TMC3     H 9737   0.139   0.054  17.318 -1.2285  0.0659 -0.3678
  654TMC3    H1 9738   0.290   4.410  17.367 -2.9567 -1.4252 -0.1714
  654TMC3    H2 9739   0.183   4.551  16.973  1.3102  2.2838 -0.6208
  654TMC3    C7 9740   0.184   4.339  17.108 -0.4794  0.0581  0.4104
  654TMC3    C8 9741   0.034   4.725  17.092  0.4127 -0.2898 -0.0958
  654TMC3    O1 9742   0.107   4.344  17.011 -0.1992 -0.2867  0.0928
  654TMC3    O2 9743   4.728   0.087  17.143  0.7959 -0.1480 -0.0041
  655MPD2     C 9744   1.870   0.695  15.909 -0.3141 -0.2086  0.0631
  655MPD2    C1 9745   1.749   0.742  15.860  0.4511 -0.2972  0.4455
  655MPD2    C2 9746   1.710   0.701  15.738 -0.3351  0.2368  0.8643
  655MPD2    C3 9747   1.775   0.605  15.658  0.9483 -0.1762 -0.3027
  655MPD2    C4 9748   1.892   0.558  15.715  0.6240  0.4378 -0.0332
  655MPD2    C5 9749   1.938   0.613  15.825 -0.4506 -0.5902 -0.0294
  655MPD2     H 9750   1.618   0.743  15.698  0.3325  1.6298  0.7927
  655MPD2    H1 9751   1.947   0.476  15.669  0.1149 -0.6256  1.2573
  655MPD2    H2 9752   1.910   0.723  16.006  1.8376 -2.7695 -0.0989
  655MPD2    H3 9753   2.036   0.574  15.850  0.2229  2.5275  2.3231
  655MPD2     N 9754   1.725   0.538  15.542  0.0430 -0.0752 -0.3823
  655MPD2    H5 9755   1.784   0.466  15.500 -0.4485 -0.7032  0.0058
  655MPD2    N1 9756   1.661   0.833  15.932 -0.4044  0.2683 -0.4042
  655MPD2    H7 9757   1.576   0.865  15.886  0.2122  1.2882 -0.8240
  656TMC3    C1 9758   1.540   0.897  16.130  0.5242 -0.1886 -0.4151
  656TMC3    C2 9759   1.523   0.886  16.267 -0.6010 -0.5661 -0.2022
  656TMC3    C3 9760   1.432   0.969  16.333  0.2013 -0.4253 -0.6434
  656TMC3    C4 9761   1.472   0.987  16.057  0.1697 -0.0370  0.9115
  656TMC3    C5 9762   1.382   1.066  16.129  0.3632  0.5166  0.4111
  656TMC3    C6 9763   1.362   1.062  16.261  0.4983 -0.7695  0.1252
  656TMC3     C 9764   1.654   0.832  16.069  0.4669 -0.4869  0.1573
  656TMC3     O 9765   1.723   0.762  16.145  0.1314 -0.1783 -0.1794
  656TMC3     H 9766   1.579   0.814  16.326  0.3176  0.9970  0.8419
  656TMC3    H1 9767   1.482   1.005  15.951  0.3484 -1.6601  0.6616
  656TMC3    H2 9768   1.307   1.142  16.308  0.9520 -0.5728  0.3164
  656TMC3    C7 9769   1.328   1.170  16.047 -0.0400  0.0864  0.3756
  656TMC3    C8 9770   1.362   0.907  16.446 -0.3521 -0.9996 -0.4362
  656TMC3    O1 9771   1.401   1.218  15.960  0.4666  0.0568 -0.2137
  656TMC3    O2 9772   1.409   0.802  16.483 -0.0256 -0.1418  0.0531
  657TMC3    C1 9773   0.320   0.115  15.118 -0.1027 -0.0692  0.4926
  657TMC3    C2 9774   0.378   0.117  15.240 -0.1789 -0.5164  0.6210
  657TMC3    C3 9775   0.416   0.238  15.280  0.6467 -0.0171  0.0395
  657TMC3    C4 9776   0.283   0.228  15.050 -0.4999  0.2159 -0.5201
  657TMC3    C5 9777   0.330   0.349  15.098  0.1312 -1.0685 -0.1259
  657TMC3    C6 9778   0.395   0.355  15.217 -0.0898 -0.8422  0.3204
  657TMC3     C 9779   0.253   4.737  15.075  0.2028 -0.1441  0.1498
  657TMC3     O 9780   0.146   0.011  15.018  0.0795 -0.0899 -0.1401
  657TMC3     H 9781   0.403   0.028  15.297  0.2296 -2.2867 -2.3305
  657TMC3    H1 9782   0.223   0.217  14.960 -1.1539 -2.3380  0.2357
  657TMC3    H2 9783   0.446   0.444  15.252  2.1354 -2.3012  0.7404
  657TMC3    C7 9784   0.306   0.473  15.031 -0.2478 -0.0423  0.0869
  657TMC3    C8 9785   0.460   0.251  15.419 -0.2475  0.0788 -0.8196
  657TMC3    O1 9786   0.318   0.475  14.909  0.1848  0.2648  0.0732
  657TMC3    O2 9787   0.481   0.364  15.469  0.5780 -0.0040  0.3427
  658MPD2     C 9788   1.938   0.408  14.932  0.3180  0.7501  0.8128
  658MPD2    C1 9789   1.808   0.357  14.945  0.7405  0.5477 -0.5842
  658MPD2    C2 9790   1.732   0.330  14.829  0.4218  0.0922 -0.8993
  658MPD2    C3 9791   1.789   0.346  14.705  0.1227  0.0739  0.7778
  658MPD2    C4 9792   1.911   0.411  14.689 -0.6768 -0.6479 -0.3603
  658MPD2    C5 9793   1.989   0.433  14.806  0.0310 -0.2764 -0.6721
  658MPD2     H 9794   1.631   0.294  14.846 -0.0351  1.7383 -0.0494
  658MPD2    H1 9795   1.945   0.433  14.589 -2.9936 -0.3253 -1.0891
  658MPD2    H2 9796   2.002   0.441  15.013  0.5041  1.1713  0.4931
  658MPD2    H3 9797   2.088   0.475  14.788 -1.2460  2.5195 -1.1270
  658MPD2     N 9798   1.703   0.317  14.595 -0.2529 -0.1233 -0.0184
  658MPD2    H5 9799   1.609   0.288  14.618 -0.5747 -0.9725 -2.4545
  658MPD2    N1 9800   1.751   0.348  15.071 -0.4888 -0.3452 -0.1005
  658MPD2    H7 9801   1.807   0.390  15.145 -2.5251 -1.0643  1.8628
  659TMC3    C1 9802   1.606   0.277  15.247 -0.0334  0.3296  0.5051
  659TMC3    C2 9803   1.645   0.394  15.316  0.4578  0.2184 -0.5143
  659TMC3    C3 9804   1.554   0.453  15.397 -0.4408 -0.6248  0.8123
  659TMC3    C4 9805   1.481   0.226  15.256 -0.2439  0.3514 -0.4739
  659TMC3    C5 9806   1.394   0.295  15.334 -0.3913 -0.2581 -0.4819
  659TMC3    C6 9807   1.423   0.408  15.398  0.4621  0.0739  1.5315
  659TMC3     C 9808   1.650   0.265  15.109  0.2309 -0.3879 -0.2719
  659TMC3     O 9809   1.580   0.197  15.032  0.0466 -0.1006  0.6698
  659TMC3     H 9810   1.747   0.429  15.309  0.4839  0.2101 -0.1820
  659TMC3    H1 9811   1.449   0.130  15.216  0.8875  0.4868 -1.7495
  659TMC3    H2 9812   1.360   0.452  15.474 -2.6041 -0.1547 -0.8631
  659TMC3    C7 9813   1.257   0.298  15.286 -0.3657 -0.6400 -0.1536
  659TMC3    C8 9814   1.592   0.546  15.500 -0.5125  0.4616  0.2403
  659TMC3    O1 9815   1.180   0.356  15.361  0.0308  0.4502 -0.3090
  659TMC3    O2 9816   1.502   0.611  15.553 -0.4850 -0.2963 -0.2496
  660MPD2     C 9817   4.464   3.300  12.669 -0.1834 -0.0419  0.0808
  660MPD2    C1 9818   4.334   3.345  12.680 -0.6812 -0.2445 -0.4205
  660MPD2    C2 9819   4.252   3.293  12.784 -0.6928  0.4905  0.1038
  660MPD2    C3 9820   4.305   3.202  12.876  0.0335 -0.1252 -0.8034
  660MPD2    C4 9821   4.441   3.168  12.866 -0.2771 -0.4645  0.0220
  660MPD2    C5 9822   4.513   3.204  12.753  0.0867 -0.4945 -0.7918
  660MPD2     H 9823   4.148   3.321  12.794 -0.7344  0.1348  0.6566
  660MPD2    H1 9824   4.477   3.087  12.928  0.6115  0.7568  1.0971
  660MPD2    H2 9825   4.529   3.341  12.593 -3.2924  2.2936 -1.2971
  660MPD2    H3 9826   4.615   3.169  12.743  0.9804  2.0831 -0.8697
  660MPD2     N 9827   4.224   3.142  12.978  0.0589 -0.6013 -0.0561
  660MPD2    H5 9828   4.266   3.059  13.020  0.8293  0.4184  1.1927
  660MPD2    N1 9829   4.285   3.434  12.577  0.0868  0.6461 -0.3797
  660MPD2    H7 9830   4.360   3.471  12.519  0.1001 -0.5477 -1.1316
  661TMC3    C1 9831   4.150   3.596  12.477  0.1125  0.6268 -0.0521
  661TMC3    C2 9832   4.203   3.581  12.353  0.0650 -0.8602  0.0239
  661TMC3    C3 9833   4.127   3.622  12.248 -0.8826  0.2174 -0.0073
  661TMC3    C4 9834   4.027   3.650  12.496 -0.3191 -0.2270 -0.6825
  661TMC3    C5 9835   3.957   3.696  12.385  0.0799 -0.1924  0.8506
  661TMC3    C6 9836   4.007   3.685  12.259  0.0429  0.0912  0.3945
  661TMC3     C 9837   4.158   3.480  12.566  0.7727  0.0463  0.2635
  661TMC3     O 9838   4.057   3.449  12.627 -0.1187  0.1345 -0.2638
  661TMC3     H 9839   4.276   3.503  12.336  0.0066 -0.9044 -0.0268
  661TMC3    H1 9840   3.985   3.652  12.596  0.0820  0.2687 -0.5283
  661TMC3    H2 9841   3.969   3.746  12.177 -1.5603  0.6941  1.5910
  661TMC3    C7 9842   3.820   3.658  12.402 -0.2864 -0.7093  0.2916
  661TMC3    C8 9843   4.161   3.597  12.108 -0.3629  0.4017  0.3758
  661TMC3    O1 9844   3.789   3.629  12.517 -0.2833 -0.2369  0.3815
  661TMC3    O2 9845   4.064   3.607  12.032 -0.7801 -0.1995  0.2333
  662MPD2     C 9846   0.055   3.480  16.894  0.6154  0.5773  0.2199
  662MPD2    C1 9847   0.023   3.370  16.963 -0.1618 -0.0455  0.5114
  662MPD2    C2 9848   4.677   3.380  17.073  0.2079 -0.2081 -0.2058
  662MPD2    C3 9849   4.619   3.498  17.124 -0.3714 -0.5289 -0.2301
  662MPD2    C4 9850   4.657   3.610  17.053 -0.1327  0.2971 -0.4647
  662MPD2    C5 9851   0.004   3.593  16.945 -0.9664 -0.2439  0.1498
  662MPD2     H 9852   4.665   3.287  17.128  0.9601 -0.8892 -1.1664
  662MPD2    H1 9853   4.622   3.710  17.078  2.1274  0.9747  0.0733
  662MPD2    H2 9854   0.126   3.484  16.812  1.2778  0.3671  0.7794
  662MPD2    H3 9855   0.037   3.683  16.894 -2.9991  1.2782  1.5028
  662MPD2     N 9856   4.527   3.497  17.231  0.0999 -0.8675  0.2320
  662MPD2    H5 9857   4.491   3.406  17.259 -0.8882 -0.0142  1.7039
  662MPD2    N1 9858   0.079   3.244  16.928  0.4391  0.2333  0.4136
  662MPD2    H7 9859   0.082   3.169  16.996  0.7419 -0.1621 -0.0355
  663TMC3    C1 9860   0.173   3.065  16.814  0.3979  0.1671 -0.0223
  663TMC3    C2 9861   0.104   2.985  16.727  0.3588  0.5595  0.2197
  663TMC3    C3 9862   0.042   2.868  16.772  0.3486 -0.0485 -0.4892
  663TMC3    C4 9863   0.197   3.027  16.941 -0.1701  0.3174  0.6784
  663TMC3    C5 9864   0.145   2.910  16.983  0.3792 -0.0989  0.1707
  663TMC3    C6 9865   0.062   2.830  16.900  0.0529  0.4301  0.6065
  663TMC3     C 9866   0.138   3.207  16.811  0.0442  0.4223 -0.2089
  663TMC3     O 9867   0.141   3.270  16.702  0.3164 -0.1771 -0.4005
  663TMC3     H 9868   0.082   3.024  16.629 -2.6331 -2.3839 -0.3107
  663TMC3    H1 9869   0.274   3.085  16.990 -0.9897  1.7801  0.2225
  663TMC3    H2 9870   0.055   2.722  16.906 -0.5980  0.4883  0.9078
  663TMC3    C7 9871   0.191   2.863  17.114  0.3041  0.1450  0.2964
  663TMC3    C8 9872   4.641   2.855  16.735  0.2629 -0.0440 -0.3842
  663TMC3    O1 9873   0.280   2.923  17.178  0.1252  0.6173 -0.3541
  663TMC3    O2 9874   4.608   2.891  16.625 -0.1061 -0.2847 -0.3565
  664MPD2     C 9875   2.392   1.586  17.435 -0.0543 -0.5334  0.3006
  664MPD2    C1 9876   2.508   1.607  17.510  0.5530  0.3542  0.2782
  664MPD2    C2 9877   2.515   1.540  17.626 -0.1052  0.7859  1.2734
  664MPD2    C3 9878   2.435   1.438  17.664  0.5042  0.1372  0.3880
  664MPD2    C4 9879   2.322   1.411  17.590  0.0271  0.0173 -0.6873
  664MPD2    C5 9880   2.305   1.486  17.476  0.5523  0.0264 -0.1193
  664MPD2     H 9881   2.595   1.571  17.693  1.7231 -0.3026 -0.3801
  664MPD2    H1 9882   2.251   1.332  17.608  1.0032 -0.7154 -0.0330
  664MPD2    H2 9883   2.368   1.637  17.342 -3.3262  0.3041  1.6020
  664MPD2    H3 9884   2.214   1.478  17.417  0.5179 -1.8229  0.1722
  664MPD2     N 9885   2.464   1.371   0.026 -0.4279  0.4973  0.2598
  664MPD2    H5 9886   2.551   1.398   0.070  0.1030  0.8497 -1.0087
  664MPD2    N1 9887   2.585   1.724  17.487 -0.2643 -0.8366 -0.0966
  664MPD2    H7 9888   2.674   1.742  17.531 -0.9720  1.6735  0.3076
  665TMC3    C1 9889   2.442   1.210   0.201 -0.7378  0.0324  0.3112
  665TMC3    C2 9890   2.356   1.151   0.279 -0.5755  0.7716  0.4211
  665TMC3    C3 9891   2.406   1.067   0.378 -0.0655 -0.1458 -0.1569
  665TMC3    C4 9892   2.576   1.183   0.198 -0.7255  0.7136 -1.3563
  665TMC3    C5 9893   2.622   1.094   0.290 -0.3626  0.6404 -0.5572
  665TMC3    C6 9894   2.537   1.039   0.384  0.8944 -0.0301 -0.0750
  665TMC3     C 9895   2.372   1.278   0.089 -0.4846  0.0212 -0.6269
  665TMC3     O 9896   2.267   1.232   0.059 -0.1448  0.0250  0.2251
  665TMC3     H 9897   2.249   1.165   0.270 -0.7730 -0.9943  0.0918
  665TMC3    H1 9898   2.639   1.209   0.114  0.0311 -0.0869 -1.0340
  665TMC3    H2 9899   2.567   0.966   0.458 -0.3494  0.3387  0.7938
  665TMC3    C7 9900   2.764   1.090   0.321 -0.7265 -0.2943  0.3764
  665TMC3    C8 9901   2.332   1.009   0.493  0.8682  0.3064 -0.0604
  665TMC3    O1 9902   2.797   0.986   0.383 -0.1082  0.0448 -0.1021
  665TMC3    O2 9903   2.387   0.942   0.576 -0.2212 -0.2680  0.6062
  666TMC3    C1 9904   1.710   0.731  10.628 -0.3994  0.7577  0.0335
  666TMC3    C2 9905   1.751   0.652  10.737  0.0206  0.0894 -0.2658
  666TMC3    C3 9906   1.892   0.649  10.760  0.6072 -0.6237  0.0852
  666TMC3    C4 9907   1.797   0.785  10.532  0.8622 -0.1435  0.0904
  666TMC3    C5 9908   1.931   0.770  10.563  0.4072 -0.1516 -0.2920
  666TMC3    C6 9909   1.978   0.707  10.676 -0.6486 -0.6055 -0.1519
  666TMC3     C 9910   1.580   0.793  10.624 -0.5707 -0.1469  1.0237
  666TMC3     O 9911   1.584   0.906  10.577  0.6389  0.9752  0.4947
  666TMC3     H 9912   1.680   0.608  10.805 -1.6724 -1.5816 -3.1289
  666TMC3    H1 9913   1.761   0.858  10.462  1.2277 -0.4082 -0.3787
  666TMC3    H2 9914   2.084   0.687  10.670 -0.4051  0.6506 -0.0848
  666TMC3    C7 9915   2.013   0.882  10.521  0.2874 -1.1071  0.0355
  666TMC3    C8 9916   1.936   0.531  10.837  0.0890 -0.3660  0.2235
  666TMC3    O1 9917   2.053   0.958  10.606 -0.3820 -0.0084  0.6997
  666TMC3    O2 9918   1.854   0.473  10.903  0.0680  0.1967  0.1202
  667MPD2     C 9919   3.317   2.021  14.399 -0.0748  0.2081 -0.7709
  667MPD2    C1 9920   3.338   1.976  14.528  0.0838  0.4579 -0.0662
  667MPD2    C2 9921   3.247   1.883  14.581 -0.3438  0.3988 -0.5369
  667MPD2    C3 9922   3.148   1.827  14.501  0.6778 -0.6974  0.0394
  667MPD2    C4 9923   3.136   1.870  14.371 -0.2893  0.4802 -0.0090
  667MPD2    C5 9924   3.223   1.960  14.323 -0.3590 -0.0054 -0.1845
  667MPD2     H 9925   3.262   1.830  14.675  1.2192 -1.4150 -1.8124
  667MPD2    H1 9926   3.060   1.822  14.310 -0.5239  1.3488 -0.3976
  667MPD2    H2 9927   3.369   2.105  14.355  0.0816  0.0631 -0.8618
  667MPD2    H3 9928   3.211   1.979  14.217 -1.6690  0.1224 -0.0079
  667MPD2     N 9929   3.062   1.724  14.535 -0.1201  0.3464 -0.0564
  667MPD2    H5 9930   3.019   1.674  14.458 -1.3141 -0.2839  1.0209
  667MPD2    N1 9931   3.438   2.024  14.610  0.6517  0.3422 -0.0016
  667MPD2    H7 9932   3.412   2.004  14.707 -2.8350  1.7346 -0.6596
  668TMC3    C1 9933   3.616   2.166  14.686  0.6888 -0.4473 -0.2314
  668TMC3    C2 9934   3.693   2.267  14.647  0.0958  0.2381  0.1261
  668TMC3    C3 9935   3.747   2.346  14.740  0.0114  0.1143  0.0412
  668TMC3    C4 9936   3.586   2.138  14.818 -0.4856  0.7448 -0.1074
  668TMC3    C5 9937   3.646   2.220  14.910  0.9143  0.3631 -0.4215
  668TMC3    C6 9938   3.724   2.325  14.872 -0.6250  0.2097  0.1886
  668TMC3     C 9939   3.549   2.098  14.568  0.0337 -0.0286 -0.0680
  668TMC3     O 9940   3.576   2.121  14.453 -0.5262 -0.1769 -0.4788
  668TMC3     H 9941   3.708   2.288  14.541 -0.9558 -1.8153 -0.4396
  668TMC3    H1 9942   3.527   2.054  14.853  1.8421 -0.2855  1.3634
  668TMC3    H2 9943   3.769   2.382  14.953  0.9847  0.0394 -0.5856
  668TMC3    C7 9944   3.677   2.168  15.042  0.0316  0.4201  0.0255
  668TMC3    C8 9945   3.784   2.484  14.692  0.1468 -0.5382 -0.4667
  668TMC3    O1 9946   3.795   2.179  15.077  0.8450  0.9405  0.4633
  668TMC3    O2 9947   3.794   2.571  14.776  0.4622  0.4010  0.0903
  669TMC3    C1 9948   1.601   1.691  14.629 -0.3814 -0.0991 -0.2753
  669TMC3    C2 9949   1.484   1.659  14.572  0.2315  0.1628  0.4524
  669TMC3    C3 9950   1.484   1.696  14.438 -0.5924 -0.1702 -0.0620
  669TMC3    C4 9951   1.708   1.754  14.579  0.5430 -0.0796 -0.0397
  669TMC3    C5 9952   1.700   1.791  14.449  0.2498 -0.4646  0.0629
  669TMC3    C6 9953   1.598   1.750  14.374  0.0723 -0.5137 -0.4360
  669TMC3     C 9954   1.620   1.628  14.764  0.3690 -0.3036  0.0371
  669TMC3     O 9955   1.525   1.589  14.832 -0.0268 -0.0413 -0.5549
  669TMC3     H 9956   1.410   1.598  14.622 -0.3958 -0.3828 -1.1397
  669TMC3    H1 9957   1.777   1.803  14.647  0.1723  1.2741 -0.6254
  669TMC3    H2 9958   1.601   1.750  14.266 -1.0405  0.9438 -0.4773
  669TMC3    C7 9959   1.795   1.893  14.408 -0.2786 -0.2304  0.1863
  669TMC3    C8 9960   1.371   1.665  14.350  0.4487 -0.3208  0.6016
  669TMC3    O1 9961   1.895   1.914  14.476  0.8788 -0.3613 -0.0117
  669TMC3    O2 9962   1.305   1.571  14.385 -0.0650  0.2695  0.2286
  670MPD2     C 9963   4.739   3.791  13.335 -0.5784  0.1511 -0.0098
  670MPD2    C1 9964   0.039   3.895  13.413 -0.5628 -0.0899  1.0166
  670MPD2    C2 9965   4.680   3.965  13.481  0.1246  0.3908 -0.1314
  670MPD2    C3 9966   4.548   3.916  13.489  0.5015  0.1300 -0.3000
  670MPD2    C4 9967   4.510   3.804  13.419  0.2008 -0.3251  0.4540
  670MPD2    C5 9968   4.608   3.748  13.335  0.3752 -0.6470 -0.0105
  670MPD2     H 9969   4.707   4.044  13.550 -0.2313 -0.3735  0.8663
  670MPD2    H1 9970   4.411   3.760  13.425 -0.1143  0.7238  3.1637
  670MPD2    H2 9971   0.069   3.748  13.265  0.3425  0.0192  0.9813
  670MPD2    H3 9972   4.582   3.668  13.267  2.3382 -1.4448  0.1663
  670MPD2     N 9973   4.463   3.965  13.592  0.3606  0.7005 -0.1765
  670MPD2    H5 9974   4.501   4.043  13.644  0.4959  0.9115 -0.5956
  670MPD2    N1 9975   0.172   3.936  13.414  0.2249 -0.7573 -0.1894
  670MPD2    H7 9976   0.198   4.026  13.454  0.8114 -0.1709 -1.8764
  671TMC3    C1 9977   4.293   3.987  13.749  0.1947  0.0585 -0.7361
  671TMC3    C2 9978   4.391   4.049  13.815  0.0528  0.0024  0.8695
  671TMC3    C3 9979   4.407   4.035  13.954 -0.6259  0.5396  0.0563
  671TMC3    C4 9980   4.216   3.895  13.816  0.5976 -0.2230  0.8837
  671TMC3    C5 9981   4.235   3.875  13.947  0.3411  0.3582 -0.2748
  671TMC3    C6 9982   4.319   3.955  14.025  0.1523  0.2842  0.1697
  671TMC3     C 9983   4.335   3.925  13.624 -0.6109 -0.1913 -0.1169
  671TMC3     O 9984   4.266   3.835  13.577 -0.0812 -0.4690 -0.4045
  671TMC3     H 9985   4.431   4.143  13.779  0.6651  0.1901  2.0325
  671TMC3    H1 9986   4.144   3.834  13.763  2.1504 -0.5910 -0.7925
  671TMC3    H2 9987   4.331   3.946  14.132  1.3198 -1.5315 -0.1108
  671TMC3    C7 9988   4.139   3.791  14.017  0.4887 -0.8392  0.3856
  671TMC3    C8 9989   4.535   3.968  13.990 -0.4484 -0.1414 -0.5492
  671TMC3    O1 9990   4.029   3.755  13.975 -0.1397  0.1914 -0.3958
  671TMC3    O2 9991   4.535   3.894  14.087  0.0916 -0.0817  0.1108
  672MPD2     C 9992   0.510   4.235   0.998 -0.0699 -1.2551 -0.9719
  672MPD2    C1 9993   0.595   4.184   0.907 -0.3411  0.8695  0.5452
  672MPD2    C2 9994   0.731   4.199   0.927  0.0597 -0.1269  0.0367
  672MPD2    C3 9995   0.783   4.262   1.037  0.3271 -0.1209  0.3602
  672MPD2    C4 9996   0.698   4.312   1.134 -0.5003  0.0883 -0.2286
  672MPD2    C5 9997   0.560   4.304   1.107 -0.0662  0.4630  0.2403
  672MPD2     H 9998   0.795   4.154   0.852  1.0927  0.7428  0.3808
  672MPD2    H1 9999   0.742   4.362   1.220 -1.3946  0.3246  0.0953
  672MPD2    H210000   0.402   4.233   0.993 -0.1383  0.7321 -0.3277
  672MPD2    H310001   0.499   4.353   1.183  0.6879 -1.6024  2.1809
  672MPD2     N10002   0.920   4.274   1.057 -0.6714 -0.0767 -0.1190
  672MPD2    H510003   0.950   4.333   1.135  1.7625 -1.4063 -0.0362
  672MPD2    N110004   0.547   4.141   0.778 -0.1684  0.1900 -0.0708
  672MPD2    H710005   0.609   4.099   0.710 -0.0069  1.3541 -0.6357
  673TMC3    C110006   0.388   4.052   0.620 -0.9519 -0.3420 -0.6795
  673TMC3    C210007   0.479   3.972   0.563  0.2772 -0.0469  0.3883
  673TMC3    C310008   0.468   3.938   0.429  0.7623 -0.3060 -0.2960
  673TMC3    C410009   0.293   4.110   0.536  0.1742  0.0296  0.3273
  673TMC3    C510010   0.292   4.081   0.400 -0.1076 -0.2501 -0.2308
  673TMC3    C610011   0.377   3.991   0.346 -0.6487  0.3376 -0.2697
  673TMC3     C10012   0.415   4.129   0.741 -0.5410  0.0590 -0.0831
  673TMC3     O10013   0.316   4.177   0.798  0.0278 -0.2882 -0.7898
  673TMC3     H10014   0.542   3.918   0.633  0.3209  0.2572  0.5862
  673TMC3    H110015   0.215   4.172   0.578 -0.0106 -0.0107  0.0447
  673TMC3    H210016   0.348   3.955   0.248  2.6165 -3.4342  0.1142
  673TMC3    C710017   0.182   4.137   0.320 -0.4408 -0.3771 -0.3844
  673TMC3    C810018   0.507   3.803   0.388 -0.0532 -0.3739 -0.2544
  673TMC3    O110019   0.133   4.078   0.225  0.4380 -0.5819  0.1597
  673TMC3    O210020   0.435   3.750   0.308  0.0259  0.6283 -0.4785
  674MPD2     C10021   4.538   4.633  17.584  0.8422 -0.2136 -0.1327
  674MPD2    C110022   4.503   4.507  17.606  0.2139  0.1119  0.1351
  674MPD2    C210023   4.381   4.484  17.669 -0.3422 -0.6534 -0.6928
  674MPD2    C310024   4.294   4.582  17.710 -0.4529  0.7592 -0.5126
  674MPD2    C410025   4.334   4.722  17.687  0.0924 -0.1541 -0.0646
  674MPD2    C510026   4.454   4.739  17.622 -0.2724  0.1756  0.4527
  674MPD2     H10027   4.339   4.385  17.686  0.0257 -1.3414 -3.7671
  674MPD2    H110028   4.284   0.073  17.715 -0.0575 -1.3557  3.5994
  674MPD2    H210029   4.632   4.661  17.537  1.5928 -2.0859  0.2679
  674MPD2    H310030   4.488   0.101  17.611  1.6333 -0.4603  0.4497
  674MPD2     N10031   4.180   4.553   0.030 -0.5011 -0.4328 -0.2101
  674MPD2    H510032   4.152   4.456   0.042 -1.7152 -0.3580 -2.3518
  674MPD2    N110033   4.599   4.403  17.592 -0.2509 -0.1032 -0.8694
  674MPD2    H710034   4.697   4.428  17.581 -0.4831  0.4850 -1.5391
  675TMC3    C110035   4.671   4.174  17.608  0.4359 -0.2053 -0.3617
  675TMC3    C210036   4.638   4.047  17.571  0.8683  0.0234  0.3061
  675TMC3    C310037   4.736   3.950  17.568 -0.6516 -0.2760 -0.2735
  675TMC3    C410038   0.057   4.209  17.649 -1.1400  0.7430  0.2740
  675TMC3    C510039   0.152   4.111  17.653  0.0791  0.6978 -0.3398
  675TMC3    C610040   0.119   3.980  17.623  0.5744 -0.2032 -0.4866
  675TMC3     C10041   4.566   4.271  17.580  0.3418  0.0009 -0.5989
  675TMC3     O10042   4.457   4.230  17.554  0.1313  0.1644  0.3104
  675TMC3     H10043   4.537   4.029  17.536  1.3334 -1.4797 -0.2921
  675TMC3    H110044   0.059   4.304  17.701  1.5711  0.5400  0.5605
  675TMC3    H210045   0.200   3.908  17.627  0.8903  0.1585 -0.4265
  675TMC3    C710046   0.283   4.144  17.707  0.4893 -0.3996  0.1402
  675TMC3    C810047   4.712   3.805  17.582  0.1331 -0.1326  0.0240
  675TMC3    O110048   0.368   4.059  17.686 -0.5651 -0.0682  0.6160
  675TMC3    O210049   0.066   3.733  17.551  0.4529  0.6439  0.0895
  676MPD2     C10050   2.158   2.320  11.208  0.1823  0.4811 -0.0860
  676MPD2    C110051   2.150   2.256  11.328  0.3199 -1.5062  0.1840
  676MPD2    C210052   2.203   2.133  11.353  0.1210  0.5912  0.5570
  676MPD2    C310053   2.268   2.070  11.242 -0.6067  0.5690 -0.2192
  676MPD2    C410054   2.267   2.138  11.119 -0.0308 -0.4782 -0.0191
  676MPD2    C510055   2.207   2.257  11.104 -0.1148 -0.7774  0.3669
  676MPD2     H10056   2.201   2.089  11.452  0.0728  2.0220  1.1912
  676MPD2    H110057   2.315   2.102  11.028 -1.6571 -0.9810 -0.6667
  676MPD2    H210058   2.106   2.414  11.192 -0.3974  0.9371  4.4698
  676MPD2    H310059   2.215   2.307  11.008  2.9344 -2.6372 -0.3457
  676MPD2     N10060   2.329   1.934  11.244  0.2254 -0.0166  0.0456
  676MPD2    H510061   2.373   1.898  11.159  0.2663  2.0310 -0.8053
  676MPD2    N110062   2.100   2.313  11.441  0.5084  0.1581 -0.1119
  676MPD2    H710063   2.066   2.253  11.515  2.3753 -0.2950  0.3709
  677TMC3    C110064   2.074   2.501  11.590 -0.0026 -0.8386 -0.0104
  677TMC3    C210065   2.089   2.412  11.691  0.7373  0.1817 -0.4277
  677TMC3    C310066   2.113   2.457  11.825 -0.0496  0.1296  0.0221
  677TMC3    C410067   2.080   2.635  11.615  0.1453 -0.6729  0.1435
  677TMC3    C510068   2.101   2.679  11.745 -0.1339  1.1509 -0.1384
  677TMC3    C610069   2.120   2.595  11.849  0.0387 -0.4709  0.0698
  677TMC3     C10070   2.095   2.454  11.456 -0.4821 -0.5522 -0.2820
  677TMC3     O10071   2.111   2.547  11.381  0.7829  0.7808 -0.5642
  677TMC3     H10072   2.089   2.304  11.678  1.5161  0.1490 -0.1140
  677TMC3    H110073   2.066   2.713  11.540  0.5236 -1.5031 -0.7951
  677TMC3    H210074   2.158   2.642  11.940  1.1812 -1.5225  0.1324
  677TMC3    C710075   2.084   2.818  11.786 -0.0690 -0.3093 -0.7869
  677TMC3    C810076   2.205   2.382  11.913 -0.3736 -0.5794 -0.0416
  677TMC3    O110077   2.033   2.826  11.897 -0.0189 -0.2655  0.0862
  677TMC3    O210078   2.289   2.299  11.872  0.2781 -0.4457  0.2458
  678MPD2     C10079   4.029   2.304   0.971  0.9965  0.5160  0.2842
  678MPD2    C110080   4.015   2.351   0.837  0.6610 -0.4217 -0.1373
  678MPD2    C210081   3.948   2.267   0.741 -0.2635 -0.0739 -0.3410
  678MPD2    C310082   3.902   2.141   0.780  0.3239  0.4242  0.3053
  678MPD2    C410083   3.918   2.101   0.910 -0.5649 -0.0516 -0.0877
  678MPD2    C510084   3.973   2.181   1.007 -0.2199 -0.1527  0.1165
  678MPD2     H10085   3.919   2.309   0.645  2.7332  0.6149 -0.9383
  678MPD2    H110086   3.864   2.012   0.940  1.2332 -0.5025  1.7745
  678MPD2    H210087   4.094   2.357   1.040 -0.5279  1.5078  0.9483
  678MPD2    H310088   3.977   2.156   1.112 -0.5856  1.5157  0.5153
  678MPD2     N10089   3.823   2.059   0.695 -0.2349 -0.6309  0.1196
  678MPD2    H510090   3.816   2.090   0.599 -0.1109  0.4517  0.4661
  678MPD2    N110091   4.059   2.476   0.798  0.2744 -0.5457 -0.2036
  678MPD2    H710092   4.039   2.497   0.700 -3.0467 -1.3551  0.2780
  679TMC3    C110093   4.374   2.824   0.820 -0.1960  0.1985 -0.5485
  679TMC3    C210094   4.306   2.724   0.887  0.4225  0.0949  0.5029
  679TMC3    C310095   4.200   2.666   0.813 -0.6085 -0.1701  0.3477
  679TMC3    C410096   4.329   2.870   0.703 -0.1659 -0.0493 -0.4565
  679TMC3    C510097   4.231   2.811   0.636  0.5508  0.1187 -0.2496
  679TMC3    C610098   4.165   2.701   0.684  0.5862 -0.4258 -0.7869
  679TMC3     C10099   4.510   2.812   0.818 -0.6790  0.4826  0.7466
  679TMC3     O10100   4.565   2.815   0.709 -0.5590  0.5781 -0.2218
  679TMC3     H10101   4.339   2.673   0.977 -0.5209  1.1330  1.4431
  679TMC3    H110102   4.366   2.961   0.657 -0.2263 -0.2850 -0.9809
  679TMC3    H210103   4.077   2.661   0.634 -0.4742  2.0739 -0.9330
  679TMC3    C710104   4.245   2.819   0.490 -0.1876 -0.3333  0.9467
  679TMC3    C810105   4.125   2.569   0.882 -0.1150 -0.4945  0.3168
  679TMC3    O110106   4.147   2.805   0.418  0.0885 -0.1842 -0.6515
  679TMC3    O210107   4.137   2.564   1.002  0.7189 -0.0144 -0.1292
  680MPD2     C10108   3.880   1.282  13.993  0.5479  0.0226 -0.3824
  680MPD2    C110109   4.001   1.237  14.038 -0.6788 -0.2273 -0.3441
  680MPD2    C210110   4.107   1.324  14.048  0.5995  0.1310 -0.6040
  680MPD2    C310111   4.098   1.452  14.001  0.4542 -0.2180  0.0834
  680MPD2    C410112   3.980   1.496  13.949 -0.0935  0.3166 -0.1774
  680MPD2    C510113   3.870   1.406  13.947  0.3514 -0.0021  0.7303
  680MPD2     H10114   4.194   1.287  14.101 -0.6827 -0.4300  1.1189
  680MPD2    H110115   3.964   1.595  13.910 -2.0692  0.5609  1.2781
  680MPD2    H210116   3.789   1.224  13.997  0.7509 -0.2457  0.4181
  680MPD2    H310117   3.773   1.444  13.917 -0.0844 -0.8208  1.0980
  680MPD2     N10118   4.207   1.541  14.020 -0.3860 -0.0896 -0.7435
  680MPD2    H510119   4.184   1.638  13.999 -0.6718  0.8827  4.1702
  680MPD2    N110120   4.021   1.112  14.095  0.3278 -0.0686  0.4425
  680MPD2    H710121   4.119   1.092  14.116  0.7661  1.6217  0.0420
  681TMC3    C110122   3.976   0.919  14.204 -0.3104 -0.6080 -0.6556
  681TMC3    C210123   3.984   0.979  14.327 -0.1130 -0.1042 -0.6293
  681TMC3    C310124   4.101   1.001  14.386 -0.1217 -0.5298  0.4734
  681TMC3    C410125   4.092   0.882  14.140 -0.2148 -0.0432 -0.8437
  681TMC3    C510126   4.207   0.893  14.214  0.3640  0.0853  0.4819
  681TMC3    C610127   4.218   0.943  14.340 -0.5010 -0.2829 -0.6274
  681TMC3     C10128   3.924   1.016  14.125 -0.1026 -0.1899  0.0477
  681TMC3     O10129   3.806   1.013  14.107  0.5732 -0.4337  0.3956
  681TMC3     H10130   3.901   1.040  14.363  1.1486  1.3711 -0.2425
  681TMC3    H110131   4.080   0.839  14.041 -1.0898  1.0424 -1.2118
  681TMC3    H210132   4.314   0.954  14.389 -0.1567 -2.1997 -0.8813
  681TMC3    C710133   4.325   0.838  14.155  0.6567 -0.3760 -0.1468
  681TMC3    C810134   4.104   1.115  14.480  0.6442 -0.0769  0.0693
  681TMC3    O110135   4.414   0.817  14.235  0.5480  0.0884 -0.5201
  681TMC3    O210136   3.997   1.173  14.498  0.1441 -0.1848  0.8836
  682MPD2     C10137   1.657   2.214  10.448  1.0170 -0.9840 -0.6136
  682MPD2    C110138   1.672   2.167  10.576 -0.5020 -0.5995 -0.5980
  682MPD2    C210139   1.628   2.244  10.681  0.5164  0.4955  0.1280
  682MPD2    C310140   1.547   2.359  10.659  0.7102 -0.2070 -0.0184
  682MPD2    C410141   1.551   2.411  10.531  0.1452  0.0021  0.0686
  682MPD2    C510142   1.608   2.338  10.426  0.7471  0.7365 -0.0744
  682MPD2     H10143   1.626   2.198  10.779  0.4426  1.2798  0.5009
  682MPD2    H110144   1.488   2.497  10.508 -0.2052 -0.0621  0.7794
  682MPD2    H210145   1.686   2.160  10.359 -1.2634 -0.2181 -1.8153
  682MPD2    H310146   1.603   2.382  10.328  1.2684 -1.2189 -0.9790
  682MPD2     N10147   1.470   2.411  10.767  0.9055 -0.6120  0.5427
  682MPD2    H510148   1.430   2.504  10.760  1.0596 -0.6333 -0.7056
  682MPD2    N110149   1.742   2.047  10.610  0.4395  0.1678 -0.5437
  682MPD2    H710150   1.760   2.024  10.707 -2.0415 -2.0776 -0.6176
  683TMC3    C110151   1.296   2.636  11.060  0.1287 -0.5671  0.0564
  683TMC3    C210152   1.217   2.574  11.156  0.2581  0.2266 -0.2278
  683TMC3    C310153   1.202   2.444  11.149 -0.1064  0.0871 -0.1799
  683TMC3    C410154   1.383   2.561  10.977  0.3216  0.4370  0.6140
  683TMC3    C510155   1.357   2.429  10.971  0.0491  0.2634 -0.0626
  683TMC3    C610156   1.264   2.370  11.048  0.2578  0.3584  0.1835
  683TMC3     C10157   1.359   2.759  11.107  0.5995 -0.1271  0.9711
  683TMC3     O10158   1.338   2.858  11.041 -0.6412  0.6546 -0.0399
  683TMC3     H10159   1.175   2.630  11.239  2.6936 -1.1078  1.9382
  683TMC3    H110160   1.454   2.610  10.913  1.2694 -1.0255  0.5529
  683TMC3    H210161   1.241   2.264  11.039  0.6216  0.1670  1.4066
  683TMC3    C710162   1.436   2.345  10.881  0.7766 -0.2282  0.2720
  683TMC3    C810163   1.184   2.376  11.267  0.1389  0.1623 -0.3624
  683TMC3    O110164   1.445   2.228  10.914 -0.0227 -0.5357  0.5063
  683TMC3    O210165   1.105   2.407  11.354  0.2434 -0.1486 -0.3509
  684MPD2     C10166   4.420   2.405  16.551  0.7737  0.6805 -0.1542
  684MPD2    C110167   4.407   2.359  16.420  0.0743 -0.6172  0.0923
  684MPD2    C210168   4.458   2.430  16.313  0.2083  0.3059  0.6847
  684MPD2    C310169   4.526   2.549  16.324 -0.4456 -0.4427 -0.1485
  684MPD2    C410170   4.528   2.599  16.457 -0.0169  0.1031  0.2027
  684MPD2    C510171   4.476   2.532  16.565 -1.0782  0.1084  0.6188
  684MPD2     H10172   4.440   2.374  16.222  2.1463 -2.6570  2.1270
  684MPD2    H110173   4.584   2.690  16.473  0.6121  0.1409 -2.1741
  684MPD2    H210174   4.373   2.352  16.632  1.4967  0.6135  0.2239
  684MPD2    H310175   4.467   2.577  16.663 -1.4940 -1.4331  1.2880
  684MPD2     N10176   4.593   2.609  16.216 -0.2558 -0.2826  0.6952
  684MPD2    H510177   4.654   2.688  16.235 -0.4457  0.4733 -1.8383
  684MPD2    N110178   4.360   2.233  16.389  0.2708 -0.1325 -0.3433
  684MPD2    H710179   4.367   2.205  16.292  0.5833 -0.3272 -0.2636
  685TMC3    C110180   4.290   2.009  16.408  0.2420  0.1945 -0.0724
  685TMC3    C210181   4.247   2.015  16.279 -0.3038 -0.0714 -0.4759
  685TMC3    C310182   4.288   1.913  16.197 -0.3633 -0.5651 -0.9697
  685TMC3    C410183   4.383   1.910  16.443 -0.1270  0.4923 -0.3314
  685TMC3    C510184   4.450   1.839  16.346  0.2128 -0.0497 -0.0999
  685TMC3    C610185   4.395   1.826  16.222  0.7675  0.1136 -0.1741
  685TMC3     C10186   4.316   2.139  16.481  0.9093  0.6682 -0.1094
  685TMC3     O10187   4.305   2.137  16.604  0.0416  0.2436 -0.3623
  685TMC3     H10188   4.183   2.094  16.240  0.4619  1.3177  1.0975
  685TMC3    H110189   4.434   1.933  16.536  0.1940 -2.0553  0.1020
  685TMC3    H210190   4.429   1.742  16.163 -0.0436 -1.6666  1.9008
  685TMC3    C710191   4.573   1.786  16.374  0.0905  0.1046  0.0693
  685TMC3    C810192   4.198   1.871  16.093 -0.0715  0.5292  1.0488
  685TMC3    O110193   4.604   1.790  16.494 -0.1102 -0.7718  0.3583
  685TMC3    O210194   4.231   1.781  16.019 -0.2740 -0.1505  0.2024
  686MPD2     C10195   1.447   2.367  16.187  0.2743 -0.4916  0.3461
  686MPD2    C110196   1.353   2.347  16.084 -0.2927 -0.6188 -0.3527
  686MPD2    C210197   1.389   2.404  15.962  0.1949 -0.5734 -0.0822
  686MPD2    C310198   1.516   2.452  15.935  0.6105  0.1049 -0.1037
  686MPD2    C410199   1.600   2.473  16.041 -0.3437 -0.5827 -0.2766
  686MPD2    C510200   1.566   2.435  16.167  0.2561  0.2813  0.0401
  686MPD2     H10201   1.317   2.403  15.882  0.2299 -1.2244 -0.1007
  686MPD2    H110202   1.696   2.522  16.029 -0.4803  0.1142  1.4657
  686MPD2    H210203   1.427   2.325  16.285 -1.3517 -0.7360 -0.0970
  686MPD2    H310204   1.628   2.461  16.253  3.7964  0.7928 -2.6523
  686MPD2     N10205   1.555   2.499  15.805 -0.2306 -0.1550  0.6209
  686MPD2    H510206   1.633   2.563  15.810 -0.3745  0.0957 -0.3279
  686MPD2    N110207   1.232   2.276  16.107 -0.1061  0.0690 -0.2384
  686MPD2    H710208   1.221   2.232  16.197  0.7218 -0.9522 -0.6385
  687TMC3    C110209   1.423   2.366  15.651  0.5886  0.5694 -0.3574
  687TMC3    C210210   1.319   2.372  15.565  0.3418 -1.1306  0.3456
  687TMC3    C310211   1.253   2.257  15.534 -0.4321 -0.0504 -0.5658
  687TMC3    C410212   1.461   2.242  15.705  0.2434  0.5434 -0.0254
  687TMC3    C510213   1.382   2.133  15.686  0.4251 -0.0729 -0.3975
  687TMC3    C610214   1.269   2.144  15.605  0.4451 -0.0052 -0.1013
  687TMC3     C10215   1.509   2.483  15.675 -0.0648  0.2328  0.1371
  687TMC3     O10216   1.537   2.563  15.588  0.3028 -0.5109  0.6952
  687TMC3     H10217   1.292   2.468  15.522 -1.7996 -1.9423 -0.0836
  687TMC3    H110218   1.539   2.243  15.780 -1.0761 -0.6987  1.3840
  687TMC3    H210219   1.217   2.052  15.577  0.8362 -0.2645  0.0231
  687TMC3    C710220   1.385   2.034  15.796  0.6202  1.0829 -0.6883
  687TMC3    C810221   1.123   2.257  15.467  0.3606  0.5310  1.0497
  687TMC3    O110222   1.500   2.022  15.841  0.2931 -0.6530 -0.1851
  687TMC3    O210223   1.037   2.178  15.499  0.3474  0.1688  0.0566
  688MPD2     C10224   0.473   0.919  17.720  0.0187  0.1863  0.3361
  688MPD2    C110225   0.525   0.794  17.726  0.1487 -0.4375  0.0056
  688MPD2    C210226   0.609   0.754  17.621  0.1716 -0.4191  0.4979
  688MPD2    C310227   0.635   0.834  17.509 -0.8459 -0.4043 -0.3940
  688MPD2    C410228   0.576   0.956  17.502  0.1634  0.2975 -0.0150
  688MPD2    C510229   0.500   0.996  17.605 -0.2817 -0.3385  0.4010
  688MPD2     H10230   0.656   0.657  17.635  1.6034 -0.2682 -3.2440
  688MPD2    H110231   0.591   1.023  17.418 -1.9097  0.5792 -0.1640
  688MPD2    H210232   0.405   0.960   0.036 -0.5013 -0.5798  0.2885
  688MPD2    H310233   0.451   1.092  17.598 -1.7530 -1.1210  0.0399
  688MPD2     N10234   0.734   0.806  17.408 -0.4203  0.3903 -0.4935
  688MPD2    H510235   0.753   0.873  17.334 -0.9197  0.5610 -0.4694
  688MPD2    N110236   0.516   0.711   0.083 -0.2132 -0.1560  0.0772
  688MPD2    H710237   0.557   0.618   0.080  1.4006  0.4923  1.7812
  689TMC3    C110238   0.457   0.631   0.287  0.5071 -0.0648 -0.0638
  689TMC3    C210239   0.485   0.650   0.415  0.4237  0.4180 -0.6939
  689TMC3    C310240   0.486   0.540   0.500  0.0962  0.2307 -0.5384
  689TMC3    C410241   0.407   0.512   0.243 -0.2605 -0.0164  0.3555
  689TMC3    C510242   0.418   0.407   0.331  0.3278 -0.8910  0.4893
  689TMC3    C610243   0.460   0.415   0.460  0.4141  0.4074  0.0171
  689TMC3     C10244   0.475   0.751   0.204 -0.1273 -0.1886 -0.1084
  689TMC3     O10245   0.470   0.862   0.249 -0.0307  0.5447  0.2752
  689TMC3     H10246   0.534   0.743   0.440 -0.4872  0.6113  0.3836
  689TMC3    H110247   0.414   0.498   0.136 -1.9570  0.3361  0.1904
  689TMC3    H210248   0.450   0.329   0.526  0.3994 -0.8717 -1.6405
  689TMC3    C710249   0.363   0.276   0.297 -0.1050 -0.1974 -0.4026
  689TMC3    C810250   0.547   0.555   0.639 -0.8984 -0.0162 -0.6381
  689TMC3    O110251   0.331   0.203   0.389  0.1999 -0.0464 -0.4610
  689TMC3    O210252   0.585   0.456   0.695 -0.4827 -0.1129  0.2208
  690MPD2     C10253   2.755   2.899  15.617 -0.7701  0.1764 -0.0428
  690MPD2    C110254   2.724   2.902  15.481 -0.1582  0.2728 -0.3726
  690MPD2    C210255   2.811   2.921  15.379  0.0216 -0.0324  0.2141
  690MPD2    C310256   2.936   2.958  15.409  0.0379 -0.7997 -0.2928
  690MPD2    C410257   2.970   2.967  15.548  0.5266 -0.3847  0.1773
  690MPD2    C510258   2.882   2.938  15.650  0.1014 -0.0287  0.5007
  690MPD2     H10259   2.789   2.895  15.276 -0.9739 -3.2907  1.2595
  690MPD2    H110260   3.065   3.012  15.574  1.2955 -1.0265 -1.4941
  690MPD2    H210261   2.683   2.883  15.696 -1.2440  0.9187 -0.3235
  690MPD2    H310262   2.917   2.943  15.752 -0.5621  1.5647  0.6382
  690MPD2     N10263   3.035   2.954  15.301  0.1438  0.2165 -0.0957
  690MPD2    H510264   2.998   2.946  15.207  1.4689  1.2647 -0.7239
  690MPD2    N110265   2.601   2.848  15.442 -0.3080  0.3631 -0.5375
  690MPD2    H710266   2.585   2.847  15.342  0.0225 -2.1435 -0.5484
  691TMC3    C110267   2.396   2.752  15.449  0.7544 -0.9255  0.7370
  691TMC3    C210268   2.265   2.779  15.481  0.5954 -0.3969  0.3253
  691TMC3    C310269   2.167   2.692  15.438  0.4954 -0.3464  0.4377
  691TMC3    C410270   2.430   2.633  15.394  0.2545 -0.2154  0.5634
  691TMC3    C510271   2.333   2.539  15.374 -0.0591 -0.1265  0.0991
  691TMC3    C610272   2.199   2.568  15.384  0.2939 -0.4645 -0.0898
  691TMC3     C10273   2.491   2.831  15.523 -0.7699 -0.3831 -0.3393
  691TMC3     O10274   2.466   2.891  15.627 -0.5644 -0.0696  0.6077
  691TMC3     H10275   2.244   2.867  15.540  0.2405 -1.6584  2.0815
  691TMC3    H110276   2.535   2.605  15.392 -0.3515 -2.2392 -2.0044
  691TMC3    H210277   2.130   2.495  15.344  1.5610 -0.6977 -1.8582
  691TMC3    C710278   2.367   2.415  15.440  0.0076  0.3892  0.9320
  691TMC3    C810279   2.027   2.710  15.466  0.0881  0.3044  0.5340
  691TMC3    O110280   2.493   2.399  15.451 -0.3417 -0.0213 -0.0747
  691TMC3    O210281   1.956   2.619  15.420 -0.1623 -0.4707 -0.0789
  692TMC3    C110282   4.090   3.405  15.448  0.7153  1.0081 -0.6870
  692TMC3    C210283   4.058   3.524  15.401  0.3120 -0.4496  0.5508
  692TMC3    C310284   4.161   3.616  15.403  0.4495 -0.1031  0.6389
  692TMC3    C410285   4.213   3.366  15.495 -0.2883 -0.0729 -0.4774
  692TMC3    C510286   4.313   3.461  15.495  0.1116 -0.9793 -0.4788
  692TMC3    C610287   4.287   3.577  15.439 -0.5568  0.9421 -0.2572
  692TMC3     C10288   3.981   3.332  15.506  0.4653  0.2458  0.4081
  692TMC3     O10289   4.005   3.273  15.608  0.3373  0.0699  0.2018
  692TMC3     H10290   3.961   3.572  15.405  1.0918  1.1607  0.4175
  692TMC3    H110291   4.224   3.265  15.533 -1.7360 -0.1445 -0.2650
  692TMC3    H210292   4.366   3.651  15.455  1.6297 -0.9510 -2.3160
  692TMC3    C710293   4.447   3.411  15.467 -0.5056 -0.2338 -0.6658
  692TMC3    C810294   4.126   3.742  15.457  0.5143 -0.5683  0.0241
  692TMC3    O110295   4.520   3.500  15.421 -0.5783 -0.2678 -0.3829
  692TMC3    O210296   4.041   3.806  15.409  0.2160 -0.0024 -0.2125
  693MPD2     C10297   3.546   1.215  11.180  0.0137  0.2560 -0.3333
  693MPD2    C110298   3.543   1.082  11.154  0.0787  0.0447  0.0870
  693MPD2    C210299   3.661   1.029  11.104  0.3990  0.4489  0.3539
  693MPD2    C310300   3.771   1.108  11.076  0.5976 -0.4700 -0.1896
  693MPD2    C410301   3.774   1.237  11.103  0.1473 -0.0876  0.1252
  693MPD2    C510302   3.656   1.286  11.154  0.2314 -0.1716 -0.0743
  693MPD2     H10303   3.654   0.921  11.093  2.5109  0.3814 -0.3205
  693MPD2    H110304   3.852   1.302  11.065  0.7921 -0.4489  0.8385
  693MPD2    H210305   3.457   1.274  11.199 -0.7305  0.2551 -3.7727
  693MPD2    H310306   3.637   1.392  11.157  1.6526  0.0493  1.2912
  693MPD2     N10307   3.891   1.048  11.025 -0.5172 -0.0220 -0.0174
  693MPD2    H510308   3.974   1.106  11.024 -0.9523  0.5960 -0.4289
  693MPD2    N110309   3.432   1.005  11.185  0.0343 -0.3786 -0.4256
  693MPD2    H710310   3.367   1.048  11.250  0.0346 -1.0158 -0.0039
  694TMC3    C110311   3.295   0.813  11.213  0.6068  0.2270 -0.1929
  694TMC3    C210312   3.206   0.733  11.153  0.2968  0.0248 -0.1780
  694TMC3    C310313   3.124   0.649  11.230  0.1494  0.0381  0.0995
  694TMC3    C410314   3.301   0.828  11.354 -0.3186  0.4568  0.9580
  694TMC3    C510315   3.216   0.749  11.429  0.0801  0.0028  0.4739
  694TMC3    C610316   3.128   0.659  11.365  0.0726 -0.8794  0.0748
  694TMC3     C10317   3.409   0.872  11.147 -0.1677 -0.4702 -0.6906
  694TMC3     O10318   3.471   0.806  11.066 -0.3797 -0.0939 -0.2330
  694TMC3     H10319   3.217   0.736  11.045 -0.4351  1.7008 -0.2016
  694TMC3    H110320   3.381   0.884  11.402 -0.1126  2.0641 -1.2611
  694TMC3    H210321   3.058   0.591  11.412 -0.7753 -0.0557  0.0130
  694TMC3    C710322   3.211   0.775  11.573  0.2207 -0.2550  0.9668
  694TMC3    C810323   3.021   0.565  11.165  0.2743  0.2879 -0.3849
  694TMC3    O110324   3.281   0.869  11.618 -0.3648 -0.0311 -0.2431
  694TMC3    O210325   2.945   0.505  11.237  0.3946 -0.2199 -0.0262
  695MPD2     C10326   4.326   3.086  14.467  0.4705  0.3396 -0.0751
  695MPD2    C110327   4.334   3.114  14.329  0.0424 -0.2673 -0.2023
  695MPD2    C210328   4.218   3.147  14.262  0.1977  0.3333  0.2400
  695MPD2    C310329   4.096   3.143  14.322  0.2472 -0.6214  0.1365
  695MPD2    C410330   4.081   3.105  14.456 -0.2543  0.2264 -0.3026
  695MPD2    C510331   4.198   3.080  14.526 -0.6044 -0.5246  0.2509
  695MPD2     H10332   4.220   3.182  14.160  2.3322  0.4921  0.3437
  695MPD2    H110333   3.992   3.106  14.519 -1.8157  2.4582 -2.5658
  695MPD2    H210334   4.414   3.068  14.527  0.3447  0.3557  0.1148
  695MPD2    H310335   4.177   3.053  14.629  1.4758 -0.5750  0.6667
  695MPD2     N10336   3.988   3.174  14.238 -0.5274  0.4136 -1.0578
  695MPD2    H510337   4.013   3.211  14.146  2.4403  1.4450  0.1562
  695MPD2    N110338   4.459   3.137  14.261 -1.1105  0.1359  0.2979
  695MPD2    H710339   4.451   3.177  14.168 -0.8381  0.0740  0.2472
  696TMC3    C110340   3.768   3.223  14.172  0.0535  0.0345  0.0757
  696TMC3    C210341   3.681   3.308  14.230 -0.4854  0.3340 -0.0581
  696TMC3    C310342   3.629   3.410  14.156 -0.1071 -0.5859  0.2830
  696TMC3    C410343   3.817   3.233  14.039  0.1264 -0.0653 -0.9152
  696TMC3    C510344   3.743   3.325  13.969  0.0062 -0.2480  0.7400
  696TMC3    C610345   3.650   3.411  14.021  0.9999 -0.0775 -0.3518
  696TMC3     C10346   3.856   3.170  14.274  0.3471  0.4750  0.1983
  696TMC3     O10347   3.800   3.140  14.380 -0.3331  0.1192 -0.2342
  696TMC3     H10348   3.661   3.296  14.336 -1.4368 -1.0606 -0.3908
  696TMC3    H110349   3.897   3.171  14.000  1.3212  1.6535 -1.2064
  696TMC3    H210350   3.600   3.479  13.952  1.3871  2.1603  1.5528
  696TMC3    C710351   3.801   3.364  13.843 -0.1746 -0.1736 -0.0380
  696TMC3    C810352   3.697   3.533  14.197 -1.0698 -0.4694  0.1370
  696TMC3    O110353   3.845   3.280  13.764 -0.3810  0.6752  0.3056
  696TMC3    O210354   3.712   3.620  14.108  0.0412  0.1356  0.4294
  697MPD2     C10355   4.436   0.799  15.517  0.5265 -0.6873  0.4887
  697MPD2    C110356   4.372   0.752  15.406  0.0292  0.1003  0.9275
  697MPD2    C210357   4.286   0.835  15.329  0.2036 -0.4441  0.0018
  697MPD2    C310358   4.256   0.961  15.380  0.0690 -0.6722  0.6219
  697MPD2    C410359   4.303   0.996  15.505  0.2142 -0.1523 -0.4351
  697MPD2    C510360   4.396   0.916  15.567 -0.3232  0.2463  0.3780
  697MPD2     H10361   4.242   0.791  15.240 -1.1830 -0.5117  0.7189
  697MPD2    H110362   4.275   1.091  15.550 -0.8678  0.0383 -1.5248
  697MPD2    H210363   4.504   0.743  15.580 -0.2712  0.2419  2.1928
  697MPD2    H310364   4.440   0.945  15.662  1.3044  3.0430 -1.2222
  697MPD2     N10365   4.179   1.053  15.299  0.2461 -0.8317  0.1835
  697MPD2    H510366   4.159   1.011  15.208 -3.2573  1.1396  0.0787
  697MPD2    N110367   4.400   0.619  15.354  0.5874  0.1953 -0.5572
  697MPD2    H710368   4.350   0.600  15.268 -0.6985  0.4050  0.1542
  698TMC3    C110369   4.081   1.244  15.216 -0.1360  0.1797 -0.5385
  698TMC3    C210370   4.056   1.381  15.219 -0.2197  0.8477  0.7790
  698TMC3    C310371   3.971   1.427  15.131 -0.2622  0.7857 -0.5837
  698TMC3    C410372   4.024   1.159  15.126 -0.4330  0.6793 -1.1443
  698TMC3    C510373   3.947   1.214  15.032 -0.0471  0.8206 -0.0248
  698TMC3    C610374   3.908   1.345  15.042 -0.3537 -0.1111  0.2785
  698TMC3     C10375   4.154   1.184  15.322  0.3603  0.3158 -0.2227
  698TMC3     O10376   4.177   1.254  15.417 -0.2764  0.1284 -0.0408
  698TMC3     H10377   4.100   1.438  15.300  2.2030  2.2382 -1.5147
  698TMC3    H110378   4.006   1.053  15.143  1.0342  0.6769  0.3693
  698TMC3    H210379   3.849   1.384  14.960 -1.3304  0.7517  1.3886
  698TMC3    C710380   3.894   1.148  14.906  0.2519  0.2208  0.2370
  698TMC3    C810381   3.983   1.564  15.084  0.3696 -0.1043 -0.0845
  698TMC3    O110382   3.818   1.207  14.828  0.0876 -0.6144  0.5442
  698TMC3    O210383   3.899   1.592  15.002 -0.8130  0.6492  0.4487
  699TMC3    C110384   4.013   3.078  13.065 -0.1135 -0.5710  0.2712
  699TMC3    C210385   4.069   2.968  13.123  1.1007 -0.5406 -0.0203
  699TMC3    C310386   3.986   2.862  13.149  0.3347 -0.2085  0.3379
  699TMC3    C410387   3.880   3.082  13.033 -0.5643 -0.4240  0.2257
  699TMC3    C510388   3.806   2.968  13.045 -0.0906 -0.4825  0.3228
  699TMC3    C610389   3.853   2.858  13.109  0.5426 -0.6848 -0.2127
  699TMC3     C10390   4.094   3.183  13.011  0.2608 -0.1590 -0.3073
  699TMC3     O10391   4.033   3.284  12.991  0.2644 -0.1329 -0.4968
  699TMC3     H10392   4.161   2.989  13.177  0.0365  0.7022  1.3155
  699TMC3    H110393   3.838   3.171  12.988  0.5234 -0.1803 -0.3014
  699TMC3    H210394   3.791   2.769  13.118 -0.1976  0.0110  1.6333
  699TMC3    C710395   3.664   2.981  13.025 -0.1541  0.2787  0.1532
  699TMC3    C810396   4.031   2.760  13.234  0.2224 -0.3430  0.0160
  699TMC3    O110397   3.590   2.929  13.107  0.2062  0.2737 -0.0065
  699TMC3    O210398   3.952   2.675  13.265 -0.5308 -0.3083  0.5832
  700TMC3    C110399   3.360   1.140  17.470 -0.1666  0.1014 -0.0738
  700TMC3    C210400   3.367   1.010  17.432 -0.5549 -0.4608  0.6032
  700TMC3    C310401   3.495   0.953  17.448  0.1270 -0.1798 -0.2470
  700TMC3    C410402   3.467   1.212  17.517 -0.1511  0.7317  0.2451
  700TMC3    C510403   3.586   1.151  17.537 -0.0831  1.2235 -0.7353
  700TMC3    C610404   3.606   1.027  17.488  0.4942  0.1156  0.0757
  700TMC3     C10405   3.242   1.206  17.422  0.6218 -0.2917  0.8655
  700TMC3     O10406   3.145   1.131  17.405  0.9918  0.2185  0.0276
  700TMC3     H10407   3.280   0.959  17.392 -0.5832 -1.1448  1.5528
  700TMC3    H110408   3.463   1.318  17.541 -3.4785  0.9715 -1.3457
  700TMC3    H210409   3.705   0.988  17.466  0.7519  1.2367 -0.7153
  700TMC3    C710410   3.691   1.227  17.581  0.5761 -0.3714 -0.0069
  700TMC3    C810411   3.532   0.815  17.407 -0.1143  0.5992  0.1084
  700TMC3    O110412   3.658   1.348  17.600 -0.3213 -0.0188  0.4070
  700TMC3    O210413   3.652   0.799  17.394  0.2400 -0.0409 -0.4341
  701TMC3    C110414   3.233   0.575  14.906 -0.2773  0.5951 -0.1231
  701TMC3    C210415   3.102   0.568  14.860 -0.1274 -0.2568  0.0767
  701TMC3    C310416   3.032   0.690  14.853 -0.9010 -0.3931 -0.9022
  701TMC3    C410417   3.285   0.689  14.960  0.5547  0.0617  0.8649
  701TMC3    C510418   3.215   0.801  14.964 -0.1033  0.8035 -0.3109
  701TMC3    C610419   3.095   0.806  14.900 -0.3045  0.2869 -0.3664
  701TMC3     C10420   3.284   0.447  14.955 -0.6797 -0.4728  0.5607
  701TMC3     O10421   3.199   0.365  14.992 -0.1324  0.0692  0.5802
  701TMC3     H10422   3.069   0.473  14.820  1.5549 -0.8063  0.0033
  701TMC3    H110423   3.375   0.682  15.021  1.2757 -0.6220 -0.2790
  701TMC3    H210424   3.040   0.899  14.897  0.2275  0.6459  0.9505
  701TMC3    C710425   3.250   0.886  15.078  0.3896 -0.1178  0.0259
  701TMC3    C810426   2.890   0.693  14.830 -0.0719  0.5524  0.2888
  701TMC3    O110427   3.351   0.853  15.143  0.1101 -0.8913  0.6830
  701TMC3    O210428   2.839   0.803  14.816  0.2855  0.2169  0.0147
  702MPD2     C10429   2.815   1.555  10.873 -0.8136 -1.1896 -0.4652
  702MPD2    C110430   2.694   1.615  10.866  0.3873  0.3876 -0.3371
  702MPD2    C210431   2.653   1.666  10.752  0.1797 -0.9327 -0.1975
  702MPD2    C310432   2.722   1.646  10.633 -0.4885  0.2882  0.1241
  702MPD2    C410433   2.850   1.581  10.641 -0.3143  0.1701 -0.2487
  702MPD2    C510434   2.888   1.537  10.763 -0.2652 -0.2586  0.4106
  702MPD2     H10435   2.558   1.719  10.751  0.1574 -0.9684 -0.0360
  702MPD2    H110436   2.916   1.564  10.557 -2.3125 -2.2771 -1.3189
  702MPD2    H210437   2.851   1.521  10.970  2.4114  2.7884 -0.2703
  702MPD2    H310438   2.983   1.485  10.767 -0.1139 -0.0605 -0.6214
  702MPD2     N10439   2.659   1.681  10.514  0.3536  0.4024 -0.3607
  702MPD2    H510440   2.579   1.743  10.521 -0.2714 -0.5553  1.0851
  702MPD2    N110441   2.606   1.627  10.975 -0.3914  0.0287  0.3885
  702MPD2    H710442   2.530   1.694  10.971 -1.1684 -0.8113  1.1995
  703TMC3    C110443   2.600   1.678  10.283 -0.4681 -0.4491 -0.3845
  703TMC3    C210444   2.483   1.623  10.313  0.0337 -0.3344 -0.6982
  703TMC3    C310445   2.380   1.702  10.355 -0.2602 -0.2157 -0.4107
  703TMC3    C410446   2.617   1.812  10.279  0.0208 -0.2216 -0.4619
  703TMC3    C510447   2.522   1.893  10.320  0.1255 -0.3950  0.3532
  703TMC3    C610448   2.406   1.838  10.365 -0.6417 -0.5080  0.0185
  703TMC3     C10449   2.692   1.632  10.388 -0.1927 -0.4305 -1.3833
  703TMC3     O10450   2.770   1.546  10.351  0.0420 -0.4639  0.5475
  703TMC3     H10451   2.478   1.515  10.322 -1.1680 -0.3399 -1.4248
  703TMC3    H110452   2.720   1.844  10.279 -0.6056  1.7638  1.3139
  703TMC3    H210453   2.327   1.900  10.406 -0.3707  0.6870 -1.2712
  703TMC3    C710454   2.556   2.002  10.402 -0.5417  0.0534 -0.1236
  703TMC3    C810455   2.319   1.639  10.476  0.5035 -0.1455 -0.7657
  703TMC3    O110456   2.527   1.994  10.522 -0.0178 -0.1853 -0.2301
  703TMC3    O210457   2.303   1.515  10.467  0.8569  0.3478  0.3114
  704TMC3    C110458   0.350   0.283  12.655  0.2222  0.0144 -0.2438
  704TMC3    C210459   0.487   0.269  12.631 -0.6785 -0.4612  0.6971
  704TMC3    C310460   0.540   0.142  12.660 -0.0464 -0.8895  0.0615
  704TMC3    C410461   0.270   0.174  12.693  0.6495 -0.2886  0.1905
  704TMC3    C510462   0.329   0.053  12.728 -0.3326  0.5797 -0.1373
  704TMC3    C610463   0.469   0.035  12.714  0.5944 -0.2031 -0.4360
  704TMC3     C10464   0.281   0.376  12.566 -0.0038  0.0390 -0.0067
  704TMC3     O10465   0.169   0.406  12.600 -0.0880  0.2943 -0.3064
  704TMC3     H10466   0.546   0.345  12.582  0.5414 -1.5907  0.4171
  704TMC3    H110467   0.163   0.184  12.684  0.4839  0.6130  3.3668
  704TMC3    H210468   0.511   4.675  12.707  1.3946 -0.1239  3.2536
  704TMC3    C710469   0.261   4.668  12.682  0.4209  0.3962  0.6700
  704TMC3    C810470   0.659   0.107  12.589 -0.5365  0.5190  0.0557
  704TMC3    O110471   0.316   4.563  12.691 -0.1001 -0.1703 -0.1994
  704TMC3    O210472   0.691   0.180  12.494  0.0955  0.1944 -0.8006
  705MPD2     C10473   4.423   2.909  16.272  0.1478 -0.1745 -0.5482
  705MPD2    C110474   4.427   3.046  16.271  0.1411 -0.1902 -0.5043
  705MPD2    C210475   4.332   3.112  16.349 -0.0910 -0.5976 -0.1631
  705MPD2    C310476   4.230   3.051  16.417  0.0167 -0.6708 -0.2126
  705MPD2    C410477   4.238   2.910  16.418  0.0154  0.7461  0.3505
  705MPD2    C510478   4.345   2.847  16.363 -0.3740  0.0146  0.4319
  705MPD2     H10479   4.344   3.219  16.351 -0.8828 -0.5110  0.3003
  705MPD2    H110480   4.162   2.849  16.465  0.1411 -0.6141 -1.1997
  705MPD2    H210481   4.481   2.851  16.202  0.1545 -0.0244 -0.6678
  705MPD2    H310482   4.335   2.739  16.356  0.0199  0.1609 -2.5953
  705MPD2     N10483   4.153   3.107  16.520 -0.3294  0.0980  0.2072
  705MPD2    H510484   4.088   3.041  16.562 -1.2620  0.5876 -0.4694
  705MPD2    N110485   4.505   3.127  16.187  0.6828 -0.1250 -0.8669
  705MPD2    H710486   4.482   3.225  16.183  0.7504 -0.1202 -1.1269
  706TMC3    C110487   0.111   3.223  15.872 -0.2348 -0.6939 -0.3251
  706TMC3    C210488   0.055   3.335  15.824  0.7166  0.4657 -1.1398
  706TMC3    C310489   4.676   3.374  15.886 -0.5792  0.4327 -0.0306
  706TMC3    C410490   0.034   3.138  15.949  0.6324  0.0791 -0.2010
  706TMC3    C510491   4.668   3.187  16.021 -0.4355  0.6493 -0.0012
  706TMC3    C610492   4.613   3.308  15.991 -0.4284 -0.2673 -0.1682
  706TMC3     C10493   0.245   3.182  15.828  0.1048  0.1735  0.1050
  706TMC3     O10494   0.286   3.073  15.869 -0.0870  0.3713  0.0753
  706TMC3     H10495   0.111   3.397  15.755 -1.5649  2.4276 -1.2428
  706TMC3    H110496   0.075   3.044  15.986  0.0825  0.2532  0.8688
  706TMC3    H210497   4.523   3.339  16.043  0.7964  0.7841  1.3162
  706TMC3    C710498   4.597   3.079  16.100  0.2697  0.3819 -0.6387
  706TMC3    C810499   4.658   3.515  15.880 -0.3960 -0.3247 -0.2872
  706TMC3    O110500   4.653   2.970  16.101 -0.2598  0.1328  0.1572
  706TMC3    O210501   4.670   3.570  15.775  0.6707 -0.1299 -0.1401
  707TMC3    C110502   1.631   1.608   1.573  0.6421  0.0474  0.3258
  707TMC3    C210503   1.645   1.491   1.651 -0.4341 -0.7003 -0.3985
  707TMC3    C310504   1.524   1.441   1.694  0.4338  0.1211  0.7149
  707TMC3    C410505   1.508   1.663   1.538 -0.6293 -0.4624 -0.3164
  707TMC3    C510506   1.396   1.607   1.589  0.7996 -0.4552  0.1400
  707TMC3    C610507   1.399   1.487   1.666  0.8846 -0.1191 -0.0294
  707TMC3     C10508   1.740   1.624   1.480 -0.6598  0.0763  0.9048
  707TMC3     O10509   1.828   1.546   1.504 -0.0994  0.5130  0.2963
  707TMC3     H10510   1.741   1.468   1.696 -1.8426  0.6195  3.2196
  707TMC3    H110511   1.508   1.752   1.477  0.2575  1.3457  2.3550
  707TMC3    H210512   1.306   1.434   1.681 -0.0577  0.8337 -2.5452
  707TMC3    C710513   1.269   1.677   1.580  0.3683 -0.1069 -0.4823
  707TMC3    C810514   1.537   1.302   1.738 -0.1914  0.3016 -0.3116
  707TMC3    O110515   1.185   1.625   1.657 -0.3104 -0.3553  0.2178
  707TMC3    O210516   1.438   1.252   1.785 -0.1188  0.4606  0.7440
  708MPD2     C10517   2.845   1.311  14.013  0.5243 -1.0206  0.1815
  708MPD2    C110518   2.876   1.436  13.967  0.5400 -0.3756 -0.6308
  708MPD2    C210519   2.790   1.539  13.992 -0.3807 -0.3413 -0.1356
  708MPD2    C310520   2.678   1.523  14.071  0.1837  0.0985 -0.4050
  708MPD2    C410521   2.653   1.401  14.131  0.1531 -0.6784 -0.1767
  708MPD2    C510522   2.742   1.303  14.102  0.3970  0.5993  0.7141
  708MPD2     H10523   2.809   1.642  13.962 -1.6853 -0.3303 -0.9426
  708MPD2    H110524   2.555   1.374  14.170  0.2945  1.1345  1.4351
  708MPD2    H210525   2.919   1.232  14.016  0.0103 -1.5473 -1.0208
  708MPD2    H310526   2.725   1.205  14.145  2.6553 -0.4637 -0.8529
  708MPD2     N10527   2.583   1.628  14.097 -0.0308  0.2632 -0.5147
  708MPD2    H510528   2.507   1.613  14.162 -0.3961  1.9925 -0.5402
  708MPD2    N110529   2.988   1.474  13.888 -0.1113 -0.5107 -1.0052
  708MPD2    H710530   2.968   1.563  13.843  1.6024  0.0565 -0.6758
  709TMC3    C110531   3.133   1.457  13.718 -0.2909 -0.4930 -0.1378
  709TMC3    C210532   3.155   1.388  13.607 -0.0909 -0.3987 -0.0523
  709TMC3    C310533   3.188   1.456  13.492 -0.2587 -0.3430  0.0832
  709TMC3    C410534   3.138   1.594  13.722  0.2577 -0.1868  0.4954
  709TMC3    C510535   3.168   1.659  13.611 -0.5756 -0.2770  0.6110
  709TMC3    C610536   3.199   1.593  13.498  0.2042 -0.6777 -0.5117
  709TMC3     C10537   3.074   1.388  13.829 -0.1176 -0.1160  0.5264
  709TMC3     O10538   3.079   1.264  13.825  0.5568 -0.1430 -0.1096
  709TMC3     H10539   3.147   1.280  13.606  0.0216 -0.4123  0.4733
  709TMC3    H110540   3.132   1.651  13.814  0.5879 -1.9727  1.6258
  709TMC3    H210541   3.220   1.650  13.408  0.0983  0.0509 -0.0746
  709TMC3    C710542   3.112   1.795  13.597  0.1479  0.1119 -0.4200
  709TMC3    C810543   3.206   1.377  13.367  0.4862  0.6912  0.6142
  709TMC3    O110544   3.179   1.876  13.534  0.3968  0.0731 -0.7224
  709TMC3    O210545   3.234   1.256  13.384  0.2244 -0.2155  0.2758
  710TMC3    C110546   3.940   2.886  17.449  0.8462  0.7071 -0.4682
  710TMC3    C210547   4.013   2.861  17.337 -0.4036  0.1329  0.0478
  710TMC3    C310548   4.143   2.815  17.359  0.2979 -0.0270 -1.1686
  710TMC3    C410549   3.993   2.860  17.571  0.1384 -0.1652 -0.1174
  710TMC3    C510550   4.126   2.827  17.585  0.1734 -0.0863  0.5262
  710TMC3    C610551   4.205   2.796  17.483 -0.5031  0.2161 -0.5926
  710TMC3     C10552   3.833   2.989  17.441  1.0810  1.0396 -0.1868
  710TMC3     O10553   3.729   2.954  17.384 -0.0850  0.0439 -0.5113
  710TMC3     H10554   3.968   2.889  17.243  0.4999  0.3098 -0.3361
  710TMC3    H110555   3.936   2.868  17.663  1.3590 -1.0340  0.7257
  710TMC3    H210556   4.310   2.768  17.487 -1.3612 -2.8223  0.1112
  710TMC3    C710557   4.180   2.829  17.718 -0.1239 -0.7503  0.3256
  710TMC3    C810558   4.232   2.800  17.247  0.5851  0.3702  0.1865
  710TMC3    O110559   4.097   2.815   0.050  0.3768  0.1701 -0.0145
  710TMC3    O210560   4.353   2.802  17.273  0.2662  0.8344 -0.0278
  711TMC3    C110561   3.926   4.660  14.706 -0.2933  0.1237  0.1067
  711TMC3    C210562   3.986   4.678  14.831  0.7182  0.2609 -0.7665
  711TMC3    C310563   4.124   4.672  14.839 -0.5761  0.2061  1.4854
  711TMC3    C410564   4.008   4.606  14.601 -0.5096 -0.3636 -0.6059
  711TMC3    C510565   4.136   4.568  14.626  0.0175 -1.3426 -0.6182
  711TMC3    C610566   4.195   4.625  14.734  0.2000 -0.2222 -0.1956
  711TMC3     C10567   3.798   4.578  14.713 -0.3227  0.5229  0.1270
  711TMC3     O10568   3.746   4.561  14.603  1.0769  0.4237 -0.0293
  711TMC3     H10569   3.931   4.717  14.916  0.0245 -1.0069 -0.6369
  711TMC3    H110570   3.962   4.582  14.506  2.0865  1.2319 -2.2586
  711TMC3    H210571   4.301   4.604  14.745 -0.4711 -3.4723  0.2785
  711TMC3    C710572   4.152   4.428  14.637  0.0009 -0.3862 -0.2463
  711TMC3    C810573   4.180   4.616  14.967  0.4131 -0.5171 -0.1962
  711TMC3    O110574   4.255   4.387  14.691 -0.1618  0.4256  0.3275
  711TMC3    O210575   4.285   4.664  15.012 -0.3156  0.2021  0.1450
  712MPD2     C10576   0.203   0.009  13.847 -0.0475  0.1204  0.0507
  712MPD2    C110577   0.135   0.118  13.791  0.8293  0.5200  0.0593
  712MPD2    C210578   0.189   0.240  13.802  0.3692 -0.3797 -0.4473
  712MPD2    C310579   0.295   0.267  13.888 -0.0412 -0.5030  0.1105
  712MPD2    C410580   0.361   0.161  13.949  1.0695  0.6788  0.1851
  712MPD2    C510581   0.311   0.036  13.924 -0.3597 -0.9399  0.6803
  712MPD2     H10582   0.138   0.308  13.736 -1.1085 -2.5636 -1.5565
  712MPD2    H110583   0.457   0.170  13.999  0.2635 -1.6442  2.1656
  712MPD2    H210584   0.171   4.646  13.841  0.1216  0.0823 -0.2107
  712MPD2    H310585   0.367   4.689  13.958  2.1788 -0.2858 -1.9076
  712MPD2     N10586   0.347   0.396  13.909  0.2950 -0.6015  0.2699
  712MPD2    H510587   0.423   0.406  13.976 -0.6919 -2.8320  1.7407
  712MPD2    N110588   0.009   0.109  13.729 -0.2197 -0.4687  0.5162
  712MPD2    H710589   4.704   0.195  13.700  2.9116  1.0675  0.1896
  713TMC3    C110590   0.383   0.631  13.875  0.1432 -0.6563 -0.1233
  713TMC3    C210591   0.524   0.611  13.857 -0.1387 -0.6681  0.6571
  713TMC3    C310592   0.612   0.717  13.862  0.3183  0.6892  0.4118
  713TMC3    C410593   0.331   0.759  13.878  0.0192  0.1377 -0.1576
  713TMC3    C510594   0.423   0.858  13.871 -0.2478  0.5115 -0.1618
  713TMC3    C610595   0.558   0.847  13.869  0.2159 -1.2489  0.2430
  713TMC3     C10596   0.297   0.512  13.854  0.7034  0.3242  0.1571
  713TMC3     O10597   0.192   0.519  13.793 -0.1511 -0.7624  0.4517
  713TMC3     H10598   0.564   0.520  13.815 -1.3244 -0.8274 -0.1204
  713TMC3    H110599   0.224   0.771  13.890  0.0680  0.2795  0.1216
  713TMC3    H210600   0.621   0.932  13.843  0.3468 -1.5168 -0.3096
  713TMC3    C710601   0.370   0.991  13.889  0.2870 -0.3407 -0.9236
  713TMC3    C810602   0.691   0.691  13.749  0.0704  0.8641 -0.3968
  713TMC3    O110603   0.455   1.075  13.888  0.1794  0.0200 -0.3142
  713TMC3    O210604   0.637   0.696  13.636  0.2597  0.8941  0.0880
  714MPD2     C10605   2.852   3.314   1.352 -0.7276  0.5908 -0.3249
  714MPD2    C110606   2.864   3.248   1.236 -0.4519  0.3774 -0.5073
  714MPD2    C210607   2.771   3.269   1.135 -0.3030 -0.5262  0.1258
  714MPD2    C310608   2.677   3.369   1.144  0.0925 -0.5803  0.4218
  714MPD2    C410609   2.678   3.441   1.257 -0.7722 -0.5063  0.6354
  714MPD2    C510610   2.761   3.412   1.362  0.5532 -0.0829 -0.6426
  714MPD2     H10611   2.791   3.222   1.039 -2.3550 -1.2990  0.0677
  714MPD2    H110612   2.612   3.526   1.271 -0.3929 -0.2670  0.9596
  714MPD2    H210613   2.920   3.299   1.435 -0.9953 -2.2138 -0.6043
  714MPD2    H310614   2.762   3.482   1.445  2.3972  0.6969 -1.3141
  714MPD2     N10615   2.592   3.397   1.031  0.7999 -0.5136  0.3063
  714MPD2    H510616   2.593   3.333   0.952 -1.0600  1.6075 -1.4518
  714MPD2    N110617   2.975   3.157   1.230  0.0485 -0.0606 -0.9728
  714MPD2    H710618   3.036   3.159   1.311  0.6263  1.6765 -1.4416
  715TMC3    C110619   3.149   3.035   1.138  0.3996  0.0463 -0.8689
  715TMC3    C210620   3.177   2.922   1.068  0.3727 -0.0307 -0.4765
  715TMC3    C310621   3.285   2.849   1.096 -0.2728  0.4694 -0.1534
  715TMC3    C410622   3.229   3.084   1.239 -0.5315 -0.0939  0.1140
  715TMC3    C510623   3.337   3.002   1.267 -0.1561 -0.5768 -0.0042
  715TMC3    C610624   3.366   2.884   1.198  0.2635  0.5765  0.1678
  715TMC3     C10625   3.015   3.091   1.119 -0.0939  0.6363 -0.2440
  715TMC3     O10626   2.957   3.074   1.013  0.0648 -0.7171  0.1512
  715TMC3     H10627   3.141   2.904   0.967 -1.3295  1.8883 -0.2226
  715TMC3    H110628   3.226   3.184   1.280 -0.7635  0.4628 -1.2630
  715TMC3    H210629   3.446   2.823   1.239  0.4259  1.3824  1.0517
  715TMC3    C710630   3.438   3.046   1.356  0.8842 -0.3285 -0.3758
  715TMC3    C810631   3.340   2.770   0.985 -0.3466  0.1998  0.0663
  715TMC3    O110632   3.545   2.990   1.341  0.5836  0.0581  0.2038
  715TMC3    O210633   3.326   2.815   0.875 -0.3255  0.0960  0.6925
  716MPD2     C10634   2.201   1.863   9.996 -0.5946  0.3885 -0.7028
  716MPD2    C110635   2.128   1.750   9.989  0.9237  0.3197 -0.3263
  716MPD2    C210636   2.193   1.627   9.985  0.3354  0.2062 -0.2023
  716MPD2    C310637   2.331   1.624   9.982  0.0736  0.4431  0.3185
  716MPD2    C410638   2.399   1.741   9.977  0.2838 -0.8978 -0.0908
  716MPD2    C510639   2.341   1.860   9.988  0.3428 -0.2469 -0.4590
  716MPD2     H10640   2.136   1.535   9.981 -1.1275  1.1596 -1.7907
  716MPD2    H110641   2.504   1.749  10.001  0.5139 -2.3834 -0.5552
  716MPD2    H210642   2.155   1.961   9.988 -0.4313  0.5100 -0.1592
  716MPD2    H310643   2.389   1.958   9.986 -1.7588  0.7577 -1.9132
  716MPD2     N10644   2.393   1.496   9.989  0.5303  0.2891  0.4299
  716MPD2    H510645   2.340   1.414  10.017  2.8316 -1.5500 -0.6027
  716MPD2    N110646   1.986   1.760  10.003  0.4642 -0.2114  0.3027
  716MPD2    H710647   1.951   1.848  10.039 -0.3332 -0.8094  0.9854
  717TMC3    C110648   2.549   1.328   9.986 -0.5957  0.0399 -0.5418
  717TMC3    C210649   2.455   1.241   9.929 -0.0574 -0.4035 -0.0577
  717TMC3    C310650   2.476   1.100   9.947  1.0011  0.3297 -0.0779
  717TMC3    C410651   2.647   1.281  10.066 -0.3828  0.6168 -0.3509
  717TMC3    C510652   2.661   1.145  10.086  0.2697 -0.6223 -0.3227
  717TMC3    C610653   2.589   1.056  10.016 -0.4815 -0.4612  0.9060
  717TMC3     C10654   2.528   1.472   9.980  0.3332  0.6573 -0.1388
  717TMC3     O10655   2.626   1.547   9.969 -0.0906  0.1217 -0.0415
  717TMC3     H10656   2.362   1.277   9.887  1.4930  2.4515 -1.0061
  717TMC3    H110657   2.699   1.356  10.124 -2.8879  0.9512  1.4652
  717TMC3    H210658   2.598   0.950  10.034 -0.4740 -0.3099  1.7958
  717TMC3    C710659   2.721   1.107  10.216 -0.0476  0.3357  0.0767
  717TMC3    C810660   2.354   1.029   9.913  0.0338 -0.5976  0.2628
  717TMC3    O110661   2.743   1.203  10.290  0.1891  0.3771  0.5106
  717TMC3    O210662   2.251   1.092   9.893  0.4055  0.7523 -0.0074
  718MPD2     C10663   1.897   0.530  12.947  0.3567  0.1880 -1.0777
  718MPD2    C110664   1.828   0.646  12.946 -0.2126  0.3061 -0.0937
  718MPD2    C210665   1.694   0.650  12.914 -0.0602  0.0732  0.4105
  718MPD2    C310666   1.637   0.539  12.866 -0.3196  0.3307  0.3395
  718MPD2    C410667   1.700   0.418  12.872 -0.1136  0.1221 -0.8905
  718MPD2    C510668   1.831   0.416  12.911  0.0629 -0.1565 -0.2501
  718MPD2     H10669   1.629   0.736  12.913 -1.8592 -1.2404  3.3161
  718MPD2    H110670   1.640   0.332  12.843  3.5655 -2.0458 -2.1420
  718MPD2    H210671   1.997   0.528  12.987 -0.6136  1.6963  1.3657
  718MPD2    H310672   1.885   0.324  12.926 -0.0214 -0.1545  0.0714
  718MPD2     N10673   1.506   0.553  12.819  0.6542 -0.4905 -0.6575
  718MPD2    H510674   1.467   0.642  12.846  0.9180 -0.4171 -0.5185
  718MPD2    N110675   1.897   0.760  13.003 -0.1033  0.0739  0.1668
  718MPD2    H710676   1.995   0.750  13.027  0.3225 -0.0554 -1.6079
  719TMC3    C110677   1.928   0.998  13.026  0.3608 -0.2768 -0.0791
  719TMC3    C210678   1.849   1.112  13.026  0.0737 -0.8293 -0.6643
  719TMC3    C310679   1.873   1.213  12.936 -0.2898 -0.0681 -0.3533
  719TMC3    C410680   2.036   0.994  12.943  0.7427  0.5421  0.4133
  719TMC3    C510681   2.063   1.096  12.862 -0.1722 -0.2390  0.7595
  719TMC3    C610682   1.983   1.209  12.850 -0.5521 -0.5188  0.5127
  719TMC3     C10683   1.841   0.886  13.016 -0.4519  0.0393  0.2887
  719TMC3     O10684   1.724   0.919  13.003 -0.4386  0.2946  0.1490
  719TMC3     H10685   1.769   1.113  13.099 -1.0525  1.2110 -1.9581
  719TMC3    H110686   2.103   0.909  12.939  0.9454  0.6786  0.8397
  719TMC3    H210687   2.008   1.289  12.782 -1.8124  0.6876  1.4663
  719TMC3    C710688   2.198   1.095  12.805  0.1072  0.4055 -0.1963
  719TMC3    C810689   1.755   1.267  12.879  0.8866  0.1355 -1.1460
  719TMC3    O110690   2.270   0.993  12.813  0.5852  0.3165 -0.4965
  719TMC3    O210691   1.754   1.364  12.804 -0.3072  0.0720 -0.4022
  720MPD2     C10692   0.529   2.107  13.548  0.5476 -0.0419  0.1691
  720MPD2    C110693   0.588   2.177  13.450 -0.1445  0.1089 -0.2340
  720MPD2    C210694   0.719   2.207  13.476 -0.5018 -0.1684 -0.7221
  720MPD2    C310695   0.788   2.171  13.591  0.6050  0.5964  0.5731
  720MPD2    C410696   0.721   2.101  13.690 -0.0910  0.2765  0.0517
  720MPD2    C510697   0.592   2.071  13.665 -0.5861 -0.8572 -0.3515
  720MPD2     H10698   0.781   2.266  13.410 -0.6447  1.7778  0.8982
  720MPD2    H110699   0.762   2.067  13.784  2.5009  2.5942 -0.2243
  720MPD2    H210700   0.422   2.094  13.536  0.5516  0.8987 -0.8696
  720MPD2    H310701   0.520   2.024  13.731  0.2100  0.1777  1.2598
  720MPD2     N10702   0.911   2.236  13.617  0.5661 -0.1161  0.5826
  720MPD2    H510703   0.953   2.298  13.548 -0.3245 -0.3179 -0.1446
  720MPD2    N110704   0.508   2.232  13.348  0.3159 -0.1650 -0.8439
  720MPD2    H710705   0.407   2.233  13.362  0.9488 -0.0694  3.5491
  721TMC3    C110706   1.111   2.301  13.721 -0.1167  0.1133  0.1471
  721TMC3    C210707   1.126   2.386  13.822 -0.3661 -0.3513 -0.2065
  721TMC3    C310708   1.237   2.474  13.820  0.5075 -0.0984 -0.1714
  721TMC3    C410709   1.208   2.267  13.631  0.4830  0.8428  0.3013
  721TMC3    C510710   1.313   2.348  13.631 -0.4746  0.0727  0.5121
  721TMC3    C610711   1.328   2.451  13.721  0.0552 -0.4535 -0.0999
  721TMC3     C10712   0.990   2.227  13.725 -0.6103 -0.0025  0.1073
  721TMC3     O10713   0.972   2.167  13.830  0.0801  0.5945  0.3787
  721TMC3     H10714   1.053   2.387  13.902 -0.1679 -0.5129 -0.0220
  721TMC3    H110715   1.198   2.190  13.555  0.6053  0.3956  0.7357
  721TMC3    H210716   1.416   2.513  13.705 -1.4486  1.9627  1.0706
  721TMC3    C710717   1.438   2.274  13.612  0.0332  0.2570  0.2456
  721TMC3    C810718   1.289   2.536  13.938 -0.3479 -0.0318 -0.4768
  721TMC3    O110719   1.547   2.333  13.603  0.1118  0.6726 -0.3944
  721TMC3    O210720   1.395   2.592  13.920  0.8858 -0.7014 -0.5011
  722MPD2     C10721   3.932   0.757  13.729  0.1090 -0.1179 -0.1529
  722MPD2    C110722   3.920   0.874  13.658 -0.7481  0.2633 -0.0422
  722MPD2    C210723   3.819   0.874  13.560  0.3049 -0.0508  0.1847
  722MPD2    C310724   3.747   0.766  13.528  0.1025 -0.3615 -0.2432
  722MPD2    C410725   3.766   0.650  13.605 -0.4591  0.1978 -0.9557
  722MPD2    C510726   3.856   0.647  13.706 -0.1218 -0.1650 -0.2758
  722MPD2     H10727   3.806   0.956  13.490 -1.9479 -1.0250 -0.5455
  722MPD2    H110728   3.718   0.554  13.588 -0.2502  0.0131 -0.5108
  722MPD2    H210729   4.008   0.751  13.806  1.7740  1.6525 -1.6600
  722MPD2    H310730   3.879   0.553  13.754 -0.8948 -0.5593 -0.6780
  722MPD2     N10731   3.660   0.780  13.416  0.0261  0.4615 -0.3729
  722MPD2    H510732   3.650   0.870  13.370  2.3749 -0.0569 -1.8752
  722MPD2    N110733   3.996   0.994  13.676  0.3331  0.3608 -0.2331
  722MPD2    H710734   3.988   1.067  13.606 -1.4993 -0.8258 -1.2724
  723TMC3    C110735   3.511   0.702  13.239 -0.1375 -0.5819 -0.2648
  723TMC3    C210736   3.413   0.606  13.211 -0.0334 -0.0929 -0.2321
  723TMC3    C310737   3.323   0.632  13.113  0.8634  0.1373  0.3045
  723TMC3    C410738   3.524   0.819  13.178  0.1536 -0.3112  0.9051
  723TMC3    C510739   3.431   0.843  13.084  0.3582  0.3979  0.4714
  723TMC3    C610740   3.330   0.756  13.059  0.1180  0.2857  0.2621
  723TMC3     C10741   3.573   0.683  13.368 -0.0805  0.1003 -0.4357
  723TMC3     O10742   3.543   0.582  13.428  0.0324 -0.1823  0.4065
  723TMC3     H10743   3.408   0.513  13.266  1.7750  0.0895  0.2408
  723TMC3    H110744   3.605   0.890  13.191 -1.8609  1.7353  2.0810
  723TMC3    H210745   3.259   0.775  12.979 -2.0459 -1.7242  1.7053
  723TMC3    C710746   3.443   0.974  13.019  0.0181  0.3275 -0.3234
  723TMC3    C810747   3.198   0.561  13.093 -0.7120  0.1620 -0.2646
  723TMC3    O110748   3.517   1.057  13.074 -0.1930 -0.7944  0.2369
  723TMC3    O210749   3.103   0.618  13.041  0.2288 -0.3877 -0.3259
  724TMC3    C110750   3.999   3.482  10.360  0.2036  0.6451 -0.5305
  724TMC3    C210751   4.037   3.510  10.231 -0.5885  0.1248 -0.2260
  724TMC3    C310752   4.155   3.575  10.215 -0.4674 -0.5863 -0.6710
  724TMC3    C410753   4.089   3.499  10.462  0.0848  0.7264  0.3614
  724TMC3    C510754   4.218   3.549  10.444  0.1790 -0.2532  0.1692
  724TMC3    C610755   4.247   3.589  10.316 -0.7050 -0.5596 -0.2569
  724TMC3     C10756   3.861   3.453  10.399  0.2178  0.1692 -0.4668
  724TMC3     O10757   3.847   3.445  10.521 -0.5619 -0.0619  0.5527
  724TMC3     H10758   3.955   3.524  10.161 -1.4113 -3.1722  0.0673
  724TMC3    H110759   4.062   3.464  10.561  2.4368 -2.1935 -0.0375
  724TMC3    H210760   4.343   3.634  10.298 -0.1328 -1.4166  0.6222
  724TMC3    C710761   4.269   3.643  10.539  0.2532  0.1753  0.3756
  724TMC3    C810762   4.173   3.648  10.092  0.7093  0.0919  0.3575
  724TMC3    O110763   4.300   3.748  10.488 -0.4738 -0.6934 -0.2153
  724TMC3    O210764   4.118   3.610   9.990 -0.2616  0.1454  0.7416
  725TMC3    C110765   1.297   2.864  12.382 -0.5297 -0.0006 -0.4748
  725TMC3    C210766   1.262   2.896  12.256 -0.9900 -0.1124 -0.6455
  725TMC3    C310767   1.230   2.793  12.170 -0.0162  0.2145 -0.4709
  725TMC3    C410768   1.300   2.734  12.433 -0.1365 -0.1229 -0.5748
  725TMC3    C510769   1.265   2.638  12.342 -0.0470  0.0531 -0.0845
  725TMC3    C610770   1.224   2.668  12.214  0.2601  0.1279  0.6867
  725TMC3     C10771   1.366   2.959  12.451 -0.2030  0.0369 -0.3923
  725TMC3     O10772   1.382   2.956  12.571 -0.0415 -0.5583 -0.4421
  725TMC3     H10773   1.232   2.997  12.228  0.7113 -0.2152 -2.8577
  725TMC3    H110774   1.328   2.716  12.536 -0.2590 -0.4526 -0.5984
  725TMC3    H210775   1.191   2.597  12.140  2.9234  0.7247 -1.0997
  725TMC3    C710776   1.266   2.494  12.375  0.1142 -0.5594 -0.0204
  725TMC3    C810777   1.172   2.828  12.035 -0.2563  0.6493 -0.6962
  725TMC3    O110778   1.204   2.421  12.302 -0.1908  0.0797 -0.5599
  725TMC3    O210779   1.135   2.944  12.022 -0.3931  0.3458 -0.0620
  726MPD2     C10780   3.456   3.763  10.138 -0.7144 -0.0604  0.1077
  726MPD2    C110781   3.366   3.866  10.136  0.5253 -0.3988 -0.5655
  726MPD2    C210782   3.231   3.843  10.141 -0.6196  0.1324  0.3526
  726MPD2    C310783   3.185   3.709  10.156 -0.3943 -0.2712  0.1737
  726MPD2    C410784   3.275   3.604  10.164 -0.1370 -0.3889 -0.0562
  726MPD2    C510785   3.410   3.635  10.153  0.2879  0.3031 -0.2656
  726MPD2     H10786   3.163   3.924  10.119 -0.9089 -0.3066 -0.3359
  726MPD2    H110787   3.236   3.509  10.197  1.1580 -1.1555 -0.7661
  726MPD2    H210788   3.563   3.770  10.128 -0.9039 -0.0103 -1.8616
  726MPD2    H310789   3.483   3.555  10.155 -1.5596 -1.3284  1.2232
  726MPD2     N10790   3.043   3.681  10.183  0.1693  0.4690 -0.2385
  726MPD2    H510791   3.027   3.591  10.228  0.4523  0.2293 -0.6229
  726MPD2    N110792   3.405   4.005  10.124 -0.1520 -0.2663  0.3583
  726MPD2    H710793   3.337   4.072  10.090  1.8260  0.9035 -1.2762
  727TMC3    C110794   3.558   4.178  10.118 -1.0372 -0.4440 -0.2239
  727TMC3    C210795   3.645   4.246  10.191 -0.4225 -0.0969 -0.0242
  727TMC3    C310796   3.661   4.376  10.151 -0.7444  0.2290  0.8067
  727TMC3    C410797   3.487   4.231  10.009 -0.1131 -0.3300 -0.0552
  727TMC3    C510798   3.514   4.357   9.971 -0.1883  0.1951  0.2779
  727TMC3    C610799   3.599   4.433  10.044 -0.2185  0.9417 -0.1507
  727TMC3     C10800   3.534   4.046  10.155  0.3704  0.1346  0.1539
  727TMC3     O10801   3.621   3.984  10.214 -0.3379  0.7208 -0.4671
  727TMC3     H10802   3.690   4.211  10.282  0.1782 -1.2658 -0.7781
  727TMC3    H110803   3.428   4.169   9.943  0.7194 -1.4258  0.2351
  727TMC3    H210804   3.642   4.524  10.001 -0.0690 -0.5098 -3.0723
  727TMC3    C710805   3.494   4.404   9.836  0.4910 -0.2966 -0.0270
  727TMC3    C810806   3.706   4.465  10.251 -0.0174 -0.0119  0.3275
  727TMC3    O110807   3.549   4.507   9.798  0.4856  0.4866  0.0344
  727TMC3    O210808   3.773   4.419  10.344 -0.1767  0.2997  0.0492
  728TMC3    C110809   3.239   2.984  15.200  0.1097 -0.2208 -0.3478
  728TMC3    C210810   3.361   3.045  15.223  0.0591 -0.2897 -0.5693
  728TMC3    C310811   3.416   3.128  15.126  0.5563  0.2916  0.1240
  728TMC3    C410812   3.178   2.983  15.076  0.6552  0.3787  0.3436
  728TMC3    C510813   3.249   3.048  14.979 -0.5497 -0.2361 -0.0011
  728TMC3    C610814   3.370   3.111  15.005  0.2400 -0.5609  0.6698
  728TMC3     C10815   3.172   2.956  15.326  0.3730  0.7482 -0.1525
  728TMC3     O10816   3.228   2.951  15.436  0.3143 -0.0932  0.1079
  728TMC3     H10817   3.412   3.047  15.319 -1.9907  0.1806  0.4987
  728TMC3    H110818   3.082   2.946  15.044 -0.0280  0.8534  1.8472
  728TMC3    H210819   3.423   3.165  14.929 -0.7601 -0.5393 -0.0160
  728TMC3    C710820   3.189   3.061  14.841 -0.3163 -0.2898 -0.4967
  728TMC3    C810821   3.550   3.183  15.134 -0.1093 -0.1116  0.3764
  728TMC3    O110822   3.125   2.975  14.783 -0.1779  0.0142 -0.3127
  728TMC3    O210823   3.640   3.103  15.161 -0.0656  0.1334 -0.1644
  729MPD2     C10824   0.559   4.102  16.342 -0.5232 -0.0890  0.2047
  729MPD2    C110825   0.682   4.073  16.399 -0.9647 -0.7008 -0.0620
  729MPD2    C210826   0.679   4.008  16.526  0.0971  0.3218 -0.2563
  729MPD2    C310827   0.559   3.969  16.589 -0.0562  0.1316 -0.0517
  729MPD2    C410828   0.445   4.008  16.532 -0.4314 -0.0673 -0.3260
  729MPD2    C510829   0.443   4.063  16.411 -0.5441  0.2599  0.1832
  729MPD2     H10830   0.773   3.996  16.577  1.3669  1.7444 -2.2597
  729MPD2    H110831   0.349   3.997  16.581 -0.2728 -2.1413 -0.4837
  729MPD2    H210832   0.546   4.155  16.248  2.9637 -1.9997 -1.3690
  729MPD2    H310833   0.342   4.082  16.375 -0.0165  1.8206 -0.4606
  729MPD2     N10834   0.562   3.922  16.723 -0.2798  0.0699  0.6427
  729MPD2    H510835   0.471   3.912  16.766 -1.6165 -0.1759 -2.2541
  729MPD2    N110836   0.799   4.138  16.348  0.2978  0.1815 -0.0465
  729MPD2    H710837   0.776   4.216  16.287 -0.1968  0.1148  0.0537
  730TMC3    C110838   0.654   3.871  16.936  0.6051  0.4776  0.3985
  730TMC3    C210839   0.762   3.830  17.006 -0.1501 -0.3205 -0.2463
  730TMC3    C310840   0.769   3.877  17.137 -0.2807  0.0392  0.1404
  730TMC3    C410841   0.555   3.948  16.988 -0.9335  0.4254 -0.1184
  730TMC3    C510842   0.557   3.981  17.116 -0.9468  0.1699 -1.0939
  730TMC3    C610843   0.661   3.942  17.194 -0.4779  0.1615  0.4507
  730TMC3     C10844   0.678   3.891  16.792 -1.0598  0.1452  0.3653
  730TMC3     O10845   0.785   3.857  16.745  0.0277 -0.1089  0.3007
  730TMC3     H10846   0.853   3.799  16.955  0.3865 -1.8360  1.6326
  730TMC3    H110847   0.481   3.999  16.929 -1.5122  1.7040  1.6984
  730TMC3    H210848   0.670   3.967  17.299  2.3039 -0.2509  0.3027
  730TMC3    C710849   0.528   4.122  17.135 -0.0022  0.6642  0.5171
  730TMC3    C810850   0.880   3.957  17.147  0.1100  0.5879  0.1541
  730TMC3    O110851   0.504   4.192  17.035  0.3528 -0.2194  0.5783
  730TMC3    O210852   0.987   3.914  17.102 -0.0176 -0.0590 -0.1228
  731MPD2     C10853   0.792   2.560  11.879  0.7225 -0.5253 -0.4214
  731MPD2    C110854   0.705   2.455  11.850  0.0320  0.2056  0.9207
  731MPD2    C210855   0.613   2.416  11.945 -0.2673 -0.8020  0.4483
  731MPD2    C310856   0.613   2.474  12.074  0.1031 -0.5204  0.0540
  731MPD2    C410857   0.705   2.575  12.101  0.3208  1.0448 -0.0460
  731MPD2    C510858   0.793   2.621  12.002  0.8223 -0.0626  0.1151
  731MPD2     H10859   0.548   2.329  11.942  0.7508 -1.5267 -0.4019
  731MPD2    H110860   0.711   2.630  12.195  1.2510  0.9142 -0.0295
  731MPD2    H210861   0.849   2.612  11.803  1.0264  1.2958  1.0417
  731MPD2    H310862   0.869   2.697  12.018 -2.2595  2.6577  1.8367
  731MPD2     N10863   0.521   2.429  12.170 -0.1460  0.3223  0.1635
  731MPD2    H510864   0.467   2.346  12.150  2.7239 -1.2874 -0.8755
  731MPD2    N110865   0.696   2.398  11.718  0.2570  0.7027  0.0122
  731MPD2    H710866   0.780   2.396  11.662  1.7889 -0.8163  2.3682
  732TMC3    C110867   0.599   2.272  11.544 -0.2746  0.7226  0.0396
  732TMC3    C210868   0.495   2.246  11.463 -0.2036  0.2275  0.1441
  732TMC3    C310869   0.503   2.151  11.365  0.0191  0.5394 -0.4519
  732TMC3    C410870   0.715   2.206  11.522  0.6598 -0.0620  0.8334
  732TMC3    C510871   0.726   2.110  11.426 -0.3954  1.0489 -0.0490
  732TMC3    C610872   0.624   2.091  11.335  0.6496  0.5954 -0.4408
  732TMC3     C10873   0.580   2.347  11.660  0.4818 -0.4513 -0.5676
  732TMC3     O10874   0.465   2.378  11.689  0.2251  0.6521  0.4402
  732TMC3     H10875   0.407   2.309  11.460 -0.4582 -0.1937 -1.6953
  732TMC3    H110876   0.803   2.216  11.585 -0.0661 -1.3191  2.0655
  732TMC3    H210877   0.642   2.015  11.259 -0.3016  0.7741 -0.8397
  732TMC3    C710878   0.839   2.019  11.411 -0.7262 -0.1236  0.3940
  732TMC3    C810879   0.388   2.071  11.323  0.0343 -0.5476 -0.2842
  732TMC3    O110880   0.878   1.979  11.303  0.0154  0.2195  0.6880
  732TMC3    O210881   0.397   2.007  11.218 -0.0218  0.4731  0.0855
  733TMC3    C110882   1.069   0.524  12.660 -0.0709  0.3102  0.7583
  733TMC3    C210883   1.182   0.453  12.690  0.1737  0.4926 -0.0058
  733TMC3    C310884   1.302   0.526  12.699 -0.2747 -0.0563  0.5729
  733TMC3    C410885   1.068   0.660  12.643  0.7009 -0.2317 -0.4274
  733TMC3    C510886   1.186   0.725  12.657  0.0473 -0.4329 -0.6219
  733TMC3    C610887   1.307   0.666  12.686 -0.8478 -0.0532 -0.2807
  733TMC3     C10888   0.936   0.471  12.687  0.7857  0.1395  0.0413
  733TMC3     O10889   0.843   0.536  12.635  0.0388 -0.0815 -0.0876
  733TMC3     H10890   1.185   0.345  12.699  0.6304  0.4152 -1.1561
  733TMC3    H110891   0.979   0.720  12.662 -1.1570 -3.0618 -0.2124
  733TMC3    H210892   1.398   0.720  12.709 -1.2526  0.7067 -0.4836
  733TMC3    C710893   1.183   0.871  12.669 -0.3548  0.9583  0.2519
  733TMC3    C810894   1.425   0.462  12.748  0.5107  0.5471  0.4387
  733TMC3    O110895   1.096   0.934  12.612 -0.4101  0.0540  0.0194
  733TMC3    O210896   1.446   0.345  12.718  0.4819 -0.3882 -0.3539
  734MPD2     C10897   3.889   2.828  12.460 -0.0752 -0.1183 -0.4795
  734MPD2    C110898   3.792   2.732  12.423 -0.4280  0.2512 -0.5134
  734MPD2    C210899   3.747   2.737  12.296 -0.1261  0.0444 -0.3795
  734MPD2    C310900   3.809   2.813  12.199  0.6869 -0.0246 -0.4689
  734MPD2    C410901   3.910   2.896  12.235  0.0085 -0.6620  0.1651
  734MPD2    C510902   3.947   2.905  12.368 -0.3094  0.1695  0.7324
  734MPD2     H10903   3.672   2.669  12.258  1.3235 -1.3082 -0.8073
  734MPD2    H110904   3.963   2.957  12.163  0.1338  1.2628  1.8637
  734MPD2    H210905   3.931   2.831  12.560 -0.8577  3.2913 -0.2641
  734MPD2    H310906   4.036   2.965  12.389 -0.5419  0.7428  0.0869
  734MPD2     N10907   3.762   2.790  12.071  0.7379  0.6341  0.7608
  734MPD2    H510908   3.677   2.735  12.063 -0.2337  2.2557 -0.0163
  734MPD2    N110909   3.747   2.641  12.517 -0.2019 -0.5281  0.6356
  734MPD2    H710910   3.791   2.647  12.609 -0.2552  2.1149  0.4858
  735TMC3    C110911   3.646   2.433  12.580 -0.3619 -0.0796  0.1058
  735TMC3    C210912   3.532   2.361  12.559  0.2419 -0.0851 -0.9635
  735TMC3    C310913   3.536   2.227  12.539  0.1043  0.0921 -0.1447
  735TMC3    C410914   3.769   2.365  12.574  0.1357 -0.3213  0.0230
  735TMC3    C510915   3.772   2.228  12.557  0.4008 -0.3822 -0.0326
  735TMC3    C610916   3.655   2.162  12.539 -0.0303  0.3164  0.6276
  735TMC3     C10917   3.644   2.551  12.498 -0.1656 -0.1890 -0.4738
  735TMC3     O10918   3.565   2.546  12.408  0.0573 -0.1578 -0.1410
  735TMC3     H10919   3.440   2.418  12.559  1.9432  2.6312  1.1699
  735TMC3    H110920   3.867   2.410  12.589  0.2984 -0.5111 -0.4622
  735TMC3    H210921   3.654   2.057  12.516  2.1618  0.6570 -1.0222
  735TMC3    C710922   3.890   2.162  12.501 -0.4716 -0.3831  0.1295
  735TMC3    C810923   3.461   2.181  12.425  0.0755  0.2653  0.3115
  735TMC3    O110924   3.976   2.244  12.466  0.3939  0.3857 -0.5726
  735TMC3    O210925   3.454   2.059  12.414 -0.2070  0.3345 -0.3965
  736MPD2     C10926   3.916   1.810  12.381  0.0808 -0.4608 -0.6063
  736MPD2    C110927   3.950   1.944  12.385 -0.5056  0.6794  0.3358
  736MPD2    C210928   4.035   1.998  12.289 -0.3442  0.0420  0.1311
  736MPD2    C310929   4.063   1.924  12.177 -0.0503 -0.7325 -0.6527
  736MPD2    C410930   4.035   1.794  12.166  0.0538 -0.6070  0.5456
  736MPD2    C510931   3.972   1.736  12.275 -0.4819 -0.3908 -0.3896
  736MPD2     H10932   4.070   2.101  12.295 -0.8325  0.3090 -1.3908
  736MPD2    H110933   4.059   1.736  12.077  2.8170  0.3968  0.6299
  736MPD2    H210934   3.846   1.764  12.450 -0.2507 -0.0881 -0.6942
  736MPD2    H310935   3.939   1.633  12.265 -0.4018 -0.3398 -1.1709
  736MPD2     N10936   4.123   1.981  12.062  0.6084 -0.7017 -0.1251
  736MPD2    H510937   4.125   1.928  11.976  2.0747 -1.9303  0.6652
  736MPD2    N110938   3.883   2.027  12.483  0.3569  0.5293  0.6651
  736MPD2    H710939   3.828   1.965  12.542  1.8297 -0.7497  0.6991
  737TMC3    C110940   4.212   2.146  11.924 -0.5589  0.7298  0.4175
  737TMC3    C210941   4.195   2.276  11.882  0.3012 -0.0162  0.5357
  737TMC3    C310942   4.212   2.312  11.744 -0.9490  0.2210  0.2311
  737TMC3    C410943   4.246   2.052  11.829 -0.2438  0.4903  0.5410
  737TMC3    C510944   4.257   2.093  11.692 -0.2723  0.2276 -0.1893
  737TMC3    C610945   4.245   2.222  11.647 -0.4761 -1.3138  0.5537
  737TMC3     C10946   4.164   2.116  12.056  0.6740  0.5381 -0.7360
  737TMC3     O10947   4.190   2.200  12.144 -0.1168 -0.1116  0.3222
  737TMC3     H10948   4.151   2.355  11.941 -1.6485 -0.6846 -0.0228
  737TMC3    H110949   4.267   1.951  11.863  1.4602  0.1280 -1.6028
  737TMC3    H210950   4.214   2.248  11.547  0.2417  1.7780  1.1514
  737TMC3    C710951   4.305   2.001  11.594 -0.4267  0.3474  1.0715
  737TMC3    C810952   4.149   2.437  11.723  0.3219  0.4464 -0.4220
  737TMC3    O110953   4.249   1.894  11.596 -0.2698 -0.2017  0.6117
  737TMC3    O210954   4.182   2.529  11.799 -0.6375 -0.2791 -0.2559
  738MPD2     C10955   4.118   1.749  14.889  0.9998  0.4717 -0.0644
  738MPD2    C110956   4.181   1.692  14.998  0.7935 -0.1217  0.3073
  738MPD2    C210957   4.318   1.709  15.020 -0.0332 -0.3741 -0.3763
  738MPD2    C310958   4.399   1.773  14.917  0.6214 -0.3106  0.2062
  738MPD2    C410959   4.333   1.817  14.799 -0.2594 -0.7011 -0.6224
  738MPD2    C510960   4.195   1.805  14.790 -0.7953 -0.7958 -0.2751
  738MPD2     H10961   4.361   1.669  15.111  1.0415  0.1782 -0.6451
  738MPD2    H110962   4.387   1.855  14.713 -0.3779 -0.3271 -0.5315
  738MPD2    H210963   4.015   1.727  14.865  1.4762  1.1196 -2.6632
  738MPD2    H310964   4.151   1.855  14.705 -0.8655 -1.2333 -0.4932
  738MPD2     N10965   4.540   1.789  14.927 -0.2708 -0.1094  0.3137
  738MPD2    H510966   4.577   1.839  14.847  1.1827 -0.5892  0.6922
  738MPD2    N110967   4.113   1.607  15.089 -0.2560  0.2132 -0.7224
  738MPD2    H710968   4.168   1.568  15.165  0.5060 -1.4801 -2.1571
  739TMC3    C110969   0.018   1.735  14.978  0.0708 -0.5885  0.0043
  739TMC3    C210970   0.043   1.702  14.847 -0.6536  0.5747  0.3899
  739TMC3    C310971   0.173   1.690  14.808 -1.4893  0.3102  0.3215
  739TMC3    C410972   0.119   1.751  15.067 -0.3958  0.1078  0.1340
  739TMC3    C510973   0.245   1.746  15.020 -0.1102 -0.4209 -0.5666
  739TMC3    C610974   0.281   1.728  14.892  0.1328 -0.0444 -0.2234
  739TMC3     C10975   4.626   1.736  15.026  0.7684 -0.5455  0.8483
  739TMC3     O10976   4.600   1.687  15.134  0.2271  0.2992 -0.2482
  739TMC3     H10977   4.700   1.682  14.780 -0.8163  1.3961  0.3437
  739TMC3    H110978   0.088   1.790  15.163 -2.0302 -1.4759  0.2526
  739TMC3    H210979   0.385   1.715  14.866  0.2427 -0.8939  0.6364
  739TMC3    C710980   0.359   1.744  15.110  0.5893 -0.4235 -0.5752
  739TMC3    C810981   0.187   1.684  14.666  0.3128 -0.4298  0.5138
  739TMC3    O110982   0.478   1.745  15.061 -0.1784  0.2735 -0.4654
  739TMC3    O210983   0.093   1.630  14.615 -0.2497 -0.1095 -0.5253
  740TMC3    C110984   0.124   2.835  14.122  0.0286  0.0991  0.3257
  740TMC3    C210985   0.163   2.813  14.251 -0.2297  0.7857 -0.3325
  740TMC3    C310986   0.295   2.768  14.267 -0.3512 -0.5244 -1.3261
  740TMC3    C410987   0.214   2.820  14.011 -0.3966  0.1215 -0.3308
  740TMC3    C510988   0.341   2.778  14.034 -0.0418 -0.2891 -1.1531
  740TMC3    C610989   0.383   2.752  14.162  0.0972  0.0886 -0.5558
  740TMC3     C10990   4.724   2.835  14.083 -0.2248  0.4223  0.6055
  740TMC3     O10991   4.707   2.893  13.976 -0.2767  0.0967 -0.3310
  740TMC3     H10992   0.091   2.817  14.332  1.1658 -0.5868  0.9798
  740TMC3    H110993   0.182   2.820  13.907  1.3356 -0.5716 -0.8762
  740TMC3    H210994   0.485   2.721  14.182 -0.5578 -0.4123  2.0375
  740TMC3    C710995   0.418   2.704  13.932 -0.6873 -0.2543 -1.2519
  740TMC3    C810996   0.336   2.718  14.392 -0.3429 -0.4284  0.4348
  740TMC3    O110997   0.452   2.598  13.979  0.0631 -0.3161  0.4782
  740TMC3    O210998   0.451   2.755  14.416  0.0156 -0.1940  0.3072
  741TMC3    C110999   4.708   2.053  14.253 -0.2697  0.3795 -0.0501
  741TMC3    C211000   4.586   1.995  14.219 -0.0206 -0.0190  0.3500
  741TMC3    C311001   4.521   1.922  14.322  0.3577 -0.1552  0.6140
  741TMC3    C411002   0.023   2.041  14.377 -0.0281  1.0470 -0.3835
  741TMC3    C511003   4.694   1.969  14.474 -0.3434  0.3594 -0.4634
  741TMC3    C611004   4.581   1.904  14.449  0.2258 -0.6776  0.6839
  741TMC3     C11005   0.062   2.103  14.158  0.0001  0.4507 -0.1546
  741TMC3     O11006   0.173   2.137  14.195 -0.2824  0.5846  0.4432
  741TMC3     H11007   4.550   1.991  14.117 -1.5781 -2.6622  1.0079
  741TMC3    H111008   0.114   2.089  14.412  0.5208  0.6048 -1.2067
  741TMC3    H211009   4.521   1.851  14.521 -2.0894  0.5333 -0.3297
  741TMC3    C711010   4.729   1.970  14.612  0.6904 -0.0915  0.2335
  741TMC3    C811011   4.395   1.868  14.288 -0.2272 -0.0497 -0.5523
  741TMC3    O111012   4.647   1.928  14.687  0.1721  0.1242 -0.4514
  741TMC3    O211013   4.327   1.939  14.214  0.5517  0.6336 -0.2666
  742TMC3    C111014   4.720   0.933  15.320 -1.0186  0.3829  0.1329
  742TMC3    C211015   4.673   0.883  15.201 -0.0805  0.8912 -0.6066
  742TMC3    C311016   4.707   0.753  15.164 -0.1590  0.6255  0.7351
  742TMC3    C411017   0.030   0.851  15.415 -0.2373  0.5725  0.9771
  742TMC3    C511018   0.062   0.719  15.378  0.3311 -0.6280  0.1213
  742TMC3    C611019   0.032   0.671  15.252  0.6176 -0.2976  0.2753
  742TMC3     C11020   4.688   1.070  15.353 -0.8984  0.3012  0.6221
  742TMC3     O11021   4.657   1.141  15.263  0.0029  0.0004  0.3366
  742TMC3     H11022   4.635   0.958  15.132 -3.9673  0.5692  1.1950
  742TMC3    H111023   0.064   0.893  15.509 -0.0268  0.3432  1.0033
  742TMC3    H211024   0.054   0.569  15.223  0.3497  0.2599 -1.8361
  742TMC3    C711025   0.164   0.653  15.456 -0.0412 -0.4755  0.4178
  742TMC3    C811026   4.652   0.690  15.045  0.3011 -0.1873  0.4237
  742TMC3    O111027   0.238   0.577  15.389  0.0963 -0.9094 -0.3535
  742TMC3    O211028   4.642   0.567  15.049  0.3268 -0.0462  0.9860
  743MPD2     C11029   2.391   0.534   1.729 -0.1669  0.0814 -0.4606
  743MPD2    C111030   2.427   0.580   1.606  0.1103 -0.7259 -0.1164
  743MPD2    C211031   2.559   0.582   1.569 -0.0064 -0.7403 -0.1769
  743MPD2    C311032   2.653   0.563   1.662  0.3646  0.4341  0.2959
  743MPD2    C411033   2.615   0.514   1.786 -0.4003  0.1883  0.0119
  743MPD2    C511034   2.485   0.492   1.821 -0.1949  0.0343  0.3414
  743MPD2     H11035   2.580   0.612   1.467 -0.8133  0.5278  0.0255
  743MPD2    H111036   2.690   0.504   1.864  0.3479 -1.7793 -0.9805
  743MPD2    H211037   2.289   0.540   1.766 -0.2374  1.6418 -0.8964
  743MPD2    H311038   2.448   0.463   1.918 -0.3025  1.1710  0.6362
  743MPD2     N11039   2.788   0.576   1.626  0.3154 -0.3607  0.6574
  743MPD2    H511040   2.809   0.628   1.542 -0.5256 -1.2468 -0.1088
  743MPD2    N111041   2.324   0.621   1.518  0.4432  0.1594  0.8763
  743MPD2    H711042   2.230   0.604   1.553  0.4928 -1.8971  0.0255
  744TMC3    C111043   2.211   0.704   1.329  0.5245  0.0441  0.1379
  744TMC3    C211044   2.124   0.771   1.407 -0.9915 -0.4916  0.5167
  744TMC3    C311045   2.025   0.844   1.332 -0.0480 -0.3585  0.3205
  744TMC3    C411046   2.199   0.707   1.192 -0.5536  0.2365  0.1465
  744TMC3    C511047   2.107   0.785   1.132 -0.1944  0.1586 -0.2488
  744TMC3    C611048   2.012   0.850   1.199  0.8510  0.6685 -0.0753
  744TMC3     C11049   2.337   0.657   1.389 -0.1925 -0.3571 -0.0036
  744TMC3     O11050   2.440   0.660   1.324  0.2772 -0.2785  0.1569
  744TMC3     H11051   2.135   0.770   1.515 -2.0508 -1.1514  0.6246
  744TMC3    H111052   2.273   0.653   1.135 -0.2355  3.2645 -2.3006
  744TMC3    H211053   1.934   0.912   1.156 -0.9105 -1.0034  0.7147
  744TMC3    C711054   2.134   0.840   1.002 -0.5356 -0.3432  0.5834
  744TMC3    C811055   1.926   0.919   1.409 -0.1567  0.7377 -0.7280
  744TMC3    O111056   2.249   0.823   0.965 -0.1615  0.0609  0.1600
  744TMC3    O211057   1.878   1.017   1.359 -0.1201 -0.4280  0.6200
  745TMC3    C111058   4.540   0.026  13.683 -0.6915  0.7027  0.2770
  745TMC3    C211059   4.456   0.028  13.787  0.0543  0.2755 -0.1471
  745TMC3    C311060   4.330   0.078  13.772  0.6044 -0.0379  0.5871
  745TMC3    C411061   4.513   0.088  13.566  0.3434  0.8013  0.7462
  745TMC3    C511062   4.381   0.130  13.552  0.0566  0.3446  0.4808
  745TMC3    C611063   4.283   0.117  13.652 -0.8505  0.0219  0.3015
  745TMC3     C11064   4.670   4.734  13.725 -0.1057 -0.4197 -0.4983
  745TMC3     O11065   4.676   4.629  13.789 -0.1471  0.5231 -0.6648
  745TMC3     H11066   4.485   4.720  13.879 -0.9434  1.1131  0.6010
  745TMC3    H111067   4.584   0.084  13.484  0.2044 -0.5258  0.6943
  745TMC3    H211068   4.184   0.162  13.653 -0.4773  0.8161  1.9453
  745TMC3    C711069   4.320   0.191  13.432 -1.1162 -0.3764 -0.1975
  745TMC3    C811070   4.284   0.144  13.890  0.2150  0.6166 -0.0944
  745TMC3    O111071   4.198   0.187  13.426 -0.7563 -0.3131  0.2971
  745TMC3    O211072   4.197   0.227  13.872  0.2481  0.4044 -0.1731
  746TMC3    C111073   2.361   1.704  11.298 -0.0401  0.1403  0.1333
  746TMC3    C211074   2.463   1.687  11.210  0.3313 -0.2757  0.0732
  746TMC3    C311075   2.494   1.559  11.167 -0.6763 -0.4999 -0.5969
  746TMC3    C411076   2.300   1.602  11.362 -0.4918  0.1753  0.7839
  746TMC3    C511077   2.328   1.478  11.314  0.4028  0.1145 -0.2766
  746TMC3    C611078   2.422   1.453  11.219  0.3066 -0.1251  0.5390
  746TMC3     C11079   2.319   1.840  11.341  0.8780 -0.3598 -0.1404
  746TMC3     O11080   2.259   1.856  11.446 -0.1036 -0.2734  0.1557
  746TMC3     H11081   2.529   1.769  11.184  0.0050 -0.3311 -0.9278
  746TMC3    H111082   2.217   1.621  11.430 -2.9764 -2.1875 -1.5726
  746TMC3    H211083   2.450   1.353  11.188 -1.3141 -0.0296 -1.1902
  746TMC3    C711084   2.262   1.365  11.368  0.1905  0.2123 -0.5644
  746TMC3    C811085   2.599   1.532  11.070 -0.1171  0.2868 -0.2007
  746TMC3    O111086   2.230   1.280  11.286 -0.0418 -0.1240 -0.1703
  746TMC3    O211087   2.637   1.416  11.066  0.9242 -0.0069 -0.5746
  747TMC3    C111088   0.230   2.186  10.758 -0.8516 -0.2950 -0.3692
  747TMC3    C211089   0.122   2.109  10.807 -0.1744  0.3183 -0.1665
  747TMC3    C311090   0.101   2.114  10.939  0.0042 -0.1469  0.3709
  747TMC3    C411091   0.316   2.246  10.847 -0.0800  0.2048  0.5692
  747TMC3    C511092   0.285   2.252  10.980  0.1972 -0.9592 -0.7153
  747TMC3    C611093   0.167   2.193  11.027 -0.9987  0.2532  0.5388
  747TMC3     C11094   0.295   2.136  10.633 -0.5409  0.8474  0.1483
  747TMC3     O11095   0.406   2.186  10.613  0.4383  0.4923 -0.0217
  747TMC3     H11096   0.051   2.064  10.738  1.0269  0.0897 -1.2341
  747TMC3    H111097   0.409   2.295  10.818 -0.8376  1.3892  0.1564
  747TMC3    H211098   0.157   2.189  11.135 -2.0398 -2.0625  0.3523
  747TMC3    C711099   0.375   2.325  11.074  0.4580 -0.0890  0.6500
  747TMC3    C811100   4.733   2.030  10.985 -0.3716 -0.1233 -0.3620
  747TMC3    O111101   0.332   2.345  11.187 -0.4665  0.2140  0.1966
  747TMC3    O211102   4.700   1.944  10.905  0.4031  0.4417  0.1907
  748MPD2     C11103   2.154   2.362   1.330 -0.8627  0.3249 -0.5330
  748MPD2    C111104   2.116   2.360   1.199 -0.4265 -0.8177 -0.0936
  748MPD2    C211105   2.174   2.450   1.118 -0.7386 -0.6834  0.4270
  748MPD2    C311106   2.274   2.536   1.164  0.0163 -0.3067  0.3010
  748MPD2    C411107   2.315   2.531   1.302  0.0241  0.4716  0.1389
  748MPD2    C511108   2.253   2.443   1.383 -0.0061 -0.0029  0.1961
  748MPD2     H11109   2.156   2.452   1.011 -1.5321 -1.6625  0.5428
  748MPD2    H111110   2.389   2.599   1.342  1.6011  0.3358 -2.5816
  748MPD2    H211111   2.111   2.288   1.397  1.0492 -0.6788 -0.4148
  748MPD2    H311112   2.275   2.448   1.489 -1.3465  2.9172  0.3502
  748MPD2     N11113   2.331   2.611   1.058  0.2591  0.8292 -0.0453
  748MPD2    H511114   2.299   2.596   0.963  1.1679 -2.1670  0.1485
  748MPD2    N111115   2.004   2.279   1.165  0.3972 -1.0678  0.0335
  748MPD2    H711116   1.952   2.226   1.234  0.5305  0.4383  1.3009
  749TMC3    C111117   2.478   2.752   0.952 -0.5245 -0.1722  0.5739
  749TMC3    C211118   2.511   2.654   0.863 -1.0437 -0.4738  0.0874
  749TMC3    C311119   2.557   2.695   0.745 -0.4884  0.3398  0.5402
  749TMC3    C411120   2.497   2.887   0.933 -0.4335 -0.0446  0.3262
  749TMC3    C511121   2.544   2.923   0.814  0.1776 -0.2456 -0.4195
  749TMC3    C611122   2.575   2.829   0.719  0.0112 -0.1088  0.5177
  749TMC3     C11123   2.420   2.712   1.080 -0.7109  0.2592 -0.2576
  749TMC3     O11124   2.430   2.787   1.175  0.3277  0.3480 -0.2657
  749TMC3     H11125   2.501   2.552   0.896 -2.0926 -0.7538 -1.0806
  749TMC3    H111126   2.480   2.956   1.015 -3.5855  0.2007 -0.5650
  749TMC3    H211127   2.625   2.853   0.626 -0.7656 -4.1144 -0.9507
  749TMC3    C711128   2.592   3.060   0.781 -0.2153  0.2105 -0.6850
  749TMC3    C811129   2.568   2.602   0.643 -0.2260  0.2625  0.6997
  749TMC3    O111130   2.616   3.132   0.880 -0.0212 -0.8618 -0.2451
  749TMC3    O211131   2.537   2.654   0.536  0.0941 -0.6735  0.0597
  750MPD2     C11132   2.185   3.613  11.198 -0.2737  0.0627 -0.2610
  750MPD2    C111133   2.096   3.555  11.288 -0.6828 -0.1916 -0.0809
  750MPD2    C211134   2.019   3.446  11.244  0.3417 -0.4556 -0.3378
  750MPD2    C311135   2.042   3.389  11.118  0.2086 -0.1998 -0.0620
  750MPD2    C411136   2.131   3.452  11.033  0.5143 -0.2690 -0.4706
  750MPD2    C511137   2.202   3.559  11.079 -0.0681 -0.0596 -0.0207
  750MPD2     H11138   1.942   3.394  11.300 -0.3072 -1.0233 -1.7278
  750MPD2    H111139   2.152   3.420  10.931  0.5475 -0.2975 -0.4551
  750MPD2    H211140   2.247   3.696  11.229 -0.2719 -0.5490  1.3984
  750MPD2    H311141   2.283   3.605  11.023 -0.5363 -0.3692 -0.9526
  750MPD2     N11142   1.974   3.273  11.064 -0.0773 -0.0596  0.3161
  750MPD2    H511143   1.994   3.254  10.966 -0.8098 -1.1873  0.3980
  750MPD2    N111144   2.087   3.613  11.418 -0.0770  0.2094 -0.1794
  750MPD2    H711145   2.151   3.690  11.438 -0.2924  1.1972 -3.2540
  751TMC3    C111146   1.872   3.065  11.069 -0.2723  0.2848  0.8575
  751TMC3    C211147   1.800   2.973  11.137  0.2908 -0.2077 -0.3721
  751TMC3    C311148   1.773   2.855  11.069  0.4245 -0.1283 -0.8751
  751TMC3    C411149   1.941   3.035  10.953  0.4654 -0.2881 -0.3468
  751TMC3    C511150   1.909   2.920  10.888  0.5507 -0.0267  0.0634
  751TMC3    C611151   1.818   2.835  10.943  0.4528 -0.2292  0.4838
  751TMC3     C11152   1.900   3.188  11.138 -0.2424 -0.5037 -0.1563
  751TMC3     O11153   1.851   3.205  11.248 -0.4827 -0.1740 -0.1907
  751TMC3     H11154   1.740   2.995  11.226  0.5144  2.0681 -0.7907
  751TMC3    H111155   2.024   3.090  10.909 -0.7942  1.7176 -0.1958
  751TMC3    H211156   1.795   2.742  10.893 -1.1352  0.6555 -0.4444
  751TMC3    C711157   1.982   2.887  10.765  0.0479 -0.7546  0.5480
  751TMC3    C811158   1.713   2.745  11.138  0.0546 -0.4340 -0.7848
  751TMC3    O111159   2.071   2.960  10.729  0.2203 -0.7833 -0.0521
  751TMC3    O211160   1.685   2.646  11.074  0.0097 -0.1855  0.0054
  752TMC3    C111161   1.350   4.064  17.223 -0.4982 -0.4169  0.0682
  752TMC3    C211162   1.340   3.935  17.188 -0.4801  0.0361  0.8022
  752TMC3    C311163   1.271   3.855  17.278 -0.1007 -0.3731  0.1650
  752TMC3    C411164   1.299   4.116  17.334  0.6792  0.6563 -0.6024
  752TMC3    C511165   1.218   4.037  17.417 -0.2796 -0.0179 -0.1305
  752TMC3    C611166   1.207   3.902  17.390  0.2642  0.4365 -0.6226
  752TMC3     C11167   1.437   4.141  17.130 -0.2429  0.7213 -0.5888
  752TMC3     O11168   1.510   4.231  17.166  0.1560 -0.0240 -0.0118
  752TMC3     H11169   1.391   3.886  17.106 -0.4549 -2.4666  2.3060
  752TMC3    H111170   1.311   4.222  17.354  0.6510  0.1700  2.0901
  752TMC3    H211171   1.153   3.832  17.453  0.5917 -0.8288 -1.7318
  752TMC3    C711172   1.175   4.085  17.543  0.1873 -0.5691  0.5800
  752TMC3    C811173   1.255   3.719  17.231  0.1454 -0.3041 -0.3802
  752TMC3    O111174   1.208   4.200  17.562 -0.0361 -0.0410 -0.1557
  752TMC3    O211175   1.281   3.690  17.115 -0.5689  0.1853  0.1262
  753TMC3    C111176   3.140   4.500  13.808  0.6275  0.4372  0.6048
  753TMC3    C211177   3.226   4.561  13.891 -0.2412 -0.1924 -0.0066
  753TMC3    C311178   3.325   4.474  13.939 -0.3219 -0.4359 -0.1140
  753TMC3    C411179   3.147   4.364  13.768 -0.5027  0.2315 -0.0806
  753TMC3    C511180   3.249   4.284  13.818  0.0573 -0.0954  0.3747
  753TMC3    C611181   3.339   4.338  13.902 -0.1437  0.0090 -0.5207
  753TMC3     C11182   3.033   4.588  13.762 -0.3372 -0.0968  0.8506
  753TMC3     O11183   3.030   4.700  13.806 -0.6067  0.0710 -0.2051
  753TMC3     H11184   3.213   4.664  13.921  0.5792 -0.2282  0.4825
  753TMC3    H111185   3.081   4.326  13.690 -0.4481  2.1062 -1.0450
  753TMC3    H211186   3.405   4.272  13.956 -1.6337 -0.9870  0.0714
  753TMC3    C711187   3.233   4.142  13.814 -0.3299 -0.1214  0.6604
  753TMC3    C811188   3.414   4.521  14.047 -0.4840 -0.3242 -0.0660
  753TMC3    O111189   3.329   4.075  13.840 -0.1021  0.4005  0.2036
  753TMC3    O211190   3.488   4.445  14.109  0.0785  0.7542  0.1785
  754MPD2     C11191   2.181   3.551  13.188  0.3563 -0.5189  0.0035
  754MPD2    C111192   2.100   3.460  13.257  0.3492  0.2435  0.1803
  754MPD2    C211193   1.970   3.446  13.221 -0.8173  0.0544 -0.1232
  754MPD2    C311194   1.914   3.525  13.122 -0.8555 -0.5436 -0.0843
  754MPD2    C411195   1.992   3.621  13.056 -0.2153  0.0013 -0.2067
  754MPD2    C511196   2.128   3.619  13.081  1.2983 -0.0958 -0.7384
  754MPD2     H11197   1.913   3.367  13.269  1.3634 -0.1662  2.0584
  754MPD2    H111198   1.951   3.679  12.974 -1.9947  1.7135  1.8812
  754MPD2    H211199   2.288   3.561  13.202  0.3483 -0.0782 -0.2622
  754MPD2    H311200   2.190   3.683  13.019  1.6813 -0.1897 -0.4472
  754MPD2     N11201   1.781   3.520  13.077 -0.0614 -1.3230 -0.2096
  754MPD2    H511202   1.764   3.582  12.999  0.0185  1.0796  1.6826
  754MPD2    N111203   2.137   3.373  13.361  0.5823  0.5566 -0.3228
  754MPD2    H711204   2.062   3.323  13.407 -0.7851  0.0224 -3.1170
  755MPD2     C11205   0.723   3.348  13.298  0.2916 -0.8811  0.0239
  755MPD2    C111206   0.811   3.422  13.376  0.4961  0.1264 -0.7040
  755MPD2    C211207   0.938   3.456  13.319 -0.9315 -0.0682 -0.1655
  755MPD2    C311208   0.975   3.406  13.194 -0.7562  0.4138  0.7297
  755MPD2    C411209   0.885   3.341  13.121  0.6083 -0.0974  0.5012
  755MPD2    C511210   0.759   3.323  13.169  0.5924 -0.1266 -0.6895
  755MPD2     H11211   1.002   3.524  13.374  0.4790 -0.4934 -1.2575
  755MPD2    H111212   0.894   3.312  13.017 -1.5644  0.4367  0.1654
  755MPD2    H211213   0.624   3.328  13.337  0.6629 -1.7853  0.4917
  755MPD2    H311214   0.687   3.271  13.108  0.3779  0.2117 -0.7246
  755MPD2     N11215   1.102   3.409  13.135  0.0866  0.2732 -0.5514
  755MPD2    H511216   1.118   3.379  13.040  0.4761 -1.4843  0.0721
  755MPD2    N111217   0.777   3.473  13.503  0.1009 -0.1790  0.4169
  755MPD2    H711218   0.842   3.535  13.551 -1.1183  0.8549  0.7189
  756MPD2     C11219   1.457   4.237   9.536 -0.4574 -0.2473  0.9471
  756MPD2    C111220   1.385   4.171   9.636  0.0551  0.1496 -0.5791
  756MPD2    C211221   1.256   4.132   9.602 -0.0784 -0.1439 -0.3104
  756MPD2    C311222   1.207   4.157   9.472  0.4699  0.4766 -0.1837
  756MPD2    C411223   1.282   4.221   9.380 -0.2316 -0.3989 -0.0754
  756MPD2    C511224   1.413   4.265   9.412  0.2173 -1.0565 -0.5540
  756MPD2     H11225   1.193   4.085   9.676 -1.9914  0.9212 -1.2630
  756MPD2    H111226   1.236   4.249   9.286  0.7470  0.1802 -0.3942
  756MPD2    H211227   1.555   4.277   9.558 -0.7519  0.6644  0.5793
  756MPD2    H311228   1.478   4.313   9.339  0.5130  0.5986  0.8082
  756MPD2     N11229   1.072   4.113   9.452 -0.4022  0.5738  0.1824
  756MPD2    H511230   1.036   4.055   9.528 -1.0099  0.1380 -0.4365
  756MPD2    N111231   1.437   4.151   9.771 -0.1734  0.7004  0.3108
  756MPD2    H711232   1.368   4.126   9.841  1.4992 -2.8050  0.6981
  757MPD2     C11233   0.760   3.374   9.725 -0.0481 -0.0715  0.2561
  757MPD2    C111234   0.877   3.403   9.661  0.0463 -0.1865 -0.0022
  757MPD2    C211235   0.881   3.507   9.567 -0.7294 -0.3210  0.3503
  757MPD2    C311236   0.773   3.588   9.549  0.1498  0.0789 -0.0023
  757MPD2    C411237   0.659   3.561   9.616  0.0135 -0.1016 -0.4531
  757MPD2    C511238   0.650   3.456   9.703 -0.8428  0.4031 -0.6290
  757MPD2     H11239   0.969   3.525   9.507 -0.5307  2.2475  1.4070
  757MPD2    H111240   0.570   3.623   9.610 -0.3151 -0.7083 -1.7951
  757MPD2    H211241   0.749   3.306   9.809 -1.3409  0.1062  0.2378
  757MPD2    H311242   0.559   3.439   9.758 -0.1009 -1.4289  0.0241
  757MPD2     N11243   0.791   3.710   9.479  0.0865 -0.0734 -0.3997
  757MPD2    H511244   0.879   3.721   9.428 -0.7445  0.7994 -1.6607
  757MPD2    N111245   0.978   3.306   9.677 -0.0109  0.7041 -0.4268
  757MPD2    H711246   0.941   3.229   9.732 -0.8400  1.0440 -0.5143
  758MPD2     C11247   2.125   3.702  15.650 -0.2262 -0.4943 -0.5053
  758MPD2    C111248   2.145   3.606  15.743 -0.1041 -0.5413  0.3782
  758MPD2    C211249   2.119   3.638  15.879  0.7109  0.8463 -0.0088
  758MPD2    C311250   2.072   3.764  15.909 -0.1954 -0.5107  0.2956
  758MPD2    C411251   2.055   3.864  15.817 -0.7525 -0.3137  0.2359
  758MPD2    C511252   2.085   3.832  15.693 -0.0309  0.0343 -0.2756
  758MPD2     H11253   2.126   3.565  15.959 -0.7728  1.3383  0.5740
  758MPD2    H111254   2.011   3.960  15.838  0.3855  0.1262  0.6512
  758MPD2    H211255   2.140   3.678  15.546  0.4811 -1.7200 -0.1126
  758MPD2    H311256   2.085   3.918  15.626 -0.6878 -0.3865 -0.8147
  758MPD2     N11257   2.039   3.802  16.041  0.4715  0.0911  0.1244
  758MPD2    H511258   2.001   3.895  16.049  0.0423 -0.3775  3.6332
  758MPD2    N111259   2.211   3.488  15.699 -0.1633 -0.3544  0.4498
  758MPD2    H711260   2.241   3.479  15.603 -0.7602 -3.9587  0.5863
  759MPD2     C11261   0.381   1.417  11.121  0.1950 -0.1059  0.4227
  759MPD2    C111262   0.392   1.281  11.105 -0.9626  0.1301 -0.2690
  759MPD2    C211263   0.470   1.230  11.005  0.2898 -0.2664 -0.4728
  759MPD2    C311264   0.536   1.322  10.922  0.6576  0.9278  0.1669
  759MPD2    C411265   0.517   1.462  10.931  0.1919  0.3356  0.3839
  759MPD2    C511266   0.436   1.513  11.033  0.9461 -0.2196 -0.3699
  759MPD2     H11267   0.475   1.124  10.983  2.2371 -0.3572  0.3958
  759MPD2    H111268   0.560   1.535  10.863 -1.2307 -0.4507 -1.3698
  759MPD2    H211269   0.313   1.458  11.195  0.3098  0.0653  0.4344
  759MPD2    H311270   0.414   1.619  11.032  0.0390 -0.4146 -1.1110
  759MPD2     N11271   0.605   1.266  10.805 -0.0802 -0.3896 -0.1828
  759MPD2    H511272   0.592   1.167  10.784  0.5356 -0.5900  0.3858
  759MPD2    N111273   0.331   1.189  11.193  0.3081  0.1330 -0.7515
  759MPD2    H711274   0.350   1.090  11.181  1.4052 -0.0630  2.4338
  760MPD2     C11275   0.562   3.522  11.901  0.4872 -0.7746  0.3075
  760MPD2    C111276   0.610   3.589  11.792  0.8626  0.0043  0.0831
  760MPD2    C211277   0.664   3.516  11.691 -0.6304 -0.9143  0.5508
  760MPD2    C311278   0.661   3.382  11.688  0.3917  0.0738  0.1468
  760MPD2    C411279   0.594   3.309  11.782  0.0040 -0.1296  0.0840
  760MPD2    C511280   0.546   3.381  11.893  0.0782 -0.4730  0.1617
  760MPD2     H11281   0.723   3.565  11.615 -1.7556 -0.8296 -0.2686
  760MPD2    H111282   0.580   3.202  11.783 -1.3926  0.0659  2.9563
  760MPD2    H211283   0.516   3.568  11.988 -3.0301 -0.5618 -1.6333
  760MPD2    H311284   0.496   3.324  11.971  1.7295  0.7845  2.1478
  760MPD2     N11285   0.729   3.308  11.584  0.2673 -0.2072  0.4019
  760MPD2    H511286   0.732   3.206  11.581 -5.0338 -0.4340  4.0939
  760MPD2    N111287   0.627   3.735  11.790  0.2117 -0.3256  0.0378
  760MPD2    H711288   0.668   3.789  11.715 -0.9823  0.2432 -0.2132
  761MPD2     C11289   1.741   2.410  11.543  0.4476  0.6436  0.2350
  761MPD2    C111290   1.721   2.386  11.408 -0.3447  0.0271 -0.3240
  761MPD2    C211291   1.709   2.499  11.323 -0.3944 -0.9254 -0.5206
  761MPD2    C311292   1.726   2.627  11.362 -0.7299 -0.0350  0.3864
  761MPD2    C411293   1.740   2.651  11.496 -0.9674 -0.0633 -0.3779
  761MPD2    C511294   1.751   2.549  11.580 -0.3770  0.3350  0.0463
  761MPD2     H11295   1.684   2.474  11.220 -4.5539  0.6629  0.1339
  761MPD2    H111296   1.733   2.755  11.527 -1.5652  0.9273 -3.7566
  761MPD2    H211297   1.747   2.332  11.619 -2.1100  0.2224 -0.0244
  761MPD2    H311298   1.751   2.577  11.685 -0.9083  1.4845 -0.2668
  761MPD2     N11299   1.726   2.742  11.276  0.1121 -0.6693 -0.1275
  761MPD2    H511300   1.766   2.827  11.315 -0.1296 -0.8728  0.5440
  761MPD2    N111301   1.713   2.252  11.368 -0.2694 -0.3141 -0.8180
  761MPD2    H711302   1.722   2.187  11.445 -0.1015  0.9320  0.2199
  762MPD2     C11303   2.190   1.600  10.968  0.2488 -0.1666  0.2616
  762MPD2    C111304   2.141   1.719  10.934  0.4697  0.5622 -0.3286
  762MPD2    C211305   2.181   1.765  10.805 -0.3732  0.3265  0.0403
  762MPD2    C311306   2.249   1.689  10.714  0.3444 -0.0013 -0.3871
  762MPD2    C411307   2.290   1.567  10.760 -0.0558 -0.0838  0.6565
  762MPD2    C511308   2.266   1.522  10.883  0.1734  0.2455  0.7886
  762MPD2     H11309   2.143   1.860  10.770 -0.4446  0.0717 -0.5712
  762MPD2    H111310   2.347   1.494  10.704 -0.2661  0.2115  0.0581
  762MPD2    H211311   2.179   1.570  11.072  1.3154  2.8959  1.2669
  762MPD2    H311312   2.305   1.424  10.907  1.3425  0.5331  0.1041
  762MPD2     N11313   2.284   1.729  10.583  0.3681 -0.1236  0.2496
  762MPD2    H511314   2.282   1.829  10.571 -1.2173 -0.1792  0.0415
  762MPD2    N111315   2.073   1.789  11.035  0.7173 -0.4931 -0.7776
  762MPD2    H711316   2.051   1.741  11.122 -0.1394 -1.8067 -1.7377
  763MPD2     C11317   3.792   3.065  16.175  0.2542  0.3535  0.1376
  763MPD2    C111318   3.884   3.120  16.090 -0.5227 -0.7042 -0.5654
  763MPD2    C211319   3.959   3.228  16.128  0.5904 -0.1411  0.0754
  763MPD2    C311320   3.949   3.279  16.254 -0.4607  0.5696  0.2043
  763MPD2    C411321   3.850   3.236  16.334 -0.0177 -0.9153 -0.4608
  763MPD2    C511322   3.782   3.118  16.301 -0.2999 -0.1965  0.3852
  763MPD2     H11323   4.033   3.267  16.060  2.0901 -0.7798  1.3478
  763MPD2    H111324   3.825   3.284  16.428 -0.6496 -0.4905 -0.8460
  763MPD2    H211325   3.742   2.970  16.159  1.2832 -0.1910  0.1281
  763MPD2    H311326   3.707   3.084  16.371  1.5467 -0.2353  2.3329
  763MPD2     N11327   4.038   3.377  16.293 -1.4817  0.0092  0.1617
  763MPD2    H511328   4.120   3.391  16.235 -0.5744  0.8338  1.6482
  763MPD2    N111329   3.915   3.066  15.965  0.7557 -0.5488 -0.2745
  763MPD2    H711330   3.987   3.114  15.911 -0.2386  0.2777 -0.8518
  764MPD2     C11331   1.966   0.242  17.693  0.4082 -0.3468 -0.6215
  764MPD2    C111332   1.865   0.167  17.631  0.0773  0.0385  0.3791
  764MPD2    C211333   1.885   0.028  17.638  0.0421 -0.6522  1.1952
  764MPD2    C311334   1.986   4.711  17.711 -0.0805  0.3238  0.3294
  764MPD2    C411335   2.083   0.045   0.011 -0.6819 -0.4272  0.0843
  764MPD2    C511336   2.068   0.181   0.005 -0.4462 -0.5203 -0.4910
  764MPD2     H11337   1.807   4.706  17.595  1.0077 -0.6112 -0.5856
  764MPD2    H111338   2.164   0.001   0.067  0.6025  0.7283 -0.8612
  764MPD2    H211339   1.964   0.350  17.692 -2.2250 -0.4190 -1.1813
  764MPD2    H311340   2.144   0.238   0.058 -0.9164 -0.8634  0.5645
  764MPD2     N11341   1.972   4.570  17.727  0.5962  0.0349  0.2043
  764MPD2    H511342   1.921   4.521  17.655 -0.2237  1.3132 -0.0884
  764MPD2    N111343   1.750   0.211  17.564 -0.1791  0.2562  0.3949
  764MPD2    H711344   1.679   0.144  17.538 -1.0850  0.8949  1.2618
  765MPD2     C11345   1.619   3.002  15.527  0.7425  0.0577  0.5917
  765MPD2    C111346   1.737   3.080  15.551 -0.1559 -0.0776  0.5857
  765MPD2    C211347   1.860   3.018  15.536  0.1440 -0.1506  0.2147
  765MPD2    C311348   1.868   2.889  15.489  0.7560 -0.7309 -0.0942
  765MPD2    C411349   1.754   2.816  15.465 -0.2597 -0.7116 -0.4161
  765MPD2    C511350   1.636   2.878  15.478  1.3950  0.5773 -0.3030
  765MPD2     H11351   1.954   3.061  15.569  0.2937  1.7795 -2.7073
  765MPD2    H111352   1.751   2.718  15.417 -0.6396 -1.1785  0.5709
  765MPD2    H211353   1.518   3.039  15.540  0.8340 -0.6767  3.5697
  765MPD2    H311354   1.547   2.821  15.453  1.9094 -0.2812 -0.1600
  765MPD2     N11355   1.996   2.840  15.485 -0.9947  0.3278  0.4614
  765MPD2    H511356   2.070   2.910  15.486 -3.2362  2.7326 -1.1283
  765MPD2    N111357   1.716   3.198  15.616 -0.1710  0.0326 -0.8044
  765MPD2    H711358   1.620   3.233  15.613 -0.0736  0.3772  0.1080
  766MPD2     C11359   1.294   3.627  15.377 -0.7348  0.3693 -0.8614
  766MPD2    C111360   1.379   3.534  15.427 -0.4896  0.5516 -0.7916
  766MPD2    C211361   1.447   3.449  15.352 -0.3423  0.1953 -0.0475
  766MPD2    C311362   1.403   3.444  15.218  0.5036 -0.0990  0.2516
  766MPD2    C411363   1.317   3.532  15.168 -0.1987 -0.0577  0.3123
  766MPD2    C511364   1.260   3.633  15.250 -0.4825 -0.4880 -0.1975
  766MPD2     H11365   1.521   3.383  15.396 -0.6704 -1.5364 -2.0358
  766MPD2    H111366   1.278   3.532  15.067 -1.7182  1.8488  0.8961
  766MPD2    H211367   1.241   3.698  15.439 -1.2971 -0.9636  0.1813
  766MPD2    H311368   1.193   3.704  15.204 -0.5311  0.3752  1.2275
  766MPD2     N11369   1.464   3.347  15.126 -0.3480  0.1788 -0.4628
  766MPD2    H511370   1.428   3.342  15.031  0.5192 -0.9886 -0.7257
  766MPD2    N111371   1.396   3.544  15.568 -0.5108  0.0163 -0.0833
  766MPD2    H711372   1.372   3.628  15.619 -0.0491 -0.1303  0.3731
  767MPD2     C11373   1.074   3.612  14.699  0.0957  0.7734  0.3657
  767MPD2    C111374   1.185   3.542  14.733 -0.8428  0.3651  0.1260
  767MPD2    C211375   1.182   3.410  14.705  0.0565 -0.2732  0.8574
  767MPD2    C311376   1.068   3.338  14.675 -0.7077 -0.2394  0.2422
  767MPD2    C411377   0.950   3.405  14.666  0.3740 -0.3631  0.7146
  767MPD2    C511378   0.957   3.544  14.662  0.4637 -0.1579 -0.4214
  767MPD2     H11379   1.277   3.358  14.705  1.2082  1.8548  0.3304
  767MPD2    H111380   0.854   3.359  14.645  1.3259 -0.5547 -3.2837
  767MPD2    H211381   1.066   3.719  14.709  0.0965  1.0907 -3.2676
  767MPD2    H311382   0.868   3.602  14.641  1.7781  1.8076 -0.5256
  767MPD2     N11383   1.087   3.201  14.646 -0.5311 -0.1411  0.8068
  767MPD2    H511384   1.184   3.175  14.638  0.2693  2.4634  2.0566
  767MPD2    N111385   1.310   3.600  14.755  0.4315 -0.0860 -0.0283
  767MPD2    H711386   1.309   3.701  14.760  0.9940 -0.0828 -0.0009
  768MPD2     C11387   2.140   0.798  10.996  0.0167  0.3410  0.1068
  768MPD2    C111388   2.097   0.768  11.125 -0.2112  0.2451  0.0935
  768MPD2    C211389   2.186   0.723  11.218  0.5350  0.1449 -0.1861
  768MPD2    C311390   2.314   0.703  11.182 -0.7502 -0.4461 -0.3528
  768MPD2    C411391   2.359   0.748  11.060 -0.2071  0.0452 -0.1376
  768MPD2    C511392   2.267   0.782  10.965  0.2157  0.4484  0.6148
  768MPD2     H11393   2.157   0.692  11.318 -1.1195 -0.0323 -0.7088
  768MPD2    H111394   2.460   0.738  11.023  0.4707 -0.5461  1.9158
  768MPD2    H211395   2.071   0.828  10.917 -2.1282 -0.4404  1.6738
  768MPD2    H311396   2.303   0.805  10.865 -0.7269  0.1716  0.2101
  768MPD2     N11397   2.413   0.667  11.274  1.0172 -0.8662 -0.1045
  768MPD2    H511398   2.502   0.662  11.226 -0.0152 -3.2619 -1.7748
  768MPD2    N111399   1.963   0.791  11.164 -0.1083 -0.1357  0.0760
  768MPD2    H711400   1.937   0.755  11.255 -0.3793 -0.8874 -0.3011
  769MPD2     C11401   2.436   0.457  14.820 -0.2987 -0.2045  0.0373
  769MPD2    C111402   2.539   0.359  14.824 -0.1854 -0.5680  0.0888
  769MPD2    C211403   2.674   0.399  14.826  0.4627 -0.2504  0.2004
  769MPD2    C311404   2.704   0.533  14.820 -0.2375 -0.5088  0.2891
  769MPD2    C411405   2.599   0.625  14.825 -0.3998 -0.5858  0.5140
  769MPD2    C511406   2.471   0.586  14.816  0.0855  0.2585 -0.0438
  769MPD2     H11407   2.751   0.322  14.824  0.7664  0.0832 -0.7587
  769MPD2    H111408   2.622   0.731  14.835 -1.1042 -0.1798 -2.3997
  769MPD2    H211409   2.329   0.441  14.823  0.1272 -2.1851  4.0115
  769MPD2    H311410   2.393   0.662  14.819 -1.7998 -1.6191 -2.0203
  769MPD2     N11411   2.847   0.564  14.829 -0.0182  0.3071  0.5762
  769MPD2    H511412   2.912   0.487  14.822  2.1867  2.1820  0.2969
  769MPD2    N111413   2.505   0.217  14.829 -0.1382  0.5694  0.1185
  769MPD2    H711414   2.407   0.198  14.815 -0.1940  1.4599 -0.7213
  770MPD2     C11415   3.018   4.007  14.874 -0.4317 -0.2658  0.0525
  770MPD2    C111416   2.893   3.980  14.823 -0.0776 -0.4668  0.4198
  770MPD2    C211417   2.798   4.079  14.804  0.1723 -0.2516  0.4085
  770MPD2    C311418   2.834   4.210  14.826  0.0304 -0.4937  0.0018
  770MPD2    C411419   2.958   4.238  14.885  0.4575 -0.2687 -0.0558
  770MPD2    C511420   3.044   4.136  14.913  0.1764  0.1888  0.4832
  770MPD2     H11421   2.704   4.046  14.761  0.5638  0.0544 -0.7044
  770MPD2    H111422   2.989   4.338  14.911 -1.0466  1.0620 -3.2762
  770MPD2    H211423   3.094   3.932  14.891 -1.1401 -1.0902 -0.3915
  770MPD2    H311424   3.137   4.151  14.968 -1.1587 -0.1689  2.8663
  770MPD2     N11425   2.731   4.302  14.803  0.0095 -0.8749 -0.3782
  770MPD2    H511426   2.649   4.260  14.759 -0.9160  1.1441 -0.6128
  770MPD2    N111427   2.863   3.838  14.803  0.2834  0.7632  0.5218
  770MPD2    H711428   2.939   3.779  14.838 -0.2787  0.4305  1.1822
  771MPD2     C11429   3.742   1.707  13.729  0.0837  0.1167 -0.2675
  771MPD2    C111430   3.708   1.834  13.681 -0.5535  0.4285 -0.3085
  771MPD2    C211431   3.630   1.849  13.576 -0.4171  0.6135 -0.4087
  771MPD2    C311432   3.594   1.737  13.511 -0.1564 -0.0748 -0.3130
  771MPD2    C411433   3.619   1.610  13.561 -0.0629 -0.3296  0.8314
  771MPD2    C511434   3.694   1.590  13.675  0.5171 -0.3612 -0.5969
  771MPD2     H11435   3.584   1.944  13.549  1.4054  1.7504  0.4806
  771MPD2    H111436   3.602   1.516  13.510 -1.2619  0.1635  0.3198
  771MPD2    H211437   3.813   1.696  13.811 -1.0819 -0.0115  0.7268
  771MPD2    H311438   3.709   1.490  13.712  1.3880  0.7016  1.9853
  771MPD2     N11439   3.523   1.762  13.390  0.1162 -0.2497 -0.3644
  771MPD2    H511440   3.496   1.858  13.369  1.3031 -0.0257 -0.8620
  771MPD2    N111441   3.752   1.956  13.735  0.0196  0.2418 -0.2486
  771MPD2    H711442   3.713   2.039  13.691  2.8791  2.4351  1.3419
  772MPD2     C11443   3.399   2.488  13.578  0.5005 -0.2174  0.2993
  772MPD2    C111444   3.461   2.366  13.566  0.1138 -0.1463 -0.2405
  772MPD2    C211445   3.409   2.264  13.479  0.4143 -0.2711 -0.1309
  772MPD2    C311446   3.303   2.298  13.403  0.3420 -1.0225  0.2622
  772MPD2    C411447   3.240   2.420  13.413  0.0903 -0.4914  0.5824
  772MPD2    C511448   3.294   2.518  13.495 -0.3073 -0.0956  0.4906
  772MPD2     H11449   3.465   2.172  13.487  0.0708 -0.4734 -0.0912
  772MPD2    H111450   3.149   2.441  13.357 -0.0748 -2.7500 -0.0102
  772MPD2    H211451   3.430   2.567  13.646  2.2746  0.8725 -1.7715
  772MPD2    H311452   3.249   2.617  13.498  0.0479  0.0849 -0.1156
  772MPD2     N11453   3.241   2.210  13.313 -0.1000 -0.1496  0.2730
  772MPD2    H511454   3.149   2.232  13.277 -0.5335 -4.3823 -1.2259
  772MPD2    N111455   3.574   2.329  13.640  0.5810  0.6162 -0.1462
  772MPD2    H711456   3.618   2.244  13.607  1.3440 -0.0758  2.5749
  773MPD2     C11457   2.896   3.791   0.288  0.0438 -0.6107  0.1880
  773MPD2    C111458   2.877   3.689   0.198  0.3181 -0.1473 -0.5944
  773MPD2    C211459   2.891   3.559   0.234  0.1566 -0.5853  0.5797
  773MPD2    C311460   2.924   3.527   0.366 -0.5492 -0.4313 -0.0446
  773MPD2    C411461   2.947   3.629   0.462  0.7471 -0.1274  0.2358
  773MPD2    C511462   2.930   3.759   0.417  0.0825 -0.2260  0.3021
  773MPD2     H11463   2.860   3.482   0.164  0.8617  0.3845 -0.8159
  773MPD2    H111464   2.965   3.618   0.568  1.4567 -1.8492 -0.0741
  773MPD2    H211465   2.884   3.896   0.264  0.2843 -0.2833  1.4588
  773MPD2    H311466   2.931   3.844   0.484 -0.5921  0.8738 -1.0875
  773MPD2     N11467   2.946   3.393   0.391  0.2851 -0.3942 -0.3250
  773MPD2    H511468   2.931   3.329   0.314  1.8513  1.2047 -1.9469
  773MPD2    N111469   2.842   3.716   0.063 -0.2558 -0.3311  0.6365
  773MPD2    H711470   2.815   3.639   0.003 -1.0256  1.2627 -1.0553
  774MPD2     C11471   2.593   2.567  13.806 -0.0250 -0.0153 -0.7372
  774MPD2    C111472   2.463   2.569  13.768  0.5573 -0.5165 -0.3730
  774MPD2    C211473   2.398   2.688  13.760 -0.0636 -0.8185  0.2039
  774MPD2    C311474   2.466   2.809  13.785 -0.9052  0.4401  0.5580
  774MPD2    C411475   2.595   2.807  13.826 -0.3797  0.2779 -0.3960
  774MPD2    C511476   2.653   2.683  13.845 -0.3657 -0.5757  0.4922
  774MPD2     H11477   2.298   2.690  13.718  0.2457  0.4487 -0.4824
  774MPD2    H111478   2.664   2.890  13.838 -1.1878  1.2143 -2.3152
  774MPD2    H211479   2.641   2.471  13.820  2.0543  1.3455  1.3817
  774MPD2    H311480   2.754   2.681  13.883 -0.5674  2.6998  1.1365
  774MPD2     N11481   2.405   2.934  13.745 -0.1536 -0.9923  0.0264
  774MPD2    H511482   2.316   2.935  13.695 -1.2424 -1.5330  1.9574
  774MPD2    N111483   2.411   2.444  13.745 -0.3729  0.5557 -0.5666
  774MPD2    H711484   2.475   2.366  13.758 -0.5487  0.4160 -0.5434
  775MPD2     C11485   4.339   4.698  15.973  0.2577 -0.5323  0.1104
  775MPD2    C111486   4.234   4.733  15.897  0.7329 -0.0745  0.2372
  775MPD2    C211487   4.246   0.017  15.761  0.0877 -0.3659  0.2987
  775MPD2    C311488   4.368   0.024  15.697  0.5119  1.1020 -0.1204
  775MPD2    C411489   4.479   4.735  15.781  0.1394  0.3148  0.3919
  775MPD2    C511490   4.462   4.693  15.911 -0.4581 -0.6686  0.4670
  775MPD2     H11491   4.155   0.039  15.706  0.5732  0.9965  0.0225
  775MPD2    H111492   4.580   0.003  15.741 -0.3235  0.3391 -0.7625
  775MPD2    H211493   4.345   4.680  16.080 -0.5968  1.3597  0.4827
  775MPD2    H311494   4.548   4.666  15.971 -1.5040 -2.7098  1.0294
  775MPD2     N11495   4.390   0.069  15.565  0.2514  0.9915  0.0101
  775MPD2    H511496   4.487   0.092  15.545 -0.4114  1.3367 -2.8873
  775MPD2    N111497   4.111   0.010  15.966 -0.0916  0.1749  0.4628
  775MPD2    H711498   4.116   0.024  16.067 -1.4698 -2.2794  0.8677
  776MPD2     C11499   2.268   4.175  12.005 -1.2504 -0.1346  0.1508
  776MPD2    C111500   2.300   4.110  11.889  0.1866  0.3451 -0.0913
  776MPD2    C211501   2.411   4.142  11.819  0.4481  0.1461  0.3814
  776MPD2    C311502   2.485   4.250  11.866  0.5186 -0.1966 -0.1234
  776MPD2    C411503   2.444   4.318  11.980  0.0143  0.2758 -0.5716
  776MPD2    C511504   2.338   4.278  12.050 -0.6107  0.1380 -0.5848
  776MPD2     H11505   2.443   4.081  11.735 -0.4224  1.1664 -0.6817
  776MPD2    H111506   2.486   4.416  11.999 -0.5138  0.2818  0.5529
  776MPD2    H211507   2.181   4.150  12.065 -1.9360  0.0089 -0.7852
  776MPD2    H311508   2.281   4.331  12.124 -0.9820 -1.4161  0.2243
  776MPD2     N11509   2.577   4.311  11.779  0.0517 -0.6413 -0.4256
  776MPD2    H511510   2.626   4.385  11.828 -0.9125  0.2016 -0.7430
  776MPD2    N111511   2.212   4.006  11.842  0.2149  0.0047 -0.4641
  776MPD2    H711512   2.121   4.002  11.885 -0.4591  4.5897 -1.4397
  777MPD2     C11513   3.216   1.296   0.442  0.5556 -0.0699  0.3384
  777MPD2    C111514   3.123   1.398   0.414  0.6434  0.3760  0.4036
  777MPD2    C211515   3.001   1.369   0.364 -0.0835 -0.1559 -0.1120
  777MPD2    C311516   2.963   1.235   0.348 -0.2512  0.1615  0.3804
  777MPD2    C411517   3.056   1.131   0.375 -0.2974 -0.8330 -0.6386
  777MPD2    C511518   3.186   1.165   0.418  0.5962  0.1979 -0.4360
  777MPD2     H11519   2.928   1.446   0.340 -0.0559  0.7310  2.6255
  777MPD2    H111520   3.042   1.024   0.363  0.7379 -0.8852 -1.3553
  777MPD2    H211521   3.316   1.316   0.480  1.4794 -0.4213 -1.8744
  777MPD2    H311522   3.261   1.087   0.430  1.1048  0.4177 -2.2092
  777MPD2     N11523   2.837   1.206   0.292 -0.3037 -0.0144  0.0375
  777MPD2    H511524   2.779   1.280   0.255 -0.6932 -1.5720 -2.5549
  777MPD2    N111525   3.147   1.532   0.459  0.0041  0.1819 -0.3086
  777MPD2    H711526   3.237   1.546   0.504  0.8373 -1.5271 -1.4634
  778MPD2     C11527   3.839   2.743  14.537 -0.1787  0.2530 -0.2924
  778MPD2    C111528   3.829   2.614  14.479  0.0471  0.3583 -0.5466
  778MPD2    C211529   3.826   2.596  14.341 -1.4754 -0.4329  0.3673
  778MPD2    C311530   3.853   2.707  14.259  0.3074 -0.1128  0.0786
  778MPD2    C411531   3.889   2.829  14.312  0.0494 -0.2297 -0.3081
  778MPD2    C511532   3.880   2.844  14.452  1.1110 -0.3510 -0.5320
  778MPD2     H11533   3.805   2.499  14.296 -2.8346  0.2003 -0.3668
  778MPD2    H111534   3.938   2.913  14.264  3.1169 -1.8633 -0.0986
  778MPD2    H211535   3.848   2.757  14.644 -4.2931  1.5187 -0.1208
  778MPD2    H311536   3.915   2.935  14.501  1.9281 -0.0099 -1.7488
  778MPD2     N11537   3.849   2.688  14.115 -0.0719  0.1170  0.1016
  778MPD2    H511538   3.850   2.599  14.065 -0.3427 -0.6064  1.3959
  778MPD2    N111539   3.803   2.496  14.552  0.1042 -0.2425  0.3822
  778MPD2    H711540   3.807   2.419  14.486 -1.7055  0.9680 -1.1211
  779MPD2     C11541   3.423   1.153  13.880 -0.4690  0.2947 -0.1150
  779MPD2    C111542   3.483   1.155  14.001 -0.4196  0.4242 -0.5848
  779MPD2    C211543   3.534   1.269  14.043  0.5874  0.5697 -0.0924
  779MPD2    C311544   3.514   1.390  13.973  0.8179 -0.3337  0.1783
  779MPD2    C411545   3.456   1.385  13.850 -0.4969 -0.2300  0.0855
  779MPD2    C511546   3.416   1.266  13.806 -0.4396 -0.0596 -0.3092
  779MPD2     H11547   3.560   1.282  14.147 -0.9691 -0.0944  0.3845
  779MPD2    H111548   3.449   1.478  13.795 -0.2346  0.4663  1.2365
  779MPD2    H211549   3.376   1.067  13.833  1.1241  0.8252 -2.6709
  779MPD2    H311550   3.363   1.252  13.712  1.6724 -0.7912 -1.4078
  779MPD2     N11551   3.533   1.510  14.043  0.6957 -0.5823  0.8078
  779MPD2    H511552   3.586   1.500  14.129  2.5414  0.7539 -0.1817
  779MPD2    N111553   3.494   1.039  14.080 -0.1480  0.4049 -0.2642
  779MPD2    H711554   3.549   1.057  14.164  1.6653 -2.9828 -0.7179
  780MPD2     C11555   3.896   1.102   1.160 -0.0581  0.0374  0.2464
  780MPD2    C111556   3.927   1.007   1.064 -0.1506 -0.9721 -0.6575
  780MPD2    C211557   3.915   1.043   0.935  0.5830  0.1353 -0.0854
  780MPD2    C311558   3.882   1.172   0.895  0.7210  0.0284 -0.0847
  780MPD2    C411559   3.844   1.265   0.989  0.3037  0.1995  0.1396
  780MPD2    C511560   3.844   1.221   1.115  0.6656 -0.1744  0.0996
  780MPD2     H11561   3.936   0.965   0.862 -0.6439  2.2094 -2.6600
  780MPD2    H111562   3.801   1.362   0.968 -1.2590 -0.9627 -2.1098
  780MPD2    H211563   3.904   1.068   1.262 -1.1596 -1.0985 -0.0432
  780MPD2    H311564   3.813   1.290   1.192  1.1411  0.4162 -0.2364
  780MPD2     N11565   3.874   1.205   0.756 -0.5984 -0.5139 -0.5361
  780MPD2    H511566   3.866   1.302   0.727 -0.3104 -0.3287  0.0095
  780MPD2    N111567   3.952   0.871   1.106 -0.0154 -1.0014 -0.5623
  780MPD2    H711568   3.945   0.846   1.204 -0.2053 -1.2201 -0.6298
  781MPD2     C11569   0.115   2.376  12.121 -1.0870  0.1456 -0.0034
  781MPD2    C111570   0.126   2.517  12.119 -0.4836 -1.3661 -0.5167
  781MPD2    C211571   0.222   2.576  12.044 -0.5122  0.0680  0.2649
  781MPD2    C311572   0.291   2.511  11.939 -0.0899 -0.2997 -0.4171
  781MPD2    C411573   0.283   2.375  11.945  0.5839 -0.1497 -0.1783
  781MPD2    C511574   0.200   2.308  12.033 -0.6671  0.4371 -0.1273
  781MPD2     H11575   0.248   2.678  12.068 -2.5333  0.4254  0.9420
  781MPD2    H111576   0.339   2.309  11.880 -0.4352  0.0627 -1.2646
  781MPD2    H211577   0.042   2.324  12.183  0.2509  0.0349  1.4666
  781MPD2    H311578   0.208   2.201  12.038 -0.2380  0.6582  3.5018
  781MPD2     N11579   0.367   2.577  11.843  0.3440 -0.0137  0.7919
  781MPD2    H511580   0.419   2.516  11.781  0.0458  0.4324  0.1038
  781MPD2    N111581   0.047   2.597  12.204 -0.1377 -0.0340 -0.2362
  781MPD2    H711582   0.072   2.696  12.203  2.1399 -0.6336 -1.8150
  782MPD2     C11583   2.278   3.260   9.953  0.2452  0.3457  0.4310
  782MPD2    C111584   2.346   3.238  10.068  0.2623 -0.0650  0.7832
  782MPD2    C211585   2.380   3.343  10.152 -0.5280 -0.0339 -0.0167
  782MPD2    C311586   2.362   3.475  10.107  0.2589  0.4033 -0.3799
  782MPD2    C411587   2.302   3.496   9.984  0.3861  0.2798 -1.5329
  782MPD2    C511588   2.258   3.387   9.914  0.1340  0.7134 -0.2097
  782MPD2     H11589   2.431   3.323  10.246  3.6259  1.3789 -1.9793
  782MPD2    H111590   2.290   3.596   9.945 -0.0756 -0.7435 -3.9656
  782MPD2    H211591   2.241   3.184   9.885  0.2957  0.4319  0.3075
  782MPD2    H311592   2.217   3.402   9.814  0.2162 -0.7199 -0.4559
  782MPD2     N11593   2.423   3.572  10.185  0.3882  0.1648 -0.3485
  782MPD2    H511594   2.481   3.532  10.258 -0.2196  0.1456  0.1155
  782MPD2    N111595   2.390   3.107  10.092 -0.7225 -0.3181  0.0829
  782MPD2    H711596   2.371   3.036  10.022  1.1101 -0.1006 -0.6316
  783MPD2     C11597   1.921   2.566  10.587  0.2737 -0.2192  1.4885
  783MPD2    C111598   1.975   2.691  10.603 -0.1685 -0.2446  0.8158
  783MPD2    C211599   2.086   2.736  10.534  0.1093  0.6298  0.1135
  783MPD2    C311600   2.143   2.651  10.437 -0.0458 -0.5599  0.2352
  783MPD2    C411601   2.080   2.533  10.403 -0.3821  0.2758 -0.3533
  783MPD2    C511602   1.968   2.491  10.483  0.5286 -0.5170  0.3735
  783MPD2     H11603   2.126   2.835  10.553 -0.2600  0.5185  1.4094
  783MPD2    H111604   2.111   2.479  10.314 -0.3540 -0.1807 -0.0688
  783MPD2    H211605   1.840   2.528  10.648 -0.7907 -0.3696 -0.0247
  783MPD2    H311606   1.925   2.395  10.455 -0.5148 -0.4448  1.7180
  783MPD2     N11607   2.264   2.695  10.371 -0.3528 -0.3107  0.1152
  783MPD2    H511608   2.297   2.789  10.388 -0.4517 -0.0475 -1.1685
  783MPD2    N111609   1.924   2.770  10.703  0.4256 -0.3302 -0.3323
  783MPD2    H711610   1.838   2.738  10.747 -0.4588  1.4370 -0.7818
  784MPD2     C11611   0.787   3.379   0.397 -0.6799 -0.7911 -0.3647
  784MPD2    C111612   0.858   3.477   0.462  0.0612 -0.7773 -0.7356
  784MPD2    C211613   0.801   3.601   0.479  0.0225  0.0926 -0.6326
  784MPD2    C311614   0.677   3.631   0.423  0.6073 -0.2463 -0.4302
  784MPD2    C411615   0.608   3.534   0.361  0.3256 -0.3291 -0.3170
  784MPD2    C511616   0.661   3.406   0.355 -0.5469  0.5196 -0.1543
  784MPD2     H11617   0.848   3.680   0.537 -2.3830  2.3252 -1.7324
  784MPD2    H111618   0.508   3.541   0.318  0.9226  1.6271 -1.3607
  784MPD2    H211619   0.819   3.277   0.380 -1.9833 -1.2158 -0.1971
  784MPD2    H311620   0.594   3.331   0.313  0.5353 -0.1932 -0.5935
  784MPD2     N11621   0.622   3.756   0.438  0.3028 -0.2147  0.3067
  784MPD2    H511622   0.677   3.816   0.499 -1.3090  1.8398 -0.2792
  784MPD2    N111623   0.990   3.453   0.512 -0.3005  0.5326  0.0960
  784MPD2    H711624   1.042   3.532   0.547 -1.1278  1.2618 -0.3222
  785MPD2     C11625   4.064   2.035  10.855 -0.2322 -0.1890  0.3373
  785MPD2    C111626   4.094   2.170  10.822  1.0660 -0.3930  0.4128
  785MPD2    C211627   4.041   2.217  10.702  0.7288 -0.3641 -0.0276
  785MPD2    C311628   3.962   2.143  10.619 -0.0747 -0.2201  0.3773
  785MPD2    C411629   3.928   2.015  10.656 -0.7165  0.3959 -0.3389
  785MPD2    C511630   3.985   1.962  10.771  0.2244  1.2587 -0.4015
  785MPD2     H11631   4.077   2.311  10.661 -1.9925  1.3969  1.6188
  785MPD2    H111632   3.865   1.956  10.590 -1.7688 -0.1505  1.1612
  785MPD2    H211633   4.102   1.980  10.941  0.0875 -0.7314 -0.1584
  785MPD2    H311634   3.956   1.864  10.807 -1.2340  0.5611 -3.4260
  785MPD2     N11635   3.926   2.201  10.499 -0.1460 -0.4413  0.4495
  785MPD2    H511636   3.957   2.297  10.496 -0.1030 -0.4434  0.8201
  785MPD2    N111637   4.179   2.259  10.892  0.7205  0.3225  0.3148
  785MPD2    H711638   4.230   2.232  10.975  0.6575  2.7153  1.1314
  786MPD2     C11639   4.359   0.726  14.615  0.0987 -0.0158  0.5314
  786MPD2    C111640   4.393   0.613  14.689 -0.4685 -0.5205  0.0778
  786MPD2    C211641   4.485   0.624  14.794 -0.2194  0.6196 -0.2777
  786MPD2    C311642   4.531   0.745  14.832 -0.2921  0.3168  0.2129
  786MPD2    C411643   4.499   0.853  14.754 -0.0262 -0.3307  0.2313
  786MPD2    C511644   4.400   0.845  14.663 -0.2181  0.6877 -0.1409
  786MPD2     H11645   4.508   0.539  14.857 -0.6716 -0.6163 -1.7865
  786MPD2    H111646   4.535   0.953  14.777 -0.5717 -0.5822  2.1796
  786MPD2    H211647   4.300   0.719  14.524  0.1544  1.5250  0.3673
  786MPD2    H311648   4.375   0.938  14.612 -2.0581 -0.3021 -1.0614
  786MPD2     N11649   4.612   0.773  14.945 -0.0379 -0.7685 -0.6259
  786MPD2    H511650   4.638   0.870  14.956  0.5126 -0.8241 -1.4790
  786MPD2    N111651   4.361   0.480  14.653 -0.9304 -0.4959 -0.1257
  786MPD2    H711652   4.412   0.407  14.704  1.3687  0.8017 -0.5598
  787MPD2     C11653   4.660   4.629  14.676 -0.1497  0.3039  0.6655
  787MPD2    C111654   4.612   4.637  14.554 -0.1585 -0.0118 -0.5035
  787MPD2    C211655   4.647   4.541  14.462 -0.1770 -0.2027  0.5637
  787MPD2    C311656   4.740   4.444  14.487  0.2659 -0.0643 -0.2299
  787MPD2    C411657   0.055   4.439  14.610  0.5704  0.3401  0.0320
  787MPD2    C511658   0.024   4.540  14.702 -0.0896  0.6411  0.4787
  787MPD2     H11659   4.595   4.538  14.367  2.2839 -2.1355 -0.7390
  787MPD2    H111660   0.117   4.353  14.633  0.0357 -0.4217 -1.3870
  787MPD2    H211661   4.626   4.685  14.762  2.1167  1.9241  0.4977
  787MPD2    H311662   0.049   4.536  14.808 -4.1250 -0.1383  1.4238
  787MPD2     N11663   0.002   4.339  14.396 -0.5422 -0.3674 -0.3581
  787MPD2    H511664   4.697   4.354  14.307 -0.8219  2.2527  0.2383
  787MPD2    N111665   4.513   4.735  14.529 -0.7212  0.2059  0.3766
  787MPD2    H711666   4.502   0.064  14.602  0.2703  0.1133  0.6174
  788MPD2     C11667   1.848   3.247   0.828 -0.5282  0.0268  0.4782
  788MPD2    C111668   1.830   3.196   0.704  0.2852 -0.1494 -0.5497
  788MPD2    C211669   1.841   3.278   0.601 -0.3705  0.2892 -0.4363
  788MPD2    C311670   1.871   3.412   0.608  0.3696  0.0733  0.4663
  788MPD2    C411671   1.891   3.459   0.740 -0.2068 -0.0715 -0.8149
  788MPD2    C511672   1.884   3.376   0.846 -0.4184 -0.3018 -0.1858
  788MPD2     H11673   1.813   3.237   0.505 -1.7779 -2.2857  1.0837
  788MPD2    H111674   1.900   3.567   0.742  0.2021 -0.1557  1.1895
  788MPD2    H211675   1.837   3.183   0.915  3.9795 -1.1754  0.1576
  788MPD2    H311676   1.919   3.412   0.943  0.5230  1.5787 -1.2076
  788MPD2     N11677   1.873   3.506   0.507 -0.0814  0.6204 -0.4850
  788MPD2    H511678   1.899   3.602   0.525 -0.6903  0.6041  0.4816
  788MPD2    N111679   1.805   3.060   0.686  0.6162 -0.8467  0.0936
  788MPD2    H711680   1.781   3.007   0.769 -0.4538 -0.3303  0.1053
  789MPD2     C11681   1.773   3.460  16.071  0.1135  0.8128 -0.2581
  789MPD2    C111682   1.703   3.363  16.140 -0.0202 -0.1184  0.1710
  789MPD2    C211683   1.622   3.400  16.240  0.1187  0.7953  0.3200
  789MPD2    C311684   1.597   3.533  16.275 -0.7143  0.6068  0.4150
  789MPD2    C411685   1.657   3.633  16.195 -0.3072 -0.2260 -0.8819
  789MPD2    C511686   1.744   3.593  16.097 -0.5210 -0.2025 -0.4181
  789MPD2     H11687   1.568   3.325  16.297 -0.0004 -0.9937 -2.1321
  789MPD2    H111688   1.638   3.738  16.212 -3.7303 -1.1550  0.9739
  789MPD2    H211689   1.842   3.432  15.992  0.2514 -0.9172  0.4685
  789MPD2    H311690   1.792   3.671  16.040 -1.4675  0.4814 -0.2877
  789MPD2     N11691   1.498   3.568  16.375  0.3790 -0.1972  0.0348
  789MPD2    H511692   1.454   3.660  16.376 -1.3294 -1.0011 -0.6679
  789MPD2    N111693   1.703   3.222  16.108 -0.4154 -0.7378 -0.3665
  789MPD2    H711694   1.639   3.166  16.163 -1.5646 -1.5912 -2.5763
  790MPD2     C11695   2.538   0.255  13.506  0.3277 -0.0855 -0.3906
  790MPD2    C111696   2.532   0.140  13.585  0.0000 -0.4123 -0.7181
  790MPD2    C211697   2.457   0.033  13.550  0.3416 -0.2204 -0.1571
  790MPD2    C311698   2.386   0.035  13.430 -0.3735 -0.1653 -0.2570
  790MPD2    C411699   2.403   0.142  13.345 -0.6011  0.3175  0.5158
  790MPD2    C511700   2.477   0.249  13.383  0.0350  0.2755 -0.2260
  790MPD2     H11701   2.451   4.681  13.607 -1.9906  1.5861  2.5450
  790MPD2    H111702   2.367   0.153  13.244  2.4866 -1.1554 -0.7426
  790MPD2    H211703   2.608   0.335  13.526 -0.4818  0.2820  0.9926
  790MPD2    H311704   2.481   0.337  13.320  1.7455 -1.3237 -2.3695
  790MPD2     N11705   2.334   4.658  13.378 -0.7834 -0.2842 -0.3924
  790MPD2    H511706   2.358   4.572  13.427 -0.1945  0.8732  1.3295
  790MPD2    N111707   2.606   0.149  13.708 -0.0451 -0.3465  0.3396
  790MPD2    H711708   2.654   0.237  13.723  0.9459 -1.0232  1.2565
  791MPD2     C11709   1.704   4.609  12.925  0.4549  0.4591 -0.0828
  791MPD2    C111710   1.753   4.483  12.942  0.4120  0.6050 -0.1273
  791MPD2    C211711   1.658   4.382  12.927 -0.4002  0.4800 -0.2458
  791MPD2    C311712   1.525   4.411  12.886 -0.4565 -0.1286 -0.2029
  791MPD2    C411713   1.482   4.540  12.876  0.1861 -0.6112 -0.3849
  791MPD2    C511714   1.574   4.637  12.893  0.1058  0.1076 -0.2756
  791MPD2     H11715   1.683   4.280  12.955  0.9719  1.0962  0.7788
  791MPD2    H111716   1.382   4.580  12.860  1.0714  0.8834 -2.2264
  791MPD2    H211717   1.779   4.686  12.940  0.8873  0.5281 -2.7482
  791MPD2    H311718   1.539   4.739  12.884 -0.7967 -0.2714 -1.0726
  791MPD2     N11719   1.439   4.306  12.853 -0.0477 -0.4454  0.0901
  791MPD2    H511720   1.468   4.211  12.877  0.3470  0.4389  3.1128
  791MPD2    N111721   1.878   4.466  13.006 -0.2965 -0.1766  0.4886
  791MPD2    H711722   1.933   4.550  13.019 -0.5790  0.3108 -1.4675
  792MPD2     C11723   2.226   4.130  11.462  0.8943  1.0891  0.8712
  792MPD2    C111724   2.257   4.058  11.348 -0.2573  0.1220  0.9687
  792MPD2    C211725   2.159   3.981  11.290 -0.0602 -0.2060 -0.0746
  792MPD2    C311726   2.028   3.996  11.322 -0.1946  1.0014  0.3320
  792MPD2    C411727   2.001   4.071  11.433  0.3960  0.3065  0.4311
  792MPD2    C511728   2.095   4.135  11.498 -0.1646 -0.0243  0.2117
  792MPD2     H11729   2.181   3.906  11.215  0.9529 -0.5820  0.5949
  792MPD2    H111730   1.898   4.086  11.465  0.3176 -1.1021  0.8213
  792MPD2    H211731   2.307   4.172  11.520  0.5416  2.2743  0.4984
  792MPD2    H311732   2.067   4.191  11.586  2.4933 -1.0633  1.7428
  792MPD2     N11733   1.921   3.922  11.264  0.0000  0.0758  0.2327
  792MPD2    H511734   1.834   3.913  11.317 -0.8329 -0.6974 -1.2521
  792MPD2    N111735   2.393   4.066  11.305 -0.7120  0.3099  0.0035
  792MPD2    H711736   2.473   4.097  11.359 -0.4857 -1.5084  0.7044
  793MPD2     C11737   1.302   4.153  10.532  0.0313  0.4992  0.0593
  793MPD2    C111738   1.408   4.062  10.505  0.3291 -0.0172 -0.5672
  793MPD2    C211739   1.476   4.006  10.612 -0.3520 -0.4728  0.6138
  793MPD2    C311740   1.444   4.024  10.744 -0.2597 -0.4471 -0.6762
  793MPD2    C411741   1.345   4.116  10.767 -0.1332 -0.8891 -0.4387
  793MPD2    C511742   1.277   4.176  10.666  0.0570  0.2857  1.2265
  793MPD2     H11743   1.561   3.947  10.580 -0.2801 -0.5353  0.9183
  793MPD2    H111744   1.315   4.143  10.867 -2.4800 -0.7187 -1.1897
  793MPD2    H211745   1.247   4.203  10.454 -1.6297 -1.9159 -0.2892
  793MPD2    H311746   1.195   4.243  10.689 -1.2079 -1.0567  0.6160
  793MPD2     N11747   1.511   3.950  10.846 -0.6408  0.3345 -0.5563
  793MPD2    H511748   1.584   3.888  10.813 -3.9480 -2.4372 -2.7173
  793MPD2    N111749   1.471   4.049  10.378  0.1209 -0.3468  0.0494
  793MPD2    H711750   1.560   3.999  10.375 -0.2821 -1.0217 -0.7251
  794MPD2     C11751   2.823   4.189  17.079 -0.0119 -0.3184  0.6643
  794MPD2    C111752   2.702   4.161  17.138 -0.4535 -0.3300  0.3829
  794MPD2    C211753   2.585   4.206  17.074 -0.1493  0.8491 -0.8674
  794MPD2    C311754   2.587   4.286  16.959 -0.8137 -0.0090  0.3085
  794MPD2    C411755   2.706   4.303  16.895  0.4853  0.0672 -0.0447
  794MPD2    C511756   2.821   4.259  16.960  0.0991 -0.0477 -0.1330
  794MPD2     H11757   2.493   4.177  17.122 -0.2039  1.9081 -0.3192
  794MPD2    H111758   2.715   4.364  16.805 -0.0249  0.7415  0.3584
  794MPD2    H211759   2.917   4.161  17.125  0.1303 -1.3118 -0.1978
  794MPD2    H311760   2.913   4.270  16.904 -0.9494 -4.5138 -2.6444
  794MPD2     N11761   2.470   4.327  16.891 -0.2093  0.4127 -0.0128
  794MPD2    H511762   2.491   4.368  16.801  0.6742 -0.7806 -0.3569
  794MPD2    N111763   2.689   4.081  17.252  0.1120 -0.1710 -0.2068
  794MPD2    H711764   2.595   4.063  17.286  0.1321  1.9371  0.9725
  795MPD2     C11765   0.014   1.364  13.819  0.2566  0.2893 -0.0622
  795MPD2    C111766   4.687   1.241  13.811  0.4147  0.3937 -0.2983
  795MPD2    C211767   0.024   1.127  13.840  0.2242  0.1299 -0.4468
  795MPD2    C311768   0.163   1.127  13.867 -0.2828  0.4724 -0.2060
  795MPD2    C411769   0.225   1.251  13.875  0.8858  0.0130  0.4663
  795MPD2    C511770   0.153   1.371  13.846  0.0758 -0.7207 -0.0558
  795MPD2     H11771   4.715   1.030  13.836  2.7353 -1.1952  0.0870
  795MPD2    H111772   0.329   1.262  13.906  1.1300 -3.3419  0.8603
  795MPD2    H211773   4.699   1.458  13.816 -0.1264  0.1574  2.5278
  795MPD2    H311774   0.198   1.469  13.857 -1.3014 -0.0492 -0.3114
  795MPD2     N11775   0.233   1.004  13.880  0.4581 -0.5687  0.4682
  795MPD2    H511776   0.174   0.921  13.885 -2.3148  1.4145  0.6880
  795MPD2    N111777   4.552   1.220  13.785  0.1132 -0.0315 -0.3036
  795MPD2    H711778   4.509   1.129  13.793  1.8365 -0.8463 -0.4908
  796MPD2     C11779   0.110   3.107  15.524 -0.1078  0.3260 -0.6358
  796MPD2    C111780   0.009   3.046  15.594 -0.2158 -0.5513  0.0010
  796MPD2    C211781   4.623   3.115  15.591  0.2395  0.3954  0.1733
  796MPD2    C311782   4.595   3.224  15.517  0.0651 -0.9294  0.0920
  796MPD2    C411783   4.702   3.281  15.446 -0.2635 -1.3014 -0.9571
  796MPD2    C511784   0.089   3.221  15.451  0.0135  0.5213  0.8504
  796MPD2     H11785   4.547   3.068  15.652  1.7273 -0.0246  1.6961
  796MPD2    H111786   4.702   3.358  15.370  0.2861 -0.4726 -0.1122
  796MPD2    H211787   0.202   3.049  15.516  1.6154  2.8028  1.0085
  796MPD2    H311788   0.172   3.262  15.394 -0.6645  0.2632 -0.3029
  796MPD2     N11789   4.470   3.288  15.518  0.1775  0.3315 -0.1173
  796MPD2    H511790   4.394   3.251  15.576 -0.2928  1.5752  0.0552
  796MPD2    N111791   0.044   2.932  15.666  0.0183 -0.9926 -0.5590
  796MPD2    H711792   0.137   2.892  15.654  0.4092 -0.0794 -0.5254
  797MPD2     C11793   0.679   2.298  17.213 -0.2013  0.1890  0.3779
  797MPD2    C111794   0.767   2.403  17.202 -0.6564 -0.6533  0.1866
  797MPD2    C211795   0.778   2.483  17.092 -0.1184  0.5654 -0.6882
  797MPD2    C311796   0.706   2.442  16.978  0.1774  0.3362  0.4986
  797MPD2    C411797   0.626   2.337  16.982 -1.0775 -0.1635 -0.8783
  797MPD2    C511798   0.615   2.254  17.097 -0.7368 -0.0253 -0.5542
  797MPD2     H11799   0.839   2.572  17.093 -0.4042  0.7464  0.5803
  797MPD2    H111800   0.568   2.318  16.893 -3.1083 -0.7812  0.5732
  797MPD2    H211801   0.662   2.241  17.303  1.0690  0.8366  1.0267
  797MPD2    H311802   0.554   2.165  17.096  0.7510 -1.0004 -3.9841
  797MPD2     N11803   0.724   2.529  16.868  0.1799  0.0525 -0.2088
  797MPD2    H511804   0.773   2.616  16.889 -0.6409  0.5598 -0.4187
  797MPD2    N111805   0.838   2.463  17.308  0.0979 -0.1980  0.2581
  797MPD2    H711806   0.890   2.546  17.281 -0.5724  0.4514  0.9473
  798MPD2     C11807   1.249   2.978  16.947 -0.2662 -0.4198 -0.4598
  798MPD2    C111808   1.144   2.885  16.948  0.4064  0.1581 -0.2424
  798MPD2    C211809   1.118   2.814  17.062  0.5396  0.6503 -0.1557
  798MPD2    C311810   1.185   2.831  17.179 -0.0333 -0.6413  0.5122
  798MPD2    C411811   1.289   2.920  17.182  0.2239  1.2463 -0.2829
  798MPD2    C511812   1.316   2.989  17.068 -0.0896 -0.2710 -0.0856
  798MPD2     H11813   1.047   2.733  17.066  0.5273  0.7351  1.3692
  798MPD2    H111814   1.348   2.921  17.273  0.2129  0.7151 -0.2735
  798MPD2    H211815   1.275   3.049  16.869  1.2786  0.2723  0.6937
  798MPD2    H311816   1.381   3.074  17.083  1.4117 -1.0185 -2.3072
  798MPD2     N11817   1.145   2.750  17.291  0.4762  0.2278  0.6041
  798MPD2    H511818   1.103   2.660  17.268  1.1878  0.1938 -0.5477
  798MPD2    N111819   1.051   2.876  16.838  0.2870  0.3984  0.2841
  798MPD2    H711820   1.072   2.926  16.753  2.7390  0.7404  1.1049
  799MPD2     C11821   4.348   4.214  14.448  0.5979 -1.0836 -0.7525
  799MPD2    C111822   4.238   4.129  14.417  0.0231 -0.1436  0.2173
  799MPD2    C211823   4.165   4.161  14.300  0.8803 -0.0033  0.1259
  799MPD2    C311824   4.194   4.268  14.221 -0.5517  0.2330  0.0739
  799MPD2    C411825   4.293   4.360  14.259  0.0343  0.1051  0.7673
  799MPD2    C511826   4.359   4.328  14.371 -0.3226 -0.2465  0.2030
  799MPD2     H11827   4.088   4.091  14.269 -0.4071  0.9228  1.2048
  799MPD2    H111828   4.318   4.451  14.206 -3.0104  0.1681 -0.5401
  799MPD2    H211829   4.420   4.197  14.527  1.4121  0.1775 -1.2245
  799MPD2    H311830   4.433   4.400  14.406 -0.2524 -0.6198  0.8241
  799MPD2     N11831   4.146   4.284  14.093  0.7736 -0.3345  0.1725
  799MPD2    H511832   4.180   4.367  14.046  0.6274 -1.5315 -2.0491
  799MPD2    N111833   4.199   4.021  14.500 -0.7482 -0.0750  0.1393
  799MPD2    H711834   4.110   3.979  14.477 -0.3620 -0.5845 -0.4178
  800MPD2     C11835   4.432   0.473  14.242  0.0886  0.1415  0.4532
  800MPD2    C111836   4.545   0.407  14.207  1.0592  0.0617  0.0050
  800MPD2    C211837   4.533   0.296  14.128 -0.2585  0.4581 -0.3084
  800MPD2    C311838   4.406   0.260  14.080  0.3323  0.8855 -0.4842
  800MPD2    C411839   4.293   0.327  14.123  0.2036  0.2250  0.7065
  800MPD2    C511840   4.308   0.436  14.210 -0.3597 -0.1632  1.1739
  800MPD2     H11841   4.624   0.258  14.082 -0.0079 -1.6196  1.8937
  800MPD2    H111842   4.193   0.307  14.087  0.3953  3.7486 -1.8246
  800MPD2    H211843   4.437   0.562  14.305 -0.0305  1.1015 -0.9051
  800MPD2    H311844   4.221   0.499  14.228  0.5497  1.0949  1.1400
  800MPD2     N11845   4.390   0.159  13.982  0.3785  0.6729 -0.0677
  800MPD2    H511846   4.478   0.111  13.965  1.3076  2.0665  0.8802
  800MPD2    N111847   4.666   0.474  14.236  0.2535  0.4392 -0.7160
  800MPD2    H711848   4.663   0.571  14.267  4.5701  0.0185  1.0011
  801MPD2     C11849   0.176   1.179  14.230 -0.2133 -0.5357  0.1111
  801MPD2    C111850   0.202   1.097  14.335  0.1255 -0.4382  0.4490
  801MPD2    C211851   0.213   1.153  14.463  0.0917 -0.3560  0.6763
  801MPD2    C311852   0.181   1.286  14.480  0.0401 -0.1864  0.4591
  801MPD2    C411853   0.148   1.365  14.372 -0.3169 -0.3609  0.6464
  801MPD2    C511854   0.150   1.313  14.248 -0.2215  0.5606  0.2171
  801MPD2     H11855   0.229   1.084  14.545 -1.6254 -1.9275 -0.3133
  801MPD2    H111856   0.130   1.472  14.378  1.0763 -0.0849 -0.1067
  801MPD2    H211857   0.178   1.144  14.127  0.3094 -1.1969  0.3468
  801MPD2    H311858   0.132   1.376  14.161 -1.2107 -0.8336 -0.5855
  801MPD2     N11859   0.176   1.353  14.604 -0.0912  0.5363 -0.4320
  801MPD2    H511860   0.135   1.446  14.606  0.7946  0.9138  0.7075
  801MPD2    N111861   0.226   0.955  14.320 -0.4391 -0.0232  0.4232
  801MPD2    H711862   0.263   0.917  14.407 -1.6726 -0.7495  0.6343
  802MPD2     C11863   0.195   1.387   0.271  0.1068  0.0854  0.5505
  802MPD2    C111864   0.069   1.436   0.257 -0.3484 -0.0837  1.1388
  802MPD2    C211865   4.731   1.376   0.159 -0.2583 -0.1712 -0.6950
  802MPD2    C311866   0.038   1.271   0.078  0.0017 -0.1010  0.2499
  802MPD2    C411867   0.170   1.236   0.092  0.7017  0.6745  0.3276
  802MPD2    C511868   0.242   1.292   0.193  0.6641 -0.2599 -0.6685
  802MPD2     H11869   4.630   1.413   0.143 -0.6369 -0.0529  1.9629
  802MPD2    H111870   0.225   1.168   0.028 -0.2754  1.2521 -1.1271
  802MPD2    H211871   0.261   1.418   0.352  1.7302 -1.6314 -0.0998
  802MPD2    H311872   0.346   1.269   0.216  0.6616  1.5012  1.1369
  802MPD2     N11873   4.691   1.227  17.742 -0.3035  0.1603 -0.5962
  802MPD2    H511874   4.597   1.265  17.748 -0.6262 -1.1085  2.3825
  802MPD2    N111875   0.024   1.541   0.339 -0.1988  0.0307 -0.1958
  802MPD2    H711876   4.665   1.558   0.332 -0.5160 -1.4506  0.6979
  803MPD2     C11877   0.530   4.537  11.754  0.0010 -0.4890  0.7031
  803MPD2    C111878   0.614   4.464  11.844 -0.6272  0.1955  0.2280
  803MPD2    C211879   0.557   4.384  11.946  0.8764 -0.3329  0.0468
  803MPD2    C311880   0.421   4.359  11.939 -0.7422 -0.2947 -0.4507
  803MPD2    C411881   0.341   4.433  11.857 -0.4345 -0.7504  0.3249
  803MPD2    C511882   0.396   4.521  11.764  0.4055  0.0281 -0.2989
  803MPD2     H11883   0.617   4.340  12.025  0.6479  0.8363  0.8772
  803MPD2    H111884   0.233   4.424  11.857 -0.7075  2.5342 -0.9430
  803MPD2    H211885   0.569   4.608  11.681 -2.3144 -0.9675 -0.9805
  803MPD2    H311886   0.348   4.601  11.709  1.1912  1.4368  1.0497
  803MPD2     N11887   0.354   4.274  12.027  0.1284 -0.4367  0.0968
  803MPD2    H511888   0.254   4.265  12.014  0.3368 -0.9240 -1.2010
  803MPD2    N111889   0.752   4.485  11.854  0.3671 -0.5438  0.7606
  803MPD2    H711890   0.799   4.445  11.934  0.7797 -1.2732  0.1554
  804MPD2     C11891   4.648   0.917  17.135 -0.5588 -0.0338 -0.1280
  804MPD2    C111892   0.028   0.921  17.202 -0.1259  0.3566 -0.5776
  804MPD2    C211893   0.075   1.044  17.240  0.2025  0.0425 -0.5417
  804MPD2    C311894   0.006   1.166  17.241 -0.1778 -0.0322  0.3146
  804MPD2    C411895   4.621   1.157  17.180  0.1226  0.7423  0.3631
  804MPD2    C511896   4.583   1.035  17.121  0.4011  0.1532 -0.2142
  804MPD2     H11897   0.175   1.044  17.283  0.5831 -0.4579 -1.4209
  804MPD2    H111898   4.558   1.243  17.167  1.0258  1.3760  0.1750
  804MPD2    H211899   4.602   0.828  17.094  0.0744  0.6502 -2.3257
  804MPD2    H311900   4.481   1.029  17.086  0.5595  2.0786 -1.0085
  804MPD2     N11901   0.063   1.279  17.318 -0.4501  0.4167  0.1757
  804MPD2    H511902   0.154   1.271  17.363 -1.3974  0.9650  2.2070
  804MPD2    N111903   0.102   0.806  17.242 -0.4214  0.6956  0.8533
  804MPD2    H711904   0.182   0.826  17.301  1.8859  1.1445 -2.3657
  805MPD2     C11905   4.016   4.334  15.118  0.3433  0.2766 -0.6366
  805MPD2    C111906   4.104   4.443  15.113 -0.4274  1.2399  0.1210
  805MPD2    C211907   4.197   4.464  15.216 -0.0373  0.1262 -0.2416
  805MPD2    C311908   4.208   4.370  15.316  0.3920 -0.1045 -0.2107
  805MPD2    C411909   4.110   4.269  15.329 -0.6723 -0.3017  0.5995
  805MPD2    C511910   4.018   4.250  15.227 -0.4206  0.2853  1.5989
  805MPD2     H11911   4.278   4.537  15.214  0.1282 -0.0663 -0.5457
  805MPD2    H111912   4.111   4.192  15.406  0.5775 -1.7589 -0.8586
  805MPD2    H211913   3.958   4.307  15.031  1.3769  1.4928 -1.7062
  805MPD2    H311914   3.953   4.164  15.241  0.4746 -0.4300  1.3785
  805MPD2     N11915   4.311   4.380  15.415  0.0024  0.7015  0.7207
  805MPD2    H511916   4.392   4.437  15.391 -0.2498  0.1735 -1.4071
  805MPD2    N111917   4.094   4.523  15.001  0.7287  0.4420 -0.2382
  805MPD2    H711918   4.023   4.487  14.938 -0.7168  0.6504  1.2651
  806MPD2     C11919   4.533   3.386   0.040  0.2144 -0.2415  0.2444
  806MPD2    C111920   4.501   3.493   0.124  0.1464  0.1647 -0.2579
  806MPD2    C211921   4.533   3.619   0.083  0.4030  0.2347 -0.1276
  806MPD2    C311922   4.593   3.641  17.719 -0.3162 -0.5179 -0.1615
  806MPD2    C411923   4.633   3.536  17.635  0.1642 -0.4865  0.5520
  806MPD2    C511924   4.596   3.407  17.676  1.1258  0.0836  0.1757
  806MPD2     H11925   4.506   3.710   0.136  1.2252 -0.2760  1.1779
  806MPD2    H111926   4.676   3.545  17.536 -1.0177 -2.5141 -0.1451
  806MPD2    H211927   4.520   3.285   0.078 -0.0049 -0.2550  0.1331
  806MPD2    H311928   4.605   3.319  17.612 -0.0977 -0.9115  1.3615
  806MPD2     N11929   4.616   3.774  17.674  0.8853 -0.1242  0.7963
  806MPD2    H511930   4.582   3.843  17.740  0.6572  1.5008 -1.0259
  806MPD2    N111931   4.452   3.470   0.254  0.0565  0.2395  0.2155
  806MPD2    H711932   4.407   3.384   0.284  2.6029 -1.1267  0.1019
  807MPD2     C11933   4.037   3.138   0.820  1.4214 -0.3240  0.5382
  807MPD2    C111934   4.170   3.137   0.854 -0.0688 -0.0363  0.0116
  807MPD2    C211935   4.223   3.081   0.967  0.2406 -0.1966 -0.3166
  807MPD2    C311936   4.129   3.016   1.052 -0.3541  0.1659  0.5524
  807MPD2    C411937   3.998   3.002   1.010  0.1080 -0.0121  0.2189
  807MPD2    C511938   3.951   3.067   0.899  0.7300 -0.8092 -0.3047
  807MPD2     H11939   4.321   3.100   1.008  0.2910  0.1809 -0.6128
  807MPD2    H111940   3.924   2.931   1.043  1.1545 -0.7413  0.9954
  807MPD2    H211941   3.994   3.191   0.735 -0.6145 -2.3939  0.2903
  807MPD2    H311942   3.849   3.053   0.863  1.4683  1.5284 -3.3766
  807MPD2     N11943   4.166   2.942   1.164 -0.3544 -0.1258 -0.7632
  807MPD2    H511944   4.262   2.910   1.158 -0.7628 -1.2864 -0.9912
  807MPD2    N111945   4.262   3.203   0.772 -0.2009 -0.5170  0.4408
  807MPD2    H711946   4.357   3.216   0.805 -0.6987  1.5210  1.0929
  808MPD2     C11947   4.501   0.200  10.095 -0.2459  0.2663  0.0310
  808MPD2    C111948   4.526   0.177  10.226 -0.0036  0.2623  0.0946
  808MPD2    C211949   4.576   0.275  10.304  0.3026 -0.9492  0.1588
  808MPD2    C311950   4.608   0.404  10.252 -0.6670  0.0295 -0.9486
  808MPD2    C411951   4.561   0.431  10.124  0.1233  0.3587 -0.2661
  808MPD2    C511952   4.504   0.334  10.048  0.6034  0.1263 -1.0443
  808MPD2     H11953   4.577   0.253  10.410  2.0032  1.5384  0.6742
  808MPD2    H111954   4.572   0.528  10.077  1.3903  0.6953  0.7098
  808MPD2    H211955   4.447   0.137  10.025  2.2896  1.1860 -2.7918
  808MPD2    H311956   4.460   0.361   9.953 -0.0549 -0.5587 -0.9425
  808MPD2     N11957   4.663   0.506  10.332 -0.0122 -0.7285 -0.3199
  808MPD2    H511958   4.660   0.602  10.298 -0.2360 -1.3368 -2.0248
  808MPD2    N111959   4.501   0.052  10.286  0.4943  0.2935 -0.4060
  808MPD2    H711960   4.502   0.047  10.388  1.6357 -0.5679 -0.4483
  809MPD2     C11961   0.482   1.259  10.310 -0.3476 -0.1381 -0.3799
  809MPD2    C111962   0.461   1.133  10.259 -0.2127  0.4164 -0.9320
  809MPD2    C211963   0.361   1.054  10.316  0.1669  0.1568 -0.0148
  809MPD2    C311964   0.291   1.098  10.426  0.5233  0.6146  0.0049
  809MPD2    C411965   0.331   1.213  10.488 -0.2055  0.9266  0.2771
  809MPD2    C511966   0.410   1.296  10.421  0.7998 -0.8282 -0.3875
  809MPD2     H11967   0.342   0.954  10.279 -0.8087 -0.0446  1.0316
  809MPD2    H111968   0.272   1.251  10.571 -0.8873 -0.4006  0.3972
  809MPD2    H211969   0.553   1.324  10.261 -1.4838  1.7990  0.5253
  809MPD2    H311970   0.427   1.396  10.460  0.9599 -1.3476  0.8737
  809MPD2     N11971   0.186   1.023  10.492  0.1288  0.5457 -0.1193
  809MPD2    H511972   0.166   1.052  10.587  1.7838 -0.5732  0.5668
  809MPD2    N111973   0.540   1.089  10.150  0.1835  0.6128 -0.6100
  809MPD2    H711974   0.503   1.004  10.109  0.0506  0.4940 -0.2449
  810MPD2     C11975   4.016   4.158  11.064  0.0538 -0.0839  0.3496
  810MPD2    C111976   4.085   4.186  10.950 -0.3608 -0.5982 -0.8858
  810MPD2    C211977   4.127   4.314  10.920 -0.1387  0.5731  0.4460
  810MPD2    C311978   4.085   4.428  11.002  0.0631  0.2629 -0.1955
  810MPD2    C411979   4.021   4.398  11.114  1.1820 -0.0450  0.3881
  810MPD2    C511980   3.976   4.266  11.147 -0.4893 -0.4671  0.2069
  810MPD2     H11981   4.189   4.345  10.836  0.7329 -0.1301  0.8249
  810MPD2    H111982   4.005   4.479  11.184 -0.1363 -1.0611  1.2581
  810MPD2    H211983   3.986   4.058  11.092  1.7954 -0.7717 -0.2577
  810MPD2    H311984   3.931   4.234  11.240 -0.5651  0.0146  0.3357
  810MPD2     N11985   4.094   4.563  10.962  0.0257 -0.2467 -0.2649
  810MPD2    H511986   4.041   4.634  11.013 -1.6667 -1.7095  0.0049
  810MPD2    N111987   4.106   4.077  10.860 -0.3243  0.0880 -0.4589
  810MPD2    H711988   4.054   3.992  10.880  0.7851 -0.5454 -0.2742
  811MPD2     C11989   3.911   4.040   9.970 -0.1864  0.0672  0.3462
  811MPD2    C111990   3.956   4.102  10.088  0.2543  0.2230 -0.4623
  811MPD2    C211991   3.956   4.238  10.089  0.5057 -0.1454  0.2726
  811MPD2    C311992   3.936   4.316   9.972  0.4827  0.5209 -0.2714
  811MPD2    C411993   3.885   4.254   9.864 -0.4422  0.1646 -0.3046
  811MPD2    C511994   3.878   4.120   9.863 -0.1493  0.6731  0.6878
  811MPD2     H11995   3.992   4.288  10.179 -4.2846 -0.6482  2.4678
  811MPD2    H111996   3.860   4.304   9.771 -2.1385  1.6567  0.9494
  811MPD2    H211997   3.910   3.933   9.953  3.6558  0.1644 -0.4858
  811MPD2    H311998   3.841   4.068   9.775 -0.1215  1.4725  0.1982
  811MPD2     N11999   3.939   4.453   9.991  0.0987 -0.3413  0.0907
  811MPD2    H512000   3.993   4.479  10.073  0.2517  1.6247 -0.6198
  811MPD2    N112001   3.988   4.018  10.199 -0.0099 -0.0039 -0.2963
  811MPD2    H712002   3.966   3.920  10.187 -1.1967  0.3328 -0.8505
  812MPD2     C12003   3.273   3.814  12.594 -0.2459 -0.8295 -0.2965
  812MPD2    C112004   3.191   3.904  12.660  0.1127 -0.3907  0.4976
  812MPD2    C212005   3.190   3.899  12.796  0.2189 -0.2749  1.1510
  812MPD2    C312006   3.282   3.826  12.873  0.4396  0.3276  0.2139
  812MPD2    C412007   3.364   3.739  12.803 -0.2777 -0.5550  0.4362
  812MPD2    C512008   3.356   3.735  12.669  0.3937  0.3238 -0.2616
  812MPD2     H12009   3.111   3.951  12.848 -0.9439 -0.7476 -0.1481
  812MPD2    H112010   3.438   3.683  12.860  0.5600 -1.4776 -1.5761
  812MPD2    H212011   3.287   3.811  12.486  2.3393 -0.2217  0.0237
  812MPD2    H312012   3.426   3.669  12.618 -1.8756 -1.3874 -1.1785
  812MPD2     N12013   3.288   3.850  13.015 -0.4015  0.0677 -0.3118
  812MPD2    H512014   3.229   3.924  13.053 -2.1757 -1.8908  0.7235
  812MPD2    N112015   3.115   4.001  12.588  0.7084 -0.1431 -0.3870
  812MPD2    H712016   3.143   4.014  12.491 -3.8483  0.0604 -1.6655
  813MPD2     C12017   2.343   1.064  13.169  0.4203 -0.0836 -0.0743
  813MPD2    C112018   2.289   1.190  13.157 -0.1499 -0.2468 -0.3048
  813MPD2    C212019   2.172   1.220  13.223 -0.4513 -0.2916 -0.1796
  813MPD2    C312020   2.102   1.125  13.288  0.0100  0.0210  0.1146
  813MPD2    C412021   2.149   0.993  13.300  0.0959  0.0433 -0.1182
  813MPD2    C512022   2.284   0.975  13.261 -0.7160 -0.0833  0.2285
  813MPD2     H12023   2.125   1.317  13.207  0.3936 -0.1584 -1.8460
  813MPD2    H112024   2.101   0.912  13.354  1.2984  0.5805  1.7625
  813MPD2    H212025   2.440   1.031  13.134 -0.5164 -1.3370 -1.4905
  813MPD2    H312026   2.328   0.876  13.268  0.0609  0.1561 -1.2773
  813MPD2     N12027   1.969   1.162  13.338 -0.3271  0.2813  0.3136
  813MPD2    H512028   1.950   1.262  13.334 -0.5312  0.3463  3.2035
  813MPD2    N112029   2.356   1.290  13.084  0.3318 -0.1583 -0.2002
  813MPD2    H712030   2.433   1.265  13.022  0.7330  2.2361 -0.6428
  814MPD2     C12031   3.197   2.351  12.654 -0.1334  0.0319  0.1348
  814MPD2    C112032   3.167   2.442  12.556  0.1048 -0.2266  0.6005
  814MPD2    C212033   3.176   2.577  12.576 -0.7074 -0.5511  0.1608
  814MPD2    C312034   3.231   2.625  12.700  0.0838 -0.5276 -0.0207
  814MPD2    C412035   3.278   2.533  12.789 -0.4220  0.5775 -0.5616
  814MPD2    C512036   3.267   2.399  12.761  0.1948  0.2326  0.6408
  814MPD2     H12037   3.146   2.647  12.500 -0.8933 -0.3636  0.4046
  814MPD2    H112038   3.322   2.565  12.882  1.9971 -1.3747 -1.0231
  814MPD2    H212039   3.200   2.245  12.631 -2.8042  0.1015 -0.4856
  814MPD2    H312040   3.316   2.341  12.838  0.2523 -0.0751  0.3678
  814MPD2     N12041   3.232   2.758  12.746  0.3334 -0.8260  0.4790
  814MPD2    H512042   3.246   2.769  12.846  0.1176  1.4331  0.2716
  814MPD2    N112043   3.116   2.402  12.433  0.1095 -0.3269 -0.4177
  814MPD2    H712044   3.104   2.468  12.358  0.1928 -1.0357 -1.0565
  815MPD2     C12045   3.501   0.751  12.035  0.2622 -0.1598 -0.2580
  815MPD2    C112046   3.433   0.637  12.074 -0.2881  0.4893  0.1298
  815MPD2    C212047   3.350   0.631  12.182 -0.2956  0.7533 -0.0268
  815MPD2    C312048   3.330   0.752  12.245 -0.0268  0.4200  0.7848
  815MPD2    C412049   3.384   0.869  12.206  0.4891  0.5517  1.0075
  815MPD2    C512050   3.464   0.867  12.098  0.1200  0.4194  0.0676
  815MPD2     H12051   3.300   0.541  12.217 -1.8483  1.2585 -0.9542
  815MPD2    H112052   3.354   0.967  12.240  2.0131  1.0513  0.9254
  815MPD2    H212053   3.584   0.750  11.966  0.9280  0.1674  0.5316
  815MPD2    H312054   3.517   0.959  12.076  0.5317 -0.1708 -1.3853
  815MPD2     N12055   3.231   0.752  12.345 -0.1786  0.0752  0.4303
  815MPD2    H512056   3.200   0.661  12.378  0.7485 -0.6393 -0.6846
  815MPD2    N112057   3.456   0.526  11.986  0.4099 -0.4219  0.3964
  815MPD2    H712058   3.506   0.534  11.898  2.5646 -0.2013  1.6522
  816MPD2     C12059   3.334   0.531  17.291  0.1766  0.2887  0.0362
  816MPD2    C112060   3.443   0.611  17.312  0.9222  0.6502 -0.3430
  816MPD2    C212061   3.567   0.557  17.274 -0.5786  0.0691  0.5833
  816MPD2    C312062   3.580   0.428  17.242  0.6549 -0.1096 -0.3817
  816MPD2    C412063   3.465   0.348  17.234  0.4085  0.0728 -0.0696
  816MPD2    C512064   3.342   0.401  17.253  0.0346 -0.7377 -0.0566
  816MPD2     H12065   3.659   0.614  17.279 -0.4372 -0.0273 -1.0603
  816MPD2    H112066   3.476   0.249  17.193 -0.4361  0.3283 -0.9128
  816MPD2    H212067   3.236   0.576  17.305 -0.2139 -0.5758  0.1531
  816MPD2    H312068   3.260   0.334  17.233 -2.5660  2.2286  0.7532
  816MPD2     N12069   3.711   0.381  17.205  0.7110 -0.0488 -0.4526
  816MPD2    H512070   3.790   0.446  17.210  0.5597 -0.0577  1.7760
  816MPD2    N112071   3.426   0.737  17.370  0.2407  0.6867 -0.2040
  816MPD2    H712072   3.335   0.771  17.401  0.1916  1.1146 -0.8102
  817MPD2     C12073   2.454   1.565   9.642 -0.0089 -0.3017 -0.4512
  817MPD2    C112074   2.351   1.472   9.623 -0.3349 -0.8604 -0.3562
  817MPD2    C212075   2.216   1.512   9.617  0.2175 -0.3728 -0.4515
  817MPD2    C312076   2.187   1.646   9.615 -0.7452  0.5706 -0.1319
  817MPD2    C412077   2.287   1.734   9.646 -0.7959 -0.5788 -0.6955
  817MPD2    C512078   2.416   1.695   9.657 -0.3753 -0.3609  0.3602
  817MPD2     H12079   2.141   1.440   9.584  0.7775 -0.9519 -0.4734
  817MPD2    H112080   2.272   1.840   9.664 -1.1171 -0.5683 -1.0198
  817MPD2    H212081   2.559   1.545   9.660  0.2796  1.3023 -0.3603
  817MPD2    H312082   2.496   1.767   9.671  1.8537 -2.9215  0.6571
  817MPD2     N12083   2.048   1.675   9.609 -0.0118 -0.4065 -0.0994
  817MPD2    H512084   1.993   1.594   9.582 -2.0916  0.4989  1.4996
  817MPD2    N112085   2.374   1.334   9.605  0.0924  0.7858 -0.3371
  817MPD2    H712086   2.292   1.274   9.614  2.3584 -2.1712  0.4029
  818MPD2     C12087   1.992   1.296  10.226 -0.0196 -0.1628 -0.2624
  818MPD2    C112088   1.993   1.288  10.367  0.5487  0.8242 -0.3049
  818MPD2    C212089   1.995   1.160  10.422 -0.1896 -0.6505  0.8014
  818MPD2    C312090   1.998   1.040  10.341  0.2069  0.3471 -0.3233
  818MPD2    C412091   2.008   1.056  10.210 -0.0778  0.2360  0.5601
  818MPD2    C512092   1.999   1.179  10.154 -0.7102  0.1283  0.4104
  818MPD2     H12093   2.002   1.161  10.530 -1.4466  0.3001  0.8633
  818MPD2    H112094   2.009   0.968  10.146 -0.0055 -1.1849  2.5187
  818MPD2    H212095   1.969   1.391  10.179 -0.4917 -0.3549 -0.4178
  818MPD2    H312096   1.997   1.189  10.046  2.1429 -1.5321  0.2130
  818MPD2     N12097   2.003   0.907  10.390  0.8962  0.0659  1.1912
  818MPD2    H512098   1.986   0.835  10.320 -1.6500  1.7519  0.0756
  818MPD2    N112099   1.986   1.405  10.444 -0.3058  0.2811 -0.2356
  818MPD2    H712100   2.012   1.389  10.541  2.8480 -0.0728 -1.1578
  819MPD2     C12101   0.068   4.202  15.371  0.0749  0.3341 -0.5039
  819MPD2    C112102   0.014   4.080  15.410 -0.3463  0.6513 -0.9621
  819MPD2    C212103   0.073   4.021  15.522  0.0116  0.1785 -0.2707
  819MPD2    C312104   0.173   4.082  15.596  0.5131 -0.5210  0.5522
  819MPD2    C412105   0.219   4.202  15.554  0.7135  0.3402 -0.1523
  819MPD2    C512106   0.173   4.253  15.434 -0.0812  0.4506  0.4021
  819MPD2     H12107   0.030   3.928  15.558 -0.5466  1.0674  1.3644
  819MPD2    H112108   0.305   4.251  15.600  1.3265 -0.3491 -0.5557
  819MPD2    H212109   0.034   4.250  15.280  0.3504  1.6624  0.0934
  819MPD2    H312110   0.228   4.333  15.387 -1.9724  0.6699 -1.4548
  819MPD2     N12111   0.214   4.019  15.719  0.4215  0.3923  0.2678
  819MPD2    H512112   0.184   3.923  15.733  0.8089 -0.3170 -3.7445
  819MPD2    N112113   4.655   4.008  15.344  0.2725  0.0710  0.2408
  819MPD2    H712114   4.631   3.917  15.383  1.0736  0.0738  0.7414
  820MPD2     C12115   3.871   4.198  14.651  0.3493 -0.1955 -0.2419
  820MPD2    C112116   3.994   4.244  14.677  0.5329 -0.3674 -0.0721
  820MPD2    C212117   4.070   4.174  14.766  0.2458 -1.1584 -0.7391
  820MPD2    C312118   4.017   4.075  14.849 -0.4336  0.4496  0.1829
  820MPD2    C412119   3.890   4.040  14.829  0.0072  0.3708  0.0814
  820MPD2    C512120   3.816   4.091  14.725  0.0822 -0.4328 -0.5203
  820MPD2     H12121   4.170   4.212  14.786 -0.5628 -0.5897  2.3717
  820MPD2    H112122   3.844   3.966  14.893 -1.0053 -1.0032 -2.2100
  820MPD2    H212123   3.809   4.244  14.574  1.0716  2.6545  0.8625
  820MPD2    H312124   3.716   4.049  14.713  0.2571 -1.0371  0.0937
  820MPD2     N12125   4.087   4.032  14.966  0.2060  0.2565  0.0011
  820MPD2    H512126   4.037   3.984  15.040  1.3243 -1.0236 -0.0868
  820MPD2    N112127   4.034   4.364  14.611  0.0684 -0.1510 -0.7379
  820MPD2    H712128   3.976   4.398  14.535 -0.0981  1.0173 -0.0770
  821MPD2     C12129   4.261   0.348  13.186  0.4364 -0.1456 -0.0043
  821MPD2    C112130   4.385   0.310  13.231  0.0882  0.7191 -0.2475
  821MPD2    C212131   4.494   0.353  13.160  0.6659 -0.6105  0.1089
  821MPD2    C312132   4.492   0.430  13.042 -0.1018  0.5342 -0.3093
  821MPD2    C412133   4.370   0.456  12.996  0.2494 -0.2746 -0.3775
  821MPD2    C512134   4.258   0.425  13.072  0.0602  0.0689 -0.0756
  821MPD2     H12135   4.588   0.334  13.210  1.1907  1.4556 -0.0550
  821MPD2    H112136   4.358   0.515  12.905  1.3339  1.0551  0.3432
  821MPD2    H212137   4.167   0.314  13.227 -0.3415 -1.6976 -3.0728
  821MPD2    H312138   4.162   0.448  13.028 -0.7162 -0.0659  1.5759
  821MPD2     N12139   4.601   0.481  12.977 -0.0626  0.1614  0.1744
  821MPD2    H512140   4.593   0.541  12.895 -0.0975 -1.1546 -0.7792
  821MPD2    N112141   4.414   0.232  13.340  0.1793  0.3717  0.4867
  821MPD2    H712142   4.513   0.218  13.358 -0.3625  0.5492  3.7254
  822MPD2     C12143   1.205   0.768  16.057 -0.0497 -0.3041 -0.0650
  822MPD2    C112144   1.194   0.718  16.183 -0.1320  0.3047 -0.1311
  822MPD2    C212145   1.089   0.760  16.259 -0.8050  1.0135 -0.6705
  822MPD2    C312146   0.997   0.853  16.222 -0.4374  0.2539 -0.1797
  822MPD2    C412147   0.998   0.891  16.092  1.0246  0.0792  0.1160
  822MPD2    C512148   1.106   0.851  16.016  0.3753  0.3708  0.3500
  822MPD2     H12149   1.077   0.713  16.356 -0.0306  2.0705 -0.0490
  822MPD2    H112150   0.936   0.963  16.039 -0.7701 -1.9548 -0.5733
  822MPD2    H212151   1.286   0.741  15.990 -1.3082  0.0441 -1.7230
  822MPD2    H312152   1.121   0.894  15.918  1.1423  0.3690  0.4622
  822MPD2     N12153   0.899   0.901  16.311 -0.4279 -0.7035 -0.1862
  822MPD2    H512154   0.902   0.865  16.406 -0.2128  0.5623  0.2803
  822MPD2    N112155   1.276   0.621  16.241 -0.3337 -0.0060  1.1104
  822MPD2    H712156   1.248   0.575  16.327 -0.3702 -0.9041  0.6271
  823MPD2     C12157   0.453   0.812  17.035 -0.4486 -0.3488  0.0359
  823MPD2    C112158   0.550   0.783  16.935  0.1255 -0.0881 -0.5361
  823MPD2    C212159   0.626   0.673  16.957  0.3223  0.8838 -0.0149
  823MPD2    C312160   0.605   0.590  17.069 -1.0780 -0.6889 -0.1879
  823MPD2    C412161   0.516   0.625  17.167 -1.0483  0.1466 -0.1888
  823MPD2    C512162   0.442   0.734  17.150  0.4862 -0.3334 -0.5421
  823MPD2     H12163   0.700   0.643  16.883 -1.0673  1.8283 -1.7717
  823MPD2    H112164   0.503   0.558  17.251 -0.6218  0.7195  0.3322
  823MPD2    H212165   0.376   0.888  17.024  1.7942  1.8098 -0.6806
  823MPD2    H312166   0.382   0.767  17.234  0.5292 -0.8436 -0.3066
  823MPD2     N12167   0.683   0.477  17.092  0.5376  0.3033 -1.1600
  823MPD2    H512168   0.653   0.417  17.168 -3.6041 -0.0312 -3.0052
  823MPD2    N112169   0.566   0.869  16.819 -0.1493 -0.7702  0.2528
  823MPD2    H712170   0.520   0.960  16.825  0.8274 -0.3687  1.7264
  824MPD2     C12171   1.474   4.603  16.035  0.3489  0.1466 -0.0718
  824MPD2    C112172   1.541   4.716  15.993  0.1625 -0.1963  0.0228
  824MPD2    C212173   1.597   4.716  15.865 -0.1542 -0.3083 -0.2371
  824MPD2    C312174   1.581   4.613  15.776 -0.2905 -0.1399  0.8587
  824MPD2    C412175   1.492   4.511  15.816 -0.0221 -0.6441 -0.9013
  824MPD2    C512176   1.448   4.502  15.947  0.2330  0.0045 -0.4358
  824MPD2     H12177   1.655   0.060  15.827  0.2784 -1.4495 -2.1058
  824MPD2    H112178   1.462   4.433  15.747 -0.0866 -4.5833  3.5613
  824MPD2    H212179   1.419   4.598  16.129  1.0709  1.7904  0.4410
  824MPD2    H312180   1.380   4.419  15.965  0.2206 -0.0326 -0.6613
  824MPD2     N12181   1.646   4.627  15.655 -0.1058 -0.2021 -0.2666
  824MPD2    H512182   1.706   4.707  15.641  0.5745 -1.0247 -2.0857
  824MPD2    N112183   1.536   0.093  16.078 -0.2862  0.3789  0.4342
  824MPD2    H712184   1.578   0.179  16.044 -2.1524  1.2002  0.1826
  825MPD2     C12185   2.290   0.108  15.206  0.6310  0.0704  0.3521
  825MPD2    C112186   2.163   0.139  15.242 -0.1256 -0.2888  0.0810
  825MPD2    C212187   2.124   0.277  15.258 -0.6443  0.1052  0.2721
  825MPD2    C312188   2.204   0.384  15.217 -0.0076 -0.0010 -0.1244
  825MPD2    C412189   2.325   0.348  15.164 -0.2501 -1.3340  0.0969
  825MPD2    C512190   2.376   0.214  15.167  0.1660 -0.0594  0.1243
  825MPD2     H12191   2.026   0.300  15.297  0.6168 -0.4447  3.7797
  825MPD2    H112192   2.383   0.430  15.123 -1.9045 -0.8304 -1.2136
  825MPD2    H212193   2.330   0.007  15.210 -0.6018 -0.4848 -1.6128
  825MPD2    H312194   2.480   0.190  15.149  0.4427  1.2156  0.0726
  825MPD2     N12195   2.177   0.517  15.237  0.0421  0.1734  0.3403
  825MPD2    H512196   2.257   0.579  15.229 -0.1547  0.4851  0.8675
  825MPD2    N112197   2.085   0.031  15.276  0.1339  0.1216  0.7002
  825MPD2    H712198   2.137   4.685  15.291  2.0853  1.2421  0.3662
  826MPD2     C12199   0.907   3.713  14.016 -0.0018 -0.2459  0.8080
  826MPD2    C112200   0.964   3.812  13.944 -0.4564 -0.1346  0.0596
  826MPD2    C212201   0.946   3.949  13.984 -0.1430  0.1732  0.7598
  826MPD2    C312202   0.874   3.983  14.096 -0.2194 -0.0262 -0.4809
  826MPD2    C412203   0.819   3.876  14.170 -0.3474 -0.6165 -0.5684
  826MPD2    C512204   0.829   3.744  14.124 -0.0984 -0.4303  0.2113
  826MPD2     H12205   0.996   4.032  13.936 -0.0488  0.8776  2.0594
  826MPD2    H112206   0.753   3.885  14.255  1.3542  1.8044  0.5088
  826MPD2    H212207   0.943   3.611  14.002  3.4765  1.1192 -0.3161
  826MPD2    H312208   0.782   3.669  14.187 -0.7520  0.7227  1.0759
  826MPD2     N12209   0.859   4.111  14.140 -0.2363  0.1225  0.6318
  826MPD2    H512210   0.802   4.117  14.223  1.9207  2.6674  1.9190
  826MPD2    N112211   1.053   3.776  13.840  0.6231  0.2061  0.2026
  826MPD2    H712212   1.082   3.681  13.820  0.8371  0.2104  0.4859
  827MPD2     C12213   2.404   0.070  10.401 -0.1043  1.1146  0.3416
  827MPD2    C112214   2.320   0.068  10.509 -0.0392 -0.1481 -0.1331
  827MPD2    C212215   2.191   0.095  10.483  0.1363  0.0487  0.3126
  827MPD2    C312216   2.139   0.079  10.351 -0.2386 -0.0070 -0.9246
  827MPD2    C412217   2.221   0.060  10.246  0.3337 -0.7353 -0.2407
  827MPD2    C512218   2.359   0.066  10.274  0.0934 -0.8655 -0.2716
  827MPD2     H12219   2.133   0.117  10.572  1.4262 -0.8978  1.3703
  827MPD2    H112220   2.193   0.050  10.141 -2.0356 -0.1437  0.3456
  827MPD2    H212221   2.510   0.068  10.424 -0.5660 -0.1408  2.3767
  827MPD2    H312222   2.426   0.068  10.189  0.3313 -0.8855 -0.0844
  827MPD2     N12223   1.996   0.100  10.335 -0.0376 -0.6859 -0.3004
  827MPD2    H512224   1.936   0.100  10.417 -1.2870 -2.5447 -1.2068
  827MPD2    N112225   2.365   0.036  10.644 -0.5826 -0.2210 -0.3933
  827MPD2    H712226   2.466   0.026  10.652 -0.5054 -0.1588 -1.3581
  828MPD2     C12227   0.059   1.604  12.484 -0.3707 -0.1403  0.7923
  828MPD2    C112228   0.007   1.523  12.390  0.0433 -0.6433 -0.1002
  828MPD2    C212229   0.047   1.539  12.256 -0.5219 -0.3470  0.4254
  828MPD2    C312230   0.128   1.642  12.218  0.7666 -0.3931 -0.4412
  828MPD2    C412231   0.181   1.723  12.315  0.1744 -0.1015  0.1320
  828MPD2    C512232   0.142   1.706  12.442 -0.1731  0.4271  0.0124
  828MPD2     H12233   0.010   1.475  12.177 -0.8539  1.5235 -0.9264
  828MPD2    H112234   0.243   1.811  12.305 -1.2299  0.8010 -0.4666
  828MPD2    H212235   0.031   1.601  12.588  2.6929  2.5891  1.7033
  828MPD2    H312236   0.199   1.754  12.521 -0.0061  0.6955 -0.2696
  828MPD2     N12237   0.167   1.672  12.084 -0.5732  0.8043 -0.4276
  828MPD2    H512238   0.223   1.755  12.067  0.2753  0.2349 -0.4350
  828MPD2    N112239   4.672   1.415  12.421  0.4260  0.5530 -0.0331
  828MPD2    H712240   4.631   1.364  12.344 -2.3250 -0.8778  2.3935
  829MPD2     C12241   4.184   0.987  11.886 -0.1855  0.2192 -0.4458
  829MPD2    C112242   4.193   0.897  11.984  0.4816 -0.5405 -0.2108
  829MPD2    C212243   4.244   0.916  12.102  0.0122 -0.8620 -1.0412
  829MPD2    C312244   4.278   1.053  12.134  0.6469 -0.0128 -0.4622
  829MPD2    C412245   4.261   1.151  12.041  0.7868 -0.0719  1.2551
  829MPD2    C512246   4.221   1.110  11.914  0.5791  0.5687  0.3617
  829MPD2     H12247   4.239   0.839  12.179 -0.9930  0.0104 -0.2367
  829MPD2    H112248   4.301   1.252  12.045  0.1542  0.1837  1.0662
  829MPD2    H212249   4.142   0.973  11.787 -2.2359  2.6303  0.0671
  829MPD2    H312250   4.220   1.183  11.833  1.7735  0.0045 -0.1486
  829MPD2     N12251   4.342   1.098  12.250 -0.7465 -0.5593 -0.0876
  829MPD2    H512252   4.389   1.188  12.242  1.0083 -1.5043 -0.3751
  829MPD2    N112253   4.168   0.764  11.935  0.7831  0.4707 -0.3591
  829MPD2    H712254   4.139   0.756  11.838  0.0160  0.0278 -0.0944
  830MPD2     C12255   0.518   3.482  15.902  0.2742  0.0003  0.2447
  830MPD2    C112256   0.416   3.560  15.845  0.0226  0.4107 -0.3212
  830MPD2    C212257   0.454   3.650  15.746 -0.1694  0.2827  0.7004
  830MPD2    C312258   0.587   3.661  15.706 -0.1043 -0.0657  0.0683
  830MPD2    C412259   0.684   3.573  15.752  0.2166  0.3076 -0.3029
  830MPD2    C512260   0.646   3.480  15.848  0.1761 -0.5032 -0.4931
  830MPD2     H12261   0.379   3.720  15.711 -0.7286 -1.0484 -0.7737
  830MPD2    H112262   0.788   3.578  15.722  0.2203 -0.9266 -0.4886
  830MPD2    H212263   0.489   3.399  15.966  1.3578 -1.7808 -1.5521
  830MPD2    H312264   0.721   3.404  15.869 -0.5089 -1.1101 -0.2271
  830MPD2     N12265   0.621   3.759  15.615 -0.2742 -0.6527  0.9882
  830MPD2    H512266   0.722   3.763  15.602 -0.5464 -0.7736 -1.1383
  830MPD2    N112267   0.289   3.567  15.916  0.3311 -0.2186 -0.7100
  830MPD2    H712268   0.299   3.528  16.009  1.5422  0.8984 -0.3724
  831MPD2     C12269   1.091   1.003  16.660  0.4023  0.6082  0.5532
  831MPD2    C112270   1.171   0.917  16.592  0.2211 -0.3372  1.1410
  831MPD2    C212271   1.147   0.777  16.594 -0.5621  0.0733 -0.1428
  831MPD2    C312272   1.032   0.730  16.656 -0.1623  0.4145 -0.3409
  831MPD2    C412273   0.967   0.808  16.742  0.8231  0.4141 -0.7190
  831MPD2    C512274   1.003   0.942  16.743 -0.1973 -0.2997 -0.4002
  831MPD2     H12275   1.204   0.713  16.528 -0.1870  1.9358 -1.6100
  831MPD2    H112276   0.881   0.776  16.799  1.1886 -0.2510 -0.5375
  831MPD2    H212277   1.105   1.111  16.663  1.4232  0.4490  1.4116
  831MPD2    H312278   0.948   1.004  16.814 -1.4436 -0.7222 -0.9882
  831MPD2     N12279   0.967   0.603  16.623 -0.0739 -1.0191  0.8084
  831MPD2    H512280   0.878   0.585  16.669 -0.1836  0.0315  1.0026
  831MPD2    N112281   1.266   0.977  16.509 -0.2214  0.2589  0.3584
  831MPD2    H712282   1.249   1.074  16.483 -1.5369  0.5640  2.3477
  832MPD2     C12283   4.039   2.022  17.422  0.2291 -0.0267 -0.1827
  832MPD2    C112284   3.983   2.149  17.400 -0.5135  0.6066  0.0571
  832MPD2    C212285   3.850   2.165  17.353  0.9186  0.1096 -1.1741
  832MPD2    C312286   3.769   2.050  17.346  0.4648 -0.7024 -0.5021
  832MPD2    C412287   3.823   1.926  17.382  0.0598  0.9591 -0.7224
  832MPD2    C512288   3.957   1.914  17.407 -0.5020  0.2395  0.0491
  832MPD2     H12289   3.823   2.262  17.313  0.0451  1.0529  1.7286
  832MPD2    H112290   3.775   1.830  17.370 -0.5635  1.0953  0.6760
  832MPD2    H212291   4.137   2.007  17.465 -0.0330  1.8451  1.0476
  832MPD2    H312292   3.996   1.816  17.431 -0.7001  0.6475  2.0433
  832MPD2     N12293   3.629   2.049  17.304  0.4110 -0.2013  0.4941
  832MPD2    H512294   3.580   1.962  17.323 -0.2978 -0.0213 -0.5246
  832MPD2    N112295   4.076   2.247  17.437 -0.0990 -0.0134  0.1878
  832MPD2    H712296   4.172   2.218  17.453  0.3487  1.1528 -0.4093
  833MPD2     C12297   1.442   3.476  12.024 -0.2548  0.6069  0.0548
  833MPD2    C112298   1.415   3.599  11.981  0.5362  0.2163 -0.1223
  833MPD2    C212299   1.452   3.633  11.847 -0.1927 -0.5019 -0.1240
  833MPD2    C312300   1.534   3.547  11.768  0.1747  0.0083  0.1649
  833MPD2    C412301   1.557   3.422  11.823  0.2664 -0.0710 -0.8905
  833MPD2    C512302   1.513   3.386  11.948  0.2234 -0.0189  0.1180
  833MPD2     H12303   1.417   3.728  11.809 -2.6536 -1.1426  0.5360
  833MPD2    H112304   1.611   3.347  11.766 -0.0413  0.1015 -1.4105
  833MPD2    H212305   1.417   3.445  12.125 -1.5379  1.3042 -0.0548
  833MPD2    H312306   1.538   3.287  11.984 -0.1157 -0.0240  0.3447
  833MPD2     N12307   1.565   3.566  11.632 -0.6638 -0.4201  0.0477
  833MPD2    H512308   1.603   3.483  11.588 -0.8923 -1.7481  2.3320
  833MPD2    N112309   1.328   3.683  12.061 -0.5078  0.0570 -0.2253
  833MPD2    H712310   1.267   3.635  12.127 -2.1410 -2.0866 -3.2885
  834MPD2     C12311   1.438   2.825  11.459  0.3922 -0.2527  0.0177
  834MPD2    C112312   1.409   2.861  11.333  0.0406  0.9830  0.3990
  834MPD2    C212313   1.431   2.990  11.290  0.6740 -0.2098  0.1631
  834MPD2    C312314   1.478   3.091  11.377  0.2532 -0.1054  0.2546
  834MPD2    C412315   1.511   3.050  11.497  0.1005 -0.5177  0.8047
  834MPD2    C512316   1.486   2.920  11.544 -0.0259 -0.2093 -0.6602
  834MPD2     H12317   1.411   3.021  11.188  1.8866 -1.3184 -0.4239
  834MPD2    H112318   1.551   3.121  11.569  0.6647  1.0448 -1.0520
  834MPD2    H212319   1.435   2.720  11.488  0.4091 -0.2209  0.1318
  834MPD2    H312320   1.516   2.882  11.641  2.0163 -0.7691 -1.5198
  834MPD2     N12321   1.499   3.218  11.325 -0.1985 -0.1767  0.7593
  834MPD2    H512322   1.467   3.230  11.229  1.4312 -1.5315  0.0507
  834MPD2    N112323   1.385   2.752  11.244  0.6476 -0.1248 -0.1235
  834MPD2    H712324   1.389   2.660  11.287  0.9727  1.1602  2.5676
  835MPD2     C12325   1.484   0.719  11.384 -0.1629  0.6862  0.8878
  835MPD2    C112326   1.382   0.809  11.352  0.2187  0.5840  0.1768
  835MPD2    C212327   1.313   0.863  11.455 -0.3751 -1.0026  0.4378
  835MPD2    C312328   1.339   0.824  11.588  0.8775 -0.0826 -0.1209
  835MPD2    C412329   1.437   0.735  11.618 -0.7815  0.2045 -0.9730
  835MPD2    C512330   1.511   0.683  11.513 -0.3677  0.5452  0.4691
  835MPD2     H12331   1.237   0.939  11.439  1.3023  0.8479  1.2734
  835MPD2    H112332   1.465   0.712  11.720 -1.2958 -0.1970 -0.9205
  835MPD2    H212333   1.535   0.669  11.302  2.0243  0.7493  2.2160
  835MPD2    H312334   1.596   0.617  11.520 -0.3686  0.7205  2.1035
  835MPD2     N12335   1.259   0.860  11.707 -0.1950 -0.4487 -0.6118
  835MPD2    H512336   1.287   0.813  11.792  1.7133  0.4457 -0.7658
  835MPD2    N112337   1.344   0.826  11.222 -0.6280  0.0419  0.1584
  835MPD2    H712338   1.378   0.758  11.154 -0.0820  0.3277  0.1415
  836MPD2     C12339   0.592   1.259  12.224 -0.3974  0.6978  0.3450
  836MPD2    C112340   0.595   1.185  12.107  0.3659 -0.2105 -0.4482
  836MPD2    C212341   0.477   1.176  12.027 -0.2116 -0.2749  0.4569
  836MPD2    C312342   0.359   1.235  12.061 -0.3799  0.5926  0.4405
  836MPD2    C412343   0.356   1.312  12.176 -0.5571 -0.0646 -0.3636
  836MPD2    C512344   0.472   1.321  12.254  0.2713 -0.7680 -0.1101
  836MPD2     H12345   0.477   1.131  11.928  1.1057  2.4815 -0.7911
  836MPD2    H112346   0.268   1.369  12.204 -0.5482  0.0099 -0.4883
  836MPD2    H212347   0.682   1.265  12.284  0.0332 -0.8483 -0.1605
  836MPD2    H312348   0.452   1.372  12.348 -1.3408 -1.3071 -0.1664
  836MPD2     N12349   0.243   1.223  11.982  0.0487 -0.3537 -0.0580
  836MPD2    H512350   0.159   1.269  12.015  0.3970  0.3735 -0.1705
  836MPD2    N112351   0.714   1.115  12.087 -0.2002 -0.4790  0.8148
  836MPD2    H712352   0.783   1.116  12.161 -0.0899  0.1195  0.7084
  837MPD2     C12353   4.241   0.354  10.377  0.3589 -0.2879 -0.1241
  837MPD2    C112354   4.107   0.341  10.360  0.2683  0.2134 -0.1180
  837MPD2    C212355   4.024   0.447  10.394  0.2039 -0.4164  0.1245
  837MPD2    C312356   4.079   0.565  10.440 -0.7376  0.2526 -0.0515
  837MPD2    C412357   4.212   0.572  10.470  0.0694  0.1236 -0.3036
  837MPD2    C512358   4.299   0.471  10.418  0.1150 -0.0885  0.4324
  837MPD2     H12359   3.918   0.435  10.376  0.0183 -0.4009  1.2147
  837MPD2    H112360   4.254   0.663  10.511 -1.0428 -0.4283  2.1013
  837MPD2    H212361   4.308   0.272  10.354 -0.3857 -0.5304 -1.4386
  837MPD2    H312362   4.407   0.478  10.422  0.1367 -0.0636 -0.1688
  837MPD2     N12363   3.988   0.666  10.469 -0.1998 -0.2857 -0.3746
  837MPD2    H512364   3.895   0.626  10.460 -1.0043  1.5734 -0.4976
  837MPD2    N112365   4.041   0.225  10.318 -0.2169  0.1754  0.6941
  837MPD2    H712366   3.942   0.218  10.338 -0.1895  0.7861  1.0495
  838MPD2     C12367   3.028   3.456  11.782  0.1468  0.4117  0.2012
  838MPD2    C112368   2.897   3.404  11.788 -0.4419 -0.4230 -0.2353
  838MPD2    C212369   2.851   3.351  11.900  0.1503 -0.5159 -0.5402
  838MPD2    C312370   2.929   3.367  12.012 -0.3210  0.5164  0.0037
  838MPD2    C412371   3.057   3.420  12.013  0.1934 -0.6071  0.3371
  838MPD2    C512372   3.105   3.464  11.892 -0.3557 -0.0294 -0.4042
  838MPD2     H12373   2.755   3.301  11.907 -0.4916  0.9300  1.0923
  838MPD2    H112374   3.121   3.420  12.101 -0.3769  0.0065  0.7573
  838MPD2    H212375   3.082   3.483  11.692 -0.3395  0.0312 -0.2027
  838MPD2    H312376   3.202   3.513  11.898  0.1015 -0.6390 -2.8328
  838MPD2     N12377   2.869   3.324  12.129  0.1324  0.0245  0.0475
  838MPD2    H512378   2.769   3.314  12.135  0.4264 -2.0092  1.7341
  838MPD2    N112379   2.813   3.409  11.674  0.0392 -0.3221 -0.9312
  838MPD2    H712380   2.716   3.382  11.684 -0.2203  0.0393 -2.4499
  839MPD2     C12381   2.112   3.112  11.834 -0.0575  0.4104  0.9410
  839MPD2    C112382   2.168   3.045  11.724  0.0506  0.5338  0.2463
  839MPD2    C212383   2.248   3.126  11.639  0.8846  0.0269  0.2263
  839MPD2    C312384   2.270   3.263  11.664 -0.3281  0.2321  0.1957
  839MPD2    C412385   2.224   3.328  11.773 -0.2916  0.5716  0.0537
  839MPD2    C512386   2.147   3.242  11.859 -0.3951 -0.5934 -0.1299
  839MPD2     H12387   2.300   3.081  11.556  0.9283  1.4173 -0.5003
  839MPD2    H112388   2.239   3.435  11.785 -1.1099  0.5708  1.0921
  839MPD2    H212389   2.044   3.058  11.899  0.1100  0.1047  0.8679
  839MPD2    H312390   2.093   3.293  11.938  1.7102 -0.7438  1.4288
  839MPD2     N12391   2.356   3.338  11.580  0.3046 -0.0515  0.3861
  839MPD2    H512392   2.392   3.424  11.621  0.3778 -1.1614  2.6763
  839MPD2    N112393   2.158   2.906  11.707  0.2451 -0.4233 -0.3300
  839MPD2    H712394   2.208   2.865  11.629  0.2367 -0.2471 -0.4275
  840MPD2     C12395   2.892   0.283  10.752 -0.7850 -0.8188 -0.3539
  840MPD2    C112396   2.846   0.280  10.885  0.2481 -0.1394 -0.5157
  840MPD2    C212397   2.907   0.361  10.980 -0.8083 -0.2298 -0.3905
  840MPD2    C312398   2.992   0.462  10.940 -0.5433 -0.5702 -0.6952
  840MPD2    C412399   3.018   0.470  10.807 -0.3989  0.4206 -0.3689
  840MPD2    C512400   2.983   0.377  10.721  0.7282 -0.5139 -0.1198
  840MPD2     H12401   2.885   0.343  11.084  0.6562 -1.3521 -0.2872
  840MPD2    H112402   3.080   0.552  10.773 -1.6094  1.4163 -0.1819
  840MPD2    H212403   2.840   0.224  10.677 -0.5846  1.5990 -2.4205
  840MPD2    H312404   3.019   0.392  10.620  0.0097 -1.5710 -0.5416
  840MPD2     N12405   3.042   0.561  11.023  0.0866  0.3272 -0.1743
  840MPD2    H512406   3.108   0.627  10.984  0.3436  0.1135 -0.1078
  840MPD2    N112407   2.736   0.189  10.904  0.6613  0.2035 -0.4044
  840MPD2    H712408   2.720   0.132  10.822 -1.1278  1.3328 -0.8286
  841MPD2     C12409   2.205   1.317  14.278 -0.2601 -0.0891  0.4898
  841MPD2    C112410   2.267   1.211  14.339 -0.3209 -0.5756  0.4164
  841MPD2    C212411   2.385   1.227  14.399 -0.0044 -0.5178  0.5014
  841MPD2    C312412   2.437   1.356  14.410 -0.1309  0.2578 -0.0425
  841MPD2    C412413   2.367   1.463  14.353 -0.1324  0.0923 -0.4373
  841MPD2    C512414   2.253   1.436  14.286  0.3079  0.4715 -0.2094
  841MPD2     H12415   2.435   1.146  14.451  1.0197  0.7559  1.4851
  841MPD2    H112416   2.395   1.567  14.368  0.3671  0.2280 -2.3989
  841MPD2    H212417   2.113   1.298  14.224  0.2130 -1.9595  0.3287
  841MPD2    H312418   2.203   1.520  14.238  0.4558  0.1304 -0.9671
  841MPD2     N12419   2.562   1.378  14.486  0.1718 -0.2640 -0.1800
  841MPD2    H512420   2.604   1.290  14.515 -0.1553 -0.0083  1.0620
  841MPD2    N112421   2.214   1.079  14.335 -0.1384 -0.4022  0.1017
  841MPD2    H712422   2.271   1.000  14.362  2.2151  1.1756 -0.3156
  842MPD2     C12423   3.089   2.369  16.947 -0.0803 -0.2270  0.1869
  842MPD2    C112424   2.975   2.288  16.936  0.0004 -0.4280  0.9060
  842MPD2    C212425   2.931   2.231  17.051 -0.2920 -0.2807  0.2213
  842MPD2    C312426   2.998   2.248  17.172 -0.2201 -1.0494  0.7986
  842MPD2    C412427   3.096   2.340  17.186 -0.7503  0.7190  0.5814
  842MPD2    C512428   3.145   2.398  17.069 -0.1126 -0.4726  0.3199
  842MPD2     H12429   2.853   2.156  17.043 -0.6240  0.1542 -0.7005
  842MPD2    H112430   3.148   2.357  17.280  1.5738 -0.0575 -0.5779
  842MPD2    H212431   3.136   2.407  16.857  0.2522 -0.4752  0.2562
  842MPD2    H312432   3.227   2.466  17.093  0.4219 -1.4843  1.4128
  842MPD2     N12433   2.956   2.184  17.287 -0.1647  0.3447  0.2829
  842MPD2    H512434   2.970   2.233  17.375  2.3551  1.6105 -0.8220
  842MPD2    N112435   2.918   2.258  16.807 -0.6367  0.1608 -0.2024
  842MPD2    H712436   2.964   2.302  16.728  0.7884 -1.4377 -0.2613
  843MPD2     C12437   0.723   2.858  17.169 -0.3904  0.4596 -0.1369
  843MPD2    C112438   0.671   2.810  17.286 -0.3098 -0.0411 -0.2240
  843MPD2    C212439   0.712   2.852  17.408 -0.1788  0.5611 -0.4331
  843MPD2    C312440   0.813   2.950  17.415 -0.3978 -0.7218 -0.2267
  843MPD2    C412441   0.869   2.994  17.301  0.2774 -0.0260  0.3996
  843MPD2    C512442   0.826   2.950  17.177  0.0995 -0.6807  0.4074
  843MPD2     H12443   0.665   2.817  17.499 -2.3867 -0.1327 -1.8334
  843MPD2    H112444   0.940   3.077  17.298 -0.3989  0.5465  0.2316
  843MPD2    H212445   0.689   2.819  17.074  0.3777 -1.0639  0.2051
  843MPD2    H312446   0.880   2.983  17.089  1.9286 -4.0985  0.2570
  843MPD2     N12447   0.856   3.001  17.539  0.4500 -0.2551  0.6429
  843MPD2    H512448   0.925   3.075  17.538 -1.2080  1.2781 -1.1529
  843MPD2    N112449   0.576   2.708  17.273  0.3738 -0.2637  0.5886
  843MPD2    H712450   0.548   2.687  17.177 -1.5461  1.0801  0.8706
  844MPD2     C12451   3.377   1.132  16.642 -0.0460  0.6378  0.4148
  844MPD2    C112452   3.516   1.147  16.633 -0.4214 -0.3291 -0.0621
  844MPD2    C212453   3.581   1.232  16.713  0.2884 -0.0810 -0.3608
  844MPD2    C312454   3.513   1.331  16.786  0.1511  0.0821  0.3058
  844MPD2    C412455   3.377   1.331  16.776  0.8111  0.3284  0.6330
  844MPD2    C512456   3.307   1.238  16.699 -0.5043 -0.2861 -0.6990
  844MPD2     H12457   3.688   1.225  16.728  0.2898  1.1491  0.2623
  844MPD2    H112458   3.332   1.412  16.833 -1.6504  0.3242 -1.2835
  844MPD2    H212459   3.322   1.055  16.588 -0.2645 -0.6748  2.5140
  844MPD2    H312460   3.202   1.246  16.674 -0.5370  1.8029  0.1213
  844MPD2     N12461   3.593   1.420  16.861  0.4043 -0.4708  0.2176
  844MPD2    H512462   3.693   1.410  16.848  0.5627  1.4088 -0.0296
  844MPD2    N112463   3.597   1.068  16.551 -0.5962  0.0284 -0.0234
  844MPD2    H712464   3.695   1.095  16.548 -0.4870 -0.1797  1.4758
  845MPD2     C12465   4.014   2.406  16.941  0.1051 -0.6845 -0.2085
  845MPD2    C112466   3.889   2.371  16.986  0.7520 -0.3321 -0.2987
  845MPD2    C212467   3.843   2.245  16.946 -0.0609  0.4876 -0.3556
  845MPD2    C312468   3.911   2.155  16.868  0.2600  0.2116 -0.5242
  845MPD2    C412469   4.032   2.197  16.821 -0.2441 -0.1090  0.2749
  845MPD2    C512470   4.082   2.318  16.859  0.5254 -0.2464  0.6905
  845MPD2     H12471   3.752   2.211  16.996 -2.1600  3.4106 -2.1602
  845MPD2    H112472   4.089   2.126  16.763  0.0687 -1.1802  1.8838
  845MPD2    H212473   4.058   2.504  16.952 -0.4598 -0.7933  2.9782
  845MPD2    H312474   4.184   2.346  16.834  0.1411  0.7411  0.2254
  845MPD2     N12475   3.870   2.017  16.859 -0.6004 -0.4497  0.3501
  845MPD2    H512476   3.930   1.958  16.802  0.2388  0.9519 -0.2153
  845MPD2    N112477   3.810   2.446  17.070 -0.2487 -0.4053 -0.0530
  845MPD2    H712478   3.726   2.400  17.104 -1.3526  1.1071 -0.6911
  846MPD2     C12479   0.591   2.543  13.487 -0.3112 -0.4876 -0.8680
  846MPD2    C112480   0.566   2.674  13.474 -0.1504  0.3624 -0.0927
  846MPD2    C212481   0.515   2.739  13.582  0.3832 -0.1236 -0.5397
  846MPD2    C312482   0.480   2.679  13.700  0.0227  0.0894  0.1001
  846MPD2    C412483   0.487   2.545  13.707 -0.6492 -0.3022  0.4696
  846MPD2    C512484   0.542   2.474  13.599 -0.1668  0.4708 -0.1811
  846MPD2     H12485   0.500   2.846  13.570 -0.6422  0.0114  1.8699
  846MPD2    H112486   0.463   2.482  13.791 -1.2655  0.6800  1.0307
  846MPD2    H212487   0.639   2.489  13.406  1.2764  2.8660 -2.1706
  846MPD2    H312488   0.561   2.368  13.615 -2.7349 -0.0894 -0.8646
  846MPD2     N12489   0.411   2.745  13.799 -0.0128 -0.2481  0.2673
  846MPD2    H512490   0.389   2.840  13.772  0.2490 -0.1332  0.4518
  846MPD2    N112491   0.599   2.745  13.355  1.0312  0.8381  0.0210
  846MPD2    H712492   0.597   2.845  13.367 -0.1277  1.0406 -1.8566
  847MPD2     C12493   0.438   3.938  14.896 -0.4923  0.5649  0.4202
  847MPD2    C112494   0.537   4.032  14.890  0.3192 -0.1428 -0.2144
  847MPD2    C212495   0.658   4.011  14.952 -0.1629  0.7634  0.7677
  847MPD2    C312496   0.685   3.893  15.019 -0.1302 -0.0035 -0.3064
  847MPD2    C412497   0.591   3.791  15.014 -0.9618 -0.4748  0.6755
  847MPD2    C512498   0.463   3.822  14.967 -0.5056 -0.5188 -0.6671
  847MPD2     H12499   0.733   4.089  14.946  2.0273 -1.2527  1.7959
  847MPD2    H112500   0.606   3.694  15.060  4.2130 -1.8818 -3.9255
  847MPD2    H212501   0.342   3.951  14.848  0.3636  1.4997 -1.0070
  847MPD2    H312502   0.403   3.732  14.960 -0.8337 -0.2773 -0.9188
  847MPD2     N12503   0.809   3.857  15.075  0.0335 -0.5915  0.1287
  847MPD2    H512504   0.818   3.766  15.120  2.3523  0.4117  1.6771
  847MPD2    N112505   0.529   4.160  14.842 -0.2882 -0.3322  0.4397
  847MPD2    H712506   0.614   4.214  14.853 -0.5305  0.2925 -0.7215
  848MPD2     C12507   3.240   2.093  16.608 -0.4290 -0.2139 -0.0594
  848MPD2    C112508   3.342   2.158  16.677  0.7260  0.4460  1.1324
  848MPD2    C212509   3.409   2.262  16.614 -0.4633 -0.6814 -0.2496
  848MPD2    C312510   3.377   2.295  16.484 -0.0181  1.3299  0.0198
  848MPD2    C412511   3.271   2.236  16.420  0.0389  0.3179 -0.3430
  848MPD2    C512512   3.203   2.136  16.483 -0.0195 -0.1704 -0.4351
  848MPD2     H12513   3.489   2.317  16.662 -0.2725  0.0876 -1.4320
  848MPD2    H112514   3.241   2.265  16.320  0.8912 -1.0730 -0.9937
  848MPD2    H212515   3.175   2.025  16.662  1.5194 -0.0149  2.5544
  848MPD2    H312516   3.116   2.093  16.436 -1.2258  1.0260  0.7041
  848MPD2     N12517   3.434   2.400  16.413 -0.0061  0.3445  0.2890
  848MPD2    H512518   3.392   2.430  16.325  2.4700  0.7699 -0.7558
  848MPD2    N112519   3.356   2.136  16.815 -0.4735 -0.5371 -0.2282
  848MPD2    H712520   3.409   2.207  16.866 -2.6757 -0.0565  1.3709
  849MPD2     C12521   2.974   2.041  13.621  0.4870 -0.3214 -0.3643
  849MPD2    C112522   2.923   1.922  13.658  0.3378 -0.5769  0.2248
  849MPD2    C212523   2.805   1.920  13.728  0.3547  0.0398 -0.1369
  849MPD2    C312524   2.742   2.036  13.769  0.6018 -0.3860  0.1177
  849MPD2    C412525   2.785   2.158  13.719  0.8648  0.2820 -0.0052
  849MPD2    C512526   2.904   2.163  13.650  0.3523  0.0731 -0.0347
  849MPD2     H12527   2.772   1.828  13.774  1.7096 -0.8197 -0.8608
  849MPD2    H112528   2.745   2.254  13.751  0.8006  0.0016  0.7493
  849MPD2    H212529   3.068   2.056  13.570  1.3232 -0.8008  1.0358
  849MPD2    H312530   2.951   2.256  13.623 -0.9985  0.6544 -0.3812
  849MPD2     N12531   2.634   2.020  13.849  0.0145  0.1609  0.3900
  849MPD2    H512532   2.608   1.923  13.862 -2.3992  0.9308  1.3643
  849MPD2    N112533   2.986   1.799  13.639 -0.0606  0.1572  0.4672
  849MPD2    H712534   2.939   1.714  13.668 -0.4191 -0.2486 -1.2936
  850MPD2     C12535   0.907   0.304  14.920  0.4676  0.5538 -0.1319
  850MPD2    C112536   0.896   0.348  15.053 -0.0504 -0.3009 -0.1804
  850MPD2    C212537   1.014   0.334  15.127 -0.1770  0.0879  0.7990
  850MPD2    C312538   1.128   0.269  15.079  0.3568 -0.4049  0.0681
  850MPD2    C412539   1.128   0.232  14.949 -0.3770 -0.7209  0.3498
  850MPD2    C512540   1.019   0.244  14.870 -0.0999  0.5987 -0.5195
  850MPD2     H12541   1.005   0.374  15.228  0.8660 -1.8043  1.6358
  850MPD2    H112542   1.213   0.183  14.903  0.7730  1.1773  0.4489
  850MPD2    H212543   0.816   0.298  14.861  0.7948 -0.8943 -0.4958
  850MPD2    H312544   1.018   0.224  14.763  1.0869 -1.2228 -0.1847
  850MPD2     N12545   1.249   0.253  15.152  0.1603  0.4579  0.1465
  850MPD2    H512546   1.332   0.221  15.103  0.2676  2.1118 -0.7434
  850MPD2    N112547   0.772   0.417  15.085  0.0233 -0.1135  0.0146
  850MPD2    H712548   0.714   0.438  15.004 -2.8361 -1.8922  1.6178
  851MPD2     C12549   0.902   4.633  15.779 -0.2252 -0.0835 -0.2155
  851MPD2    C112550   0.859   4.656  15.649  0.4839 -0.4088 -0.1349
  851MPD2    C212551   0.842   4.547  15.562 -0.4242  0.4050  0.2125
  851MPD2    C312552   0.869   4.418  15.606  0.6274 -0.3511  0.1683
  851MPD2    C412553   0.921   4.400  15.733 -0.7689  1.1516 -0.5623
  851MPD2    C512554   0.932   4.504  15.821 -0.4003 -0.1666  0.1841
  851MPD2     H12555   0.801   4.558  15.462  1.0702  1.7475 -0.2764
  851MPD2    H112556   0.944   4.303  15.777 -1.2559  0.1947 -2.3736
  851MPD2    H212557   0.931   4.712  15.847 -1.4197  0.6821 -0.5820
  851MPD2    H312558   0.964   4.483  15.922 -0.2480 -2.1558 -0.2814
  851MPD2     N12559   0.836   4.305  15.524 -0.1584 -0.0244  0.2401
  851MPD2    H512560   0.785   4.312  15.437  1.6547 -1.1936 -0.9415
  851MPD2    N112561   0.845   0.049  15.603  0.0543 -0.5576  0.8702
  851MPD2    H712562   0.872   0.117  15.673  0.3117 -0.0038  0.2268
  852MPD2     C12563   4.450   2.196   9.887 -0.3010  0.2934 -0.6348
  852MPD2    C112564   4.439   2.276   9.994  0.3395 -0.6824 -0.1097
  852MPD2    C212565   4.549   2.339  10.036  0.1801  1.3395  0.0919
  852MPD2    C312566   4.670   2.342   9.973 -0.1130 -0.0084 -0.0586
  852MPD2    C412567   4.681   2.277   9.852  0.4974  0.1527  0.2704
  852MPD2    C512568   4.567   2.205   9.812  0.2037 -0.3464  0.0183
  852MPD2     H12569   4.547   2.399  10.126  1.2122  0.7950  0.4821
  852MPD2    H112570   0.037   2.260   9.803  0.5133  0.3544  0.2326
  852MPD2    H212571   4.369   2.127   9.864 -0.5545  1.4544 -3.2125
  852MPD2    H312572   4.575   2.149   9.720  0.7532  1.9731 -1.3165
  852MPD2     N12573   0.029   2.426  10.034 -0.6118  0.0503 -0.3420
  852MPD2    H512574   0.008   2.468  10.124 -0.8196 -0.2131 -0.2653
  852MPD2    N112575   4.323   2.287  10.073 -0.4692 -0.4668 -0.1739
  852MPD2    H712576   4.339   2.338  10.159  0.2362 -0.7372 -0.1481
  853MPD2     C12577   2.624   1.981  12.650 -0.8289 -0.7454  0.0346
  853MPD2    C112578   2.504   1.933  12.604  0.5392 -0.9602  0.1043
  853MPD2    C212579   2.501   1.839  12.494  0.0776  0.4333 -0.5502
  853MPD2    C312580   2.618   1.804  12.426 -0.5595  0.2693 -0.6147
  853MPD2    C412581   2.734   1.843  12.490 -0.1516 -0.2560  0.3424
  853MPD2    C512582   2.735   1.931  12.593 -1.2603 -0.0007 -0.6018
  853MPD2     H12583   2.406   1.820  12.444  0.4482  0.5544 -1.2967
  853MPD2    H112584   2.831   1.821  12.447  0.4941  0.1487  1.5846
  853MPD2    H212585   2.627   2.044  12.738  1.2803 -0.2221 -0.4166
  853MPD2    H312586   2.831   1.964  12.633 -0.6124 -0.2331 -1.9570
  853MPD2     N12587   2.630   1.747  12.303  0.0455 -0.4341  0.0138
  853MPD2    H512588   2.724   1.755  12.266 -0.5554  1.6618 -1.0568
  853MPD2    N112589   2.389   1.969  12.680  0.1831  0.0255  0.0941
  853MPD2    H712590   2.407   2.057  12.728 -1.9176  0.1375  0.6931
  854MPD2     C12591   4.106   2.516  12.839 -0.2682 -1.2960  0.0534
  854MPD2    C112592   4.109   2.428  12.732  0.1059  0.2453  0.4910
  854MPD2    C212593   4.098   2.295  12.754 -0.0305 -0.4757  0.7871
  854MPD2    C312594   4.077   2.253  12.887  0.2736 -0.7043 -0.3343
  854MPD2    C412595   4.065   2.344  12.987 -0.4224  0.0639  0.7970
  854MPD2    C512596   4.079   2.480  12.972  0.6747  0.4492 -0.0634
  854MPD2     H12597   4.091   2.226  12.670  1.8173  0.6468 -0.2894
  854MPD2    H112598   4.049   2.314  13.090 -4.3632 -1.0126 -0.1250
  854MPD2    H212599   4.119   2.623  12.827 -0.4456 -1.4044 -1.0887
  854MPD2    H312600   4.064   2.550  13.053 -0.2236  1.2336 -0.9084
  854MPD2     N12601   4.048   2.118  12.924  0.2610  0.6612  0.0666
  854MPD2    H512602   4.026   2.100  13.022 -0.5660  2.0833  0.1540
  854MPD2    N112603   4.134   2.462  12.594 -0.5485 -0.0624 -0.3127
  854MPD2    H712604   4.128   2.383  12.531  0.3211 -1.0099  0.7975
  855MPD2     C12605   4.482   2.058  13.547 -0.0766  0.4335  0.2616
  855MPD2    C112606   4.467   1.919  13.549  0.0430 -0.0060  0.6749
  855MPD2    C212607   4.402   1.854  13.440 -0.1676 -0.5288 -0.2630
  855MPD2    C312608   4.391   1.923  13.322 -0.2468 -0.0382 -0.1485
  855MPD2    C412609   4.415   2.056  13.320  0.2361 -0.1997  0.0489
  855MPD2    C512610   4.438   2.127  13.437 -0.9068 -0.5111  0.1090
  855MPD2     H12611   4.363   1.753  13.436  1.6180 -1.2659  1.1447
  855MPD2    H112612   4.410   2.125  13.236  2.0655 -2.4386 -1.9019
  855MPD2    H212613   4.501   2.112  13.639 -1.2332 -0.2817  0.9227
  855MPD2    H312614   4.442   2.235  13.447 -0.5238 -0.5564  0.4464
  855MPD2     N12615   4.327   1.873  13.207  0.2160 -0.2175 -0.5239
  855MPD2    H512616   4.325   1.946  13.137  0.1062  2.2535  2.0607
  855MPD2    N112617   4.497   1.840  13.659 -0.3389 -0.4145  0.3978
  855MPD2    H712618   4.461   1.745  13.650  3.0230 -1.9054  2.4479
  856MPD2     C12619   2.157   2.851  14.030 -0.4295 -0.8257  0.7484
  856MPD2    C112620   2.100   2.969  14.075  0.1050 -0.0021 -0.1505
  856MPD2    C212621   1.969   2.996  14.044  0.4787 -0.0122 -0.0289
  856MPD2    C312622   1.896   2.917  13.957  0.0164  0.1914 -0.3315
  856MPD2    C412623   1.956   2.807  13.903  0.1618 -0.4378 -0.1757
  856MPD2    C512624   2.080   2.773  13.948 -0.3320  0.2017 -0.0066
  856MPD2     H12625   1.931   3.092  14.074 -2.0606 -0.6848 -1.1051
  856MPD2    H112626   1.903   2.737  13.839 -1.8583  1.5799 -0.6909
  856MPD2    H212627   2.255   2.813  14.058  0.3646  1.8582  1.6234
  856MPD2    H312628   2.126   2.686  13.901 -0.3132  0.0670  0.2614
  856MPD2     N12629   1.769   2.955  13.921 -0.3187 -0.5464 -0.0687
  856MPD2    H512630   1.715   2.906  13.850  2.6517 -2.1080 -1.2216
  856MPD2    N112631   2.174   3.053  14.160 -0.2149 -0.0137 -0.6341
  856MPD2    H712632   2.123   3.135  14.189  0.1707  0.4890 -1.3724
  857MPD2     C12633   2.928   0.128  13.022 -0.1328  1.0654  0.5329
  857MPD2    C112634   3.066   0.100  13.012  0.7353 -0.6307  0.6483
  857MPD2    C212635   3.156   0.199  13.043 -0.2935 -1.0644 -0.3779
  857MPD2    C312636   3.119   0.328  13.064  0.1574  0.1835 -0.3143
  857MPD2    C412637   2.978   0.355  13.056  0.8806  0.1026 -0.6806
  857MPD2    C512638   2.887   0.256  13.045  0.7124  0.1949 -0.3350
  857MPD2     H12639   3.264   0.190  13.035 -0.3087 -2.0360  0.5536
  857MPD2    H112640   2.947   0.455  13.082 -1.0265 -0.7832  0.4557
  857MPD2    H212641   2.850   0.056  13.003 -1.7501  2.7992  0.6530
  857MPD2    H312642   2.785   0.280  13.070  1.1887  1.1806  0.6392
  857MPD2     N12643   3.209   0.424  13.100 -1.0869  0.0394  0.5003
  857MPD2    H512644   3.306   0.393  13.109  0.0235  3.0630 -1.0776
  857MPD2    N112645   3.101   4.704  12.980  0.0791 -0.2422 -0.0255
  857MPD2    H712646   3.024   4.640  12.965  0.5013 -0.7242 -0.1393
  858MPD2     C12647   4.109   4.246  16.554 -0.1002  1.1142  0.2445
  858MPD2    C112648   4.159   4.134  16.619 -0.1464 -0.2255  0.4992
  858MPD2    C212649   4.173   4.140  16.754  0.2582  0.2222 -0.2175
  858MPD2    C312650   4.134   4.251  16.823 -0.2035  0.2163 -0.4374
  858MPD2    C412651   4.075   4.359  16.766  0.5924 -0.2604 -0.5374
  858MPD2    C512652   4.072   4.350  16.631  0.6489 -0.3262  0.1696
  858MPD2     H12653   4.219   4.053  16.800 -1.7601  0.0633  1.5219
  858MPD2    H112654   4.038   4.447  16.817 -0.0199 -1.4554  1.0991
  858MPD2    H212655   4.083   4.241  16.449  1.4796 -0.5663 -0.0714
  858MPD2    H312656   4.033   4.433  16.574 -1.2239 -1.9062 -0.8419
  858MPD2     N12657   4.144   4.257  16.966  0.4820 -0.4668  0.1926
  858MPD2    H512658   4.107   4.343  17.006  2.0815  0.0132  0.6249
  858MPD2    N112659   4.163   4.021  16.533 -0.2776 -0.6570  0.0086
  858MPD2    H712660   4.131   4.037  16.438 -3.2321  0.0221  1.1170
  859MPD2     C12661   2.734   1.974  15.671 -0.0600 -0.6488 -0.9036
  859MPD2    C112662   2.689   1.921  15.547 -0.2864 -0.1510 -0.2318
  859MPD2    C212663   2.607   1.819  15.546  0.3943  0.5988 -0.3204
  859MPD2    C312664   2.572   1.756  15.664  0.8100 -0.1659 -0.1024
  859MPD2    C412665   2.601   1.812  15.787 -0.1286  0.1275  0.4598
  859MPD2    C512666   2.679   1.921  15.790  0.3338 -0.1155 -0.7299
  859MPD2     H12667   2.588   1.782  15.446  0.1693 -0.8298  0.2533
  859MPD2    H112668   2.566   1.771  15.881 -1.8766  1.4989  0.4026
  859MPD2    H212669   2.806   2.055  15.675  0.6610 -1.3074 -0.3816
  859MPD2    H312670   2.706   1.969  15.883  2.2944 -0.3914 -1.1737
  859MPD2     N12671   2.491   1.644  15.665 -0.7760 -0.1472 -0.3294
  859MPD2    H512672   2.443   1.630  15.754 -0.5026  0.9884 -0.0068
  859MPD2    N112673   2.738   1.987  15.430 -0.4259  0.2216 -0.3215
  859MPD2    H712674   2.790   2.071  15.455  0.0814 -0.8241  2.2233
  860MPD2     C12675   0.163   1.876  11.351  0.7301  0.1562  0.5414
  860MPD2    C112676   0.181   1.983  11.433  0.0754 -0.0442  0.3461
  860MPD2    C212677   0.095   1.997  11.544  1.2100 -0.7522  0.8148
  860MPD2    C312678   4.720   1.910  11.562  0.6693 -0.1546 -0.3822
  860MPD2    C412679   4.698   1.813  11.463 -0.1817  0.3518  0.1375
  860MPD2    C512680   0.049   1.796  11.361 -0.5272 -0.5425 -0.0211
  860MPD2     H12681   0.114   2.077  11.615  0.7776  0.3765 -0.3388
  860MPD2    H112682   4.616   1.744  11.479  0.7805 -0.8567 -0.1454
  860MPD2    H212683   0.221   1.864  11.260 -0.7458  0.0090 -0.3859
  860MPD2    H312684   0.041   1.711  11.296 -0.9821  0.4550 -1.2649
  860MPD2     N12685   4.652   1.919  11.683  0.7098 -0.7153  0.2386
  860MPD2    H512686   4.676   2.000  11.739  1.8452 -0.8375 -0.0664
  860MPD2    N112687   0.283   2.076  11.416  0.8352 -0.0951  0.4566
  860MPD2    H712688   0.298   2.132  11.499  1.8839 -2.9868  2.1924
  861MPD2     C12689   3.592   4.213  11.129  0.7615  0.3295  0.2284
  861MPD2    C112690   3.460   4.176  11.159 -0.5228  0.4007  0.8211
  861MPD2    C212691   3.364   4.222  11.075 -0.2939 -0.4522  0.0586
  861MPD2    C312692   3.387   4.305  10.967  0.4970  0.0719 -0.6854
  861MPD2    C412693   3.517   4.337  10.931  0.1939 -0.0681 -0.4165
  861MPD2    C512694   3.618   4.288  11.012 -0.0039 -0.2762  0.2048
  861MPD2     H12695   3.263   4.200  11.109 -0.8681  0.2508 -1.2006
  861MPD2    H112696   3.539   4.395  10.842 -0.9053  0.6923 -0.2010
  861MPD2    H212697   3.683   4.180  11.178 -1.6066 -0.2364  4.1495
  861MPD2    H312698   3.722   4.315  10.994  0.1117 -0.5094  0.5332
  861MPD2     N12699   3.294   4.363  10.886 -0.0904 -0.4542  0.0695
  861MPD2    H512700   3.326   4.439  10.826  0.7986 -0.4351  0.5624
  861MPD2    N112701   3.427   4.084  11.259 -0.5450  0.5729  0.7048
  861MPD2    H712702   3.329   4.074  11.282 -0.3028 -1.8025  0.8027
  862MPD2     C12703   3.194   4.625  10.253  0.0824 -0.2556  0.0173
  862MPD2    C112704   3.090   4.583  10.340  0.4185  0.3693  0.8037
  862MPD2    C212705   2.988   4.517  10.285 -0.5429 -0.4849  0.5539
  862MPD2    C312706   2.988   4.485  10.153  0.2213  0.2923 -0.1052
  862MPD2    C412707   3.089   4.524  10.066  0.2069 -0.2735  0.2675
  862MPD2    C512708   3.195   4.590  10.123  0.0113 -0.5118 -0.8600
  862MPD2     H12709   2.906   4.493  10.352  0.2230  1.1060  2.0466
  862MPD2    H112710   3.090   4.500   9.961  0.0922  1.5150 -0.1494
  862MPD2    H212711   3.279   4.680  10.292  0.4336 -1.2160  0.6196
  862MPD2    H312712   3.275   4.619  10.057  0.6277  1.5218  0.7680
  862MPD2     N12713   2.881   4.400  10.102 -0.1649  0.8377  0.1623
  862MPD2    H512714   2.889   4.344  10.017  0.0602  1.5968 -0.3166
  862MPD2    N112715   3.089   4.604  10.481  0.2147 -0.1010 -0.0061
  862MPD2    H712716   3.028   4.543  10.534 -1.5407  0.2630 -1.5538
  863MPD2     C12717   2.160   3.918  16.948 -0.0923  0.2451  0.4276
  863MPD2    C112718   2.189   3.827  16.856  0.3661 -0.7899 -0.2880
  863MPD2    C212719   2.281   3.725  16.888  0.8179 -0.1717  0.9407
  863MPD2    C312720   2.339   3.719  17.012  0.0674 -0.7615  0.5319
  863MPD2    C412721   2.308   3.819  17.103 -1.0280  0.5600 -0.3699
  863MPD2    C512722   2.211   3.906  17.075  0.3505  0.7466  0.3445
  863MPD2     H12723   2.320   3.657  16.812  1.0091 -1.1816  1.9486
  863MPD2    H112724   2.333   3.810  17.208 -1.2798  1.8732 -0.1922
  863MPD2    H212725   2.085   3.994  16.930 -0.4996 -0.4001 -0.6473
  863MPD2    H312726   2.185   3.972  17.157 -0.6592  1.7162 -0.7531
  863MPD2     N12727   2.442   3.631  17.044 -0.1773  1.1851 -0.7273
  863MPD2    H512728   2.488   3.649  17.133 -2.2325  0.8317  0.4193
  863MPD2    N112729   2.153   3.857  16.728  0.2469 -0.4451 -0.6598
  863MPD2    H712730   2.097   3.941  16.718  1.6849  0.6392  0.4190
  864MPD2     C12731   2.888   3.981  16.694  0.4178  0.1983  0.5321
  864MPD2    C112732   2.960   4.086  16.630  0.3231  0.2269  0.4457
  864MPD2    C212733   3.084   4.119  16.677 -0.3903 -0.4179 -0.5789
  864MPD2    C312734   3.147   4.035  16.774  0.1086 -0.2655  1.5735
  864MPD2    C412735   3.083   3.919  16.814 -0.1318 -0.1900 -0.9617
  864MPD2    C512736   2.956   3.892  16.776  0.6416 -0.1896 -0.6245
  864MPD2     H12737   3.135   4.204  16.635 -1.2044  1.1378  1.5739
  864MPD2    H112738   3.130   3.848  16.881  0.6533  0.7154 -0.5446
  864MPD2    H212739   2.788   3.957  16.661  1.6419 -0.5754 -2.6144
  864MPD2    H312740   2.917   3.793  16.798 -0.0766  1.1316  3.9995
  864MPD2     N12741   3.279   4.060  16.817 -0.6340 -0.7740 -0.2699
  864MPD2    H512742   3.332   3.984  16.861  1.1887 -0.8340 -2.5888
  864MPD2    N112743   2.885   4.159  16.530  0.4886 -0.0417  0.1924
  864MPD2    H712744   2.788   4.132  16.514  0.1659 -0.1088  2.2695
  865MPD2     C12745   3.695   0.178  16.649 -0.0395 -0.3215 -0.4498
  865MPD2    C112746   3.728   0.068  16.578  0.2994 -0.9041  0.3429
  865MPD2    C212747   3.737   4.680  16.636  0.6183 -0.2046 -0.4344
  865MPD2    C312748   3.712   4.666  16.772 -0.0363 -0.9062 -0.5651
  865MPD2    C412749   3.684   0.037  16.847  0.3559  0.3326  0.5072
  865MPD2    C512750   3.674   0.163  16.785  0.5338  0.7670  0.1233
  865MPD2     H12751   3.749   4.599  16.565 -1.5498 -0.4925 -0.4737
  865MPD2    H112752   3.673   0.030  16.955 -0.6848 -1.6778  0.2767
  865MPD2    H212753   3.699   0.275  16.602 -1.2882  0.5518  1.2562
  865MPD2    H312754   3.637   0.244  16.847  1.7278  2.0852 -0.9216
  865MPD2     N12755   3.706   4.530  16.813  0.2707  0.2893  0.3712
  865MPD2    H512756   3.732   4.460  16.744 -0.8425  0.3245 -0.0908
  865MPD2    N112757   3.746   0.083  16.440  0.1328 -0.3214 -0.2088
  865MPD2    H712758   3.726   0.177  16.408  0.3728 -0.3696 -0.4981
  866MPD2     C12759   4.236   4.625  11.567 -0.4670 -0.0927 -0.1430
  866MPD2    C112760   4.252   4.624  11.430  0.3290 -0.5619 -0.0789
  866MPD2    C212761   4.142   4.672  11.345  0.1932  0.3305 -0.4960
  866MPD2    C312762   4.028   4.727  11.400  0.1292 -0.5235  0.2943
  866MPD2    C412763   4.034   0.005  11.534  0.1534  0.0076 -0.6799
  866MPD2    C512764   4.128   4.692  11.616  1.1994  0.2965  0.1191
  866MPD2     H12765   4.142   4.662  11.237  0.1139 -3.9223 -0.1017
  866MPD2    H112766   3.956   0.060  11.585  1.3269  0.9647  0.1025
  866MPD2    H212767   4.316   4.597  11.634 -2.1531 -1.6914  1.2120
  866MPD2    H312768   4.118   4.695  11.724  1.1396 -0.5282  0.1382
  866MPD2     N12769   3.913   0.027  11.330  0.3099 -0.3806  0.1414
  866MPD2    H512770   3.841   0.071  11.388 -0.9150 -2.0495 -0.1221
  866MPD2    N112771   4.369   4.574  11.379 -0.1407 -0.0839 -0.2635
  866MPD2    H712772   4.432   4.539  11.450 -0.0674 -0.6961 -0.6364
  867MPD2     C12773   1.872   0.197  16.686 -0.0540 -0.2925  0.3590
  867MPD2    C112774   1.883   0.108  16.790  0.7388 -0.0181 -0.1963
  867MPD2    C212775   1.800   0.136  16.905 -0.1244 -0.1459  0.5068
  867MPD2    C312776   1.730   0.251  16.916  0.4889 -0.8861 -0.2717
  867MPD2    C412777   1.739   0.343  16.814 -0.1080  0.2451 -0.1949
  867MPD2    C512778   1.805   0.316  16.700  0.3765 -0.6121  0.2579
  867MPD2     H12779   1.808   0.064  16.986  3.0731 -0.0817  0.2468
  867MPD2    H112780   1.678   0.432  16.822 -0.4876 -0.1666  1.5341
  867MPD2    H212781   1.937   0.173  16.604 -0.4288 -0.2944  0.0608
  867MPD2    H312782   1.803   0.383  16.615 -1.8082  0.5302  1.1966
  867MPD2     N12783   1.645   0.283  17.021  0.2284 -0.2471 -0.1802
  867MPD2    H512784   1.603   0.374  17.009  0.8681  0.1697  0.7961
  867MPD2    N112785   1.965   4.733  16.777 -0.7792  0.8375  0.1878
  867MPD2    H712786   2.019   4.726  16.691  0.4542  0.2042  1.0129
  868MPD2     C12787   3.479   3.240  12.840  0.2613 -0.3790 -0.0265
  868MPD2    C112788   3.506   3.155  12.942  0.9691 -0.5365 -0.0329
  868MPD2    C212789   3.421   3.155  13.053  0.1545  0.3705 -0.6340
  868MPD2    C312790   3.321   3.246  13.069 -0.3052 -0.4226  0.1752
  868MPD2    C412791   3.313   3.343  12.967 -0.0617  1.3840  0.5193
  868MPD2    C512792   3.388   3.335  12.853  0.0500  0.2367 -0.4093
  868MPD2     H12793   3.429   3.086  13.136 -0.3560 -1.1816 -1.8668
  868MPD2    H112794   3.246   3.428  12.971 -3.4955 -1.3222  0.4212
  868MPD2    H212795   3.538   3.249  12.750  0.3649 -0.4567  0.0343
  868MPD2    H312796   3.366   3.406  12.774  0.6216  1.8422  0.8703
  868MPD2     N12797   3.233   3.226  13.180 -0.1516  0.0023  0.2384
  868MPD2    H512798   3.259   3.149  13.240  2.9424  1.3823  0.6683
  868MPD2    N112799   3.625   3.075  12.934  0.6573 -0.1788 -0.3495
  868MPD2    H712800   3.683   3.084  12.851  0.8288  0.5642 -0.1508
  869MPD2     C12801   0.805   1.996   1.131 -0.4181  0.5091 -0.1892
  869MPD2    C112802   0.732   1.947   1.023 -0.9413 -0.1873 -0.1063
  869MPD2    C212803   0.707   2.024   0.913 -0.2144 -0.1630 -0.2666
  869MPD2    C312804   0.703   2.164   0.926  0.5562  0.1680  0.0163
  869MPD2    C412805   0.765   2.216   1.041 -0.4719 -0.0678  0.1397
  869MPD2    C512806   0.817   2.133   1.135 -0.5590  0.3577  0.4356
  869MPD2     H12807   0.637   1.986   0.839  2.4071 -0.8564 -2.4055
  869MPD2    H112808   0.782   2.321   1.063 -2.7447  0.5412 -0.9414
  869MPD2    H212809   0.828   1.928   1.213 -1.1399 -1.6766 -1.7915
  869MPD2    H312810   0.882   2.177   1.210  0.4694  2.1391 -1.4999
  869MPD2     N12811   0.636   2.247   0.834 -0.2318  0.9286 -0.2821
  869MPD2    H512812   0.610   2.340   0.866  1.6870  1.8224 -1.2794
  869MPD2    N112813   0.707   1.806   1.030  0.1880  0.3152  0.7718
  869MPD2    H712814   0.747   1.757   1.110  2.1329  1.9011  0.7695
  870MPD2     C12815   0.348   4.225   1.509  0.4340  0.2303 -0.2671
  870MPD2    C112816   0.485   4.250   1.494 -0.5216 -0.4977 -0.7345
  870MPD2    C212817   0.530   4.375   1.523  0.3817 -0.0112 -0.2741
  870MPD2    C312818   0.443   4.476   1.550 -0.2363  0.1512  0.2553
  870MPD2    C412819   0.308   4.451   1.559 -0.7395 -0.1313  0.5461
  870MPD2    C512820   0.262   4.326   1.547  0.1223  0.0012 -0.0029
  870MPD2     H12821   0.631   4.406   1.499 -0.0787  1.1948 -0.6454
  870MPD2    H112822   0.233   4.529   1.568 -2.7584 -2.1989  1.6064
  870MPD2    H212823   0.330   4.118   1.507 -0.4023  0.3254  2.3568
  870MPD2    H312824   0.157   4.305   1.563 -0.1123  1.2130  0.0495
  870MPD2     N12825   0.488   4.607   1.549  0.4420 -0.4323  0.3822
  870MPD2    H512826   0.589   4.611   1.549  0.4011  0.5979  1.6967
  870MPD2    N112827   0.581   4.152   1.454  0.6261  0.2844  0.2009
  870MPD2    H712828   0.553   4.064   1.413 -1.6448  1.1703 -0.1975
  871MPD2     C12829   1.147   0.170  16.552  0.3913  0.1538 -0.6459
  871MPD2    C112830   1.083   0.069  16.617  0.9211  0.5429  0.8285
  871MPD2    C212831   1.065   4.690  16.551  0.6433 -0.7085  0.0483
  871MPD2    C312832   1.094   4.673  16.416 -0.5027  0.6768 -0.6875
  871MPD2    C412833   1.155   0.038  16.351  0.1644 -0.4793 -0.4206
  871MPD2    C512834   1.176   0.157  16.420  0.1400 -0.1770 -0.0998
  871MPD2     H12835   1.008   4.614  16.603 -1.4519 -0.1332 -1.4171
  871MPD2    H112836   1.187   0.044  16.247  2.5614 -1.0243  0.2896
  871MPD2    H212837   1.166   0.265  16.600  0.2755 -1.8107  3.3400
  871MPD2    H312838   1.219   0.235  16.358 -2.5098  3.0415  2.1046
  871MPD2     N12839   1.067   4.548  16.356 -0.3017  0.1689  0.3788
  871MPD2    H512840   1.017   4.478  16.410 -1.4084 -0.4690 -1.4487
  871MPD2    N112841   1.035   0.097  16.749  0.5606  0.3843  0.5809
  871MPD2    H712842   1.054   0.186  16.794 -2.4695  0.9369  0.7995
  872MPD2     C12843   1.751   1.893  13.762  0.2250  0.1333  0.5299
  872MPD2    C112844   1.775   2.009  13.690  0.2847  0.5996  0.3523
  872MPD2    C212845   1.669   2.090  13.644  0.2746  0.1363 -0.1576
  872MPD2    C312846   1.542   2.057  13.671 -0.3478  0.5791 -0.2089
  872MPD2    C412847   1.526   1.943  13.739  0.0967 -0.7888 -0.7805
  872MPD2    C512848   1.623   1.861  13.791 -1.2128 -0.0320  0.0007
  872MPD2     H12849   1.700   2.187  13.607 -2.8868  0.4741 -1.9125
  872MPD2    H112850   1.423   1.913  13.756  0.7208 -3.6763 -2.1718
  872MPD2    H212851   1.828   1.835  13.812 -1.0510 -2.3329 -0.3514
  872MPD2    H312852   1.601   1.771  13.846  2.7089 -0.4923  0.8391
  872MPD2     N12853   1.428   2.140  13.644  0.1999 -0.1994  0.2524
  872MPD2    H512854   1.336   2.098  13.640  0.3580 -0.7130  1.9072
  872MPD2    N112855   1.902   2.064  13.673  0.0388  1.2869 -0.1051
  872MPD2    H712856   1.909   2.146  13.615 -1.2849  1.2314 -0.3337
  873MPD2     C12857   3.494   1.393   0.857  0.0230 -0.0277 -0.1655
  873MPD2    C112858   3.523   1.392   0.721  0.6535  0.4382  0.1066
  873MPD2    C212859   3.510   1.273   0.654 -0.3321  0.7324  0.0890
  873MPD2    C312860   3.452   1.163   0.726 -0.0204 -0.7564  0.1382
  873MPD2    C412861   3.439   1.168   0.866 -0.0150 -0.2024  0.1764
  873MPD2    C512862   3.449   1.290   0.929 -0.1461 -0.2021 -0.5736
  873MPD2     H12863   3.532   1.269   0.548 -0.0086  0.4629  0.1667
  873MPD2    H112864   3.406   1.088   0.931  0.2761  0.1474  0.7562
  873MPD2    H212865   3.512   1.481   0.918  1.9872 -0.3258 -0.2930
  873MPD2    H312866   3.432   1.298   1.036  0.6853  0.1224 -0.4635
  873MPD2     N12867   3.448   1.039   0.665  0.4284  0.2402 -0.1793
  873MPD2    H512868   3.402   0.970   0.723  1.9127 -0.1704  0.4876
  873MPD2    N112869   3.559   1.513   0.657 -0.1144 -0.9218  0.6314
  873MPD2    H712870   3.562   1.592   0.721 -0.5983  0.7935 -1.4615
  874MPD2     C12871   2.800   2.572  16.027 -0.3218  0.2740 -0.1117
  874MPD2    C112872   2.869   2.494  16.113 -0.0286 -0.7087  0.3135
  874MPD2    C212873   3.010   2.510  16.111  0.0411  0.3914 -0.1656
  874MPD2    C312874   3.074   2.601  16.036  0.1919 -0.0562 -0.4177
  874MPD2    C412875   2.999   2.682  15.952 -0.6483 -1.0455  0.3573
  874MPD2    C512876   2.861   2.658  15.942 -0.1230 -0.1303 -0.3072
  874MPD2     H12877   3.072   2.447  16.174  0.2177 -0.7051 -1.4375
  874MPD2    H112878   3.050   2.758  15.895  0.2122 -1.5416  0.4586
  874MPD2    H212879   2.692   2.562  16.029 -0.2586 -0.2431  0.7976
  874MPD2    H312880   2.806   2.717  15.869 -0.3873  0.2286  0.1867
  874MPD2     N12881   3.209   2.642  16.063  0.0984  0.2184  0.2067
  874MPD2    H512882   3.244   2.725  16.017 -0.4434  0.7634  0.7753
  874MPD2    N112883   2.799   2.422  16.219 -0.6515  0.4969  0.3668
  874MPD2    H712884   2.698   2.414  16.226 -0.2960 -1.9154  2.6061
  875MPD2     C12885   3.928   0.723  14.613  0.1164  0.3728  0.0088
  875MPD2    C112886   3.829   0.818  14.609  0.3180  0.2382 -0.0825
  875MPD2    C212887   3.840   0.930  14.688 -0.7868  0.0943  0.0322
  875MPD2    C312888   3.936   0.938  14.785 -0.0802  0.4299 -0.1609
  875MPD2    C412889   4.029   0.835  14.797  0.3240 -0.0199  0.5324
  875MPD2    C512890   4.022   0.727  14.712 -0.0309 -0.5723  0.5641
  875MPD2     H12891   3.765   1.008  14.674  0.5136  1.3297 -0.0483
  875MPD2    H112892   4.120   0.840  14.855  1.1708 -0.1992 -0.7844
  875MPD2    H212893   3.922   0.637  14.547  1.3243 -0.1242  0.5562
  875MPD2    H312894   4.095   0.648  14.702  0.9025  0.0775  2.3205
  875MPD2     N12895   3.963   1.034  14.885  0.0974  0.0372 -0.2307
  875MPD2    H512896   4.030   1.010  14.958 -0.2633  0.1077  0.1292
  875MPD2    N112897   3.724   0.822  14.506  0.4645 -0.0762 -0.3756
  875MPD2    H712898   3.678   0.912  14.497 -1.9988 -1.1131  2.0198
  876MPD2     C12899   2.659   2.266  15.885 -0.0163  0.5302 -0.0559
  876MPD2    C112900   2.798   2.246  15.901 -0.1529 -0.6873  0.4336
  876MPD2    C212901   2.843   2.160  16.008 -0.3104 -0.2891 -0.0069
  876MPD2    C312902   2.752   2.099  16.098 -0.5615 -0.2703 -0.0429
  876MPD2    C412903   2.616   2.132  16.081 -0.5558 -0.0959 -0.2760
  876MPD2    C512904   2.574   2.208  15.974  0.2420 -0.0166 -0.4775
  876MPD2     H12905   2.947   2.133  16.020  0.4014  2.5894  0.2352
  876MPD2    H112906   2.541   2.094  16.150  1.9842 -0.0504  2.5394
  876MPD2    H212907   2.618   2.338  15.815  1.1073  0.1776 -1.0826
  876MPD2    H312908   2.469   2.234  15.968  0.2058  0.0480  0.4925
  876MPD2     N12909   2.800   2.007  16.191 -0.0182 -0.2382  0.3281
  876MPD2    H512910   2.898   1.987  16.204  0.0178  0.3900  1.0413
  876MPD2    N112911   2.886   2.318  15.818  0.5254 -0.8026 -0.0519
  876MPD2    H712912   2.846   2.395  15.767 -0.4986 -1.2390  0.1059
  877MPD2     C12913   2.834   2.648  15.210 -0.2630 -0.6441  0.0205
  877MPD2    C112914   2.971   2.632  15.214 -0.1965  0.2315  1.4023
  877MPD2    C212915   3.044   2.653  15.098 -0.4232  1.2210 -0.5138
  877MPD2    C312916   2.984   2.678  14.969 -0.0090 -0.7178  0.0756
  877MPD2    C412917   2.850   2.686  14.969 -0.6309  0.3129  0.3823
  877MPD2    C512918   2.779   2.676  15.086 -0.0778  0.1241 -0.5732
  877MPD2     H12919   3.152   2.642  15.106 -0.3382  2.1546 -0.4798
  877MPD2    H112920   2.813   2.722  14.873 -0.0691  1.3426  0.5474
  877MPD2    H212921   2.770   2.665  15.295 -3.7098  0.2651 -2.7453
  877MPD2    H312922   2.673   2.699  15.081 -0.4565 -1.5405 -0.3794
  877MPD2     N12923   3.047   2.674  14.847 -0.1452 -0.2579 -0.0848
  877MPD2    H512924   2.987   2.670  14.765  0.6876  1.1039 -0.7631
  877MPD2    N112925   3.042   2.610  15.332 -0.5327 -0.3335  0.6467
  877MPD2    H712926   3.143   2.603  15.322 -0.6365 -1.9266  0.7393
  878MPD2     C12927   2.944   1.229  12.964 -0.5875 -0.2352 -0.1708
  878MPD2    C112928   2.917   1.356  12.989  0.1868  0.1810 -0.5290
  878MPD2    C212929   2.990   1.417  13.086 -0.6537 -0.0842  0.1945
  878MPD2    C312930   3.088   1.357  13.153  0.2644 -0.1488 -0.5337
  878MPD2    C412931   3.116   1.223  13.134 -0.9903 -0.4628 -0.5936
  878MPD2    C512932   3.040   1.160  13.032  0.4890  0.2762  0.0947
  878MPD2     H12933   2.978   1.524  13.103  0.7687  0.2836 -1.0868
  878MPD2    H112934   3.185   1.164  13.194 -1.7445  0.2953  0.9998
  878MPD2    H212935   2.876   1.178  12.897 -2.8260  2.6481 -0.0328
  878MPD2    H312936   3.062   1.059  12.998  1.6510  0.5180  0.1330
  878MPD2     N12937   3.128   1.428  13.266 -0.4081 -0.4324 -0.6553
  878MPD2    H512938   3.097   1.524  13.274  1.4730 -0.0065  1.4612
  878MPD2    N112939   2.807   1.423  12.932  0.3445 -0.3711 -0.0507
  878MPD2    H712940   2.729   1.370  12.894  0.8184 -0.5569 -0.7598
  879MPD2     C12941   2.909   3.474  16.838 -0.1358 -0.0154 -0.1095
  879MPD2    C112942   2.956   3.349  16.894 -0.4270 -0.2237  0.9982
  879MPD2    C212943   2.891   3.233  16.853  0.8794  0.0699 -1.2254
  879MPD2    C312944   2.800   3.225  16.750 -1.0030  0.2505  0.5260
  879MPD2    C412945   2.767   3.341  16.684  0.0015 -0.4671 -0.4844
  879MPD2    C512946   2.823   3.459  16.731 -0.2842 -0.6233  0.1403
  879MPD2     H12947   2.933   3.139  16.887  2.2591  1.6060  1.3198
  879MPD2    H112948   2.694   3.330  16.604  0.7165 -2.0094 -0.9260
  879MPD2    H212949   2.946   3.572  16.864 -0.9474  0.4404 -0.6599
  879MPD2    H312950   2.777   3.549  16.690 -0.8673 -1.0138 -0.0629
  879MPD2     N12951   2.743   3.105  16.706  0.1295  0.2639  0.0599
  879MPD2    H512952   2.688   3.103  16.620 -2.0224 -0.3262  1.4362
  879MPD2    N112953   3.064   3.333  16.985 -0.1597  0.1144  0.3063
  879MPD2    H712954   3.096   3.238  16.999 -0.1902  0.1291  0.4692
  880MPD2     C12955   4.541   4.485   0.280  0.3208 -0.5071  0.0950
  880MPD2    C112956   4.636   4.532   0.371  0.1097 -0.2580 -0.7179
  880MPD2    C212957   0.011   4.452   0.399  0.1870  0.6797  0.4031
  880MPD2    C312958   0.026   4.327   0.335  0.5302  0.6153 -0.8908
  880MPD2    C412959   4.679   4.289   0.233  0.2275  0.1774 -0.0442
  880MPD2    C512960   4.566   4.368   0.207 -0.2165  0.1485  0.1425
  880MPD2     H12961   0.085   4.488   0.469  0.2546  2.1017 -0.4011
  880MPD2    H112962   4.686   4.202   0.169  0.3701 -0.7600  1.2441
  880MPD2    H212963   4.449   4.537   0.258  0.4762 -0.8284 -1.3392
  880MPD2    H312964   4.494   4.332   0.134 -0.4382 -0.0486  0.4572
  880MPD2     N12965   0.148   4.257   0.367 -0.2030  0.0470 -0.1161
  880MPD2    H512966   0.203   4.294   0.444 -0.0050  0.0507 -0.2579
  880MPD2    N112967   4.621   4.665   0.426 -0.1933 -0.7553  0.8839
  880MPD2    H712968   4.548   4.726   0.391  0.2085  0.9247  2.9655
  881MPD2     C12969   0.156   0.827   0.066 -0.1439  0.2740  0.4559
  881MPD2    C112970   0.178   0.696   0.042 -1.3269  0.5651  0.1466
  881MPD2    C212971   0.139   0.599   0.133  0.7502 -0.2059  0.1067
  881MPD2    C312972   0.092   0.645   0.258 -0.4060 -0.4263 -0.0158
  881MPD2    C412973   0.086   0.782   0.294  0.3407 -0.4588  0.3143
  881MPD2    C512974   0.115   0.865   0.195  0.5676 -0.7247 -0.0917
  881MPD2     H12975   0.148   0.494   0.106  1.9688 -0.1757  0.4004
  881MPD2    H112976   0.055   0.828   0.387 -0.2580 -0.9645  0.3679
  881MPD2    H212977   0.191   0.900  17.752  0.9228 -1.6800 -1.0095
  881MPD2    H312978   0.111   0.971   0.215 -0.9156 -0.7631 -0.1818
  881MPD2     N12979   0.060   0.551   0.355 -0.0442  0.0970  0.4455
  881MPD2    H512980   0.035   0.578   0.449 -1.0044 -0.6424  0.4061
  881MPD2    N112981   0.211   0.663  17.666  0.3426 -0.1735 -0.4254
  881MPD2    H712982   0.217   0.745  17.607  1.4507 -1.0160 -1.4776
  882MPD2     C12983   2.963   2.922  14.230 -0.7225 -0.0268  0.6557
  882MPD2    C112984   2.952   2.792  14.259  0.3178 -0.2219  0.4809
  882MPD2    C212985   2.830   2.737  14.227  0.4446  0.6786 -0.0471
  882MPD2    C312986   2.717   2.806  14.195  0.4300 -0.0326  0.2759
  882MPD2    C412987   2.723   2.950  14.183 -0.2698 -0.2805 -0.1961
  882MPD2    C512988   2.849   2.999  14.193  0.0427  0.5879  0.3063
  882MPD2     H12989   2.806   2.633  14.245 -0.9859  1.4156  2.4207
  882MPD2    H112990   2.641   3.020  14.168  0.3312  0.8468  1.7701
  882MPD2    H212991   3.056   2.975  14.251  0.7494 -1.8105 -1.2794
  882MPD2    H312992   2.851   3.105  14.169 -2.3075  0.7738  0.9731
  882MPD2     N12993   2.585   2.753  14.183 -0.3446 -0.1077  0.4945
  882MPD2    H512994   2.508   2.819  14.179 -1.9057 -1.9394  0.3476
  882MPD2    N112995   3.047   2.729  14.345 -0.6135  0.4491  0.0508
  882MPD2    H712996   3.125   2.783  14.382 -1.5032  2.1010 -0.5184
  883MPD2     C12997   4.739   2.340  15.681 -1.6344  0.2784 -0.2176
  883MPD2    C112998   0.093   2.412  15.606  0.0115 -0.7476 -0.3341
  883MPD2    C212999   0.215   2.449  15.657  0.3239 -0.3473  0.4883
  883MPD2    C313000   0.244   2.416  15.786 -0.1720 -0.0124  0.4640
  883MPD2    C413001   0.155   2.334  15.856 -0.1369 -0.5084 -0.6886
  883MPD2    C513002   0.029   2.300  15.807  0.0166  0.6006  0.3414
  883MPD2     H13003   0.288   2.511  15.606  1.6103 -1.2406  1.2453
  883MPD2    H113004   0.178   2.304  15.957 -2.1865 -2.0822 -0.6830
  883MPD2    H213005   4.639   2.323  15.644 -2.0403  0.7048  0.6941
  883MPD2    H313006   4.690   2.245  15.856  1.2911 -0.5431  1.0957
  883MPD2     N13007   0.367   2.460  15.840 -0.4824  0.2780  0.3174
  883MPD2    H513008   0.432   2.514  15.784  1.2963 -1.0479  1.1002
  883MPD2    N113009   0.070   2.443  15.470  0.1867 -0.0348 -0.4890
  883MPD2    H713010   0.132   2.513  15.431 -0.5068  1.6645  1.5327
  884MPD2     C13011   2.298   3.334  15.027 -0.7175 -0.1121 -0.2044
  884MPD2    C113012   2.296   3.410  14.910 -0.2133 -0.2305 -0.7191
  884MPD2    C213013   2.179   3.472  14.871 -0.0092 -0.2283  0.5169
  884MPD2    C313014   2.069   3.480  14.958  0.1893  0.0242 -0.5633
  884MPD2    C413015   2.073   3.410  15.070 -0.2834 -0.1283 -0.3667
  884MPD2    C513016   2.187   3.346  15.104  0.3081 -0.9250 -0.0968
  884MPD2     H13017   2.180   3.526  14.778  0.6763 -2.2058 -0.6165
  884MPD2    H113018   1.993   3.402  15.143  0.5455 -0.6103  0.4926
  884MPD2    H213019   2.381   3.281  15.074 -1.6760 -1.1510  0.3019
  884MPD2    H313020   2.188   3.299  15.201  0.2403  2.7166  1.6428
  884MPD2     N13021   1.957   3.557  14.919  0.2622  0.3596 -0.0280
  884MPD2    H513022   1.957   3.598  14.826  0.2871 -0.5528 -0.4316
  884MPD2    N113023   2.406   3.428  14.834  0.2921  0.5304  0.2203
  884MPD2    H713024   2.405   3.495  14.758  0.1287 -0.4631 -0.6537
  885MPD2     C13025   0.265   3.016   0.150 -0.0460 -0.4633 -0.1729
  885MPD2    C113026   0.387   3.069   0.184 -0.5361  1.0103 -0.5609
  885MPD2    C213027   0.453   3.158   0.092 -0.3656 -0.6004 -0.8024
  885MPD2    C313028   0.381   3.197  17.736 -0.5905 -0.5985  0.2124
  885MPD2    C413029   0.261   3.137  17.702 -0.3185  0.3709 -0.5869
  885MPD2    C513030   0.206   3.046   0.031 -0.4924 -0.7942 -0.5388
  885MPD2     H13031   0.549   3.201   0.120 -0.8638 -0.4517  0.6841
  885MPD2    H113032   0.214   3.157  17.607 -1.7617 -1.6331 -0.2869
  885MPD2    H213033   0.209   2.960   0.224 -0.6761 -0.1533 -0.4193
  885MPD2    H313034   0.105   3.013   0.005 -0.9847 -1.3305  2.1225
  885MPD2     N13035   0.433   3.295  17.654  0.5196  0.1965 -1.0613
  885MPD2    H513036   0.529   3.324  17.673  0.8450 -1.3307 -0.3448
  885MPD2    N113037   0.443   3.039   0.310 -0.1768 -0.6269 -0.4981
  885MPD2    H713038   0.380   3.007   0.383 -0.9684  1.8927 -0.0699
  886MPD2     C13039   1.410   2.024  15.344 -0.3998 -0.3212  0.0745
  886MPD2    C113040   1.537   2.068  15.389 -0.1983  0.3329 -0.0258
  886MPD2    C213041   1.615   2.157  15.316 -0.3073 -0.0251  0.1174
  886MPD2    C313042   1.558   2.218  15.201 -0.1020  0.0433  0.7243
  886MPD2    C413043   1.433   2.181  15.162 -0.4481 -0.4037 -0.3270
  886MPD2    C513044   1.356   2.090  15.235  0.3110 -0.1384 -0.2718
  886MPD2     H13045   1.719   2.175  15.341 -0.7929  0.5841  1.6718
  886MPD2    H113046   1.383   2.221  15.074  1.3995  3.0107  0.1948
  886MPD2    H213047   1.340   1.958  15.395  0.6518 -1.5650 -0.0663
  886MPD2    H313048   1.251   2.080  15.209 -0.1195  0.8852  1.0756
  886MPD2     N13049   1.628   2.310  15.120  0.7639  0.7933  0.4623
  886MPD2    H513050   1.593   2.329  15.026 -1.6322 -0.3896  1.1411
  886MPD2    N113051   1.594   2.011  15.502 -0.3741 -0.2011  0.0146
  886MPD2    H713052   1.678   2.059  15.533  0.1484  0.5750 -2.5505
  887MPD2     C13053   2.262   2.012  15.748 -0.2565  0.3542 -0.1170
  887MPD2    C113054   2.137   2.060  15.696  0.3712 -0.7434  0.3270
  887MPD2    C213055   2.133   2.174  15.621 -0.2463  0.2353  1.0206
  887MPD2    C313056   2.250   2.239  15.582 -0.1916 -0.5013 -0.3080
  887MPD2    C413057   2.367   2.185  15.620  0.1141  0.3639 -0.3203
  887MPD2    C513058   2.374   2.079  15.705  0.4789  0.0110  0.3067
  887MPD2     H13059   2.041   2.211  15.578  0.2653  2.6555  2.0250
  887MPD2    H113060   2.464   2.225  15.595  0.8442  0.7797  3.0821
  887MPD2    H213061   2.271   1.922  15.808  0.2372  0.6385  0.2466
  887MPD2    H313062   2.479   2.055  15.722  0.9850  0.0896 -2.6811
  887MPD2     N13063   2.253   2.355  15.493 -0.5887 -0.1262 -0.0034
  887MPD2    H513064   2.168   2.406  15.472 -0.5251  0.5523  1.3833
  887MPD2    N113065   2.019   1.985  15.713 -0.2413 -0.6306 -0.9439
  887MPD2    H713066   1.933   2.027  15.677 -0.8623 -3.2873 -2.5655
  888MPD2     C13067   3.777   1.869  14.648  0.6151 -0.1021  0.9464
  888MPD2    C113068   3.813   1.910  14.772 -0.7429  0.6403 -0.2303
  888MPD2    C213069   3.906   2.010  14.783  0.0179  0.7998 -0.6187
  888MPD2    C313070   3.958   2.071  14.672 -0.5075  0.7802  0.5925
  888MPD2    C413071   3.928   2.023  14.549  0.1678  0.0871 -0.1194
  888MPD2    C513072   3.836   1.925  14.537  0.0557 -0.0161 -0.0530
  888MPD2     H13073   3.932   2.056  14.877 -0.0952  0.3538 -0.3669
  888MPD2    H113074   3.963   2.061  14.453 -1.9244 -1.3695 -1.4635
  888MPD2    H213075   3.707   1.787  14.638 -0.1174  0.8591 -1.8701
  888MPD2    H313076   3.811   1.888  14.438  1.3142  1.6619 -1.0006
  888MPD2     N13077   4.044   2.185  14.683 -0.3352  0.1573  0.1640
  888MPD2    H513078   4.073   2.198  14.779  1.6176 -1.9590 -0.1298
  888MPD2    N113079   3.750   1.859  14.894  0.0293 -0.0972  0.3722
  888MPD2    H713080   3.795   1.878  14.983  1.3012 -0.9584 -0.0835
  889MPD2     C13081   3.219   1.103  12.762 -0.1269  0.5360  0.4964
  889MPD2    C113082   3.327   1.111  12.846 -0.1548 -0.0669 -0.9313
  889MPD2    C213083   3.363   1.232  12.900 -0.7585 -0.8300 -1.0716
  889MPD2    C313084   3.315   1.351  12.849  0.1795 -0.1205 -0.9383
  889MPD2    C413085   3.220   1.344  12.748 -0.1465  0.0215 -0.6150
  889MPD2    C513086   3.174   1.221  12.713 -0.3160 -0.2849 -0.0571
  889MPD2     H13087   3.445   1.233  12.971 -0.0763 -0.0076 -1.8787
  889MPD2    H113088   3.177   1.433  12.703 -1.0598  1.1168  2.4251
  889MPD2    H213089   3.184   1.009  12.720  0.7804  0.7256 -0.7046
  889MPD2    H313090   3.101   1.210  12.633  0.8595  1.0633 -1.3143
  889MPD2     N13091   3.365   1.474  12.903  0.2281 -0.7108  0.0307
  889MPD2    H513092   3.431   1.468  12.980 -0.2215 -0.2393  0.4543
  889MPD2    N113093   3.358   0.990  12.915  0.7604 -0.0949  0.2362
  889MPD2    H713094   3.320   0.902  12.881 -0.4489  0.4224  0.2445
  890MPD2     C13095   3.097   3.383  14.456  0.5483 -0.1222 -0.3943
  890MPD2    C113096   3.146   3.459  14.561  0.6209 -0.9619 -0.3615
  890MPD2    C213097   3.173   3.385  14.675  0.1681 -0.3367 -0.6182
  890MPD2    C313098   3.162   3.245  14.687  0.6067  0.0160 -0.3012
  890MPD2    C413099   3.107   3.177  14.579 -0.2800 -0.0933  0.5179
  890MPD2    C513100   3.073   3.250  14.468 -0.6032 -0.2326  0.8665
  890MPD2     H13101   3.218   3.433  14.762  0.7079 -1.0277 -0.5176
  890MPD2    H113102   3.090   3.070  14.572  1.3080 -0.3572  0.5978
  890MPD2    H213103   3.077   3.422  14.356 -1.2187  1.2857  0.5148
  890MPD2    H313104   3.033   3.196  14.383  0.4232 -0.1827  0.3455
  890MPD2     N13105   3.205   3.190  14.806 -0.3954  0.0164 -0.4174
  890MPD2    H513106   3.254   3.253  14.868 -1.4727  1.2038 -0.7732
  890MPD2    N113107   3.166   3.598  14.535  0.9684 -1.1916 -0.6247
  890MPD2    H713108   3.141   3.627  14.441 -1.1600 -1.4924 -0.1576
  891MPD2     C13109   0.986   1.924  16.947 -0.0186 -1.1706  0.1611
  891MPD2    C113110   0.898   1.834  16.989  0.2075 -0.3544  0.6966
  891MPD2    C213111   0.918   1.767  17.106  0.2249 -0.4479 -0.2454
  891MPD2    C313112   1.041   1.790  17.176 -0.3896 -0.2275  0.2281
  891MPD2    C413113   1.128   1.889  17.128 -1.0285  0.0245  0.4814
  891MPD2    C513114   1.094   1.953  17.011  0.3447 -0.6511  0.2371
  891MPD2     H13115   0.848   1.692  17.144 -2.6070  2.0806 -0.4585
  891MPD2    H113116   1.213   1.929  17.183  1.4842 -3.0449 -1.1547
  891MPD2    H213117   0.966   1.974  16.853  2.7305  0.1576  0.2841
  891MPD2    H313118   1.155   2.033  16.971 -2.3114  1.6202  0.6898
  891MPD2     N13119   1.070   1.720  17.293 -0.1496 -0.5490 -0.1994
  891MPD2    H513120   0.996   1.653  17.315 -1.7755  1.0849 -0.6893
  891MPD2    N113121   0.778   1.830  16.916 -0.4981 -0.4834  0.2984
  891MPD2    H713122   0.773   1.891  16.835  2.5767 -2.4719 -1.4090
  892MPD2     C13123   2.232   2.985  14.880 -0.5973 -0.1600 -0.0589
  892MPD2    C113124   2.132   2.947  14.803 -0.3223  0.6415  0.3525
  892MPD2    C213125   2.153   2.867  14.696 -0.1948  0.7821  0.1862
  892MPD2    C313126   2.278   2.811  14.677  0.6047 -0.7507 -0.2922
  892MPD2    C413127   2.389   2.849  14.754  0.2681 -0.8964 -0.1985
  892MPD2    C513128   2.361   2.939  14.856  0.0333  0.6968  0.7022
  892MPD2     H13129   2.066   2.846  14.635 -0.1943 -0.4746  0.6059
  892MPD2    H113130   2.487   2.804  14.743  0.7973  0.7835 -2.3539
  892MPD2    H213131   2.216   3.054  14.963 -1.9660 -0.8561  0.2455
  892MPD2    H313132   2.442   2.975  14.919  0.9390  0.2672 -0.2314
  892MPD2     N13133   2.300   2.730  14.565 -0.3127 -0.4311  0.0516
  892MPD2    H513134   2.398   2.723  14.539 -0.0968  1.9055  0.2530
  892MPD2    N113135   1.996   2.990  14.821  0.2269  0.4515  0.1051
  892MPD2    H713136   1.939   2.987  14.737  0.2952  0.5360  0.0562
  893MPD2     C13137   4.461   0.143   1.418  0.0477  0.7692 -0.6140
  893MPD2    C113138   4.452   0.282   1.434  0.0038 -0.0840 -0.5511
  893MPD2    C213139   4.324   0.339   1.452 -0.7371 -0.1463  0.6943
  893MPD2    C313140   4.220   0.251   1.473 -0.3544  0.3443  0.1282
  893MPD2    C413141   4.230   0.114   1.447  0.7055  0.6554 -0.1413
  893MPD2    C513142   4.351   0.065   1.418  0.0887  0.0750  0.6205
  893MPD2     H13143   4.323   0.445   1.478  2.3726  0.0521  0.0627
  893MPD2    H113144   4.143   0.050   1.440  0.6347  0.5712  1.4005
  893MPD2    H213145   4.550   0.088   1.392 -1.3191 -0.5422 -2.4854
  893MPD2    H313146   4.362   4.700   1.394 -0.3644  0.1866 -0.0943
  893MPD2     N13147   4.084   0.286   1.495 -0.0604 -0.1017 -0.3321
  893MPD2    H513148   4.023   0.206   1.502  0.0679 -0.3326 -1.8618
  893MPD2    N113149   4.565   0.353   1.420 -0.4333 -0.1939 -0.2177
  893MPD2    H713150   4.652   0.303   1.404 -0.6365 -1.1779  1.6806
  894MPD2     C13151   2.094   2.762   0.775  0.0051 -0.9773  0.1115
  894MPD2    C113152   2.059   2.841   0.887 -0.6477 -0.2118 -0.0017
  894MPD2    C213153   2.111   2.968   0.903 -0.6610  0.0226  0.2962
  894MPD2    C313154   2.175   3.018   0.800  0.1287 -0.5756 -0.1030
  894MPD2    C413155   2.201   2.956   0.680 -0.2013 -0.1739 -0.2929
  894MPD2    C513156   2.165   2.827   0.673 -0.0046  0.0950 -0.1491
  894MPD2     H13157   2.094   3.021   0.995 -1.0088  0.1827  0.1393
  894MPD2    H113158   2.256   3.003   0.599  3.7090 -1.5258  1.5516
  894MPD2    H213159   2.056   2.664   0.749 -2.2051 -0.2362  0.5130
  894MPD2    H313160   2.186   2.764   0.587 -1.3718  0.6443 -0.8763
  894MPD2     N13161   2.215   3.150   0.821 -0.0638  0.3711  0.2217
  894MPD2    H513162   2.231   3.190   0.913 -0.2947 -0.4438  0.6173
  894MPD2    N113163   1.989   2.784   0.990  0.4011  0.7565 -0.6614
  894MPD2    H713164   1.997   2.817   1.086 -0.6527 -0.7025 -0.0595
  895MPD2     C13165   0.876   1.510  13.322 -0.3267 -0.2049 -0.5459
  895MPD2    C113166   0.830   1.463  13.200  0.2533  0.1674  0.0873
  895MPD2    C213167   0.884   1.351  13.152  0.4084 -0.8364  1.1675
  895MPD2    C313168   0.973   1.266  13.219 -0.4218 -0.3606 -0.7292
  895MPD2    C413169   1.001   1.309  13.342 -0.8140  0.7991  0.3909
  895MPD2    C513170   0.966   1.429  13.391  0.2959 -0.5277  0.2882
  895MPD2     H13171   0.841   1.315  13.059  0.9088  0.4124  0.4607
  895MPD2    H113172   1.062   1.246  13.405 -1.2576 -0.7451 -0.7253
  895MPD2    H213173   0.846   1.605  13.366  0.0854 -0.0472 -0.6048
  895MPD2    H313174   0.998   1.473  13.485 -0.6940 -0.1625  0.4554
  895MPD2     N13175   1.017   1.139  13.171  0.4258 -0.9414  0.2867
  895MPD2    H513176   1.056   1.076  13.240  1.7411  0.8381  1.1517
  895MPD2    N113177   0.717   1.514  13.136 -0.3336  0.2449  0.1722
  895MPD2    H713178   0.693   1.473  13.047  2.1201 -2.3785  0.7435
  896MPD2     C13179   4.530   3.573   1.416  0.0723 -0.3548  0.5568
  896MPD2    C113180   4.471   3.663   1.335 -0.3043  0.8447 -0.2086
  896MPD2    C213181   4.340   3.690   1.360  0.1101 -0.7783  0.1123
  896MPD2    C313182   4.279   3.634   1.472 -0.4824 -0.5228 -0.5329
  896MPD2    C413183   4.336   3.541   1.549  0.1747  0.2905 -0.2279
  896MPD2    C513184   4.469   3.513   1.522  0.5278  0.1178  0.0231
  896MPD2     H13185   4.279   3.749   1.292 -0.6448 -1.2997  0.3415
  896MPD2    H113186   4.287   3.505   1.638 -1.8342  0.1664 -1.3893
  896MPD2    H213187   4.636   3.553   1.405  0.0511  0.7554 -1.6018
  896MPD2    H313188   4.528   3.452   1.590  1.4010  1.5864  0.5788
  896MPD2     N13189   4.138   3.660   1.486 -0.5142  0.0141  0.2866
  896MPD2    H513190   4.101   3.738   1.433  1.1228  0.0238 -0.8407
  896MPD2    N113191   4.541   3.715   1.224  0.5805  0.4863 -0.5398
  896MPD2    H713192   4.640   3.696   1.214  0.9188  1.9405  0.0623
  897MPD2     C13193   4.538   1.472  10.693 -0.0516  0.0096 -0.2147
  897MPD2    C113194   4.560   1.356  10.628  0.3815  0.1377  0.0669
  897MPD2    C213195   4.490   1.245  10.676  0.5514 -0.1732  0.2076
  897MPD2    C313196   4.406   1.242  10.784 -0.0192  0.5386  0.3226
  897MPD2    C413197   4.393   1.358  10.855 -0.3610  0.1967  0.6059
  897MPD2    C513198   4.462   1.467  10.807  0.1306 -0.4399 -0.2653
  897MPD2     H13199   4.494   1.155  10.617 -0.6280 -1.2159  1.7348
  897MPD2    H113200   4.333   1.360  10.945 -1.3792 -0.2631 -0.0633
  897MPD2    H213201   4.591   1.566  10.678 -0.4486  0.0855 -1.0916
  897MPD2    H313202   4.438   1.558  10.861  2.1713  0.7190 -1.2817
  897MPD2     N13203   4.333   1.123  10.817 -0.0996 -0.4552 -0.6074
  897MPD2    H513204   4.275   1.129  10.900  0.7396 -0.4695 -0.0242
  897MPD2    N113205   4.653   1.356  10.519  0.2833  0.2873  0.6113
  897MPD2    H713206   4.688   1.449  10.500 -2.5379  1.0393 -1.0486
  898MPD2     C13207   1.790   1.670  17.557 -0.3215 -0.4493  0.0124
  898MPD2    C113208   1.881   1.770  17.558  0.4306 -0.1488 -0.3545
  898MPD2    C213209   1.847   1.883  17.478 -0.6363  0.3844 -0.2738
  898MPD2    C313210   1.728   1.899  17.413  0.4528  0.5099  0.2987
  898MPD2    C413211   1.631   1.799  17.429  0.2909 -0.7349 -0.5455
  898MPD2    C513212   1.662   1.685  17.503 -0.8599  0.2766 -0.3085
  898MPD2     H13213   1.913   1.969  17.478 -1.6452  1.1608 -0.1355
  898MPD2    H113214   1.528   1.815  17.399  0.5848 -1.0249 -1.7145
  898MPD2    H213215   1.810   1.588  17.626 -0.0357 -0.8037 -0.4890
  898MPD2    H313216   1.582   1.614  17.522 -0.7547 -0.6695 -3.5062
  898MPD2     N13217   1.690   2.018  17.354  0.2129  0.0658 -0.7028
  898MPD2    H513218   1.602   2.014  17.302  0.0919 -1.5665 -0.3531
  898MPD2    N113219   2.002   1.766  17.625  0.2112 -0.4146  0.2242
  898MPD2    H713220   2.062   1.848  17.622  0.5703 -0.6909 -0.2415
  899MPD2     C13221   2.359   2.838  17.001 -0.4877 -0.3263  0.3332
  899MPD2    C113222   2.448   2.895  17.090 -0.4111  0.2928 -0.1275
  899MPD2    C213223   2.445   2.841  17.216 -0.3702 -0.0976 -0.4562
  899MPD2    C313224   2.384   2.721  17.242 -0.0801 -0.2699 -0.1346
  899MPD2    C413225   2.296   2.667  17.152 -0.5588 -0.6668  0.1321
  899MPD2    C513226   2.293   2.724  17.029 -0.3768 -0.5331  0.2633
  899MPD2     H13227   2.506   2.891  17.291  0.8493  1.1042 -2.2707
  899MPD2    H113228   2.251   2.569  17.160 -0.3942 -0.7499  0.0476
  899MPD2    H213229   2.338   2.869  16.899 -0.0113  0.6995  0.5491
  899MPD2    H313230   2.233   2.673  16.955  1.1285 -0.5444 -0.9460
  899MPD2     N13231   2.409   2.647  17.358 -0.7142 -0.1635  0.0510
  899MPD2    H513232   2.341   2.579  17.391  1.5587 -1.3846  2.1686
  899MPD2    N113233   2.511   3.017  17.051  0.3619 -0.4909 -0.2747
  899MPD2    H713234   2.482   3.065  16.967 -1.6093 -1.0342  0.1030
  900MPD2     C13235   2.203   4.165  12.790 -0.4293 -0.0882 -0.5673
  900MPD2    C113236   2.112   4.083  12.730  0.3007  0.2967 -0.2972
  900MPD2    C213237   2.006   4.147  12.658  0.3259 -0.0028 -0.5258
  900MPD2    C313238   1.986   4.283  12.666 -0.4312  0.3248 -0.2123
  900MPD2    C413239   2.080   4.365  12.725  0.2821  0.4846  0.0310
  900MPD2    C513240   2.190   4.307  12.788 -0.9214  0.0719 -0.5015
  900MPD2     H13241   1.946   4.093  12.586 -1.5511  1.7668 -0.2852
  900MPD2    H113242   2.062   4.472  12.736 -0.0198  0.4397 -0.0191
  900MPD2    H213243   2.291   4.131  12.842  0.4428  0.5032 -1.6498
  900MPD2    H313244   2.254   4.368  12.851 -0.7238  1.2154 -1.8012
  900MPD2     N13245   1.869   4.330  12.598 -0.3418  0.4691 -1.1555
  900MPD2    H513246   1.821   4.262  12.541 -0.7616 -0.5663  0.4192
  900MPD2    N113247   2.142   3.943  12.722 -0.0613  0.4172  0.0947
  900MPD2    H713248   2.233   3.921  12.760 -0.5139  0.0578  0.9550
  901MPD2     C13249   1.856   2.939  13.015  1.2318  0.7520  0.2824
  901MPD2    C113250   1.986   2.972  13.040  0.2063 -0.7707 -0.2377
  901MPD2    C213251   2.044   3.086  12.999  0.3482 -0.5085  0.0284
  901MPD2    C313252   1.970   3.178  12.928 -0.0750 -0.6104  0.6385
  901MPD2    C413253   1.839   3.138  12.892  0.3954 -0.7212 -0.0006
  901MPD2    C513254   1.779   3.029  12.948  0.3730  0.1733 -0.7400
  901MPD2     H13255   2.147   3.114  13.019 -0.0964 -0.1359  1.8717
  901MPD2    H113256   1.773   3.196  12.828  0.5162  0.6704  1.1277
  901MPD2    H213257   1.806   2.855  13.060  1.8814 -0.2247 -0.8332
  901MPD2    H313258   1.674   3.016  12.924 -0.1859  1.0766  1.1974
  901MPD2     N13259   2.033   3.301  12.873  0.1524 -0.4089  0.1918
  901MPD2    H513260   2.131   3.314  12.896 -0.1506  0.7512  0.8061
  901MPD2    N113261   2.057   2.876  13.116 -0.2881 -0.0476 -0.2569
  901MPD2    H713262   2.012   2.785  13.124  0.7940 -0.6812 -1.5246
  902MPD2     C13263   1.517   2.305  12.577 -0.4720  0.7575  0.9060
  902MPD2    C113264   1.408   2.326  12.501  0.0596  0.1302  0.3720
  902MPD2    C213265   1.338   2.209  12.466  0.0686 -0.1269  0.4005
  902MPD2    C313266   1.397   2.083  12.478 -0.2729  0.1301  0.5933
  902MPD2    C413267   1.520   2.074  12.531 -0.5446 -0.1206  0.4029
  902MPD2    C513268   1.579   2.184  12.580  0.0678 -0.3834  0.1635
  902MPD2     H13269   1.250   2.222  12.405  1.5711 -0.3759 -1.8076
  902MPD2    H113270   1.564   1.975  12.532  0.6148  0.3752 -0.9666
  902MPD2    H213271   1.580   2.389  12.605 -0.3268  1.1681 -0.6341
  902MPD2    H313272   1.676   2.169  12.625 -0.2109  0.0555  0.9035
  902MPD2     N13273   1.343   1.966  12.423  0.3358 -0.1354  0.7587
  902MPD2    H513274   1.406   1.886  12.418  1.3065  0.8273 -2.2374
  902MPD2    N113275   1.359   2.455  12.475  0.4803  0.1789  0.0709
  902MPD2    H713276   1.416   2.531  12.511  1.6853 -1.3365  1.3592
  903MPD2     C13277   1.135   1.687  11.672  0.7691  0.1857 -0.1537
  903MPD2    C113278   1.058   1.750  11.767 -0.1079 -0.0257 -0.9660
  903MPD2    C213279   0.974   1.844  11.716  0.1689 -0.1617 -0.8480
  903MPD2    C313280   0.966   1.885  11.583 -0.5479  0.2841  0.9646
  903MPD2    C413281   1.028   1.807  11.493 -0.0233 -0.0853 -0.4181
  903MPD2    C513282   1.113   1.706  11.536 -0.4879 -0.3313  0.4157
  903MPD2     H13283   0.919   1.899  11.792  0.6229  0.7755 -1.1931
  903MPD2    H113284   1.014   1.810  11.386  2.7036 -2.8397 -0.8520
  903MPD2    H213285   1.203   1.604  11.688  0.8001  0.4126  0.8940
  903MPD2    H313286   1.160   1.640  11.464 -0.2709 -0.1418  0.3849
  903MPD2     N13287   0.874   1.981  11.544  0.1322  0.6923 -0.7738
  903MPD2    H513288   0.833   2.037  11.618  0.1192  3.1235 -2.6300
  903MPD2    N113289   1.074   1.705  11.901  0.4596  0.5175 -0.3494
  903MPD2    H713290   1.135   1.625  11.915  1.0839  1.1601  0.6841
  904MPD2     C13291   1.198   0.815  14.201  0.2108  0.2568 -0.0840
  904MPD2    C113292   1.226   0.949  14.176  0.7879  0.3178 -0.1908
  904MPD2    C213293   1.312   1.012  14.265 -0.1102 -0.0327  0.1229
  904MPD2    C313294   1.391   0.946  14.359 -0.6292  0.4060  1.1688
  904MPD2    C413295   1.379   0.815  14.358  0.2313 -0.4987  0.6530
  904MPD2    C513296   1.281   0.750  14.284  0.0606 -0.4180 -0.9702
  904MPD2     H13297   1.326   1.119  14.252 -0.7392  0.1914  1.2734
  904MPD2    H113298   1.446   0.753  14.416 -1.0867  0.9656  3.7583
  904MPD2    H213299   1.123   0.769  14.138  2.3569 -0.8104 -1.8603
  904MPD2    H313300   1.278   0.641  14.286  2.1781 -0.4339  0.5324
  904MPD2     N13301   1.481   1.021  14.434 -0.4577  0.2665 -0.1662
  904MPD2    H513302   1.473   1.119  14.409 -2.3581  0.7117  2.2183
  904MPD2    N113303   1.146   1.023  14.088  0.0232  0.3417 -0.2663
  904MPD2    H713304   1.161   1.124  14.087  1.8031  0.0950  1.6426
  905MPD2     C13305   0.581   1.229  13.360 -0.0390  0.7348  0.0530
  905MPD2    C113306   0.670   1.142  13.410 -0.0505 -0.4425 -0.1143
  905MPD2    C213307   0.693   1.031  13.330 -0.5276 -0.2825  0.7819
  905MPD2    C313308   0.634   1.014  13.203 -1.1163 -1.1480 -0.0702
  905MPD2    C413309   0.554   1.113  13.153  0.6855  0.0476  0.2872
  905MPD2    C513310   0.532   1.217  13.235 -0.2438  0.2752 -0.5601
  905MPD2     H13311   0.755   0.951  13.369 -2.8408 -1.6082  1.7351
  905MPD2    H113312   0.518   1.112  13.051 -1.4646  1.1360  1.0310
  905MPD2    H213313   0.561   1.323  13.412  0.3422 -0.2197  1.9238
  905MPD2    H313314   0.466   1.294  13.198  0.4377  2.8973  3.7335
  905MPD2     N13315   0.662   0.909  13.113 -0.6391  0.2797  0.0519
  905MPD2    H513316   0.632   0.923  13.017  1.3702 -0.2652 -0.6666
  905MPD2    N113317   0.727   1.157  13.537  0.5395  0.1394  0.1762
  905MPD2    H713318   0.683   1.231  13.590 -2.5762 -0.2126 -1.9418
  906MPD2     C13319   3.138   0.788  11.873  0.2415 -0.2862 -0.3049
  906MPD2    C113320   3.106   0.689  11.784  0.0403  0.1590  0.3990
  906MPD2    C213321   3.034   0.580  11.834 -0.1715  0.0135 -0.1814
  906MPD2    C313322   2.988   0.586  11.965  0.2392  0.2801  0.1531
  906MPD2    C413323   3.012   0.691  12.042 -0.8560 -0.4152 -0.4423
  906MPD2    C513324   3.086   0.788  11.999  0.3187  0.7260 -0.0813
  906MPD2     H13325   2.991   0.511  11.763  1.2944 -0.1912 -0.8835
  906MPD2    H113326   2.974   0.695  12.144  2.0575 -2.0662  0.7150
  906MPD2    H213327   3.184   0.879  11.834  0.3732  0.3472  1.3228
  906MPD2    H313328   3.092   0.875  12.064  0.1018 -0.3289  1.3582
  906MPD2     N13329   2.904   0.479  12.016 -0.2059  0.0471  0.3181
  906MPD2    H513330   2.854   0.500  12.102 -0.4793  0.4454  0.0600
  906MPD2    N113331   3.140   0.687  11.648  0.3687  0.0456 -0.0968
  906MPD2    H713332   3.100   0.604  11.606 -1.1678  0.1481  1.1769
  907MPD2     C13333   2.216   1.154  15.812 -0.2680 -0.3034  0.7290
  907MPD2    C113334   2.276   1.060  15.726 -0.1660 -0.3165  0.4343
  907MPD2    C213335   2.408   1.029  15.747  0.2226  0.5409  0.4959
  907MPD2    C313336   2.483   1.092  15.837  0.3301 -0.4678  0.0020
  907MPD2    C413337   2.432   1.191  15.916 -0.4648 -0.3329 -0.4421
  907MPD2    C513338   2.298   1.223  15.902 -0.4180  0.0520 -0.6425
  907MPD2     H13339   2.468   0.951  15.702  1.0190  0.9555  0.8280
  907MPD2    H113340   2.490   1.256  15.980 -0.5855 -1.1279  0.4765
  907MPD2    H213341   2.112   1.182  15.800 -0.9379 -2.7953  0.5860
  907MPD2    H313342   2.252   1.297  15.966 -0.5086 -2.1371  1.8230
  907MPD2     N13343   2.621   1.057  15.843 -0.2677  0.6561  0.3707
  907MPD2    H513344   2.652   0.992  15.771 -0.3897 -1.0178  1.8188
  907MPD2    N113345   2.190   1.000  15.628 -0.2503 -0.0590  0.5172
  907MPD2    H713346   2.089   1.013  15.634 -0.2052  0.1893  0.7213
  908MPD2     C13347   0.105   0.697   9.757 -0.0458  0.2837 -0.8230
  908MPD2    C113348   0.118   0.663   9.890  0.2151 -0.6345  0.4671
  908MPD2    C213349   0.120   0.766   9.985  0.9674 -0.5242  0.0954
  908MPD2    C313350   0.116   0.899   9.939  0.3281  0.3553  0.6191
  908MPD2    C413351   0.125   0.931   9.801 -0.1061  0.0891  0.4024
  908MPD2    C513352   0.119   0.824   9.711 -0.7390 -0.1538  0.2356
  908MPD2     H13353   0.140   0.749  10.090 -0.0759  3.1845  0.9202
  908MPD2    H113354   0.108   1.028   9.756 -0.6677  0.0439  0.5107
  908MPD2    H213355   0.097   0.624   9.678 -1.6723  1.0519 -1.3543
  908MPD2    H313356   0.117   0.835   9.603 -1.0729  1.1970  0.3830
  908MPD2     N13357   0.123   0.998  10.039  0.1268 -0.6410 -0.5814
  908MPD2    H513358   0.098   0.972  10.134 -1.6942 -0.1445 -0.9039
  908MPD2    N113359   0.129   0.525   9.917  0.1336 -0.1380 -0.0081
  908MPD2    H713360   0.125   0.460   9.839  0.1508 -0.0637 -0.0706
  909MPD2     C13361   0.158   3.764  12.044  0.1585 -0.4234 -0.0600
  909MPD2    C113362   0.097   3.835  11.949  0.5334 -0.1210 -0.6036
  909MPD2    C213363   4.722   3.899  11.980  0.2641 -0.2043 -0.5661
  909MPD2    C313364   4.658   3.869  12.100  0.0115  0.3961 -0.4003
  909MPD2    C413365   4.718   3.788  12.196  0.2062 -0.5516  0.2645
  909MPD2    C513366   0.098   3.742  12.166  0.3437  0.6584  0.2005
  909MPD2     H13367   4.668   3.969  11.917 -0.4407  2.5745  3.0886
  909MPD2    H113368   4.689   3.795  12.300  3.2044  3.1856  0.8313
  909MPD2    H213369   0.256   3.717  12.040  0.8840  0.8682  2.3749
  909MPD2    H313370   0.164   3.691  12.236  1.3125  0.6564 -0.7255
  909MPD2     N13371   4.529   3.926  12.123 -0.7738  0.8119 -0.7418
  909MPD2    H513372   4.490   3.972  12.042 -0.4661  0.4924 -1.0734
  909MPD2    N113373   0.146   3.854  11.821  0.3851 -0.0461  0.4262
  909MPD2    H713374   0.102   3.918  11.757 -0.4810 -0.5114  0.5520
  910MPD2     C13375   1.896   1.077  16.192  0.8052 -0.7368  0.3094
  910MPD2    C113376   1.960   1.051  16.068  0.0536  0.2404  0.2448
  910MPD2    C213377   1.897   1.099  15.953 -0.5065 -0.0379  0.4084
  910MPD2    C313378   1.775   1.165  15.955  0.0508  0.6783  0.0323
  910MPD2    C413379   1.719   1.188  16.082  0.2256  0.3030 -0.4825
  910MPD2    C513380   1.786   1.150  16.196 -0.3830 -0.3027 -0.0881
  910MPD2     H13381   1.938   1.087  15.853 -0.8926  1.5282  0.0642
  910MPD2    H113382   1.626   1.240  16.100 -0.1845 -0.6324  0.1027
  910MPD2    H213383   1.933   1.024  16.279  2.8108  0.6682  0.3128
  910MPD2    H313384   1.741   1.165  16.293 -0.9892 -1.9161 -0.1217
  910MPD2     N13385   1.711   1.235  15.852 -0.2616  0.6334 -0.1389
  910MPD2    H513386   1.624   1.280  15.879 -0.4777 -0.4410  0.9254
  910MPD2    N113387   2.075   0.971  16.053  0.0745  0.1764 -0.5327
  910MPD2    H713388   2.116   0.965  15.960 -2.0708  0.0593 -1.4837
  911MPD2     C13389   3.940   1.489  16.616 -0.5362 -0.1120 -0.1608
  911MPD2    C113390   3.970   1.621  16.634  0.8301  0.2112 -0.1623
  911MPD2    C213391   3.867   1.708  16.605 -0.5058 -0.1014 -0.2010
  911MPD2    C313392   3.748   1.662  16.551 -1.0154  0.3599  0.1525
  911MPD2    C413393   3.725   1.523  16.529  0.5059  0.6111 -0.8308
  911MPD2    C513394   3.825   1.438  16.564 -0.3968  0.8147  0.1162
  911MPD2     H13395   3.885   1.815  16.617 -1.2326  0.1164 -1.0461
  911MPD2    H113396   3.637   1.487  16.476  0.1391  0.0703  0.1445
  911MPD2    H213397   4.012   1.417  16.656  0.7325  1.2031 -0.0714
  911MPD2    H313398   3.806   1.332  16.549  0.5098  0.9283 -1.8414
  911MPD2     N13399   3.635   1.740  16.515  0.3001 -0.2673 -0.0491
  911MPD2    H513400   3.554   1.694  16.475 -0.0280  0.0206  0.2753
  911MPD2    N113401   4.108   1.655  16.657  0.4994 -0.4743 -0.4588
  911MPD2    H713402   4.177   1.581  16.645  1.3878  0.4203 -0.8558
  912MPD2     C13403   3.655   1.604  15.940  0.0181 -0.1832  0.5632
  912MPD2    C113404   3.596   1.592  16.063 -0.7347 -0.3977 -0.4230
  912MPD2    C213405   3.628   1.473  16.129 -0.2780 -0.1825  0.3194
  912MPD2    C313406   3.710   1.378  16.074  0.3898  0.0955 -0.4357
  912MPD2    C413407   3.776   1.403  15.957  0.1751 -0.4700 -0.1813
  912MPD2    C513408   3.744   1.516  15.891 -0.0340 -0.3777  0.2130
  912MPD2     H13409   3.598   1.454  16.231  0.4244  0.0968  0.5790
  912MPD2    H113410   3.845   1.334  15.910 -1.2529 -1.8608 -0.2383
  912MPD2    H213411   3.631   1.684  15.872  0.1576  1.3249  2.2957
  912MPD2    H313412   3.792   1.535  15.795 -1.2229  1.7346  0.0372
  912MPD2     N13413   3.722   1.258  16.146  0.3904 -0.0517  0.7010
  912MPD2    H513414   3.656   1.253  16.223  1.1298  0.4617  1.3742
  912MPD2    N113415   3.509   1.696  16.113  0.9490  0.2918 -0.0566
  912MPD2    H713416   3.506   1.783  16.061 -1.0205  0.8069  0.9344
  913MPD2     C13417   3.626   2.229  10.651  0.1261 -0.1730 -0.0677
  913MPD2    C113418   3.679   2.332  10.734  0.2873 -0.0310 -0.0345
  913MPD2    C213419   3.685   2.462  10.680  0.4222  0.3538  1.0669
  913MPD2    C313420   3.636   2.481  10.545 -0.4086  0.2773  0.4872
  913MPD2    C413421   3.568   2.383  10.478 -0.6564  0.1656 -0.0006
  913MPD2    C513422   3.568   2.259  10.532 -0.1960  0.2564  0.3384
  913MPD2     H13423   3.741   2.545  10.720  1.3774  0.5239 -0.5837
  913MPD2    H113424   3.526   2.409  10.381 -0.1932 -0.5536 -0.3925
  913MPD2    H213425   3.641   2.125  10.676  0.8831 -0.0120  0.1501
  913MPD2    H313426   3.522   2.182  10.471 -1.8893  2.6155 -1.3989
  913MPD2     N13427   3.674   2.597  10.470  0.4897 -0.0389 -0.4397
  913MPD2    H513428   3.641   2.598  10.374  4.0082  1.1886 -1.6326
  913MPD2    N113429   3.732   2.300  10.862 -0.6460  0.5531 -0.1020
  913MPD2    H713430   3.719   2.202  10.883  0.0016  0.3004 -0.9088
  914MPD2     C13431   2.867   2.778  12.698  0.1601  0.4869 -0.1753
  914MPD2    C113432   2.773   2.879  12.720  0.0743 -0.2725  0.3007
  914MPD2    C213433   2.694   2.867  12.833 -0.6445  0.2999  0.5931
  914MPD2    C313434   2.692   2.758  12.916  0.3814  0.3451  0.2210
  914MPD2    C413435   2.776   2.655  12.885 -0.6711  0.0145  0.0632
  914MPD2    C513436   2.873   2.671  12.786 -0.1790  0.0480 -0.8929
  914MPD2     H13437   2.623   2.945  12.859  0.0323  1.5020 -1.1277
  914MPD2    H113438   2.781   2.563  12.941  2.3787  0.0004 -0.2250
  914MPD2    H213439   2.941   2.775  12.618  1.4113 -0.1763  1.0146
  914MPD2    H313440   2.951   2.596  12.777 -1.0441 -0.9563  0.0263
  914MPD2     N13441   2.588   2.749  13.008 -0.2708  0.1939 -0.0438
  914MPD2    H513442   2.506   2.809  13.006  0.7393  1.5035 -1.2795
  914MPD2    N113443   2.768   2.993  12.638 -0.0693  0.7388  0.2395
  914MPD2    H713444   2.821   2.981  12.552 -3.0936 -2.0518 -1.2331
  915MPD2     C13445   0.600   3.110  15.480 -0.4262 -0.1019 -0.1420
  915MPD2    C113446   0.511   3.199  15.429 -0.1458  0.6764  0.1924
  915MPD2    C213447   0.420   3.252  15.518  1.0237 -0.2781  0.3968
  915MPD2    C313448   0.409   3.205  15.644 -0.3059  0.4196 -0.3072
  915MPD2    C413449   0.513   3.129  15.699 -0.0004 -0.5079 -0.0004
  915MPD2    C513450   0.603   3.072  15.612  0.3361  0.2286  0.1850
  915MPD2     H13451   0.348   3.320  15.475  2.0523  0.9679  0.6418
  915MPD2    H113452   0.520   3.107  15.805 -0.6931  1.4571  0.4607
  915MPD2    H213453   0.666   3.065  15.407 -1.0588 -1.5270  0.1791
  915MPD2    H313454   0.685   3.011  15.648  1.3650  1.0757 -0.7266
  915MPD2     N13455   0.295   3.251  15.720 -0.1815 -0.3147  0.4252
  915MPD2    H513456   0.241   3.333  15.692 -0.6274 -0.4834  0.7915
  915MPD2    N113457   0.521   3.227  15.290 -0.9709 -0.1365 -0.1859
  915MPD2    H713458   0.575   3.160  15.236  0.4791  3.3332 -2.9819
  916MPD2     C13459   3.046   1.251  16.414 -0.2775 -1.8695 -0.1664
  916MPD2    C113460   3.075   1.364  16.337 -0.1831 -0.7590 -0.6950
  916MPD2    C213461   3.155   1.347  16.223 -0.4780  0.1978  0.1806
  916MPD2    C313462   3.205   1.226  16.181 -0.6242 -0.7779  0.5553
  916MPD2    C413463   3.171   1.114  16.259  0.2601  0.4003 -0.3090
  916MPD2    C513464   3.096   1.128  16.373 -0.0955  0.8629  0.1650
  916MPD2     H13465   3.179   1.429  16.156 -0.4690  1.1687  1.3731
  916MPD2    H113466   3.213   1.017  16.237  1.0732 -0.1508  3.7428
  916MPD2    H213467   2.981   1.256  16.501  0.7471 -3.6921  0.6832
  916MPD2    H313468   3.073   1.039  16.431  0.2186  0.1219 -0.8491
  916MPD2     N13469   3.290   1.223  16.067 -0.6929  0.0468 -0.0166
  916MPD2    H513470   3.286   1.304  16.005  1.3832 -0.4963 -0.8574
  916MPD2    N113471   3.037   1.492  16.381 -0.0556 -0.0226  0.2136
  916MPD2    H713472   2.976   1.494  16.462 -0.8039  1.7542 -0.3750
  917MPD2     C13473   3.019   3.332  11.254 -0.2894 -0.7607 -0.1046
  917MPD2    C113474   3.139   3.371  11.317 -0.1750  0.1467 -0.7394
  917MPD2    C213475   3.220   3.470  11.265 -0.2047  0.1060  0.0102
  917MPD2    C313476   3.174   3.536  11.150 -0.1543 -0.1218 -0.1738
  917MPD2    C413477   3.063   3.490  11.088 -0.4046 -0.1088 -0.0599
  917MPD2    C513478   2.990   3.394  11.137 -0.4258  0.2969  0.4126
  917MPD2     H13479   3.312   3.505  11.310  0.7853 -0.1984 -1.7504
  917MPD2    H113480   3.024   3.529  10.994  0.5927  1.4121  0.1567
  917MPD2    H213481   2.959   3.249  11.288 -0.2518 -1.2955 -1.3581
  917MPD2    H313482   2.915   3.353  11.070  0.6649 -0.1443 -0.5477
  917MPD2     N13483   3.241   3.634  11.080  0.2415  0.4475  0.1422
  917MPD2    H513484   3.207   3.663  10.989 -1.7320 -2.6639 -0.1200
  917MPD2    N113485   3.178   3.297  11.429 -0.0959  0.0445 -0.0443
  917MPD2    H713486   3.128   3.210  11.448  0.0858 -0.3178 -1.2265
  918MPD2     C13487   3.554   3.549  12.360 -0.5244  0.4606 -0.3766
  918MPD2    C113488   3.642   3.574  12.257  0.6467 -0.2405  0.7585
  918MPD2    C213489   3.604   3.527  12.135  0.2534  0.7694 -0.0349
  918MPD2    C313490   3.494   3.441  12.116 -0.5055 -0.4276 -0.5374
  918MPD2    C413491   3.411   3.424  12.222 -0.0493  0.2099 -0.8459
  918MPD2    C513492   3.435   3.491  12.339 -0.2841  0.0219  0.4037
  918MPD2     H13493   3.669   3.545  12.051  0.0335  0.1025 -0.3519
  918MPD2    H113494   3.322   3.362  12.230  1.2965 -1.2754  2.8186
  918MPD2    H213495   3.579   3.583  12.460  0.0386 -0.8873 -0.0534
  918MPD2    H313496   3.362   3.477  12.418 -2.0948  0.9213 -1.1032
  918MPD2     N13497   3.487   3.375  11.996  0.0241  0.2036 -0.5616
  918MPD2    H513498   3.551   3.398  11.922 -1.1853  0.4215 -1.5312
  918MPD2    N113499   3.758   3.647  12.282 -0.1976 -0.3797 -0.0362
  918MPD2    H713500   3.813   3.662  12.198  0.6408 -1.7335  0.2684
  919MPD2     C13501   4.042   2.667  11.574 -0.5570  0.2885 -0.0778
  919MPD2    C113502   3.983   2.545  11.568 -0.2803  0.4535  0.1643
  919MPD2    C213503   3.880   2.527  11.479 -0.1565 -0.7447 -0.5921
  919MPD2    C313504   3.832   2.629  11.397  0.3366  0.3578  0.3927
  919MPD2    C413505   3.898   2.753  11.404  0.4593  0.0074  0.0958
  919MPD2    C513506   4.003   2.770  11.483  0.0499  0.2592  0.3326
  919MPD2     H13507   3.833   2.429  11.473  0.7184 -1.2341  0.5324
  919MPD2    H113508   3.861   2.823  11.330  2.0684  2.0627  1.2471
  919MPD2    H213509   4.134   2.686  11.628 -0.8588 -0.5002  0.6925
  919MPD2    H313510   4.055   2.865  11.495  2.8145 -1.4340  1.7710
  919MPD2     N13511   3.719   2.622  11.314  0.1600 -0.1114 -0.0795
  919MPD2    H513512   3.693   2.708  11.267 -0.7686 -1.3937 -1.9211
  919MPD2    N113513   4.048   2.432  11.634  0.1710 -0.2457 -0.2234
  919MPD2    H713514   4.022   2.338  11.609 -1.7744  0.4159 -0.6389
  920MPD2     C13515   3.411   2.960  10.455 -0.0961  0.1498  0.4869
  920MPD2    C113516   3.332   2.846  10.455 -0.3008  0.1658  0.0018
  920MPD2    C213517   3.338   2.765  10.564  0.2988  0.4832 -0.4760
  920MPD2    C313518   3.409   2.800  10.677 -0.7046 -0.0395 -0.1841
  920MPD2    C413519   3.492   2.911  10.666  0.1537  0.6114 -0.2739
  920MPD2    C513520   3.494   2.997  10.561 -0.7733 -0.2972  0.1275
  920MPD2     H13521   3.281   2.673  10.565 -0.1628  0.7719 -0.3269
  920MPD2    H113522   3.551   2.947  10.749 -0.5429  4.1263 -1.2817
  920MPD2    H213523   3.412   3.038  10.379 -2.7178 -0.8413 -0.5811
  920MPD2    H313524   3.547   3.091  10.570  0.4872 -1.0212  0.1796
  920MPD2     N13525   3.408   2.721  10.796 -0.2941  0.6629  0.1187
  920MPD2    H513526   3.346   2.641  10.791  0.9610 -0.3061  0.0890
  920MPD2    N113527   3.247   2.798  10.352 -0.1903 -0.3458 -0.5497
  920MPD2    H713528   3.217   2.702  10.361  1.3672 -0.7300  0.5650
  921MPD2     C13529   0.074   2.290  16.818 -0.4625  0.2040  0.4969
  921MPD2    C113530   0.091   2.170  16.881 -0.7733  0.4969  0.6134
  921MPD2    C213531   4.724   2.094  16.928 -0.1595  0.5268 -1.2377
  921MPD2    C313532   4.601   2.134  16.885 -0.1555 -0.2761  0.3279
  921MPD2    C413533   4.580   2.250  16.818  0.0664 -0.1169 -0.1787
  921MPD2    C513534   4.692   2.328  16.788  0.2157  0.2702 -0.1520
  921MPD2     H13535   4.733   2.000  16.982 -0.0569  1.9350  1.1545
  921MPD2    H113536   4.483   2.281  16.781 -0.2301 -1.5559 -0.6238
  921MPD2    H213537   0.156   2.355  16.790 -1.8796  0.9040 -2.0537
  921MPD2    H313538   4.677   2.422  16.736 -1.6077  0.2769  0.3531
  921MPD2     N13539   4.481   2.060  16.912  0.4310  0.4632 -0.3585
  921MPD2    H513540   4.404   2.082  16.850 -0.6200  0.0728  0.8194
  921MPD2    N113541   0.223   2.121  16.876  0.0478 -0.3564  0.4997
  921MPD2    H713542   0.298   2.168  16.825 -0.5437  0.1448  0.0934
  922MPD2     C13543   1.089   4.422  17.211 -0.0835  0.5375  0.1911
  922MPD2    C113544   0.985   4.403  17.298 -0.7787  0.6471 -0.0910
  922MPD2    C213545   0.919   4.282  17.301  0.1915  0.3567 -0.6456
  922MPD2    C313546   0.937   4.183  17.206  0.4142  0.3243  0.2499
  922MPD2    C413547   1.034   4.213  17.108  0.3433  0.1046  0.7860
  922MPD2    C513548   1.113   4.322  17.117 -0.1280 -0.0372  0.5635
  922MPD2     H13549   0.849   4.263  17.382  0.4730  0.2687 -0.4231
  922MPD2    H113550   1.046   4.139  17.029 -2.4608  0.2638  0.1937
  922MPD2    H213551   1.150   4.511  17.215 -1.8281  1.7131  0.4845
  922MPD2    H313552   1.190   4.331  17.041 -1.2914  1.3412 -0.4747
  922MPD2     N13553   0.851   4.072  17.208  0.1201  0.0979  0.0988
  922MPD2    H513554   0.766   4.073  17.263  0.1659  2.4764  0.1443
  922MPD2    N113555   0.950   4.490  17.396  0.1747  0.2008 -0.2513
  922MPD2    H713556   0.879   4.455  17.460  0.2100  0.6276  0.0233
  923MPD2     C13557   2.108   0.634   9.751 -0.4623 -0.4997  0.5026
  923MPD2    C113558   2.053   0.745   9.808 -0.5042 -0.5997 -0.4623
  923MPD2    C213559   2.138   0.842   9.862 -1.2249 -0.1197 -0.1669
  923MPD2    C313560   2.270   0.805   9.864  0.7172 -0.0115 -0.1296
  923MPD2    C413561   2.317   0.688   9.835 -0.3993  0.0367 -0.5532
  923MPD2    C513562   2.239   0.598   9.766 -0.1280  0.0195  0.2369
  923MPD2     H13563   2.100   0.937   9.896  1.3351  0.5941  0.6851
  923MPD2    H113564   2.422   0.664   9.845  0.3884  3.2182 -1.1763
  923MPD2    H213565   2.045   0.561   9.702  1.5281 -0.8856 -1.4616
  923MPD2    H313566   2.276   0.503   9.729  0.1701  0.9455 -1.8809
  923MPD2     N13567   2.374   0.894   9.900  0.0464  0.5115  0.6377
  923MPD2    H513568   2.463   0.846   9.893  0.0127  0.5463 -0.0539
  923MPD2    N113569   1.913   0.760   9.796 -0.1433 -0.1287 -0.1814
  923MPD2    H713570   1.857   0.681   9.764 -1.2758  0.5793  0.0322
  924MPD2     C13571   2.933   0.799  15.201  0.8786 -0.4700  0.2297
  924MPD2    C113572   3.028   0.756  15.291 -0.4466 -0.2644 -0.2814
  924MPD2    C213573   3.048   0.832  15.401  0.3750  0.3521  0.9768
  924MPD2    C313574   2.984   0.951  15.422 -0.0148 -0.2458 -0.0661
  924MPD2    C413575   2.902   1.002  15.329  1.4666 -0.0546  0.3745
  924MPD2    C513576   2.873   0.923  15.219  0.1036  0.0436 -0.4058
  924MPD2     H13577   3.107   0.795  15.483  0.4704 -0.1488  0.6795
  924MPD2    H113578   2.842   1.088  15.359 -1.4222 -1.5331 -1.1534
  924MPD2    H213579   2.908   0.742  15.113  0.3979  1.7526 -1.0695
  924MPD2    H313580   2.791   0.943  15.151 -0.0515  0.4361 -0.1055
  924MPD2     N13581   2.994   1.021  15.547 -0.1779  0.5795  0.3009
  924MPD2    H513582   2.925   1.094  15.560  1.2599  1.9903  0.0567
  924MPD2    N113583   3.091   0.629  15.264  0.0992  0.0230 -0.6909
  924MPD2    H713584   3.048   0.563  15.200 -0.5175 -3.1632  3.0477
  925MPD2     C13585   1.384   2.589  14.199  0.0986 -0.0105 -0.7950
  925MPD2    C113586   1.246   2.580  14.172 -0.6538 -0.2098  0.1608
  925MPD2    C213587   1.153   2.586  14.277 -0.0724 -1.1138  0.0881
  925MPD2    C313588   1.196   2.595  14.413  0.0714 -0.4048 -0.0379
  925MPD2    C413589   1.333   2.592  14.433 -0.1068 -0.0110  0.3764
  925MPD2    C513590   1.423   2.589  14.330 -0.1436  0.0155 -0.2751
  925MPD2     H13591   1.047   2.575  14.258 -0.5822  1.0699  1.7802
  925MPD2    H113592   1.374   2.602  14.533  0.0879 -1.6013  0.4608
  925MPD2    H213593   1.461   2.588  14.123  0.5790  0.3357 -0.3107
  925MPD2    H313594   1.527   2.601  14.356 -0.0042  0.3336 -0.9942
  925MPD2     N13595   1.106   2.615  14.522 -0.2041  0.3241 -0.3776
  925MPD2    H513596   1.151   2.625  14.612  2.7147  0.1991 -1.8240
  925MPD2    N113597   1.200   2.541  14.042  0.0272  0.0123  0.8528
  925MPD2    H713598   1.103   2.511  14.036  0.6010 -1.5450 -0.5216
  926MPD2     C13599   4.556   0.727  14.002 -0.4548 -0.0709 -0.2786
  926MPD2    C113600   4.447   0.793  13.948  0.1600  1.0121  0.6114
  926MPD2    C213601   4.450   0.825  13.815  0.5382 -0.0131  0.3241
  926MPD2    C313602   4.567   0.813  13.745  0.8485  0.1105  0.3456
  926MPD2    C413603   4.670   0.743  13.791 -0.0004 -0.1711 -0.2497
  926MPD2    C513604   4.660   0.693  13.919  0.3234 -0.5304 -0.7162
  926MPD2     H13605   4.369   0.882  13.769  1.2912  1.9971  1.4783
  926MPD2    H113606   0.025   0.734  13.739 -0.7967  3.0465 -2.2561
  926MPD2    H213607   4.542   0.684  14.101  1.1824 -1.8711 -0.8416
  926MPD2    H313608   4.739   0.633  13.963  0.3506  1.4778  2.0208
  926MPD2     N13609   4.573   0.855  13.607 -0.4247 -0.6721  0.1823
  926MPD2    H513610   4.660   0.827  13.563 -0.6445 -0.2829 -0.4904
  926MPD2    N113611   4.328   0.833  14.020 -0.4206  0.6797  0.1636
  926MPD2    H713612   4.254   0.877  13.967 -1.1306  0.2082  0.7663
  927MPD2     C13613   4.153   2.773  16.882 -0.2099 -0.2597 -0.2685
  927MPD2    C113614   4.226   2.794  16.995  0.3468  0.6899  0.0978
  927MPD2    C213615   4.361   2.811  16.982  0.2507  0.4022 -0.1930
  927MPD2    C313616   4.426   2.812  16.853 -0.2649 -0.1896 -0.3123
  927MPD2    C413617   4.356   2.784  16.738 -0.1043  0.9173 -0.7308
  927MPD2    C513618   4.219   2.756  16.763 -0.5252  0.3542  0.2218
  927MPD2     H13619   4.429   2.823  17.065 -0.8837  1.5681  0.5663
  927MPD2    H113620   4.384   2.783  16.634  2.1689 -1.9037 -0.1214
  927MPD2    H213621   4.047   2.754  16.892  0.1151 -2.3268 -0.6528
  927MPD2    H313622   4.161   2.744  16.672 -0.5760 -0.5782  0.3815
  927MPD2     N13623   4.567   2.842  16.847  0.4742 -0.2542  0.3580
  927MPD2    H513624   4.614   2.842  16.937 -0.2370 -0.6898  0.7283
  927MPD2    N113625   4.172   2.791  17.127 -0.1313  0.7814 -0.3987
  927MPD2    H713626   4.071   2.781  17.122 -0.0283 -0.0144 -1.0173
  928MPD2     C13627   1.877   0.983   0.772  0.1900 -0.4664 -0.5058
  928MPD2    C113628   2.010   0.944   0.802  0.7108  0.0706 -0.3521
  928MPD2    C213629   2.119   0.953   0.709  0.1786 -0.1485 -0.0258
  928MPD2    C313630   2.093   0.996   0.579 -0.3679  0.2099  0.7888
  928MPD2    C413631   1.959   1.020   0.548 -0.0189  0.9751 -0.1423
  928MPD2    C513632   1.860   1.020   0.639 -0.2729 -0.4378  0.5848
  928MPD2     H13633   2.217   0.919   0.741  0.5046 -0.0644 -0.9329
  928MPD2    H113634   1.940   1.045   0.444  1.7599 -1.9783 -1.2071
  928MPD2    H213635   1.792   0.970   0.837  0.2181  1.6427 -0.0456
  928MPD2    H313636   1.760   1.035   0.600  0.1810  0.5967 -0.1666
  928MPD2     N13637   2.193   1.031   0.480 -0.8637  0.1860 -0.2883
  928MPD2    H513638   2.145   1.072   0.401  0.6108  1.0432 -0.7200
  928MPD2    N113639   2.024   0.892   0.935  0.0730 -0.3445  0.6572
  928MPD2    H713640   1.936   0.892   0.985 -0.4235  0.7473 -0.1945
  929MPD2     C13641   2.356   0.346  11.072  0.0560  0.2806  0.3322
  929MPD2    C113642   2.226   0.362  11.115 -0.5746  0.2090 -0.5082
  929MPD2    C213643   2.125   0.409  11.028  0.0548 -0.1359  0.0417
  929MPD2    C313644   2.159   0.432  10.897  0.1376  0.4075 -0.6562
  929MPD2    C413645   2.290   0.420  10.858  0.1145 -0.2730 -0.4384
  929MPD2    C513646   2.384   0.374  10.940 -0.4425 -0.5958  0.5884
  929MPD2     H13647   2.024   0.427  11.062  1.1137  2.8250  1.6307
  929MPD2    H113648   2.327   0.445  10.759 -1.1094 -1.3347 -1.1588
  929MPD2    H213649   2.438   0.346  11.143  0.6334  1.0970 -0.3331
  929MPD2    H313650   2.482   0.369  10.894  0.5344 -0.4547  2.6150
  929MPD2     N13651   2.065   0.487  10.807  0.0885  0.3263  0.3760
  929MPD2    H513652   2.099   0.515  10.715 -2.2578 -0.3653 -0.6969
  929MPD2    N113653   2.204   0.332  11.256  0.4689 -0.6917 -0.2610
  929MPD2    H713654   2.281   0.301  11.314  0.1330 -0.7227  0.1642
  930MPD2     C13655   4.186   3.588  14.333 -0.6740  0.0508  0.4093
  930MPD2    C113656   4.117   3.658  14.237  0.2846 -0.1322  0.0460
  930MPD2    C213657   3.983   3.637  14.237  0.5340  0.3362  0.2090
  930MPD2    C313658   3.910   3.540  14.317 -0.1339 -0.5175 -0.3519
  930MPD2    C413659   3.987   3.471  14.407 -0.5235 -0.3949  0.0974
  930MPD2    C513660   4.125   3.499  14.413 -0.2042  0.3532  0.1103
  930MPD2     H13661   3.931   3.696  14.163  1.9907  0.8714 -0.3854
  930MPD2    H113662   3.950   3.392  14.471 -1.6897  0.4254  0.4504
  930MPD2    H213663   4.293   3.586  14.352 -0.2977 -1.0761 -1.8636
  930MPD2    H313664   4.188   3.446  14.484 -0.9638  1.0822  1.3121
  930MPD2     N13665   3.775   3.508  14.300 -0.1633 -0.3209  0.0135
  930MPD2    H513666   3.742   3.432  14.359 -1.1473 -0.3857 -0.6067
  930MPD2    N113667   4.189   3.733  14.129  0.3043  0.6790 -1.0813
  930MPD2    H713668   4.289   3.744  14.139  0.3376 -1.7822  1.3714
  931MPD2     C13669   4.532   2.910   0.077 -0.5608  0.5715  0.6256
  931MPD2    C113670   4.401   2.869   0.089 -0.0493  0.3284  0.8085
  931MPD2    C213671   4.350   2.841   0.216 -0.0806 -1.1862  0.6466
  931MPD2    C313672   4.432   2.852   0.325 -0.2012 -0.0886  0.1868
  931MPD2    C413673   4.560   2.894   0.311 -0.6171 -0.3788  0.0112
  931MPD2    C513674   4.604   2.931   0.192  1.1411 -0.1747  0.0091
  931MPD2     H13675   4.255   2.789   0.220 -0.6051 -0.0530  2.7645
  931MPD2    H113676   4.628   2.892   0.395  0.0059 -1.4506 -0.5337
  931MPD2    H213677   4.581   2.932  17.741 -0.3785  0.2773  0.6529
  931MPD2    H313678   4.710   2.954   0.189  1.0860 -0.1183 -1.8521
  931MPD2     N13679   4.378   2.832   0.454 -0.2877 -0.3418 -0.0920
  931MPD2    H513680   4.442   2.815   0.531  1.5875 -1.0839 -1.8070
  931MPD2    N113681   4.319   2.860  17.725  0.4565  0.5023 -0.3138
  931MPD2    H713682   4.376   2.873  17.642  0.4434  1.9459 -0.1042
  932MPD2     C13683   1.222   2.173  11.493  0.3619  0.0223 -0.0422
  932MPD2    C113684   1.280   2.173  11.366  0.1564 -0.2683  0.0268
  932MPD2    C213685   1.341   2.060  11.324 -0.1666  0.3148 -0.1888
  932MPD2    C313686   1.364   1.949  11.403  0.6730 -0.1067  0.4015
  932MPD2    C413687   1.315   1.957  11.534  0.6767 -0.6826 -0.1873
  932MPD2    C513688   1.247   2.068  11.574 -0.5479  0.5089 -0.7673
  932MPD2     H13689   1.359   2.047  11.217  0.0133  1.1906 -0.2637
  932MPD2    H113690   1.325   1.873  11.602  1.2438 -2.5415 -2.5605
  932MPD2    H213691   1.159   2.252  11.531  0.8243 -0.3503  1.4894
  932MPD2    H313692   1.209   2.059  11.675  1.4626 -0.1705 -0.0542
  932MPD2     N13693   1.420   1.831  11.358  0.3432  0.2561 -0.2439
  932MPD2    H513694   1.437   1.764  11.432 -1.4172  0.2725  0.1689
  932MPD2    N113695   1.265   2.268  11.264 -0.1398  0.6192  0.6294
  932MPD2    H713696   1.334   2.273  11.189  0.6064 -1.8230  1.1421
  933MPD2     C13697   1.767   0.848   1.736 -0.1759  0.5184 -0.0938
  933MPD2    C113698   1.825   0.923   1.637  0.1364 -0.1847  0.1765
  933MPD2    C213699   1.795   1.056   1.629  1.1641  0.0484 -0.3381
  933MPD2    C313700   1.694   1.116   1.710  0.3294  0.1586  0.3372
  933MPD2    C413701   1.636   1.035   1.802 -0.2608 -0.5121  0.0444
  933MPD2    C513702   1.674   0.905   1.816 -0.7346  0.2325  0.7201
  933MPD2     H13703   1.836   1.128   1.559  0.2577  1.9787  1.1060
  933MPD2    H113704   1.563   1.075   1.872 -0.5752  0.0144 -0.5832
  933MPD2    H213705   1.793   0.743   1.746 -2.3603 -0.3919 -3.8664
  933MPD2    H313706   1.623   0.844   1.890 -1.3292 -2.0326 -1.5385
  933MPD2     N13707   1.653   1.248   1.692  0.7431  0.4164  0.8391
  933MPD2    H513708   1.697   1.296   1.613 -1.8338  0.2954 -0.6647
  933MPD2    N113709   1.904   0.865   1.534 -0.6039  0.0538  0.0496
  933MPD2    H713710   1.937   0.773   1.558 -2.1937 -0.9313 -1.4710
  934MPD2     C13711   3.697   3.194   1.764 -0.2595 -0.9744  0.9317
  934MPD2    C113712   3.730   3.175   1.633  0.1873  0.3302  0.1628
  934MPD2    C213713   3.627   3.162   1.537 -0.1013 -0.3489  0.8113
  934MPD2    C313714   3.493   3.156   1.576  0.4286  0.1363  0.0282
  934MPD2    C413715   3.455   3.192   1.706 -0.1584  0.4150  0.1615
  934MPD2    C513716   3.561   3.209   1.792 -0.2326 -0.3188 -1.0797
  934MPD2     H13717   3.656   3.159   1.433  0.4503 -3.2612  1.0371
  934MPD2    H113718   3.354   3.177   1.742 -0.1366 -0.3907 -0.1065
  934MPD2    H213719   3.770   3.207   1.843 -2.5913 -1.3359  3.1775
  934MPD2    H313720   3.536   3.226   1.896 -0.7729  0.3264 -1.3126
  934MPD2     N13721   3.397   3.120   1.467  0.1361  0.1333  0.5236
  934MPD2    H513722   3.297   3.134   1.479 -0.4860 -2.9533 -1.2256
  934MPD2    N113723   3.867   3.169   1.591  0.2607 -0.4359 -0.5199
  934MPD2    H713724   3.891   3.165   1.493 -0.2429 -0.6784 -0.6282
  935MPD2     C13725   3.639   2.415   0.779 -0.1923  0.1914  0.9387
  935MPD2    C113726   3.554   2.512   0.718 -0.4631 -0.8172  0.1028
  935MPD2    C213727   3.473   2.582   0.806  0.6700 -0.1591  0.1668
  935MPD2    C313728   3.486   2.574   0.944 -0.2489 -0.2775 -0.5949
  935MPD2    C413729   3.578   2.487   0.994 -0.4227 -0.2687  0.3265
  935MPD2    C513730   3.647   2.400   0.913 -0.1568  0.3310 -0.1940
  935MPD2     H13731   3.410   2.650   0.750  0.3582 -0.7090 -0.1474
  935MPD2    H113732   3.591   2.481   1.102 -5.0150  1.6131  0.9787
  935MPD2    H213733   3.704   2.355   0.716 -0.1521  1.7926 -0.5592
  935MPD2    H313734   3.725   2.338   0.956  0.8445  2.2122  0.7110
  935MPD2     N13735   3.412   2.658   1.029 -1.0280 -0.5245 -0.0352
  935MPD2    H513736   3.421   2.652   1.130  0.6492  0.4148 -0.1379
  935MPD2    N113737   3.538   2.537   0.587  0.0008 -0.0458  0.4806
  935MPD2    H713738   3.470   2.606   0.556  1.9307  1.5578 -0.1279
  936MPD2     C13739   1.283   1.150  12.701 -0.7150 -0.4021 -0.2573
  936MPD2    C113740   1.333   1.040  12.766  0.2551 -0.4030  0.4726
  936MPD2    C213741   1.455   1.061  12.833 -0.6213  0.0215 -0.6885
  936MPD2    C313742   1.521   1.177  12.834 -0.3033  0.4808 -0.5568
  936MPD2    C413743   1.465   1.290  12.776  0.2253  0.1444 -0.2912
  936MPD2    C513744   1.343   1.274  12.717 -0.1416  0.8361  0.3686
  936MPD2     H13745   1.507   0.973  12.870 -2.0740 -1.6850 -2.6499
  936MPD2    H113746   1.512   1.387  12.780  1.4961 -0.5166  0.7764
  936MPD2    H213747   1.191   1.150  12.643 -1.2714 -0.7314  0.6307
  936MPD2    H313748   1.295   1.360  12.671  0.0856  0.3665 -0.7352
  936MPD2     N13749   1.654   1.168  12.890 -0.5019 -0.0862 -0.4847
  936MPD2    H513750   1.678   1.083  12.940  0.7614  0.2521 -0.5231
  936MPD2    N113751   1.286   0.910  12.750  0.0659  0.7893  0.6577
  936MPD2    H713752   1.337   0.839  12.801  0.0447 -0.7968 -1.5375
  937MPD2     C13753   4.363   1.890  11.321 -0.5039  0.2019  0.5192
  937MPD2    C113754   4.439   1.990  11.378  0.5105 -0.1228  0.1812
  937MPD2    C213755   4.538   2.055  11.296  0.0485  0.9278  0.0677
  937MPD2    C313756   4.575   1.992  11.174  0.1389 -0.6049 -0.1278
  937MPD2    C413757   4.495   1.887  11.117  0.3799 -0.0777 -0.3613
  937MPD2    C513758   4.399   1.836  11.198 -0.8191 -0.4499 -0.1749
  937MPD2     H13759   4.574   2.145  11.344 -0.5994  1.2749 -0.1006
  937MPD2    H113760   4.511   1.823  11.031  0.9048  0.5167 -0.7007
  937MPD2    H213761   4.283   1.836  11.370 -1.9495  0.3175 -1.6921
  937MPD2    H313762   4.340   1.756  11.155  0.8525 -2.2198  0.8346
  937MPD2     N13763   4.682   2.065  11.107 -0.7746  0.0119 -0.5526
  937MPD2    H513764   4.723   2.138  11.164 -0.4486 -1.8360  1.5706
  937MPD2    N113765   4.387   2.056  11.496 -0.2981 -0.9531 -0.0215
  937MPD2    H713766   4.444   2.135  11.525  0.9658 -0.9175 -2.5905
  938MPD2     C13767   2.638   3.502   0.554 -0.1679 -0.1455 -0.3593
  938MPD2    C113768   2.700   3.454   0.673 -0.5239 -0.1721  0.9125
  938MPD2    C213769   2.692   3.319   0.691  0.0969  0.0301  0.1142
  938MPD2    C313770   2.615   3.237   0.610  0.0081 -0.3032 -0.6301
  938MPD2    C413771   2.543   3.285   0.511 -0.2245  0.7693 -0.1801
  938MPD2    C513772   2.562   3.413   0.478 -0.0957 -0.1558 -0.2233
  938MPD2     H13773   2.753   3.285   0.774 -0.5168 -1.2171  0.0546
  938MPD2    H113774   2.478   3.223   0.451  0.2194 -1.0702  1.2361
  938MPD2    H213775   2.632   3.606   0.527 -0.5514 -0.8403 -2.8966
  938MPD2    H313776   2.509   3.451   0.392  0.3162 -1.1602 -0.9110
  938MPD2     N13777   2.584   3.100   0.646 -0.3177 -0.1633 -0.3723
  938MPD2    H513778   2.542   3.039   0.577  0.6488  1.1378 -2.1066
  938MPD2    N113779   2.762   3.528   0.773  0.0382  0.6089 -0.0114
  938MPD2    H713780   2.813   3.479   0.846 -0.5137 -0.0694 -0.0878
  939MPD2     C13781   4.017   3.861   1.065  0.3888  0.7744  0.0793
  939MPD2    C113782   4.042   3.967   0.988 -0.5382 -0.0167  0.0957
  939MPD2    C213783   3.965   3.977   0.872 -0.6043 -0.2390  0.3355
  939MPD2    C313784   3.865   3.890   0.836 -0.3410  0.7042  0.7830
  939MPD2    C413785   3.845   3.779   0.918 -0.3477  0.2143  0.7281
  939MPD2    C513786   3.923   3.765   1.029 -0.0456  0.3821  0.5655
  939MPD2     H13787   3.970   4.067   0.813 -1.9818 -0.2422  0.2249
  939MPD2    H113788   3.767   3.705   0.904 -1.7278  1.7494  0.2980
  939MPD2    H213789   4.080   3.844   1.151 -1.3077 -0.4917  1.0658
  939MPD2    H313790   3.902   3.678   1.090 -2.7294  0.6795  0.0418
  939MPD2     N13791   3.779   3.925   0.726  0.1093 -0.5707  0.6143
  939MPD2    H513792   3.786   4.022   0.697 -0.8638 -0.8783 -0.6474
  939MPD2    N113793   4.144   4.049   1.029  0.2758 -0.4628  0.1640
  939MPD2    H713794   4.178   4.041   1.124 -0.3050 -0.4202  0.3802
  940MPD2     C13795   2.265   0.411  12.940 -0.0804 -0.2539  0.5215
  940MPD2    C113796   2.239   0.293  12.996 -0.5317  1.0411 -0.3320
  940MPD2    C213797   2.287   0.173  12.940 -0.2187  0.2530 -0.0126
  940MPD2    C313798   2.351   0.178  12.813  0.5434 -0.6719 -0.0012
  940MPD2    C413799   2.367   0.302  12.754  0.7575 -0.3327  0.0480
  940MPD2    C513800   2.328   0.415  12.822  0.5797  0.6431 -0.0192
  940MPD2     H13801   2.276   0.076  12.986  0.0229  0.2408  0.0217
  940MPD2    H113802   2.418   0.320  12.660  0.6536  2.0824  0.4387
  940MPD2    H213803   2.236   0.504  12.986 -1.0377 -0.6781  0.7684
  940MPD2    H313804   2.370   0.508  12.785 -0.7180  0.9081 -0.8154
  940MPD2     N13805   2.396   0.065  12.743 -0.6241 -0.1062 -0.4085
  940MPD2    H513806   2.426   0.079  12.647 -0.1719  2.1177  0.0597
  940MPD2    N113807   2.168   0.276  13.117  0.0108  0.1371  0.2219
  940MPD2    H713808   2.144   0.182  13.145 -0.2483  0.3754  0.8027
  941MPD2     C13809   1.118   4.330  10.017 -0.0292  0.1166  0.6062
  941MPD2    C113810   1.121   4.339   9.880 -0.9683 -0.8176  0.1384
  941MPD2    C213811   1.015   4.276   9.814 -0.4077 -0.0117  0.3732
  941MPD2    C313812   0.910   4.226   9.887  0.3625 -0.0901  0.5520
  941MPD2    C413813   0.898   4.245  10.022 -0.1056 -0.2485 -0.6030
  941MPD2    C513814   1.008   4.294  10.089 -0.0776  0.4387  0.2838
  941MPD2     H13815   1.019   4.272   9.705  1.6162 -1.0636  0.4759
  941MPD2    H113816   0.817   4.201  10.080  0.0108  1.4965  0.9065
  941MPD2    H213817   1.207   4.351  10.076  1.5357 -3.2661 -0.5669
  941MPD2    H313818   1.018   4.292  10.197  2.0615  0.5828  0.0867
  941MPD2     N13819   0.809   4.145   9.835 -0.0923 -0.3256 -0.7319
  941MPD2    H513820   0.750   4.120   9.914 -1.3062  1.0799 -1.2014
  941MPD2    N113821   1.220   4.395   9.798  0.6958 -0.9268  0.1297
  941MPD2    H713822   1.191   4.405   9.701 -1.1593  0.2433  0.8076
  942MPD2     C13823   0.727   4.529  10.174 -0.1675  0.4500 -0.3968
  942MPD2    C113824   0.734   4.620  10.278  0.9425  0.7901 -0.2981
  942MPD2    C213825   0.813   4.733  10.258 -0.3744  0.2396 -0.2535
  942MPD2    C313826   0.872   0.023  10.136  0.2142  0.0641  0.5667
  942MPD2    C413827   0.852   4.673  10.030  0.1369 -0.0535 -0.1658
  942MPD2    C513828   0.791   4.551  10.057 -0.1743  0.2888 -0.9815
  942MPD2     H13829   0.822   0.052  10.348  1.4463  1.5353 -1.2792
  942MPD2    H113830   0.890   4.684   9.929  1.5122 -0.2024  0.3236
  942MPD2    H213831   0.668   4.438  10.181  1.4561 -0.4543  1.4712
  942MPD2    H313832   0.761   4.481   9.980 -1.8151  0.9806 -0.9711
  942MPD2     N13833   0.951   0.138  10.112  0.7305  0.7020  0.3470
  942MPD2    H513834   0.969   0.157  10.014  1.7574  0.9537  0.5751
  942MPD2    N113835   0.653   4.616  10.387  0.3829 -0.3966  0.0052
  942MPD2    H713836   0.654   4.698  10.447  0.6981 -2.9565  3.4674
  943MPD2     C13837   0.069   4.066  10.021  0.0335 -0.5349  0.2795
  943MPD2    C113838   4.716   3.994  10.093  0.1397 -0.0259 -0.2267
  943MPD2    C213839   4.685   4.028  10.223 -0.4299 -0.6629  0.4753
  943MPD2    C313840   4.720   4.149  10.267  0.0128 -0.4030 -0.3035
  943MPD2    C413841   0.060   4.234  10.195  0.2596  0.1720 -0.1485
  943MPD2    C513842   0.110   4.184  10.073  0.1545  0.3633 -0.1050
  943MPD2     H13843   4.616   3.968  10.282  0.9119 -0.9386  1.7717
  943MPD2    H113844   0.097   4.330  10.229  1.3154 -0.9080  1.7447
  943MPD2    H213845   0.101   4.022   9.927 -0.3100 -1.4000  0.5727
  943MPD2    H313846   0.176   4.244  10.011  1.0143 -0.8332 -0.3542
  943MPD2     N13847   4.674   4.183  10.398  0.1042 -0.2731  0.2483
  943MPD2    H513848   4.602   4.121  10.433  2.0452 -1.5465  2.0177
  943MPD2    N113849   4.682   3.867  10.042  0.0477 -0.1343 -0.4389
  943MPD2    H713850   4.714   3.842   9.949 -1.9603 -1.2074 -0.8572
  944MPD2     C13851   4.727   3.332  10.943 -0.1078 -0.4287  0.1749
  944MPD2    C113852   4.736   3.330  11.081  0.3672  0.2714  0.0074
  944MPD2    C213853   4.614   3.352  11.159  0.3542  0.2390 -0.0276
  944MPD2    C313854   4.496   3.350  11.086 -0.3248 -0.2414 -0.4505
  944MPD2    C413855   4.493   3.330  10.949 -0.2090 -0.3347  0.0018
  944MPD2    C513856   4.608   3.334  10.877 -0.3810  0.2118  0.0208
  944MPD2     H13857   4.610   3.390  11.260 -3.1600 -2.6914  0.9307
  944MPD2    H113858   4.402   3.321  10.891 -0.5685  0.7223  0.4142
  944MPD2    H213859   0.085   3.328  10.898 -0.1525  1.6884 -0.1188
  944MPD2    H313860   4.600   3.333  10.769 -2.2410  1.5231  0.1608
  944MPD2     N13861   4.383   3.373  11.166  0.1281 -0.2023 -0.6534
  944MPD2    H513862   4.407   3.387  11.263 -0.7292 -0.6078 -0.3796
  944MPD2    N113863   0.119   3.293  11.136  0.3684 -0.1791 -0.5621
  944MPD2    H713864   0.203   3.285  11.079  0.3503 -1.3682 -0.4224
    1TMC1    C113865   3.951   0.841  15.518  0.0166 -0.1340 -0.0146
    1TMC1    C213866   3.925   0.730  15.437 -0.4256 -0.4513 -0.2768
    1TMC1    C313867   3.995   0.619  15.466 -0.4583 -0.1218 -0.0017
    1TMC1    C413868   4.044   0.833  15.617 -0.4495  0.3955  0.2194
    1TMC1    C513869   4.116   0.720  15.638  0.3807 -0.3634  0.4746
    1TMC1    C613870   4.098   0.611  15.554  0.0568 -0.2793  0.0297
    1TMC1     C13871   3.898   0.978  15.499 -0.1506 -0.3754  0.4765
    1TMC1     O13872   3.912   1.064  15.585  0.9528  0.0821 -0.1461
    1TMC1     H13873   3.849   0.719  15.360 -0.6447  0.9178 -0.2567
    1TMC1    H113874   4.057   0.915  15.687  0.2576 -1.2837  2.0469
    1TMC1    H213875   4.170   0.530  15.561 -0.4620 -0.7438  0.0130
    1TMC1    C713876   4.197   0.683  15.755 -0.0956  0.4977  0.5202
    1TMC1    C813877   3.997   0.535  15.348  0.0189 -0.2660 -0.2119
    1TMC1    O113878   4.236   0.569  15.772 -0.4858 -0.3421  0.2652
    1TMC1    O213879   4.003   0.583  15.236  0.2124 -0.1724 -1.0451
    1TMC1    O313880   4.176   0.778  15.848 -0.1621  0.0829  0.5699
    1TMC1    H313881   4.123   0.856  15.819  1.2261  0.1481 -1.7834
    1TMC1    O513882   4.050   0.416  15.385 -0.4005 -0.2356  0.1455
    1TMC1    H513883   4.039   0.400  15.481  0.8701 -2.8737 -0.1435
    2MPD2     C13884   3.581   1.286  15.236 -0.2576  0.4252 -0.5137
    2MPD2    C113885   3.600   1.169  15.165 -0.7613 -0.2809 -0.4130
    2MPD2    C213886   3.688   1.076  15.208 -0.9154  0.0816 -0.9503
    2MPD2    C313887   3.749   1.094  15.331  0.6509  0.8412  0.4370
    2MPD2    C413888   3.733   1.217  15.401  0.5999  0.5607 -0.0734
    2MPD2    C513889   3.652   1.315  15.344  0.3711  0.1828  0.1237
    2MPD2     H13890   3.709   0.983  15.157 -1.4440 -0.6970  0.2323
    2MPD2    H113891   3.787   1.239  15.492 -0.0182  3.2747 -0.3536
    2MPD2    H213892   3.523   1.366  15.191 -0.0154  0.5209 -0.6605
    2MPD2    H313893   3.640   1.410  15.394 -1.1399 -0.7433  1.5275
    2MPD2     N13894   3.829   0.986  15.378  0.3822 -0.3693 -0.0880
    2MPD2    H513895   3.819   0.902  15.323 -0.0310  1.1953 -2.3938
    2MPD2    N113896   3.542   1.165  15.036  0.1943  0.2166  0.5372
    2MPD2    H713897   3.482   1.243  15.008 -1.5473 -1.5151 -0.5020
    3TMC2    C113898   3.448   1.071  14.837  0.2062 -0.1576 -0.3663
    3TMC2    C213899   3.334   1.148  14.847 -0.1685  0.9487 -0.1080
    3TMC2    C313900   3.255   1.166  14.740 -0.4123 -0.6407 -0.1669
    3TMC2    C413901   3.474   0.983  14.733 -0.5339 -0.0482  1.4978
    3TMC2    C513902   3.381   0.995  14.636 -0.2986  0.3651 -0.1183
    3TMC2    C613903   3.276   1.089  14.630  0.3893  0.4147  0.1310
    3TMC2     C13904   3.537   1.053  14.955 -0.0838  0.6359  0.0953
    3TMC2     O13905   3.593   0.944  14.959  0.3471  0.2914  0.1058
    3TMC2     H13906   3.312   1.207  14.935 -0.4083 -0.2688  0.6545
    3TMC2    H113907   3.551   0.907  14.732  0.5201  1.0308  0.3124
    3TMC2    H213908   3.194   1.076  14.561  0.2742 -0.7596  0.4910
    3TMC2    C713909   3.357   0.866  14.582  0.0075  0.3715  0.6041
    3TMC2    C813910   3.124   1.204  14.778  0.3663 -0.6617  0.0961
    3TMC2    O113911   3.408   0.766  14.629 -0.2335 -0.1542 -0.7165
    3TMC2    O213912   3.067   1.138  14.862  0.3114  0.8323 -1.3295
    3TMC2    O513913   3.068   1.240  14.660  0.5437  0.1401 -0.1455
    3TMC2    H513914   3.134   1.291  14.608 -0.6483  2.5195  0.6801
    4TMC2    C113915   2.726   0.883  13.822  0.3548 -0.1376  0.0871
    4TMC2    C213916   2.681   0.761  13.776 -0.3484 -0.2438  0.4785
    4TMC2    C313917   2.762   0.655  13.799 -0.0928 -0.2372 -0.2145
    4TMC2    C413918   2.841   0.903  13.896 -0.2285  0.0591 -0.4431
    4TMC2    C513919   2.913   0.789  13.925 -0.2886  0.7018  0.3774
    4TMC2    C613920   2.869   0.666  13.882  0.0932 -0.2395 -0.4757
    4TMC2     C13921   2.631   0.990  13.812  0.5119  0.3730  0.0694
    4TMC2     O13922   2.677   1.102  13.806  0.3372 -0.3628 -0.5069
    4TMC2     H13923   2.600   0.758  13.704  0.3167 -1.1240 -0.2318
    4TMC2    H113924   2.864   1.003  13.933 -0.8730  1.2778 -3.3076
    4TMC2    H213925   2.932   0.579  13.892 -0.4128 -0.7351 -1.6426
    4TMC2    C713926   2.994   0.799  14.048 -0.5582  1.1497 -0.8234
    4TMC2    C813927   2.743   0.532  13.728  0.1636 -0.3249  0.2140
    4TMC2    O113928   3.005   0.911  14.096 -0.1823  0.3920 -0.5756
    4TMC2    O213929   2.825   0.445  13.743 -0.1190  0.0261 -0.5622
    4TMC2    O513930   2.609   0.498  13.720  0.0421 -0.2100  0.3729
    4TMC2    H513931   2.541   0.564  13.745  0.9386  0.4024  1.1694
    5MPD2     C13932   2.183   1.199  13.927 -0.7737 -0.4756  1.3817
    5MPD2    C113933   2.159   1.065  13.911  0.8418 -0.0559 -0.4372
    5MPD2    C213934   2.267   0.980  13.882 -0.3274  0.2508 -0.0298
    5MPD2    C313935   2.394   1.037  13.873 -0.2406 -0.4115 -0.3835
    5MPD2    C413936   2.414   1.167  13.912  0.4234 -0.6250 -0.1727
    5MPD2    C513937   2.307   1.248  13.933 -0.0813 -0.4861 -1.6592
    5MPD2     H13938   2.260   0.877  13.851  2.6733  0.4275 -1.3195
    5MPD2    H113939   2.510   1.217  13.922 -1.2843  2.3725  1.1633
    5MPD2    H213940   2.103   1.270  13.939 -0.9154 -0.6683  1.5786
    5MPD2    H313941   2.317   1.355  13.950  1.9168 -0.7991 -0.8059
    5MPD2     N13942   2.501   0.949  13.841 -0.3023 -0.2295  0.1282
    5MPD2    H513943   2.486   0.850  13.826 -0.9269 -0.2276  0.7466
    5MPD2    N113944   2.026   1.021  13.916 -0.0491  0.8733  0.2607
    5MPD2    H713945   1.957   1.091  13.943 -0.5066  0.4516  0.1779
    6MPD1     C13946   0.938   1.671  12.713 -0.1957 -0.2419 -0.6559
    6MPD1    C113947   1.010   1.757  12.789 -0.3847 -0.1286  0.5182
    6MPD1    C213948   1.079   1.696  12.896  0.4152  0.7950 -0.3033
    6MPD1    C313949   1.067   1.562  12.930  0.3513 -0.1351 -0.5562
    6MPD1    C413950   0.982   1.482  12.861  0.1880 -0.3241  0.4020
    6MPD1    C513951   0.917   1.541  12.754 -0.0371 -0.5923 -0.0713
    6MPD1     H13952   1.155   1.760  12.938  1.6116 -0.0768 -1.1219
    6MPD1    H113953   0.980   1.374  12.869 -2.3056 -0.4015 -1.2178
    6MPD1    H213954   0.890   1.705  12.622 -0.0362 -0.6502 -0.8924
    6MPD1    H313955   0.846   1.477  12.703 -0.2818  0.3582 -0.9254
    6MPD1     N13956   1.135   1.503  13.038  0.4142  0.7603 -0.4030
    6MPD1    H513957   1.130   1.402  13.050 -0.1150  0.9912  1.3214
    6MPD1    N113958   1.047   1.887  12.747 -0.0863  0.6557 -0.5751
    6MPD1    H613959   0.980   1.937  12.690 -1.1108 -1.7407 -1.5043
    6MPD1    H713960   1.075   1.946  12.825  1.1681 -3.3814  2.0933
    7MPD2     C13961   1.414   1.489  13.885 -0.7874 -0.0708 -0.7650
    7MPD2    C113962   1.396   1.376  13.804 -0.1179 -0.4632  0.6285
    7MPD2    C213963   1.418   1.252  13.852 -0.1290 -0.3637 -0.4700
    7MPD2    C313964   1.471   1.230  13.978  0.2298  0.3814  0.2424
    7MPD2    C413965   1.496   1.343  14.055 -0.0757 -0.8412  0.3305
    7MPD2    C513966   1.464   1.464  14.009 -0.3770  0.2024  0.6548
    7MPD2     H13967   1.421   1.165  13.787 -1.1657  0.7793 -2.0362
    7MPD2    H113968   1.554   1.336  14.146 -0.2176  0.1888  0.5012
    7MPD2    H213969   1.384   1.588  13.855  1.4059  0.7390 -0.3425
    7MPD2    H313970   1.460   1.555  14.068 -0.5578  3.1532 -3.8908
    7MPD2     N13971   1.513   1.098  14.007 -0.1282 -0.0534  0.0300
    7MPD2    H513972   1.500   1.032  13.931 -1.4563  0.1881  0.0382
    7MPD2    N113973   1.360   1.384  13.667 -0.4818 -0.3463  1.2477
    7MPD2    H713974   1.325   1.296  13.628  0.7196 -0.3531  0.1935
    8TMC3    C113975   1.675   0.947  14.062 -0.0584 -0.5913 -0.0090
    8TMC3    C213976   1.804   0.967  14.038 -1.0329  0.0811  0.3208
    8TMC3    C313977   1.866   0.869  13.957 -0.2179  0.1648 -0.1158
    8TMC3    C413978   1.601   0.844  14.010 -0.3597  0.2172 -0.2471
    8TMC3    C513979   1.656   0.771  13.909  0.6270 -0.4580  0.3521
    8TMC3    C613980   1.793   0.777  13.889  0.1448  0.1499  0.3514
    8TMC3     C13981   1.613   1.065  14.096 -0.1658  0.4536  0.5790
    8TMC3     O13982   1.665   1.136  14.179 -0.3043  0.0024 -0.2974
    8TMC3     H13983   1.856   1.051  14.083  0.1337  0.2749 -1.3551
    8TMC3    H113984   1.495   0.840  14.032 -0.9223  0.7283 -2.7630
    8TMC3    H213985   1.840   0.722  13.809  0.9439  1.9833 -0.4204
    8TMC3    C713986   1.578   0.788  13.795  0.1487 -0.4021 -0.9663
    8TMC3    C813987   1.990   0.893  13.892  0.1142  0.0616 -0.4994
    8TMC3    O113988   1.476   0.855  13.812 -0.2400  0.3773 -0.3543
    8TMC3    O213989   2.041   0.803  13.827 -0.1643 -0.0555  0.2661
    9TMC3    C113990   1.276   1.486  13.235  0.2977 -0.3570  0.4589
    9TMC3    C213991   1.300   1.355  13.203 -0.3375  0.0048  0.0998
    9TMC3    C313992   1.372   1.282  13.293 -0.4810 -0.1045  0.9065
    9TMC3    C413993   1.297   1.535  13.361 -0.4422 -0.2327 -0.2495
    9TMC3    C513994   1.357   1.455  13.452 -0.3676  0.7172  0.2203
    9TMC3    C613995   1.401   1.330  13.419  0.3064  0.3905 -0.2134
    9TMC3     C13996   1.196   1.570  13.143 -0.4762  0.0191 -0.2669
    9TMC3     O13997   1.204   1.688  13.159 -0.4770  0.0183  0.0478
    9TMC3     H13998   1.267   1.313  13.108  0.2544  1.5047 -0.7834
    9TMC3    H113999   1.257   1.629  13.396 -0.4523  0.5624 -2.3760
    9TMC3    H214000   1.477   1.279  13.477 -0.0578 -2.9360 -2.6712
    9TMC3    C714001   1.359   1.502  13.591  0.7240 -0.4430  0.0767
    9TMC3    C814002   1.425   1.149  13.257 -0.5879  0.3574  0.0879
    9TMC3    O114003   1.423   1.605  13.616  0.1206  0.3945 -0.0714
    9TMC3    O214004   1.424   1.108  13.139  0.4952 -0.1324  0.2795
   10MPD2     C14005   1.653   0.729  13.437  0.0027  0.0852 -0.1026
   10MPD2    C114006   1.586   0.783  13.543 -0.3738  0.3068  0.2751
   10MPD2    C214007   1.509   0.900  13.518  0.5270 -0.8779  0.0548
   10MPD2    C314008   1.489   0.954  13.395  0.0861  0.4017  0.6353
   10MPD2    C414009   1.549   0.890  13.295  0.1332 -0.2134  0.4191
   10MPD2    C514010   1.633   0.784  13.315  0.3999 -0.5765 -0.2418
   10MPD2     H14011   1.460   0.954  13.598 -1.9684 -1.2281 -1.2571
   10MPD2    H114012   1.552   0.925  13.193 -0.9914  0.6319  0.6710
   10MPD2    H214013   1.715   0.641  13.446 -1.3123 -0.9215 -0.9985
   10MPD2    H314014   1.672   0.734  13.227 -0.1092 -2.6582  0.7163
   10MPD2     N14015   1.423   1.076  13.370  0.0916 -0.1031  0.1311
   10MPD2    H514016   1.381   1.119  13.452  0.4664  0.0220  0.2600
   10MPD2    N114017   1.630   0.739  13.673  0.5777 -0.4759  0.1305
   10MPD2    H714018   1.705   0.671  13.673  1.9642  1.0641  0.7634
   11MPD2     C14019   3.237   0.626  14.461  0.6910 -0.6996 -0.2368
   11MPD2    C114020   3.229   0.748  14.404  0.4796  0.6053  0.2309
   11MPD2    C214021   3.157   0.763  14.288 -0.9570  0.9103  0.9353
   11MPD2    C314022   3.105   0.656  14.221  0.5006 -0.1669  0.1042
   11MPD2    C414023   3.118   0.530  14.275 -0.2790 -0.8638 -0.1170
   11MPD2    C514024   3.182   0.519  14.397 -0.6666  0.4849 -0.5573
   11MPD2     H14025   3.158   0.866  14.253 -1.0419  0.7871  0.5643
   11MPD2    H114026   3.073   0.446  14.223 -0.4471 -0.7219 -0.2035
   11MPD2    H214027   3.288   0.605  14.555  2.1376 -1.6819 -1.2332
   11MPD2    H314028   3.189   0.419  14.440  1.7814  0.1783 -1.6493
   11MPD2     N14029   3.028   0.677  14.101 -1.1680 -0.1291  0.3067
   11MPD2    H514030   3.012   0.590  14.052 -2.3336  1.1805 -1.6557
   11MPD2    N114031   3.281   0.862  14.471 -0.2928 -0.2168 -0.0295
   11MPD2    H714032   3.264   0.957  14.439 -1.1534  0.0544  1.2201
    1MPD1     C14033   0.109   1.942  17.485  0.0897  0.2424 -0.1717
    1MPD1    C114034   0.174   1.945  17.368  0.2892  0.2786 -0.2144
    1MPD1    C214035   0.316   1.936  17.373  0.0968  0.3019  0.0811
    1MPD1    C314036   0.389   1.921  17.493  0.1712 -0.2356  0.2922
    1MPD1    C414037   0.322   1.924  17.609 -0.2735 -0.1075 -0.4666
    1MPD1    C514038   0.181   1.936  17.602  0.0082 -1.1693  0.2374
    1MPD1     H14039   0.362   1.943  17.275 -0.0404 -2.3035 -0.1927
    1MPD1    H114040   0.357   1.924  17.712  0.9640 -0.0182 -0.8949
    1MPD1    H214041   0.002   1.956  17.496 -0.0193 -1.4741  0.9595
    1MPD1    H314042   0.125   1.946  17.694 -1.1121 -1.5374 -0.4027
    1MPD1     N14043   0.529   1.912  17.502  0.4724 -0.9904 -0.4596
    1MPD1    H514044   0.567   1.904  17.596  1.4558 -0.2921 -0.8021
    1MPD1    N114045   0.109   1.974  17.250 -0.4622 -0.1416 -0.2454
    1MPD1    H614046   0.151   1.935  17.166 -0.0067 -1.0007  0.3713
    1MPD1    H714047   0.008   1.965  17.244 -0.5376 -0.6656  1.6446
    2MPD1     C14048   1.079   1.577   0.437  0.4103 -0.3703 -0.2940
    2MPD1    C114049   1.175   1.648   0.376  0.0140 -0.0016  0.4458
    2MPD1    C214050   1.150   1.707   0.254 -0.2331 -0.2725  0.4852
    2MPD1    C314051   1.025   1.702   0.200  0.2548  0.4475  0.3988
    2MPD1    C414052   0.927   1.641   0.271 -0.0607  0.2234 -0.3170
    2MPD1    C514053   0.957   1.576   0.384 -1.0727  0.1177 -0.6702
    2MPD1     H14054   1.224   1.775   0.212 -0.6109  0.4746  1.0409
    2MPD1    H114055   0.828   1.632   0.228 -0.3926 -1.1004  0.7151
    2MPD1    H214056   1.097   1.521   0.528  0.1173  0.1823  0.1038
    2MPD1    H314057   0.885   1.514   0.436  0.9815 -2.5355 -0.9932
    2MPD1     N14058   1.001   1.764   0.072  0.2482  0.3381  0.3918
    2MPD1    H514059   1.082   1.796   0.019 -1.0495  0.4782 -1.5174
    2MPD1    N114060   1.308   1.643   0.422  0.0313  0.0889  0.2298
    2MPD1    H614061   1.319   1.614   0.520  1.2678 -3.4935 -0.9591
    2MPD1    H714062   1.370   1.714   0.385 -1.8978  2.2776  1.1986
    3TMC3    C114063   0.886   1.843  17.632 -0.2526 -0.1429  0.4468
    3TMC3    C214064   0.974   1.944  17.601  0.0627  0.0995  0.1621
    3TMC3    C314065   0.955   2.010  17.482  0.0788 -0.1672 -0.8334
    3TMC3    C414066   0.772   1.823  17.553  0.7755 -0.1242 -0.4740
    3TMC3    C514067   0.750   1.897  17.445  0.0352  0.1792  0.2929
    3TMC3    C614068   0.851   1.982  17.395 -0.5847 -0.1240 -0.9134
    3TMC3     C14069   0.882   1.783   0.007 -0.1757 -0.5622  0.1559
    3TMC3     O14070   0.772   1.757   0.050 -0.0555 -0.1134 -0.1664
    3TMC3     H14071   1.061   1.970  17.661 -0.0568 -1.3900  0.9857
    3TMC3    H114072   0.704   1.743  17.581 -0.3826  1.4596  1.2700
    3TMC3    H214073   0.825   2.052  17.317 -0.6922  0.0423 -0.7300
    3TMC3    C714074   0.615   1.918  17.395 -0.0484  0.0150 -0.1411
    3TMC3    C814075   1.066   2.104  17.448  0.8797 -0.2379  0.0540
    3TMC3    O114076   0.592   1.952  17.284  0.3618  0.1221  0.3186
    3TMC3    O214077   1.155   2.132  17.530 -0.5947 -0.1637 -0.3543
    4MPD1     C14078   1.263   2.474  17.148 -0.5918 -0.5485 -0.1604
    4MPD1    C114079   1.164   2.402  17.077 -0.4343 -0.0313 -1.2534
    4MPD1    C214080   1.095   2.300  17.139  0.0897  0.6914  0.5801
    4MPD1    C314081   1.126   2.266  17.267 -0.1740  0.1612  0.8091
    4MPD1    C414082   1.223   2.338  17.332 -0.0956 -0.1551 -0.6144
    4MPD1    C514083   1.289   2.445  17.277 -0.6355 -0.1368  0.2321
    4MPD1     H14084   1.010   2.251  17.094  0.0711 -0.5973  2.0305
    4MPD1    H114085   1.239   2.311  17.436 -0.7062  0.0935 -0.4609
    4MPD1    H214086   1.318   2.555  17.102  0.8888 -1.4005  0.1064
    4MPD1    H314087   1.357   2.509  17.332  0.9839 -0.5666 -1.2885
    4MPD1     N14088   1.045   2.165  17.326 -0.0153  0.5005  0.1954
    4MPD1    H514089   0.960   2.137  17.278  1.3109 -1.4741 -0.9757
    4MPD1    N114090   1.113   2.439  16.952 -0.0791 -0.2208  0.2836
    4MPD1    H614091   1.181   2.476  16.886  0.5186  0.6190  1.3892
    4MPD1    H714092   1.063   2.359  16.912 -1.5940  0.0660  1.6012
    1TCq1    O114093   2.112   0.066  12.546 -0.4672 -0.2442 -0.3327
    1TCq1    C114094   2.017   0.108  12.634  0.0169 -0.8627  0.0727
    1TCq1    O214095   2.041   0.147  12.749 -0.1504 -0.2894  0.6554
    1TCq1    C214096   1.918   0.173  12.550  0.3793  0.2366 -0.6318
    1TCq1    C314097   1.905   0.113  12.428 -0.3682 -0.0081 -0.0769
    1TCq1    C414098   1.840   0.187  12.329  0.3491  0.1338 -0.1809
    1TCq1    C514099   1.828   0.323  12.343  0.8563  0.3435  0.2255
    1TCq1    C614100   1.859   0.384  12.464  0.1527  0.3042  0.2921
    1TCq1    C714101   1.898   0.306  12.565 -0.7971 -0.0099  0.1663
    1TCq1    C814102   1.806   0.517  12.494 -0.0766 -0.6445  0.0747
    1TCq1    O414103   1.876   0.595  12.557  0.5115  0.1233 -0.5214
    1TCq1    C914104   1.851   0.138  12.196 -0.3135  0.4654 -0.8218
    1TCq1    O514105   1.922   0.035  12.186 -0.0395  0.1927 -0.3470
    1TCq1    O614106   1.822   0.217  12.100  0.2038 -0.3139 -0.2652
    1TCq1    H114107   2.069   0.058  12.458  0.8734  0.4896 -1.0699
    1TCq1    H214108   1.914   0.006  12.414  0.9300  0.3078 -1.6279
    1TCq1    H314109   1.806   0.390  12.261  1.5972 -0.9019 -0.9883
    1TCq1    H414110   1.923   0.346  12.663  0.2478 -0.5211  0.1099
    2MPD1     C14111   1.432   0.858  12.451 -0.4765  0.8606 -0.1802
    2MPD1    C114112   1.390   0.746  12.384 -0.6357  0.3198 -0.5891
    2MPD1    C214113   1.478   0.634  12.377 -0.1130  0.2323  0.5202
    2MPD1    C314114   1.598   0.639  12.447 -0.1686 -0.9240  0.1618
    2MPD1    C414115   1.628   0.740  12.533 -0.2228  0.2653 -0.6532
    2MPD1    C514116   1.548   0.858  12.529  0.6035 -0.0582  0.1682
    2MPD1     H14117   1.456   0.546  12.319  1.3390 -0.8691  1.6353
    2MPD1    H114118   1.716   0.739  12.596 -0.0538  2.5796 -0.8579
    2MPD1    H214119   1.376   0.951  12.462 -0.6771  0.7859 -0.5856
    2MPD1    H314120   1.570   0.947  12.587 -1.0152  1.3359 -1.3184
    2MPD1     N14121   1.684   0.530  12.441  0.2222 -0.1798  0.0923
    2MPD1    H514122   1.647   0.445  12.402 -0.3393  0.2304 -0.2676
    2MPD1    N114123   1.263   0.751  12.323  0.6741 -0.3100  0.2376
    2MPD1    H614124   1.184   0.796  12.371  1.5890  0.4151  1.0604
    2MPD1    H714125   1.227   0.662  12.290 -1.6280  0.5315  0.4381
    1TMC1    C114126   0.236   3.003   0.737 -0.2855  0.4981  0.2816
    1TMC1    C214127   0.104   3.036   0.708  0.1153 -0.4224 -0.0168
    1TMC1    C314128   0.018   3.079   0.806  0.4835  0.1046  0.0484
    1TMC1    C414129   0.287   3.018   0.859  0.1516 -0.1775 -0.1163
    1TMC1    C514130   0.207   3.078   0.954  0.0883 -0.0005  0.1636
    1TMC1    C614131   0.072   3.112   0.926 -0.1994 -0.0783  0.2758
    1TMC1     C14132   0.309   2.928   0.632 -0.3934 -0.1049  0.4039
    1TMC1     O14133   0.267   2.939   0.519  0.1265  0.3442  0.1996
    1TMC1     H14134   0.068   3.008   0.609  1.6925  1.9787 -1.2616
    1TMC1    H114135   0.394   3.010   0.876  0.3320  0.4489 -0.9570
    1TMC1    H214136   0.010   3.160   1.000  0.1231  0.1679  0.3894
    1TMC1    C714137   0.258   3.104   1.089 -0.2560  0.0439  0.2715
    1TMC1    C814138   4.630   3.147   0.760  0.3100  0.2341 -0.3101
    1TMC1    O114139   0.184   3.152   1.175  0.2579  1.2176  0.2885
    1TMC1    O214140   4.603   3.189   0.650 -0.2211  0.0575  0.2697
    1TMC1    O314141   0.375   3.156   1.074  0.0015 -0.0658 -0.2292
    1TMC1    H314142   0.425   3.133   0.993 -0.7093 -0.9222 -0.4225
    1TMC1    O514143   4.534   3.145   0.865  0.0144 -0.0547 -0.5454
    1TMC1    H514144   4.579   3.116   0.947 -0.1241 -0.5625 -0.6474
    2MPD1     C14145   0.664   2.609   0.443  0.2003 -0.3785  0.3754
    2MPD1    C114146   0.694   2.632   0.571  0.2034 -0.0161  0.6577
    2MPD1    C214147   0.614   2.711   0.641 -0.0792  0.0516 -0.2572
    2MPD1    C314148   0.500   2.773   0.589  0.0218  0.9867  0.0630
    2MPD1    C414149   0.469   2.747   0.456 -0.3628  0.0275 -0.3124
    2MPD1    C514150   0.553   2.675   0.383  0.4920 -0.7000 -0.6047
    2MPD1     H14151   0.642   2.723   0.745  0.1370 -2.5755 -0.0106
    2MPD1    H114152   0.381   2.784   0.404 -1.3540 -0.9233  0.6956
    2MPD1    H214153   0.721   2.546   0.376  1.5653 -0.8874  2.0247
    2MPD1    H314154   0.532   2.656   0.278 -0.6899  0.7369 -0.6188
    2MPD1     N14155   0.414   2.853   0.673 -0.0591 -0.3379  0.3304
    2MPD1    H514156   0.439   2.844   0.770  2.5112  0.2765 -0.2833
    2MPD1    N114157   0.800   2.560   0.635 -1.0344  0.5152  0.1355
    2MPD1    H614158   0.847   2.602   0.715 -2.3059 -0.2250  1.2769
    2MPD1    H714159   0.871   2.533   0.567 -0.7832  0.1877  0.5253
    1MPD1     C14160   3.528   4.729  12.367  0.1221 -0.0601 -0.1347
    1MPD1    C114161   3.599   0.049  12.265 -0.2306  0.4251  0.0569
    1MPD1    C214162   3.609   0.186  12.270 -0.1781  0.4749 -0.0293
    1MPD1    C314163   3.571   0.266  12.381 -0.6603  0.3202 -0.3716
    1MPD1    C414164   3.517   0.195  12.491 -0.8354  0.4509  0.5136
    1MPD1    C514165   3.497   0.058  12.476  0.7901 -0.5296  0.4267
    1MPD1     H14166   3.671   0.239  12.198 -1.1854 -1.4367 -2.3041
    1MPD1    H114167   3.485   0.254  12.576 -0.1262  0.8825  0.4847
    1MPD1    H214168   3.506   4.623  12.361  0.7151 -0.2005  0.1605
    1MPD1    H314169   3.480   4.732  12.561 -2.2668 -1.3396 -0.8255
    1MPD1     N14170   3.598   0.405  12.372  0.0014 -0.1628  0.2755
    1MPD1    H514171   3.628   0.445  12.283  1.6344  1.0140  1.3571
    1MPD1    N114172   3.638   4.716  12.152 -0.0400 -0.2660 -0.6645
    1MPD1    H614173   3.713   0.010  12.094 -0.1680  0.7294 -0.2422
    1MPD1    H714174   3.647   4.618  12.180  0.8801  0.4716  1.6516
    2MPD1     C14175   2.157   0.795  11.820 -0.3276  0.5682 -0.0214
    2MPD1    C114176   2.273   0.859  11.864  0.3099  0.5224 -0.4460
    2MPD1    C214177   2.355   0.927  11.775 -0.1244 -0.0585  0.9638
    2MPD1    C314178   2.324   0.937  11.642 -0.2540 -0.4592 -0.5679
    2MPD1    C414179   2.208   0.869  11.599  0.6856  0.4672 -0.0679
    2MPD1    C514180   2.133   0.800  11.686 -0.6728  0.1531 -0.5901
    2MPD1     H14181   2.448   0.974  11.804  0.2567  1.3162 -2.5791
    2MPD1    H114182   2.180   0.869  11.494  3.0707  0.0696 -0.6947
    2MPD1    H214183   2.086   0.744  11.884  0.6774 -0.7308  0.0429
    2MPD1    H314184   2.040   0.763  11.645 -0.9712 -0.6235  0.7942
    2MPD1     N14185   2.401   1.001  11.538  0.0591 -0.1331 -0.6107
    2MPD1    H514186   2.371   0.988  11.442 -0.0848  0.5912 -0.6614
    2MPD1    N114187   2.291   0.866  12.000 -0.0076 -0.0755 -0.1893
    2MPD1    H614188   2.236   0.800  12.055 -0.2425  0.7363  0.5545
    2MPD1    H714189   2.386   0.863  12.035  1.1052  1.0753 -3.1207
    3MPD1     C14190   2.607   1.074  10.586  0.1754 -0.9131 -0.0942
    3MPD1    C114191   2.609   1.198  10.639 -0.2841 -0.8404 -0.1262
    3MPD1    C214192   2.601   1.216  10.775 -0.1974 -0.0884  0.1421
    3MPD1    C314193   2.607   1.111  10.868 -0.4207 -0.2122 -0.4875
    3MPD1    C414194   2.600   0.987  10.819 -0.0257 -0.3291 -1.0704
    3MPD1    C514195   2.597   0.967  10.679 -0.2793  0.3936 -0.2777
    3MPD1     H14196   2.622   1.314  10.815 -0.5614 -0.3715  1.0237
    3MPD1    H114197   2.597   0.895  10.876  1.0001  0.0230 -0.4497
    3MPD1    H214198   2.618   1.052  10.480  1.4856  0.8014 -0.3110
    3MPD1    H314199   2.589   0.870  10.631  2.2369  0.4003 -0.6857
    3MPD1     N14200   2.616   1.129  11.007 -0.4537  0.3640  0.3039
    3MPD1    H514201   2.625   1.226  11.037 -3.2823  1.1596 -1.4216
    3MPD1    N114202   2.607   1.296  10.540 -0.3823  0.0818 -0.2712
    3MPD1    H614203   2.650   1.383  10.569 -1.2334 -0.0505  1.3686
    3MPD1    H714204   2.656   1.265  10.456  1.7690 -2.3433  1.8719
    4MPD2     C14205   3.409   1.221  12.429  0.0635  0.6079  1.2416
    4MPD2    C114206   3.510   1.162  12.356  0.4675 -0.0656 -0.6106
    4MPD2    C214207   3.534   1.214  12.231 -0.5185  0.0623 -0.4404
    4MPD2    C314208   3.464   1.319  12.173 -0.1606 -0.2653  0.3162
    4MPD2    C414209   3.365   1.375  12.249  0.3837 -0.3225  0.0414
    4MPD2    C514210   3.339   1.321  12.371 -1.0952  0.0671  0.0870
    4MPD2     H14211   3.596   1.154  12.166  0.1126  0.0771  0.1503
    4MPD2    H114212   3.304   1.458  12.217 -1.3606 -2.1058 -1.2615
    4MPD2    H214213   3.365   1.171  12.514  0.1860 -2.9620 -0.7721
    4MPD2    H314214   3.259   1.374  12.422  1.1298  0.2744  3.3755
    4MPD2     N14215   3.497   1.369  12.043  0.7953  0.3199  0.0402
    4MPD2    H514216   3.433   1.442  12.012  2.4407  1.0512 -1.6473
    4MPD2    N114217   3.570   1.038  12.389  0.4556  0.6326 -0.1904
    4MPD2    H714218   3.658   1.011  12.345  1.4249  1.4848  1.2377
    5TMC3    C114219   3.634   0.855  12.501 -1.0453  0.0699  0.1843
    5TMC3    C214220   3.570   0.738  12.512 -0.1139  0.4027  0.9397
    5TMC3    C314221   3.605   0.643  12.421  0.8181 -0.6734 -0.7858
    5TMC3    C414222   3.742   0.870  12.411 -0.0523 -0.0929 -0.1761
    5TMC3    C514223   3.758   0.776  12.313  0.1657 -0.5407  0.6327
    5TMC3    C614224   3.689   0.663  12.310 -0.3231  0.4114  0.1293
    5TMC3     C14225   3.532   0.956  12.491 -0.1180 -0.0246 -0.1876
    5TMC3     O14226   3.433   0.964  12.567 -0.1745 -0.4324 -0.1592
    5TMC3     H14227   3.486   0.723  12.578  0.3215 -0.7102  1.2434
    5TMC3    H114228   3.802   0.960  12.425  0.3599 -0.6944  1.8971
    5TMC3    H214229   3.697   0.583  12.237 -0.0116  0.7370 -0.1894
    5TMC3    C714230   3.802   0.832  12.189 -0.6340  0.0801  0.2545
    5TMC3    C814231   3.571   0.502  12.463  0.1270 -0.5536  0.1139
    5TMC3    O114232   3.795   0.955  12.200  0.5698  0.3052 -0.4580
    5TMC3    O214233   3.514   0.493  12.569  0.1789 -0.1888 -0.5709
    6TMC3    C114234   2.587   1.124  11.441 -0.2276  0.1126  0.1357
    6TMC3    C214235   2.585   1.046  11.330 -0.1009 -0.2407 -0.2161
    6TMC3    C314236   2.664   1.084  11.224 -0.3343 -0.2067  0.4652
    6TMC3    C414237   2.665   1.238  11.452  0.4551 -0.5291 -0.1731
    6TMC3    C514238   2.754   1.260  11.347  0.5743  0.7656 -0.0522
    6TMC3    C614239   2.751   1.187  11.232  0.2946 -0.4742 -0.4675
    6TMC3     C14240   2.508   1.089  11.554  0.6640 -0.5312  0.3549
    6TMC3     O14241   2.523   1.151  11.658  0.0556  0.1050 -0.4151
    6TMC3     H14242   2.525   0.956  11.327 -2.7166  1.4290  1.1282
    6TMC3    H114243   2.664   1.297  11.543  1.9884 -0.8027  0.0089
    6TMC3    H214244   2.822   1.214  11.155 -2.3034  4.0169 -1.3083
    6TMC3    C714245   2.870   1.343  11.371  0.4733 -0.1462 -0.3906
    6TMC3    C814246   2.644   1.027  11.097  0.1893 -0.1827 -0.5691
    6TMC3    O114247   2.964   1.329  11.296 -0.1141  0.1374  0.6949
    6TMC3    O214248   2.614   0.910  11.092  0.5853  0.4939 -0.0411
    7MPD2     C14249   3.852   0.866  11.684  0.1339 -0.2080  0.5011
    7MPD2    C114250   3.805   0.957  11.776 -0.4390 -0.0827 -0.0286
    7MPD2    C214251   3.801   0.926  11.911 -0.2049  0.2638 -0.6737
    7MPD2    C314252   3.838   0.799  11.953 -0.6447  0.2870  0.1149
    7MPD2    C414253   3.874   0.709  11.860  0.6542  0.2243  1.4224
    7MPD2    C514254   3.892   0.744  11.730  0.4011  0.4738  0.5686
    7MPD2     H14255   3.758   0.996  11.982  1.2778  1.4447 -0.9502
    7MPD2    H114256   3.929   0.621  11.890 -1.3162 -1.6127 -0.2953
    7MPD2    H214257   3.856   0.887  11.578 -0.2935  0.3220  0.5915
    7MPD2    H314258   3.944   0.679  11.660  1.2083  0.2278  1.4003
    7MPD2     N14259   3.834   0.756  12.085  0.5990 -1.1466 -0.0709
    7MPD2    H514260   3.855   0.659  12.107  1.8924 -1.1422 -1.2804
    7MPD2    N114261   3.742   1.086  11.743  0.1073  0.0851 -0.0782
    7MPD2    H714262   3.720   1.147  11.821 -2.4006 -0.3637 -0.4203
    8TMC3    C114263   3.699   1.284  11.639 -0.1050  0.1273 -0.0760
    8TMC3    C214264   3.584   1.317  11.571  0.0164 -0.6285 -0.7468
    8TMC3    C314265   3.481   1.373  11.639 -0.2593 -0.2323  0.4881
    8TMC3    C414266   3.712   1.331  11.766 -0.3054 -0.7590  0.3238
    8TMC3    C514267   3.605   1.389  11.834 -0.8914 -0.1639 -0.2016
    8TMC3    C614268   3.488   1.411  11.769  0.5144  0.2368  0.0250
    8TMC3     C14269   3.722   1.140  11.621  0.0171 -0.0582  0.2272
    8TMC3     O14270   3.721   1.088  11.513  0.1189 -0.1804 -0.4152
    8TMC3     H14271   3.562   1.279  11.472 -1.4844  0.3076 -0.7611
    8TMC3    H114272   3.806   1.333  11.820 -0.6966 -1.7407  1.0206
    8TMC3    H214273   3.408   1.440  11.836  0.9005  0.5856  0.3369
    8TMC3    C714274   3.607   1.334  11.971  0.6586  0.0351  0.4314
    8TMC3    C814275   3.356   1.392  11.570 -0.4579  0.0002  0.2789
    8TMC3    O114276   3.691   1.241  11.979  0.1266  0.1145 -0.4041
    8TMC3    O214277   3.331   1.333  11.465  0.3103  0.1832  0.3715
    9MPD2     C14278   3.125   1.647  11.693  0.3799 -0.2058 -0.6737
    9MPD2    C114279   3.166   1.542  11.616 -0.6096 -0.5148 -0.1076
    9MPD2    C214280   3.082   1.472  11.533  0.4068  0.3834  0.0656
    9MPD2    C314281   2.949   1.503  11.542 -0.0838  0.1529  0.0735
    9MPD2    C414282   2.913   1.609  11.613 -0.6563 -0.4617 -0.1370
    9MPD2    C514283   2.994   1.683  11.690 -0.3964  0.1074  0.2603
    9MPD2     H14284   3.105   1.387  11.470 -0.7124  0.6579 -0.7203
    9MPD2    H114285   2.808   1.635  11.617 -1.0303 -2.0785  1.0637
    9MPD2    H214286   3.191   1.701  11.760 -0.9842  0.7466 -0.0864
    9MPD2    H314287   2.969   1.782  11.729  1.1564  0.2626  0.8882
    9MPD2     N14288   2.850   1.436  11.471 -0.5468  0.1303 -0.6308
    9MPD2    H514289   2.752   1.456  11.489  0.0354  0.6560  1.9915
    9MPD2    N114290   3.297   1.496  11.634 -0.2271 -0.2349  0.2999
    9MPD2    H714291   3.346   1.552  11.703  2.1369  0.5875 -2.0346
    1MPD1     C14292   2.711   1.272  17.038 -0.0222  0.6258  0.7217
    1MPD1    C114293   2.729   1.164  17.124  0.1610  0.7249  0.0534
    1MPD1    C214294   2.853   1.110  17.135  0.1043 -0.4132  0.0412
    1MPD1    C314295   2.957   1.159  17.056 -0.2693 -0.3407 -0.3512
    1MPD1    C414296   2.938   1.275  16.985 -0.0956  0.1365  0.8228
    1MPD1    C514297   2.818   1.334  16.973 -0.4295 -0.7475 -0.5443
    1MPD1     H14298   2.880   1.021  17.190 -0.2101 -1.5634 -1.6451
    1MPD1    H114299   3.031   1.311  16.942 -0.3785  2.9996  2.6109
    1MPD1    H214300   2.609   1.308  17.024  0.9909  1.4882 -4.1792
    1MPD1    H314301   2.814   1.429  16.921 -1.9838  0.8432  2.4776
    1MPD1     N14302   3.085   1.107  17.052  0.1964 -0.2163 -0.3946
    1MPD1    H514303   3.154   1.156  16.995  1.0100 -2.7027 -1.5308
    1MPD1    N114304   2.622   1.118  17.203  0.7078  0.5313  0.3798
    1MPD1    H614305   2.535   1.159  17.170 -1.2228 -3.3293  0.6945
    1MPD1    H714306   2.609   1.017  17.206  0.7143  0.6151  3.7343
    2TMC2    C114307   3.494   1.035  17.058  0.2672  0.2803 -0.5921
    2TMC2    C214308   3.541   0.918  17.009 -0.6014  0.7846 -0.1291
    2TMC2    C314309   3.453   0.811  17.005 -0.4008  0.4335 -0.3485
    2TMC2    C414310   3.363   1.055  17.092  0.1475  0.0680  0.0629
    2TMC2    C514311   3.274   0.947  17.071  1.0253 -0.1933 -0.2582
    2TMC2    C614312   3.319   0.827  17.031 -0.0921 -0.0918  0.3548
    2TMC2     C14313   3.597   1.126  17.097  0.1805  0.5458  0.3498
    2TMC2     O14314   3.710   1.083  17.102  0.0743  0.3162  0.6721
    2TMC2     H14315   3.637   0.912  16.959 -0.7961  2.6147 -0.7181
    2TMC2    H114316   3.330   1.155  17.118 -1.1340 -0.1542 -0.7375
    2TMC2    H214317   3.248   0.747  17.010  2.2483 -1.9809 -0.3734
    2TMC2    C714318   3.130   0.976  17.096  0.3836  0.1030  0.1194
    2TMC2    C814319   3.489   0.689  16.949  0.4121  0.5796 -0.2496
    2TMC2    O114320   3.064   0.887  17.140 -0.4936  0.4013 -0.3378
    2TMC2    O214321   3.409   0.622  16.884 -0.2722 -0.0039  0.8525
    2TMC2    O514322   3.623   0.694  16.919  1.1466  0.2369 -0.1488
    2TMC2    H514323   3.679   0.724  16.994  1.0130  0.6146 -0.1992
    3MPD1     C14324   3.742   1.559  17.338  0.4210 -0.1903 -0.4988
    3MPD1    C114325   3.610   1.570  17.302  0.6998  0.2589  0.3633
    3MPD1    C214326   3.551   1.473  17.230  0.2978 -0.5779  0.6196
    3MPD1    C314327   3.621   1.349  17.212 -0.4074  0.6554  0.7222
    3MPD1    C414328   3.751   1.337  17.254 -0.1065  0.2107  0.4786
    3MPD1    C514329   3.802   1.441  17.325 -0.3277  0.1111 -0.1232
    3MPD1     H14330   3.458   1.486  17.177  1.8070  0.5565 -1.7284
    3MPD1    H114331   3.816   1.253  17.230 -1.8191 -1.1616  0.6934
    3MPD1    H214332   3.793   1.640  17.391 -2.0662  2.2279 -1.7994
    3MPD1    H314333   3.902   1.435  17.367  0.5802  1.2146 -2.1376
    3MPD1     N14334   3.549   1.249  17.131 -0.3317 -0.0472 -0.1278
    3MPD1    H514335   3.459   1.272  17.089 -0.9589 -2.9315 -0.3663
    3MPD1    N114336   3.545   1.691  17.314  0.3273  0.0933 -0.1468
    3MPD1    H614337   3.444   1.690  17.326  0.3182  0.1779 -0.2131
    3MPD1    H714338   3.579   1.744  17.394 -0.1648  0.4201 -0.1493
    1TMC1    C114339   0.580   4.436  12.961  0.4564  0.0396 -0.4049
    1TMC1    C214340   0.579   4.300  12.943  0.6052  0.3086  1.0099
    1TMC1    C314341   0.457   4.235  12.958  1.0687  0.5234 -0.8724
    1TMC1    C414342   0.472   4.504  12.995 -0.1121  0.3854 -0.0550
    1TMC1    C514343   0.357   4.434  13.019  0.0152  0.4939 -0.8549
    1TMC1    C614344   0.345   4.295  13.012 -0.1097 -0.3627  0.2617
    1TMC1     C14345   0.701   4.509  12.934 -0.0055  0.1000 -0.1899
    1TMC1     O14346   0.685   4.622  12.889  0.4576 -0.1229 -0.0172
    1TMC1     H14347   0.667   4.248  12.906 -0.3826 -0.7694  0.1498
    1TMC1    H114348   0.489   4.603  13.035  0.0985  0.3474 -0.0541
    1TMC1    H214349   0.249   4.245  13.001  0.7721 -1.9998  0.0632
    1TMC1    C714350   0.248   4.506  13.083  0.5621 -0.5779 -0.3406
    1TMC1    C814351   0.476   4.103  13.010 -0.4872  0.6859 -0.6349
    1TMC1    O114352   0.230   4.627  13.064  0.3313 -0.0152 -0.0574
    1TMC1    O214353   0.583   4.067  13.061 -0.0528 -0.3701  0.1171
    1TMC1    O314354   0.161   4.418  13.136  0.2115  0.0581  0.2458
    1TMC1    H314355   0.190   4.327  13.156  0.9955  0.0514 -0.9325
    1TMC1    O514356   0.359   4.039  13.011  0.1564  0.4842 -0.5082
    1TMC1    H514357   0.305   4.078  12.939  0.2861 -1.2992 -1.5809
    2MPD2     C14358   0.969   4.625  12.958 -0.3396 -0.1565  0.0509
    2MPD2    C114359   0.931   4.501  13.019 -0.1753  0.1358  0.4242
    2MPD2    C214360   1.018   4.432  13.104  0.1433  0.2292  0.1623
    2MPD2    C314361   1.141   4.490  13.130  0.2635  0.2607 -0.6300
    2MPD2    C414362   1.177   4.610  13.076  0.4345 -0.2279 -0.7204
    2MPD2    C514363   1.089   4.672  12.992 -0.9973  0.0676 -0.2838
    2MPD2     H14364   0.991   4.335  13.145 -3.1412  0.8668 -0.4685
    2MPD2    H114365   1.275   4.655  13.083  0.9555 -1.6387  1.0201
    2MPD2    H214366   0.914   4.679  12.882  1.4001  0.0914 -1.0363
    2MPD2    H314367   1.115   0.026  12.945 -1.6794  0.2086 -0.3697
    2MPD2     N14368   1.233   4.407  13.201  0.2611  0.2956  0.2251
    2MPD2    H514369   1.217   4.307  13.210 -0.3917  0.3508 -0.3601
    2MPD2    N114370   0.804   4.443  12.995  0.2601  0.7278 -0.3334
    2MPD2    H714371   0.781   4.359  13.047  0.7751 -0.4179 -1.9649
    3TCq1    O114372   1.731   4.390  13.561 -0.5415 -0.7549  0.0893
    3TCq1    C114373   1.777   4.359  13.440  0.1355  0.3654 -0.2824
    3TCq1    O214374   1.887   4.300  13.427  0.0389 -0.2341  0.5468
    3TCq1    C214375   1.655   4.307  13.386  0.7221 -0.2800  0.3787
    3TCq1    C314376   1.665   4.190  13.312  0.2146  0.6717 -0.6592
    3TCq1    C414377   1.568   4.175  13.215 -0.5234  0.1639  0.1770
    3TCq1    C514378   1.454   4.249  13.217  0.1453  0.0623 -0.4092
    3TCq1    C614379   1.444   4.355  13.298 -0.7206 -0.4801 -0.1937
    3TCq1    C714380   1.545   4.401  13.376  0.1884 -0.5007 -0.3341
    3TCq1    C814381   1.346   4.455  13.258  0.2510  0.2547  0.3359
    3TCq1    O414382   1.372   4.571  13.283  0.0729  0.4361  0.0440
    3TCq1    C914383   1.591   4.074  13.111  0.1383 -0.0879 -0.3822
    3TCq1    O514384   1.517   4.068  13.008 -0.3791  0.4290 -0.1589
    3TCq1    O614385   1.690   3.993  13.122  0.3607  0.4917 -0.1167
    3TCq1    H114386   1.639   4.422  13.575 -0.0690 -0.0029  1.4789
    3TCq1    H214387   1.748   4.122  13.321  0.8156  1.6763  1.6630
    3TCq1    H314388   1.372   4.216  13.154 -0.4898  0.9797 -0.0551
    3TCq1    H414389   1.531   4.494  13.430  0.6078  0.2902 -1.5838
    1MPD2     C14390   0.688   1.410  15.326  0.4274  0.3471  1.0566
    1MPD2    C114391   0.749   1.305  15.260  0.5352 -0.4526 -0.5685
    1MPD2    C214392   0.878   1.269  15.280  0.4716 -0.2726 -0.5050
    1MPD2    C314393   0.956   1.334  15.371  0.5825 -0.5605  0.3354
    1MPD2    C414394   0.894   1.425  15.450  0.7809  0.0320 -0.2171
    1MPD2    C514395   0.765   1.464  15.428 -0.6680  0.1848 -0.7279
    1MPD2     H14396   0.918   1.197  15.209  1.3150  0.5737 -0.8815
    1MPD2    H114397   0.947   1.470  15.534 -1.7013  0.6207  1.0459
    1MPD2    H214398   0.588   1.449  15.309 -0.1375 -0.6334  2.1212
    1MPD2    H314399   0.735   1.534  15.505  4.3454  0.7830  0.6537
    1MPD2     N14400   1.089   1.306  15.397 -1.1356  0.1761 -0.9709
    1MPD2    H514401   1.129   1.358  15.475  0.4525 -2.0249 -0.3057
    1MPD2    N114402   0.675   1.234  15.160 -0.4632  0.0751 -0.7275
    1MPD2    H714403   0.576   1.255  15.155 -0.7715 -2.2232 -4.4310
    2TMC3    C114404   0.627   1.046  15.008  0.4089  0.5165 -0.4354
    2TMC3    C214405   0.631   0.904  14.992  0.0589  0.3073  0.4683
    2TMC3    C314406   0.644   0.850  14.865  0.0714  0.0067  0.7718
    2TMC3    C414407   0.625   1.128  14.892 -0.3382  0.0634 -0.1290
    2TMC3    C514408   0.623   1.072  14.766 -0.7868  0.2692  0.6660
    2TMC3    C614409   0.638   0.934  14.755 -0.4372  0.0318 -0.2979
    2TMC3     C14410   0.709   1.102  15.119 -0.5315 -0.4944  0.3154
    2TMC3     O14411   0.791   1.020  15.159 -0.2364  0.2779 -0.0291
    2TMC3     H14412   0.640   0.848  15.084 -0.7921 -1.7291 -0.6969
    2TMC3    H114413   0.619   1.235  14.912  3.1344  0.4569 -1.1839
    2TMC3    H214414   0.644   0.897  14.654 -0.4260  0.0287 -0.2961
    2TMC3    C714415   0.594   1.142  14.640 -0.7174 -0.0671 -0.4263
    2TMC3    C814416   0.763   0.772  14.864  0.3891  0.5447 -0.1107
    2TMC3    O114417   0.545   1.078  14.547  0.2549  0.5547 -0.7283
    2TMC3    O214418   0.776   0.704  14.765  0.1293 -0.0590  0.0642
    3TCq1    O114419   1.037   2.254  14.316  0.3084  0.0908  0.2060
    3TCq1    C114420   1.077   2.160  14.237 -0.2332 -0.2182 -0.2956
    3TCq1    O214421   1.183   2.169  14.173 -0.6142 -0.0806 -0.1541
    3TCq1    C214422   1.065   2.038  14.312  0.1786  0.4938 -0.2381
    3TCq1    C314423   1.158   2.023  14.407  0.3116 -0.5922 -0.0600
    3TCq1    C414424   1.152   1.912  14.488  0.4265  0.0243  0.0196
    3TCq1    C514425   1.049   1.819  14.473 -0.0710 -0.8971  0.4015
    3TCq1    C614426   0.958   1.850  14.373 -0.5499 -0.4247 -0.2305
    3TCq1    C714427   0.977   1.942  14.281 -0.9343 -0.4123 -0.1247
    3TCq1    C814428   0.830   1.774  14.371 -0.3091  0.3100 -1.0114
    3TCq1    O414429   0.739   1.818  14.307  0.0055 -0.3356  0.0187
    3TCq1    C914430   1.240   1.911  14.599 -0.4041 -0.4350  0.5685
    3TCq1    O514431   1.210   1.840  14.695 -0.1401 -0.4052  0.2738
    3TCq1    O614432   1.304   2.016  14.621  0.2467  0.5344  0.0270
    3TCq1    H114433   0.957   2.233  14.368  1.1706 -1.1277  1.0399
    3TCq1    H214434   1.235   2.099  14.419  1.4180 -1.8923  1.0580
    3TCq1    H314435   1.053   1.736  14.544 -0.0681 -0.8906  0.4090
    3TCq1    H414436   0.903   1.952  14.202  0.8872  0.3340 -1.7394
    4MPD2     C14437   0.614   1.568  14.364 -0.0276 -0.1813  1.1205
    4MPD2    C114438   0.720   1.577  14.463 -0.0244  0.7073  0.0281
    4MPD2    C214439   0.733   1.468  14.555  0.5040 -0.1632 -0.1604
    4MPD2    C314440   0.649   1.361  14.541 -0.1783  0.5487 -0.5368
    4MPD2    C414441   0.551   1.364  14.449 -0.7063  0.7169 -0.1245
    4MPD2    C514442   0.538   1.459  14.358 -0.6458  0.4117 -0.3609
    4MPD2     H14443   0.808   1.471  14.634  0.9700  1.0682 -0.6506
    4MPD2    H114444   0.492   1.275  14.428  1.7381 -0.9377  0.0568
    4MPD2    H214445   0.601   1.647  14.291 -1.8046 -0.9843  0.5724
    4MPD2    H314446   0.471   1.454  14.272 -0.2454 -1.3228 -0.5822
    4MPD2     N14447   0.665   1.259  14.635 -0.2950 -0.2086 -0.2767
    4MPD2    H514448   0.723   1.274  14.717  0.9271 -0.2494 -1.1334
    4MPD2    N114449   0.824   1.670  14.455 -0.5692  0.3424 -0.5085
    4MPD2    H714450   0.905   1.653  14.514 -1.6320 -1.7530  0.3404
    5TMC2    C114451   1.407   0.979  15.336 -1.0061  0.1110  0.4568
    5TMC2    C214452   1.411   0.948  15.471  0.0878  0.4494 -0.8324
    5TMC2    C314453   1.355   1.036  15.554 -0.7226 -0.2328  0.6470
    5TMC2    C414454   1.366   1.101  15.298 -0.1477  0.7249  0.1340
    5TMC2    C514455   1.302   1.188  15.384 -0.3701  0.2248 -0.8808
    5TMC2    C614456   1.291   1.156  15.519  0.1323  0.6362 -0.3575
    5TMC2     C14457   1.371   0.870  15.259 -0.2832  0.8094  0.5583
    5TMC2     O14458   1.432   0.764  15.279  0.0997  0.3750  0.3625
    5TMC2     H14459   1.458   0.857  15.507 -0.5648  1.0831  1.6178
    5TMC2    H114460   1.366   1.131  15.193  1.8413  0.1014 -0.0504
    5TMC2    H214461   1.241   1.222  15.589 -0.7085 -2.3453  1.8406
    5TMC2    C714462   1.165   1.212  15.328 -0.6733  0.4052 -0.3030
    5TMC2    C814463   1.372   1.015  15.693 -1.2223 -0.1981 -0.0726
    5TMC2    O114464   1.130   1.140  15.234 -0.3347 -0.0796  0.6290
    5TMC2    O214465   1.456   0.938  15.741  0.0821  0.0664 -0.3612
    5TMC2    O514466   1.251   1.025  15.751 -0.0340 -0.0405  0.0716
    5TMC2    H514467   1.181   1.043  15.685  0.3079  2.4978  0.3758
    6MPD2     C14468   1.024   0.648  14.947 -0.5820 -0.3507 -1.0250
    6MPD2    C114469   0.975   0.767  14.995 -0.5206  0.4636  0.5432
    6MPD2    C214470   1.052   0.846  15.082  0.3426 -0.4419  0.7664
    6MPD2    C314471   1.170   0.805  15.124 -0.4236 -0.5637 -0.2503
    6MPD2    C414472   1.212   0.674  15.091 -0.3759  0.4667  0.1912
    6MPD2    C514473   1.141   0.605  14.996  0.4032 -0.0698  0.1106
    6MPD2     H14474   1.016   0.947  15.103 -0.7792 -0.5981 -0.4098
    6MPD2    H114475   1.311   0.642  15.119 -1.1592 -1.3531  0.8427
    6MPD2    H214476   0.968   0.597  14.870  0.1497 -0.7615 -1.2742
    6MPD2    H314477   1.192   0.514  14.965  0.0689  0.0386 -0.7787
    6MPD2     N14478   1.254   0.899  15.191  1.0880  0.2694  0.1776
    6MPD2    H514479   1.221   0.994  15.205  0.6963  0.1316  0.1896
    6MPD2    N114480   0.848   0.816  14.962  0.7887 -0.1275 -0.0688
    6MPD2    H714481   0.821   0.900  15.012 -1.1916  0.4937 -2.2154
  945NH4     N114482   2.572   3.353  10.641 -0.1079  0.0916 -0.1016
  945NH4     H214483   2.642   3.430  10.644  3.0985 -2.8562  0.3338
  945NH4     H314484   2.491   3.387  10.585  0.7497  0.7749 -0.9148
  945NH4     H414485   2.537   3.331  10.737  2.0355 -0.8961  0.4497
  945NH4     H514486   2.614   3.274  10.588 -1.9586 -0.3977 -0.8637
  946SOD     NA14487   1.891   1.272  10.890 -0.6319 -0.0682 -0.2981
  947SOD     NA14488   4.091   3.720   8.871  0.3236  0.2398  0.1270
  948SOD     NA14489   3.656   4.065  14.084 -0.1035  0.0773 -0.7287
  949SOD     NA14490   1.114   2.985  16.379 -0.0675 -0.0479 -0.5807
  950SOD     NA14491   1.359   0.224   6.827  0.0979 -0.2822  0.4353
  951SOD     NA14492   1.234   1.769  10.367  0.0937 -0.2780  0.3502
  952SOD     NA14493   1.207   2.184  14.731  0.2113  0.9779  0.3597
  953SOL     OW14494   1.108   2.066   3.894  0.6550 -0.3237  0.3868
  953SOL    HW114495   1.110   2.157   3.863 -1.2995 -1.2733 -2.4811
  953SOL    HW214496   1.034   2.039   3.840  0.8626 -0.0545 -0.0294
  954SOL     OW14497   3.643   2.971   5.961  0.1959 -0.3693 -0.4369
  954SOL    HW114498   3.724   2.986   5.913 -0.3914 -0.1437 -1.3637
  954SOL    HW214499   3.598   3.054   5.945  1.5273  0.2609 -0.9604
  955SOL     OW14500   0.579   0.028   9.912  0.5458  0.1847  0.0031
  955SOL    HW114501   0.538   4.709   9.975 -0.3814  1.8026  0.9291
  955SOL    HW214502   0.649   0.056   9.971  1.4998 -0.1654 -0.9640
  956SOL     OW14503   1.192   4.396   5.170  0.0055  0.1427  0.0953
  956SOL    HW114504   1.180   4.354   5.086  3.0893  0.5695 -0.5477
  956SOL    HW214505   1.237   4.333   5.226 -2.5765  0.2839  2.3045
  957SOL     OW14506   1.223   1.126   3.581  0.6289 -0.2224  0.2718
  957SOL    HW114507   1.217   1.080   3.497 -1.6574  0.0250  0.2897
  957SOL    HW214508   1.186   1.060   3.639  1.3520 -0.0073  0.9772
  958SOL     OW14509   4.587   0.872   2.596  0.1628 -0.3670 -0.0146
  958SOL    HW114510   4.513   0.814   2.610  0.3558 -1.2745 -2.6794
  958SOL    HW214511   4.644   0.849   2.670 -1.6977 -1.1424  1.1568
  959SOL     OW14512   1.623   4.635   3.103 -0.4033 -0.0629 -0.1004
  959SOL    HW114513   1.618   4.654   3.197  0.1791 -1.6401  0.2483
  959SOL    HW214514   1.546   4.578   3.102  0.2550 -0.8949 -2.9329
  960SOL     OW14515   3.163   2.272   5.245  0.5203 -0.1435  0.0212
  960SOL    HW114516   3.166   2.277   5.340 -0.1377  0.8909 -0.0061
  960SOL    HW214517   3.125   2.185   5.231  0.2670 -0.2755  1.5427
  961SOL     OW14518   2.608   3.879  12.328  0.1738 -0.0402  0.4738
  961SOL    HW114519   2.533   3.867  12.387 -0.0903  0.1022  0.1686
  961SOL    HW214520   2.623   3.787  12.306 -0.9353  0.2665 -1.5342
  962SOL     OW14521   1.174   1.846   9.226 -0.1892  0.0791 -1.0570
  962SOL    HW114522   1.250   1.796   9.195  0.6761 -0.1977  1.4910
  962SOL    HW214523   1.209   1.875   9.311 -0.8669 -2.8016  0.2153
  963SOL     OW14524   3.173   2.685   4.128 -0.0525  0.5582 -0.3119
  963SOL    HW114525   3.200   2.742   4.200 -1.7408  2.7783 -1.4427
  963SOL    HW214526   3.114   2.738   4.074 -0.8196 -0.1992 -0.2038
  964SOL     OW14527   0.523   3.200   5.233 -0.1458 -0.1088  0.0394
  964SOL    HW114528   0.582   3.251   5.288  1.0426 -0.3987 -0.9824
  964SOL    HW214529   0.515   3.261   5.159  0.1023  1.0399  0.9580
  965SOL     OW14530   1.865   2.347  14.419  0.3895 -0.4783 -0.3259
  965SOL    HW114531   1.867   2.404  14.342  0.9088 -0.2167 -0.1194
  965SOL    HW214532   1.776   2.313  14.411  1.9536 -4.2025 -2.1059
  966SOL     OW14533   3.242   2.997   4.655  0.0633 -0.6192 -0.3410
  966SOL    HW114534   3.319   3.019   4.603  0.2164 -1.1565 -0.3357
  966SOL    HW214535   3.283   2.949   4.727  1.6338 -0.2378 -0.9882
  967SOL     OW14536   1.936   0.865   4.253  0.1755 -0.8580  0.4573
  967SOL    HW114537   1.926   0.829   4.165 -1.8339 -1.0462  0.7716
  967SOL    HW214538   1.931   0.959   4.238 -1.3991 -1.5991 -3.4430
  968SOL     OW14539   2.675   1.768   4.408 -0.0280  0.4338  0.3158
  968SOL    HW114540   2.679   1.768   4.504 -1.7579  2.6735  0.3989
  968SOL    HW214541   2.590   1.811   4.398 -0.3560 -0.4729 -0.7245
  969SOL     OW14542   2.475   2.475  16.221  0.2946  0.3743 -0.7177
  969SOL    HW114543   2.394   2.489  16.172 -0.3011  0.3628  0.2657
  969SOL    HW214544   2.496   2.564  16.247 -2.0475  1.0057 -1.0091
  970SOL     OW14545   0.931   3.312  17.495  0.4344  0.1252  0.3428
  970SOL    HW114546   1.020   3.326  17.526  0.4568  0.5193  0.1132
  970SOL    HW214547   0.955   3.300  17.403  0.2563  0.9810  0.1850
  971SOL     OW14548   1.079   0.993  13.407 -0.3705 -0.1677  0.0850
  971SOL    HW114549   1.099   0.912  13.454  0.6930  0.8669  1.4138
  971SOL    HW214550   0.989   1.006  13.436 -0.8212 -0.5954 -1.1200
  972SOL     OW14551   1.123   3.780   7.210 -0.3725 -0.0240  0.1673
  972SOL    HW114552   1.040   3.737   7.191 -0.1595  0.1707 -1.2082
  972SOL    HW214553   1.183   3.708   7.231  0.2067 -0.1608 -1.9287
  973SOL     OW14554   2.531   0.262   9.723 -0.1708  0.3104 -0.2817
  973SOL    HW114555   2.455   0.257   9.781  0.0889 -0.8102 -0.0390
  973SOL    HW214556   2.603   0.268   9.786  2.1495 -0.7838 -2.8441
  974SOL     OW14557   2.709   1.887   9.418  0.7683 -0.2668 -0.7808
  974SOL    HW114558   2.743   1.801   9.396 -0.5029 -0.3546 -2.4463
  974SOL    HW214559   2.772   1.940   9.368  2.7246 -1.9107 -0.0875
  975SOL     OW14560   2.073   2.720   9.941  0.2304 -0.4600 -0.0195
  975SOL    HW114561   2.095   2.636   9.982  0.8890 -0.0525  0.4579
  975SOL    HW214562   2.021   2.761  10.010  2.5427  3.3408 -0.5818
  976SOL     OW14563   1.583   0.190   3.311 -0.1176  0.3016 -0.1107
  976SOL    HW114564   1.584   0.225   3.400 -1.1742 -2.3074  0.9411
  976SOL    HW214565   1.491   0.211   3.294 -0.1585 -0.8344 -1.3047
  977SOL     OW14566   0.437   1.083   2.578  0.4819 -0.2052 -0.3140
  977SOL    HW114567   0.351   1.052   2.550 -0.4129 -0.6899  3.0199
  977SOL    HW214568   0.416   1.176   2.590  1.1572 -0.0234 -0.5296
  978SOL     OW14569   0.147   0.481   7.763 -0.0805  0.0553 -0.0857
  978SOL    HW114570   0.059   0.520   7.766 -0.2812 -0.3732 -0.3693
  978SOL    HW214571   0.145   0.435   7.679  0.7547  0.8134 -0.5186
  979SOL     OW14572   3.787   0.040   8.513 -0.3770 -0.1016 -0.2106
  979SOL    HW114573   3.764   0.133   8.503  0.6079  0.4908  2.9688
  979SOL    HW214574   3.829   0.029   8.598 -0.4346  3.2316  0.2457
  980SOL     OW14575   0.155   3.752  16.617 -0.0414 -0.0418  0.2266
  980SOL    HW114576   0.160   3.657  16.603  0.8932  0.2102 -1.1992
  980SOL    HW214577   0.060   3.758  16.613  0.0030 -0.2155 -1.3256
  981SOL     OW14578   3.918   3.294   5.780  0.3629 -0.5835 -0.0309
  981SOL    HW114579   3.853   3.299   5.849  0.0960  3.1661 -0.5406
  981SOL    HW214580   3.996   3.314   5.832  1.5869 -0.7960 -1.7437
  982SOL     OW14581   1.917   1.296   6.413 -0.1322 -0.2804  0.1708
  982SOL    HW114582   1.963   1.218   6.444 -0.7413  0.2412  2.3923
  982SOL    HW214583   1.980   1.334   6.353 -2.9816  0.8529 -2.1072
  983SOL     OW14584   2.129   3.082  16.896 -0.0807  0.0259  0.4686
  983SOL    HW114585   2.135   3.172  16.928  1.1104 -0.1796  0.8055
  983SOL    HW214586   2.218   3.057  16.872  0.0015 -0.4389  1.2728
  984SOL     OW14587   3.840   3.085  12.715 -0.2583  0.1524 -0.4473
  984SOL    HW114588   3.909   3.023  12.737  0.6795  1.4554  0.3229
  984SOL    HW214589   3.837   3.079  12.620 -1.8554 -0.9121 -0.3183
  985SOL     OW14590   2.639   0.031   6.891 -0.0430 -0.2701 -0.2182
  985SOL    HW114591   2.572   0.074   6.944  0.2972 -1.3035  1.0623
  985SOL    HW214592   2.580   4.711   6.845 -0.2623 -0.8074  0.7588
  986SOL     OW14593   2.057   2.252  10.685  0.3573 -0.0474  0.3915
  986SOL    HW114594   1.981   2.261  10.743  0.4806 -0.4129  0.6119
  986SOL    HW214595   2.130   2.294  10.730  0.3464 -0.3388  0.6803
  987SOL     OW14596   0.902   0.670   3.071  0.2176 -0.0445 -0.4278
  987SOL    HW114597   0.840   0.600   3.090 -1.6696  0.9720 -2.8467
  987SOL    HW214598   0.884   0.697   2.981 -1.1270  0.4620 -0.0163
  988SOL     OW14599   3.919   0.326  12.942  0.1757  0.0623 -0.6987
  988SOL    HW114600   3.911   0.400  12.881 -2.3445 -0.4721 -1.0279
  988SOL    HW214601   3.844   0.339  13.001  0.5504  1.0454 -0.4368
  989SOL     OW14602   3.671   3.765   5.934  0.5192 -0.7043  0.1103
  989SOL    HW114603   3.582   3.785   5.962  0.4450  0.7306 -1.1536
  989SOL    HW214604   3.710   3.744   6.019 -1.2177 -0.7080  0.9051
  990SOL     OW14605   3.178   4.689   4.272 -0.1795  0.1020 -0.3292
  990SOL    HW114606   3.233   0.008   4.221 -2.1970  2.9662  0.8368
  990SOL    HW214607   3.134   4.651   4.197 -0.4041 -0.7931  0.2589
  991SOL     OW14608   1.483   3.447  10.699 -0.3400  0.3483 -0.1149
  991SOL    HW114609   1.555   3.454  10.637  0.1086  0.2601  0.3981
  991SOL    HW214610   1.523   3.472  10.782  1.5834  3.2245 -1.9148
  992SOL     OW14611   1.269   1.280  16.527  0.9142 -0.4740 -0.1093
  992SOL    HW114612   1.271   1.279  16.622  0.2845 -1.6989 -0.1093
  992SOL    HW214613   1.236   1.368  16.511 -0.1063 -1.2428 -2.2674
  993SOL     OW14614   2.249   0.672   8.724 -0.3867  0.1268  0.4911
  993SOL    HW114615   2.241   0.740   8.657 -3.5300 -0.0631  0.6724
  993SOL    HW214616   2.338   0.644   8.703 -0.4336  1.5009 -1.5013
  994SOL     OW14617   2.411   1.018  12.305  0.9422  0.1593 -0.1341
  994SOL    HW114618   2.473   1.002  12.234  0.0263  2.2439 -1.4087
  994SOL    HW214619   2.471   1.027  12.379 -1.2005  2.6113  1.3010
  995SOL     OW14620   4.574   1.409  11.138  0.7620 -0.1237 -0.5886
  995SOL    HW114621   4.646   1.429  11.197  2.6852 -2.2861 -2.2452
  995SOL    HW214622   4.570   1.314  11.142  0.9104 -0.0191  1.9971
  996SOL     OW14623   1.361   2.488   7.763 -0.4238 -0.0011 -0.2226
  996SOL    HW114624   1.386   2.457   7.676  1.1387  0.9934 -0.1379
  996SOL    HW214625   1.438   2.540   7.789  0.4926 -0.9339 -1.0719
  997SOL     OW14626   4.570   0.060   6.605 -0.9264  0.5389  0.1060
  997SOL    HW114627   4.601   0.142   6.565 -0.5863  0.3392 -0.0450
  997SOL    HW214628   4.635   0.050   6.675 -1.1280 -0.3531  0.1609
  998SOL     OW14629   1.485   0.221   0.132 -0.0956  0.4520 -0.4163
  998SOL    HW114630   1.510   0.219   0.225 -0.8476  1.7219 -0.1934
  998SOL    HW214631   1.518   0.306   0.104 -0.8946  1.2813  1.1700
  999SOL     OW14632   3.761   0.531  10.541  0.2537  0.3269 -0.1742
  999SOL    HW114633   3.798   0.457  10.589 -0.6494  0.3531  0.5501
  999SOL    HW214634   3.757   0.593  10.614 -0.6432 -0.2352  0.2489
 1000SOL     OW14635   4.104   4.501   6.907  0.3638  0.0323  0.0749
 1000SOL    HW114636   4.085   4.525   6.998 -1.2911 -2.5561  0.4159
 1000SOL    HW214637   4.071   4.580   6.863  0.5181 -0.6893 -1.3382
 1001SOL     OW14638   0.608   3.057   1.307  0.2170 -0.0281  0.5786
 1001SOL    HW114639   0.636   3.005   1.231 -0.1105 -0.9572  1.0939
 1001SOL    HW214640   0.557   3.128   1.270  2.1701  0.6017 -0.9205
 1002SOL     OW14641   3.597   0.569   3.192  0.8468 -0.2654 -0.6931
 1002SOL    HW114642   3.532   0.624   3.149  0.3592 -0.3453 -0.0677
 1002SOL    HW214643   3.622   0.617   3.271  1.0198 -1.0736 -0.2482
 1003SOL     OW14644   2.364   3.443   7.995 -0.3527  0.1149  0.0447
 1003SOL    HW114645   2.451   3.444   7.956 -0.5801 -1.3450 -0.5136
 1003SOL    HW214646   2.319   3.383   7.935  0.8411 -2.3355  1.5602
 1004SOL     OW14647   0.276   4.053   6.489 -0.3199  0.2143 -0.1154
 1004SOL    HW114648   0.196   4.105   6.501 -0.2828  0.0591  0.7907
 1004SOL    HW214649   0.337   4.125   6.474 -1.0150  0.9583  0.6383
 1005SOL     OW14650   4.157   1.748  11.809 -0.2798  0.0763 -0.2500
 1005SOL    HW114651   4.151   1.652  11.808  0.9882 -0.0393  2.3172
 1005SOL    HW214652   4.183   1.770  11.720 -1.8628  0.8906 -0.5196
 1006SOL     OW14653   1.508   1.444   7.729 -0.1029 -0.3263 -0.0767
 1006SOL    HW114654   1.472   1.501   7.661 -0.6140  0.2911  0.7088
 1006SOL    HW214655   1.465   1.469   7.811  1.6309  1.1525  0.3843
 1007SOL     OW14656   0.139   2.943   5.062  0.0321  0.1972 -0.7056
 1007SOL    HW114657   0.053   2.904   5.076 -0.6041  2.9008  2.6219
 1007SOL    HW214658   0.117   3.035   5.052  0.9171  0.6610  1.7226
 1008SOL     OW14659   0.397   3.086   8.788 -0.1838  0.2412 -0.2326
 1008SOL    HW114660   0.450   3.009   8.767  1.4315  0.4771  2.9819
 1008SOL    HW214661   0.430   3.105   8.876 -0.1281  0.9614 -0.4076
 1009SOL     OW14662   3.310   0.653   7.909 -0.3811  0.0288  0.0755
 1009SOL    HW114663   3.370   0.704   7.963 -1.4572  0.5482  0.7541
 1009SOL    HW214664   3.245   0.719   7.888 -0.8549 -0.0331  1.4087
 1010SOL     OW14665   4.026   4.546   0.909 -0.3014  0.6351  0.1716
 1010SOL    HW114666   4.039   4.626   0.859 -0.7938 -0.3266 -1.4986
 1010SOL    HW214667   4.075   4.554   0.991  0.3614  1.9882 -0.3712
 1011SOL     OW14668   0.340   0.824  10.936 -0.3168  0.0371 -0.2714
 1011SOL    HW114669   0.285   0.882  10.989 -0.1639  0.0650 -0.1461
 1011SOL    HW214670   0.416   0.821  10.994  0.7125 -0.4091 -1.6432
 1012SOL     OW14671   2.211   1.685   2.112 -0.6403 -0.2354  0.5099
 1012SOL    HW114672   2.284   1.657   2.057 -0.5880 -1.7606  1.3824
 1012SOL    HW214673   2.223   1.648   2.199 -2.1887 -2.2675 -0.1370
 1013SOL     OW14674   0.414   2.890  10.405  0.0442  0.4774  0.0643
 1013SOL    HW114675   0.507   2.866  10.403  0.0727  0.5914 -0.0162
 1013SOL    HW214676   0.408   2.915  10.312  2.0272 -2.6446 -0.8977
 1014SOL     OW14677   0.785   4.233   4.861 -0.3835 -0.0344 -0.3975
 1014SOL    HW114678   0.806   4.243   4.954  0.4683 -2.8448 -0.3115
 1014SOL    HW214679   0.694   4.205   4.870 -0.2137  0.2365  2.2796
 1015SOL     OW14680   2.959   2.990   7.606  0.0675  0.2774  0.0216
 1015SOL    HW114681   2.949   3.049   7.682  0.0868  1.0398 -0.5643
 1015SOL    HW214682   3.055   2.985   7.605 -0.0401 -1.4277 -0.8967
 1016SOL     OW14683   3.226   4.318   6.242 -0.0909  0.3305 -0.1937
 1016SOL    HW114684   3.158   4.294   6.180 -0.1964  1.0030 -0.3458
 1016SOL    HW214685   3.237   4.410   6.219 -2.2734  0.3678 -1.0867
 1017SOL     OW14686   4.056   1.823   7.581 -0.2480  0.3802 -0.4470
 1017SOL    HW114687   4.080   1.815   7.673  0.1826  0.2434 -0.5715
 1017SOL    HW214688   4.143   1.836   7.544 -0.8566  0.8918 -1.7014
 1018SOL     OW14689   3.801   4.468   5.622 -0.0322 -0.1726  0.0216
 1018SOL    HW114690   3.820   4.550   5.576 -0.4189  0.4651  0.9843
 1018SOL    HW214691   3.740   4.512   5.682  2.7884  3.2029  0.4339
 1019SOL     OW14692   1.626   3.696   8.091 -0.6248 -0.7409  0.0707
 1019SOL    HW114693   1.626   3.713   8.186  1.0228 -1.5688  0.2140
 1019SOL    HW214694   1.677   3.615   8.084 -1.7423 -1.4883  0.4360
 1020SOL     OW14695   1.585   4.677   0.114  0.0930 -0.0037 -0.3843
 1020SOL    HW114696   1.571   0.025   0.080  2.5014  0.0182 -1.3461
 1020SOL    HW214697   1.553   4.613   0.050  1.0230 -0.3185 -0.5336
 1021SOL     OW14698   3.821   4.151  13.230 -0.2401 -0.3967  0.4564
 1021SOL    HW114699   3.894   4.167  13.169  0.5347 -0.7359  1.2995
 1021SOL    HW214700   3.788   4.072  13.187 -0.7809 -0.8394  1.6810
 1022SOL     OW14701   1.835   3.941   8.248  0.1726  0.1500 -0.4516
 1022SOL    HW114702   1.805   3.903   8.331 -1.0901 -0.2107 -1.0761
 1022SOL    HW214703   1.927   3.916   8.245 -0.3258 -1.6008 -1.6208
 1023SOL     OW14704   2.189   2.963   7.426  0.0999  0.2232  0.3287
 1023SOL    HW114705   2.277   2.926   7.429 -0.1604 -0.3242  1.0603
 1023SOL    HW214706   2.157   2.912   7.352 -0.2859  0.7412  0.1360
 1024SOL     OW14707   1.183   3.197  15.042  0.3380 -0.4256  0.1611
 1024SOL    HW114708   1.170   3.163  15.130  1.1570 -2.4941 -0.5167
 1024SOL    HW214709   1.113   3.261  15.033 -0.8729 -1.0560  5.2282
 1025SOL     OW14710   2.812   1.615   3.580  0.1257  0.0434  0.0129
 1025SOL    HW114711   2.754   1.539   3.581 -0.0569  0.1614 -1.1490
 1025SOL    HW214712   2.868   1.589   3.653  1.1604 -0.3122 -0.8953
 1026SOL     OW14713   3.447   3.029   8.806 -0.1394 -0.2415 -0.2734
 1026SOL    HW114714   3.354   3.013   8.818 -0.5028  0.5291 -2.1238
 1026SOL    HW214715   3.485   2.962   8.863 -0.6030  0.0046  0.3212
 1027SOL     OW14716   3.918   4.671   0.583  0.4270 -0.0721  0.0889
 1027SOL    HW114717   4.001   4.626   0.599 -0.3473 -1.3436  0.5435
 1027SOL    HW214718   3.953   0.014   0.552 -2.3604  1.7144  1.6911
 1028SOL     OW14719   3.448   4.173   6.207  0.4718  0.5939  0.0508
 1028SOL    HW114720   3.427   4.150   6.116  0.6300 -0.5712  0.3071
 1028SOL    HW214721   3.396   4.252   6.217 -1.1930 -0.4561 -0.2953
 1029SOL     OW14722   2.351   4.032  14.446  0.0616 -0.2263 -0.3706
 1029SOL    HW114723   2.405   4.009  14.371  2.2994  0.8592  0.9239
 1029SOL    HW214724   2.270   4.046  14.396  0.5602  0.9091 -0.8642
 1030SOL     OW14725   2.204   1.655  13.536  0.3287 -0.1659 -0.0095
 1030SOL    HW114726   2.237   1.565  13.530 -1.6596 -0.7859 -1.8634
 1030SOL    HW214727   2.136   1.652  13.468  0.1568  0.2121  0.1471
 1031SOL     OW14728   0.570   2.855   9.433  0.4704 -0.6964  0.7874
 1031SOL    HW114729   0.533   2.819   9.514  0.7844 -0.2948  1.1095
 1031SOL    HW214730   0.510   2.927   9.414  0.2932 -1.2700 -0.8240
 1032SOL     OW14731   2.229   0.640  16.737  0.5122 -0.0884 -0.2506
 1032SOL    HW114732   2.248   0.669  16.648 -1.6685 -0.1092 -0.7169
 1032SOL    HW214733   2.305   0.585  16.754  0.7856  0.5049  0.4359
 1033SOL     OW14734   0.137   0.799   3.097  0.7311  0.3233  0.3278
 1033SOL    HW114735   0.137   0.894   3.079 -1.2976  0.3281  0.3765
 1033SOL    HW214736   0.070   0.785   3.164  0.6548 -2.4379 -0.3508
 1034SOL     OW14737   4.722   1.797  10.669 -0.0445  0.0685 -0.1905
 1034SOL    HW114738   4.679   1.840  10.743 -1.5742 -0.5486 -0.7060
 1034SOL    HW214739   0.074   1.799  10.696 -0.3636 -2.1517  1.1221
 1035SOL     OW14740   2.832   4.285   8.109  0.0263 -0.5757  0.1740
 1035SOL    HW114741   2.874   4.294   8.195  1.4870  1.1034 -0.7034
 1035SOL    HW214742   2.886   4.353   8.068 -1.8326  0.1744 -0.9917
 1036SOL     OW14743   3.835   2.845   6.650  0.5285 -0.2109  0.0117
 1036SOL    HW114744   3.796   2.921   6.608  0.2855 -0.7690 -0.7686
 1036SOL    HW214745   3.897   2.892   6.706  0.1307  0.2985  0.0221
 1037SOL     OW14746   0.297   0.515  16.907 -0.1299 -0.2260  0.6114
 1037SOL    HW114747   0.272   0.511  16.815 -0.3152 -0.0289  0.6520
 1037SOL    HW214748   0.257   0.597  16.936  0.3472  0.3566 -0.3845
 1038SOL     OW14749   3.510   3.886   4.249 -0.6127  0.2985  0.1534
 1038SOL    HW114750   3.548   3.953   4.305 -0.6149 -0.9222  1.6201
 1038SOL    HW214751   3.571   3.812   4.259 -0.9443 -0.1830 -1.4568
 1039SOL     OW14752   2.842   0.903   6.134 -0.5724  0.3375  0.6401
 1039SOL    HW114753   2.821   0.812   6.153 -0.7396  0.8044  2.6814
 1039SOL    HW214754   2.928   0.913   6.176 -0.7192  2.4772  0.4669
 1040SOL     OW14755   2.971   1.883   8.810  0.3966  0.5449 -0.0700
 1040SOL    HW114756   3.048   1.908   8.860 -0.3258  1.5475  0.5355
 1040SOL    HW214757   2.927   1.814   8.861  0.3494  1.6356  1.3711
 1041SOL     OW14758   3.152   4.206   2.205 -0.0985  0.0353 -0.6651
 1041SOL    HW114759   3.155   4.128   2.260 -4.4047 -0.9929 -1.9209
 1041SOL    HW214760   3.213   4.263   2.253 -0.0338  2.2430 -3.3539
 1042SOL     OW14761   0.092   3.373   1.291  0.4837 -0.0179  0.1863
 1042SOL    HW114762   0.139   3.302   1.247 -1.5392 -1.0000 -0.4125
 1042SOL    HW214763   0.009   3.372   1.244  0.1541 -2.3756  0.8203
 1043SOL     OW14764   3.366   2.757   6.943  0.2759  0.2967  0.0714
 1043SOL    HW114765   3.415   2.783   6.865  0.2751 -0.3842 -0.1579
 1043SOL    HW214766   3.341   2.844   6.973 -2.6914 -0.6524  0.3510
 1044SOL     OW14767   2.905   2.617   8.831 -0.3389  0.7321 -0.1375
 1044SOL    HW114768   2.826   2.662   8.859 -0.7880 -1.2538  1.8097
 1044SOL    HW214769   2.876   2.581   8.747  0.8892 -1.3184  0.3249
 1045SOL     OW14770   0.473   1.383   9.526 -0.3791 -0.0934 -0.2603
 1045SOL    HW114771   0.401   1.357   9.583 -0.1654 -0.2688 -0.0697
 1045SOL    HW214772   0.513   1.454   9.577 -0.2604 -0.7013  0.4968
 1046SOL     OW14773   3.608   4.152  15.885 -0.1882  0.2194 -0.2554
 1046SOL    HW114774   3.631   4.182  15.797  0.9087 -2.0483 -0.7332
 1046SOL    HW214775   3.562   4.227  15.925 -2.5683  0.6802 -3.8090
 1047SOL     OW14776   0.132   2.548   3.440  0.2633 -0.1228 -0.1955
 1047SOL    HW114777   0.170   2.561   3.354 -0.9667  1.7211 -0.4495
 1047SOL    HW214778   0.177   2.611   3.497  2.5889 -1.0708 -0.9721
 1048SOL     OW14779   0.864   3.094   6.539 -0.4253  0.3975  0.0727
 1048SOL    HW114780   0.820   3.156   6.480  0.9822  2.3520  1.0915
 1048SOL    HW214781   0.927   3.146   6.589  2.3136 -1.6623 -1.2144
 1049SOL     OW14782   2.879   2.366   4.009  0.4905  0.5260  0.2572
 1049SOL    HW114783   2.963   2.405   4.033  1.0544  0.4658 -1.6317
 1049SOL    HW214784   2.835   2.430   3.953  0.6339 -0.8588 -1.4447
 1050SOL     OW14785   2.095   4.471   9.389  0.6863 -0.1256 -0.2250
 1050SOL    HW114786   2.100   4.475   9.484  1.1781  0.0653 -0.2599
 1050SOL    HW214787   2.102   4.377   9.370  0.6713 -0.4143  1.2125
 1051SOL     OW14788   0.221   2.675  16.468  0.0475 -0.1010  0.2751
 1051SOL    HW114789   0.205   2.753  16.415 -3.3199  0.2400  1.8141
 1051SOL    HW214790   0.148   2.614  16.458 -0.4399  0.5953 -0.4128
 1052SOL     OW14791   3.908   1.617   5.497  0.6108 -0.1753  0.4570
 1052SOL    HW114792   3.848   1.662   5.557  1.9249  0.0419  1.6263
 1052SOL    HW214793   3.964   1.690   5.470 -0.5560  1.1514  1.5996
 1053SOL     OW14794   4.205   4.136  16.200  0.5957  0.1260 -0.2259
 1053SOL    HW114795   4.284   4.182  16.227 -0.2153  0.4405  1.6084
 1053SOL    HW214796   4.182   4.202  16.135  1.9894  2.4440  1.6433
 1054SOL     OW14797   2.235   2.585   9.519 -0.1569  0.7773  0.1384
 1054SOL    HW114798   2.181   2.532   9.459 -0.1104  1.2492 -0.3162
 1054SOL    HW214799   2.306   2.609   9.460  1.7078 -0.2906  1.9596
 1055SOL     OW14800   2.111   3.457   2.499 -0.4455  0.4941 -0.4078
 1055SOL    HW114801   2.203   3.438   2.515 -0.3825 -2.6199 -4.5133
 1055SOL    HW214802   2.103   3.547   2.531  1.3872  0.5400 -0.0876
 1056SOL     OW14803   2.485   3.058   3.352  0.9326 -0.1852  0.2858
 1056SOL    HW114804   2.521   3.126   3.409  1.4675  0.0445 -0.3187
 1056SOL    HW214805   2.567   3.012   3.333  1.7242  0.4111  2.2749
 1057SOL     OW14806   2.815   3.732  12.926  0.3068 -0.3065 -0.3286
 1057SOL    HW114807   2.860   3.715  12.843 -0.1068  0.1223 -0.6406
 1057SOL    HW214808   2.758   3.800  12.891 -0.1919  0.8714  2.7348
 1058SOL     OW14809   0.038   2.407  16.482  0.1625  0.2283  0.1210
 1058SOL    HW114810   0.063   2.393  16.391 -0.9683 -0.7685 -0.0275
 1058SOL    HW214811   4.683   2.414  16.485  0.1075 -1.8645  2.9426
 1059SOL     OW14812   4.189   0.572  17.305  0.2964  0.0791 -0.3519
 1059SOL    HW114813   4.190   0.519  17.385 -1.7796  1.6411  0.7321
 1059SOL    HW214814   4.278   0.598  17.282 -0.5340  2.6164 -0.7220
 1060SOL     OW14815   2.022   0.266   2.361 -0.0719 -0.2419 -0.1181
 1060SOL    HW114816   2.073   0.321   2.420 -2.3853  1.1160  0.6529
 1060SOL    HW214817   1.951   0.329   2.345  0.0554  0.1553  0.8309
 1061SOL     OW14818   2.892   1.521   9.911 -0.3596 -0.1233  0.2516
 1061SOL    HW114819   2.801   1.507   9.936  0.3698 -2.0616  1.7980
 1061SOL    HW214820   2.894   1.453   9.844  0.5039 -1.6905  1.8609
 1062SOL     OW14821   2.207   3.230   1.098 -0.4642 -0.4356 -0.0692
 1062SOL    HW114822   2.274   3.244   1.165 -0.5597  1.3147 -0.3403
 1062SOL    HW214823   2.135   3.276   1.140 -1.5610 -1.7704 -0.5189
 1063SOL     OW14824   0.862   0.276   8.299 -0.3542 -0.4678  0.7091
 1063SOL    HW114825   0.777   0.311   8.326 -0.5750 -0.3449 -0.1455
 1063SOL    HW214826   0.873   0.305   8.208 -0.3950  1.3415  1.2686
 1064SOL     OW14827   3.108   1.998   6.840  0.0202  0.1488 -0.1403
 1064SOL    HW114828   3.040   1.946   6.796  0.6801  2.1516 -3.5804
 1064SOL    HW214829   3.051   2.051   6.896 -1.0464 -1.2760  0.1110
 1065SOL     OW14830   1.882   0.073   7.241  0.4594 -0.6460  0.0721
 1065SOL    HW114831   1.813   0.045   7.302  2.2678 -2.7972  1.1612
 1065SOL    HW214832   1.859   0.020   7.165  0.8595  0.6141 -0.9159
 1066SOL     OW14833   3.791   1.856   5.617 -0.5222 -0.2568 -1.0925
 1066SOL    HW114834   3.737   1.873   5.694 -0.6690  0.5606 -1.3702
 1066SOL    HW214835   3.733   1.890   5.548 -0.8747 -0.8189 -1.0715
 1067SOL     OW14836   0.368   1.692   8.735  0.1070 -0.1413  0.5154
 1067SOL    HW114837   0.285   1.695   8.782 -1.0581  1.8770 -1.6565
 1067SOL    HW214838   0.380   1.786   8.718 -2.4235 -0.6726 -4.1426
 1068SOL     OW14839   2.249   1.726   3.151 -0.0454 -0.4489  0.1420
 1068SOL    HW114840   2.234   1.819   3.168 -0.3373 -0.1703 -1.6249
 1068SOL    HW214841   2.241   1.693   3.240 -1.0620  1.9020  0.9227
 1069SOL     OW14842   2.328   1.924   0.369 -0.1295 -0.0771 -0.4045
 1069SOL    HW114843   2.367   1.996   0.320  0.0373  0.5001  0.5742
 1069SOL    HW214844   2.385   1.921   0.445  2.7518  1.2369 -2.5311
 1070SOL     OW14845   2.296   4.247   4.401  0.2182  0.4983 -0.8739
 1070SOL    HW114846   2.274   4.272   4.312  0.9685  1.3440 -0.8256
 1070SOL    HW214847   2.216   4.206   4.433  0.7976  0.8817  1.0694
 1071SOL     OW14848   1.328   2.354   0.766  0.6886  0.2245  0.3473
 1071SOL    HW114849   1.366   2.284   0.713 -0.4853 -0.7608  0.7996
 1071SOL    HW214850   1.391   2.425   0.754 -0.2218  0.8609 -0.7150
 1072SOL     OW14851   2.883   3.438   4.661 -0.3273 -0.5322 -0.0173
 1072SOL    HW114852   2.791   3.411   4.666  0.3623 -2.7773  0.6700
 1072SOL    HW214853   2.932   3.360   4.687  2.4639  2.1517  2.7630
 1073SOL     OW14854   4.461   1.259   6.305  0.1817  0.0694 -0.0563
 1073SOL    HW114855   4.411   1.292   6.230  1.8188  1.6117 -0.4624
 1073SOL    HW214856   4.430   1.169   6.318  1.2969 -0.0302  1.9070
 1074SOL     OW14857   1.023   1.148   0.245  0.2933  0.1252  0.4329
 1074SOL    HW114858   1.002   1.065   0.202  2.5931 -0.7585  1.0464
 1074SOL    HW214859   1.045   1.205   0.171 -0.5586  0.1153  0.1696
 1075SOL     OW14860   1.814   0.896   5.389  0.2783 -0.2235 -0.5287
 1075SOL    HW114861   1.826   0.937   5.474 -0.3829  0.6604 -0.8671
 1075SOL    HW214862   1.720   0.897   5.370  0.4757  0.7174 -1.4137
 1076SOL     OW14863   1.302   1.455   3.255  0.4318  0.4193 -0.2713
 1076SOL    HW114864   1.335   1.376   3.214 -0.3762  1.7245 -3.3977
 1076SOL    HW214865   1.208   1.439   3.262  0.4296  1.1477  1.4305
 1077SOL     OW14866   3.749   1.254   9.247  0.3302 -0.1210  0.2122
 1077SOL    HW114867   3.714   1.332   9.204 -0.9744 -1.0388 -0.4104
 1077SOL    HW214868   3.684   1.248   9.317  2.2824  0.4597  2.0743
 1078SOL     OW14869   4.172   2.287   3.159 -0.0082  0.2346 -0.5054
 1078SOL    HW114870   4.195   2.378   3.173 -1.9342  0.1983  2.8160
 1078SOL    HW214871   4.096   2.265   3.211  0.4491 -0.2117 -0.0259
 1079SOL     OW14872   1.387   0.141   7.644 -0.6332  0.3216  0.2794
 1079SOL    HW114873   1.478   0.112   7.633 -1.3335 -1.7284 -0.0625
 1079SOL    HW214874   1.394   0.228   7.605 -0.1019  0.1025 -0.1276
 1080SOL     OW14875   1.480   0.504  14.975 -0.7785 -0.1661 -0.1234
 1080SOL    HW114876   1.468   0.595  14.948  3.5128  0.9757  1.6659
 1080SOL    HW214877   1.451   0.456  14.898 -0.1969 -3.1076  1.4861
 1081SOL     OW14878   1.569   2.932  12.021  0.6959  0.1008  0.0791
 1081SOL    HW114879   1.497   2.993  12.008  0.8251 -0.1528 -1.8467
 1081SOL    HW214880   1.622   2.950  11.943 -1.2047 -1.5160 -1.5939
 1082SOL     OW14881   2.355   3.514   8.556  0.6462 -0.2572  0.2743
 1082SOL    HW114882   2.443   3.530   8.523  1.0533 -1.3674  0.8051
 1082SOL    HW214883   2.352   3.419   8.567  0.8311 -0.2020  0.7826
 1083SOL     OW14884   2.203   4.656   4.584 -0.4289  0.1401 -0.2521
 1083SOL    HW114885   2.138   4.704   4.635 -1.6882 -2.3618  0.4888
 1083SOL    HW214886   2.150   4.586   4.546  1.2318 -1.6856  0.7347
 1084SOL     OW14887   2.890   4.661   5.390 -0.5540 -0.4321 -0.2417
 1084SOL    HW114888   2.938   4.704   5.461 -0.2361 -0.6453 -0.3266
 1084SOL    HW214889   2.807   4.634   5.430 -1.3480 -0.9920 -2.2732
 1085SOL     OW14890   1.922   1.768   4.759 -0.1672 -0.0734 -0.2511
 1085SOL    HW114891   1.864   1.832   4.800 -0.4676 -0.8207  0.4909
 1085SOL    HW214892   1.884   1.769   4.671  2.8254 -0.3568 -1.5380
 1086SOL     OW14893   0.972   1.977  15.336 -0.2787  0.2782  0.0212
 1086SOL    HW114894   0.905   1.928  15.383  1.2391 -1.1929  0.6488
 1086SOL    HW214895   1.035   2.009  15.401  0.8379  0.6578 -1.2659
 1087SOL     OW14896   4.504   0.142  12.313 -0.3509  0.0112 -0.1207
 1087SOL    HW114897   4.516   0.056  12.354  3.6543  0.3671 -0.5822
 1087SOL    HW214898   4.536   0.117  12.226 -0.4552  1.5288 -0.5886
 1088SOL     OW14899   3.375   0.366  13.493 -0.1055  0.5731  0.2053
 1088SOL    HW114900   3.413   0.453  13.485  3.0685 -0.9910 -1.7853
 1088SOL    HW214901   3.384   0.348  13.587  0.9453  2.2358  0.4264
 1089SOL     OW14902   3.991   0.078   3.959  0.0069 -0.3331 -0.6050
 1089SOL    HW114903   4.074   0.031   3.948 -0.4422 -1.4731  0.8453
 1089SOL    HW214904   4.022   0.167   3.943 -0.3988  0.8620  5.1446
 1090SOL     OW14905   4.410   3.199   3.470  0.1372  0.1484  0.7569
 1090SOL    HW114906   4.405   3.118   3.421  0.2432  0.3277  0.4483
 1090SOL    HW214907   4.486   3.243   3.431 -0.0700 -2.5277 -2.6335
 1091SOL     OW14908   0.443   3.104   2.885 -0.2081 -0.5111 -0.2257
 1091SOL    HW114909   0.348   3.095   2.890 -0.5136  2.0959 -1.2404
 1091SOL    HW214910   0.451   3.186   2.933 -0.5791 -0.3603 -0.4244
 1092SOL     OW14911   3.895   1.189   3.305 -0.0463 -0.1365 -0.5373
 1092SOL    HW114912   3.965   1.234   3.353  0.9381 -2.2262  0.0053
 1092SOL    HW214913   3.853   1.270   3.275  0.7434  0.1860 -0.7681
 1093SOL     OW14914   0.231   3.752   3.117 -0.0244 -0.0583 -0.2916
 1093SOL    HW114915   0.249   3.840   3.084 -1.3865  1.7668  3.7961
 1093SOL    HW214916   0.147   3.765   3.162 -0.5946 -2.2322 -0.7066
 1094SOL     OW14917   1.805   1.918   9.149 -0.3736 -0.5629 -0.2614
 1094SOL    HW114918   1.855   1.853   9.198 -0.2670 -0.8608 -0.7554
 1094SOL    HW214919   1.741   1.939   9.217 -0.0046 -1.6243  0.4126
 1095SOL     OW14920   0.182   0.581   7.168  0.2914 -0.6555 -0.2065
 1095SOL    HW114921   0.191   0.506   7.108  0.2190 -1.1431  0.3928
 1095SOL    HW214922   0.146   0.649   7.110 -0.7165 -0.3241  0.8168
 1096SOL     OW14923   3.702   3.159  10.943  0.0708 -0.1896  0.1102
 1096SOL    HW114924   3.722   3.217  10.870  1.0073  0.4893  0.9054
 1096SOL    HW214925   3.745   3.078  10.913  0.2613  0.2328 -0.7551
 1097SOL     OW14926   1.651   1.960   2.052 -0.5434 -0.2349  0.7255
 1097SOL    HW114927   1.559   1.966   2.029 -0.2340 -1.2700 -0.7843
 1097SOL    HW214928   1.685   1.895   1.990 -3.5618 -0.0918 -1.0861
 1098SOL     OW14929   3.655   0.775   6.408 -0.3450 -0.4420  0.0893
 1098SOL    HW114930   3.598   0.832   6.358  0.7507  0.3410 -0.2667
 1098SOL    HW214931   3.677   0.707   6.345  3.8002  1.5577 -0.6672
 1099SOL     OW14932   3.769   0.561   2.977  0.1355  0.2724 -0.0941
 1099SOL    HW114933   3.737   0.552   3.067 -1.6874  1.2791 -0.6419
 1099SOL    HW214934   3.682   0.554   2.939  0.8194  0.2522 -1.6678
 1100SOL     OW14935   0.636   3.987   3.816  0.6658  0.9313 -0.0939
 1100SOL    HW114936   0.702   3.958   3.753  1.1389 -0.1216  0.8822
 1100SOL    HW214937   0.599   3.907   3.854  0.2299  0.6227 -1.1742
 1101SOL     OW14938   3.380   3.230   7.982  0.5789  0.6985  0.9675
 1101SOL    HW114939   3.345   3.315   7.954 -0.7446  0.0287  0.5727
 1101SOL    HW214940   3.327   3.226   8.062  0.2482  1.7320  0.8031
 1102SOL     OW14941   0.294   0.218   7.833 -0.8938 -0.1124  1.0100
 1102SOL    HW114942   0.239   0.297   7.823 -0.3113  0.3403  1.3810
 1102SOL    HW214943   0.284   0.173   7.749  1.7793  1.8845 -0.3768
 1103SOL     OW14944   3.775   4.622  15.424  0.0290 -0.9453  0.1341
 1103SOL    HW114945   3.755   4.615  15.517  1.6927 -0.6990  0.5042
 1103SOL    HW214946   3.868   4.642  15.423 -0.3582  0.8232 -2.4354
 1104SOL     OW14947   2.531   4.668   3.310  0.2121  0.2619  0.1538
 1104SOL    HW114948   2.618   4.687   3.346 -0.4619  0.4807  1.6773
 1104SOL    HW214949   2.564   4.622   3.233  2.1840  2.2594 -0.2044
 1105SOL     OW14950   1.417   4.649   5.617 -0.1180  0.0071 -0.1545
 1105SOL    HW114951   1.363   4.571   5.603 -1.7976  0.8752  1.5365
 1105SOL    HW214952   1.491   4.637   5.557 -1.3798  0.1838 -1.7504
 1106SOL     OW14953   0.142   3.852   4.723 -0.3822 -0.7562 -0.0493
 1106SOL    HW114954   0.112   3.784   4.663 -1.5669 -2.8602  2.9561
 1106SOL    HW214955   0.075   3.915   4.696 -0.7763 -0.9053  0.5868
 1107SOL     OW14956   3.038   2.420   8.339 -0.5706  0.3296 -0.3395
 1107SOL    HW114957   3.001   2.479   8.405 -1.8922 -0.4826 -0.3672
 1107SOL    HW214958   3.062   2.479   8.267 -1.2206  1.2459  0.1895
 1108SOL     OW14959   0.010   1.727   1.263  0.3732 -0.3792  0.9773
 1108SOL    HW114960   4.694   1.802   1.244 -0.0251  0.1425  4.1046
 1108SOL    HW214961   0.006   1.727   1.359 -0.1321 -0.0521  0.9528
 1109SOL     OW14962   0.400   3.163   8.469 -0.2818 -0.0364 -0.1029
 1109SOL    HW114963   0.441   3.205   8.394 -0.1674  0.5676  0.3002
 1109SOL    HW214964   0.434   3.223   8.535 -0.7048  0.4761 -0.3555
 1110SOL     OW14965   0.787   1.288   4.307 -0.4861  0.1461  0.0578
 1110SOL    HW114966   0.838   1.271   4.387 -0.1395 -0.8034 -0.3670
 1110SOL    HW214967   0.703   1.254   4.336  0.2066  2.2128  4.5343
 1111SOL     OW14968   2.684   1.277   7.945  0.2478  0.5859 -0.3578
 1111SOL    HW114969   2.608   1.270   8.003  1.2487  1.7864  1.1008
 1111SOL    HW214970   2.653   1.236   7.864  2.6248  0.7189 -1.3500
 1112SOL     OW14971   1.001   3.292   0.933  0.3009  0.3183 -0.3468
 1112SOL    HW114972   0.985   3.299   1.028  1.6787 -1.8318  0.0406
 1112SOL    HW214973   0.940   3.353   0.893  0.8806  1.0435 -0.1253
 1113SOL     OW14974   2.093   0.134   7.054  0.1992 -0.3179 -0.6552
 1113SOL    HW114975   2.025   0.105   7.115  1.7408 -0.3398  1.0418
 1113SOL    HW214976   2.043   0.118   6.974 -1.7590 -3.9113  1.2974
 1114SOL     OW14977   3.395   0.871  15.509 -0.2948  0.0408  0.5295
 1114SOL    HW114978   3.310   0.882  15.551  0.0309  0.4139  1.0803
 1114SOL    HW214979   3.377   0.797  15.450  0.6163  0.2055  0.0526
 1115SOL     OW14980   1.881   2.300  15.938  0.0754  0.6658  0.1289
 1115SOL    HW114981   1.830   2.227  15.972  1.9571 -1.9237 -2.5384
 1115SOL    HW214982   1.908   2.350  16.015  0.4443 -1.4859  1.3696
 1116SOL     OW14983   4.341   4.054   6.387  0.6847  0.1868 -0.6283
 1116SOL    HW114984   4.409   4.053   6.319  0.9741  1.1045 -0.3518
 1116SOL    HW214985   4.357   3.974   6.436  1.2342  0.5072 -0.2904
 1117SOL     OW14986   2.673   0.340   4.253  0.1358  0.0482  0.0632
 1117SOL    HW114987   2.756   0.388   4.253  1.3834 -2.0760  1.0158
 1117SOL    HW214988   2.642   0.364   4.166 -1.9876  0.6456  0.9824
 1118SOL     OW14989   0.669   0.792   8.640 -0.4063 -0.1508 -0.1881
 1118SOL    HW114990   0.720   0.862   8.599 -1.7950  0.3818 -1.0176
 1118SOL    HW214991   0.641   0.823   8.726 -1.2099 -1.1676 -0.0758
 1119SOL     OW14992   0.739   3.594   6.014  0.1348  0.0586  0.0732
 1119SOL    HW114993   0.700   3.670   6.057 -3.5191  0.1142 -3.4050
 1119SOL    HW214994   0.688   3.526   6.059 -1.4570  1.4777  0.3956
 1120SOL     OW14995   3.941   1.022  11.395  0.1783 -0.7747  0.0762
 1120SOL    HW114996   3.858   1.046  11.437  0.1099  0.0857 -0.5531
 1120SOL    HW214997   3.925   1.046  11.303 -1.7594 -0.7818  0.4063
 1121SOL     OW14998   1.601   2.090   8.638 -0.3205 -0.1377 -0.2424
 1121SOL    HW114999   1.575   2.147   8.566  1.7137 -1.5405 -2.0859
 1121SOL    HW215000   1.517   2.048   8.659  0.3641 -1.3165  0.1356
 1122SOL     OW15001   3.959   0.746   5.882  0.3086  0.6604  0.7611
 1122SOL    HW115002   4.047   0.783   5.880  0.4117  0.4682  2.4232
 1122SOL    HW215003   3.922   0.793   5.956 -4.3845  0.4826 -1.4461
 1123SOL     OW15004   2.564   0.658   8.375 -0.3033  0.0722 -0.2571
 1123SOL    HW115005   2.488   0.605   8.398 -1.4260  1.2673 -1.2457
 1123SOL    HW215006   2.519   0.735   8.340  1.0940  2.8901  4.0993
 1124SOL     OW15007   1.715   0.473   1.223  0.3135  0.6072  0.0842
 1124SOL    HW115008   1.747   0.449   1.309  2.8671  2.0907 -0.4704
 1124SOL    HW215009   1.797   0.466   1.175  0.1019 -4.4377  0.5257
 1125SOL     OW15010   2.162   3.160   2.251 -0.2271 -0.3267 -0.2698
 1125SOL    HW115011   2.191   3.127   2.165  0.0735 -0.0327 -0.2812
 1125SOL    HW215012   2.144   3.252   2.232  1.5720  0.0795 -0.0351
 1126SOL     OW15013   2.031   2.266   4.476  0.0628  0.7526  0.8612
 1126SOL    HW115014   1.977   2.281   4.399  0.8354  0.5491  0.2892
 1126SOL    HW215015   1.967   2.226   4.535 -1.0565  3.2158  1.3180
 1127SOL     OW15016   0.402   1.156   7.865 -0.2648  0.6424  0.5008
 1127SOL    HW115017   0.334   1.130   7.927 -0.0507  1.6461  1.1551
 1127SOL    HW215018   0.364   1.132   7.781  1.4725 -1.9706  0.4451
 1128SOL     OW15019   0.999   3.127   8.614  0.1066 -0.1289  0.0255
 1128SOL    HW115020   1.056   3.135   8.691 -0.3989 -3.1325  0.7071
 1128SOL    HW215021   0.911   3.147   8.644 -0.5771 -0.4874 -1.7554
 1129SOL     OW15022   2.681   1.842   6.741  0.2679 -0.3425 -0.0572
 1129SOL    HW115023   2.672   1.750   6.763 -1.1605 -0.2393 -0.2146
 1129SOL    HW215024   2.591   1.875   6.745 -0.4941 -2.5071  0.2057
 1130SOL     OW15025   0.692   4.157  15.862  0.5261  0.0678 -0.2171
 1130SOL    HW115026   0.764   4.141  15.801 -0.6381 -0.5817 -1.4117
 1130SOL    HW215027   0.642   4.219  15.809 -0.3372 -1.3315 -1.0328
 1131SOL     OW15028   0.818   1.783   5.956 -0.0574  0.2108  0.2363
 1131SOL    HW115029   0.741   1.732   5.934 -1.4014  1.8674  1.0631
 1131SOL    HW215030   0.866   1.711   5.996  0.4294  0.2833 -0.2113
 1132SOL     OW15031   0.865   3.013   6.248  0.4167  0.2060 -1.2257
 1132SOL    HW115032   0.805   3.081   6.280  1.7315  0.1639  1.3169
 1132SOL    HW215033   0.814   2.973   6.177 -1.8607  0.0132  0.4938
 1133SOL     OW15034   0.082   3.114   1.733 -0.3459 -0.3232 -0.0887
 1133SOL    HW115035   0.026   3.175   1.684 -0.7602  0.5371  1.4654
 1133SOL    HW215036   0.167   3.114   1.688 -0.3762 -1.1006 -0.1446
 1134SOL     OW15037   4.290   0.394   0.475 -0.0369 -0.3115 -0.1228
 1134SOL    HW115038   4.265   0.333   0.405  1.3171  0.6320 -1.4252
 1134SOL    HW215039   4.273   0.471   0.422 -0.3918 -1.2438 -1.3604
 1135SOL     OW15040   0.290   2.595   9.684 -0.1470 -0.8596 -0.0750
 1135SOL    HW115041   0.307   2.537   9.759  0.0210 -0.7659 -0.0410
 1135SOL    HW215042   0.345   2.555   9.616  1.7232  0.4744  0.6414
 1136SOL     OW15043   4.342   0.990   8.555  0.7569 -0.1103  0.4911
 1136SOL    HW115044   4.269   1.044   8.586  3.3077  2.8399  1.4273
 1136SOL    HW215045   4.298   0.958   8.477 -1.3614  0.8560  1.2929
 1137SOL     OW15046   0.950   2.733   2.521  0.3030  0.3570 -0.0070
 1137SOL    HW115047   0.882   2.758   2.583  0.7183  2.6770 -0.4886
 1137SOL    HW215048   0.986   2.819   2.496  0.5797  1.1294  3.0903
 1138SOL     OW15049   0.315   0.617   3.223  0.0355  0.5345  0.6270
 1138SOL    HW115050   0.251   0.661   3.167  0.9952  1.4906  0.2784
 1138SOL    HW215051   0.371   0.688   3.255  1.3115 -0.8374  1.3871
 1139SOL     OW15052   4.710   1.937   0.998 -0.0788  0.4587  0.0434
 1139SOL    HW115053   0.040   1.998   1.020  0.3809 -0.2767  0.5966
 1139SOL    HW215054   4.645   1.962   1.064  0.6385  0.9364  0.5713
 1140SOL     OW15055   0.698   0.491   3.088  0.1451 -0.1116  0.2025
 1140SOL    HW115056   0.617   0.448   3.116  0.3566 -1.1194 -0.7354
 1140SOL    HW215057   0.708   0.443   3.006 -0.6621  2.1441 -1.2154
 1141SOL     OW15058   2.846   2.910   6.135  0.0671  0.0262  0.0856
 1141SOL    HW115059   2.790   2.896   6.059  1.4348  2.6720 -1.4373
 1141SOL    HW215060   2.920   2.962   6.103 -0.1328  0.3494  0.1494
 1142SOL     OW15061   0.313   2.606   1.760  0.0531  0.0474  0.0064
 1142SOL    HW115062   0.307   2.629   1.852  0.3662  0.2657 -0.0281
 1142SOL    HW215063   0.337   2.687   1.715  1.0887 -0.6141 -0.6455
 1143SOL     OW15064   3.469   2.214   2.509  0.0183 -0.1509  0.1794
 1143SOL    HW115065   3.478   2.170   2.594 -3.5783 -0.4685  0.4038
 1143SOL    HW215066   3.425   2.293   2.539  1.1336  0.5703 -0.0889
 1144SOL     OW15067   3.650   2.109   2.197  0.6472 -0.2294  0.5337
 1144SOL    HW115068   3.584   2.179   2.192 -0.7178 -1.6483 -1.1772
 1144SOL    HW215069   3.706   2.128   2.122 -1.7494  0.2969 -1.1113
 1145SOL     OW15070   0.565   4.249   9.620  0.5008 -0.4266  0.1782
 1145SOL    HW115071   0.565   4.270   9.713  1.8710 -0.0877  0.1072
 1145SOL    HW215072   0.478   4.285   9.601  0.0562 -2.0383 -0.8509
 1146SOL     OW15073   2.822   2.582  12.029  0.0124  0.5329  0.9555
 1146SOL    HW115074   2.782   2.531  11.958 -0.5605  1.2730  0.7513
 1146SOL    HW215075   2.850   2.665  11.991  0.2673 -0.0566 -0.1482
 1147SOL     OW15076   3.668   0.723   9.433  0.3259 -0.1394 -0.0877
 1147SOL    HW115077   3.576   0.751   9.436  0.5438  0.3393  2.6448
 1147SOL    HW215078   3.700   0.800   9.386  0.5599 -0.4287 -0.3929
 1148SOL     OW15079   3.856   1.925   7.942 -0.8518 -0.6008 -0.0934
 1148SOL    HW115080   3.848   1.864   7.869  3.0839 -2.5560  1.0711
 1148SOL    HW215081   3.900   1.864   8.001  1.2730 -1.1527 -2.2229
 1149SOL     OW15082   2.354   4.129   5.534 -0.3651  0.0119 -0.0961
 1149SOL    HW115083   2.271   4.173   5.513  1.6110  2.8837 -1.9021
 1149SOL    HW215084   2.378   4.099   5.446 -1.7030  0.0074 -0.4691
 1150SOL     OW15085   3.647   1.518  10.496  0.3504  0.2283  0.2626
 1150SOL    HW115086   3.574   1.494  10.553  0.3964 -2.8366 -0.9462
 1150SOL    HW215087   3.670   1.600  10.540  0.2030 -1.3041  3.2042
 1151SOL     OW15088   2.899   1.592   8.130  0.0620 -0.2277 -0.0893
 1151SOL    HW115089   2.903   1.497   8.118  1.0559 -0.1691 -0.1976
 1151SOL    HW215090   2.933   1.616   8.044  2.6107  1.3015  1.3422
 1152SOL     OW15091   1.193   4.007   9.925 -0.9618 -0.2340 -0.0860
 1152SOL    HW115092   1.114   3.955   9.939 -0.3687 -1.0208  0.2838
 1152SOL    HW215093   1.157   4.085   9.969  0.5502  0.9004 -0.8922
 1153SOL     OW15094   1.452   2.039  12.035  0.1110 -0.3073  0.2887
 1153SOL    HW115095   1.480   2.122  12.075  0.9424 -0.4804  0.0708
 1153SOL    HW215096   1.389   2.072  11.972 -0.5911  0.5582  1.4474
 1154SOL     OW15097   0.694   1.432  17.114 -0.1766  0.4654 -0.3464
 1154SOL    HW115098   0.680   1.525  17.098 -1.2555  0.2741 -0.5243
 1154SOL    HW215099   0.774   1.416  17.064  0.0911  1.0916 -0.1199
 1155SOL     OW15100   1.850   4.690  15.020 -0.0415 -0.1499  0.3603
 1155SOL    HW115101   1.802   0.033  15.016  1.9508  1.0536  1.0005
 1155SOL    HW215102   1.781   4.634  15.053  0.5269 -0.8258  0.3899
 1156SOL     OW15103   3.701   0.083   2.836  0.5221  0.3815 -0.2297
 1156SOL    HW115104   3.704   0.128   2.920  1.6152 -0.7309  0.3274
 1156SOL    HW215105   3.767   0.128   2.783  0.4086  0.2978 -0.4450
 1157SOL     OW15106   2.060   0.074   4.112  0.2226  0.8246 -0.1549
 1157SOL    HW115107   2.135   0.037   4.158  0.5323 -0.1957 -1.4697
 1157SOL    HW215108   1.991   0.018   4.149 -0.1392  1.2702 -0.1534
 1158SOL     OW15109   1.385   2.102   6.885  0.8611 -0.4269  0.4761
 1158SOL    HW115110   1.437   2.176   6.916  2.3346 -1.1658 -0.1868
 1158SOL    HW215111   1.457   2.042   6.863  0.9239  0.5413 -1.9905
 1159SOL     OW15112   4.302   4.469   4.512  0.2551 -0.2769  0.0229
 1159SOL    HW115113   4.394   4.465   4.537 -0.0434 -0.7566  1.0614
 1159SOL    HW215114   4.304   4.531   4.439 -0.0521  1.9227  1.9031
 1160SOL     OW15115   2.616   4.318   4.932 -0.7636  0.5327 -0.1619
 1160SOL    HW115116   2.535   4.353   4.895 -1.9213 -2.1019 -0.1300
 1160SOL    HW215117   2.591   4.303   5.023  2.5993  1.0056  0.8297
 1161SOL     OW15118   0.753   3.102   5.131  0.1008 -0.4594 -0.3163
 1161SOL    HW115119   0.666   3.109   5.170  1.2224  1.6457  1.8263
 1161SOL    HW215120   0.742   3.174   5.069 -0.6041 -0.4698 -0.2004
 1162SOL     OW15121   4.603   2.117  16.193 -0.1145 -0.7260  0.1310
 1162SOL    HW115122   4.536   2.142  16.130  0.6174  0.0689 -0.3285
 1162SOL    HW215123   4.688   2.116  16.151  0.8403  0.3537  2.0411
 1163SOL     OW15124   4.486   2.223   5.300 -0.5486 -0.0052 -0.1348
 1163SOL    HW115125   4.562   2.236   5.357 -1.1059  1.8012  0.1782
 1163SOL    HW215126   4.493   2.127   5.295 -0.7659 -0.0666  0.6843
 1164SOL     OW15127   1.129   1.475   4.974  0.2782 -0.2507  0.2969
 1164SOL    HW115128   1.186   1.536   5.022 -1.1427  0.5199  1.0169
 1164SOL    HW215129   1.173   1.476   4.889 -0.0542 -1.9695  0.1194
 1165SOL     OW15130   0.948   2.460   8.799  0.4127 -0.5555 -1.0387
 1165SOL    HW115131   0.874   2.399   8.793 -0.1270 -0.0855  0.9244
 1165SOL    HW215132   0.932   2.520   8.726  0.8602 -0.5036 -1.0945
 1166SOL     OW15133   1.586   2.320   6.521  0.3653  0.1302  0.0611
 1166SOL    HW115134   1.681   2.328   6.515  0.1398  1.0415 -2.2951
 1166SOL    HW215135   1.570   2.244   6.465  1.5769 -0.8949  1.1218
 1167SOL     OW15136   3.205   0.429   4.833 -0.0820  0.3527 -0.0309
 1167SOL    HW115137   3.285   0.434   4.884 -0.9317  1.0502  1.2442
 1167SOL    HW215138   3.238   0.419   4.744 -2.7355  2.0035 -1.2067
 1168SOL     OW15139   2.490   2.948   7.794  0.2821 -0.1869 -0.4606
 1168SOL    HW115140   2.547   3.011   7.750 -1.0831  0.5861 -1.1514
 1168SOL    HW215141   2.469   2.885   7.725 -2.3002 -1.6025  1.6201
 1169SOL     OW15142   3.504   0.408   8.000 -0.9429 -0.4243  0.4834
 1169SOL    HW115143   3.423   0.388   7.953 -1.2790  1.8753  0.1019
 1169SOL    HW215144   3.490   0.381   8.091 -0.3395  0.5340  0.8654
 1170SOL     OW15145   2.418   1.996  11.942 -0.3209 -0.0052  0.0592
 1170SOL    HW115146   2.348   2.059  11.924  1.2731  1.5485 -0.7138
 1170SOL    HW215147   2.489   2.054  11.969  0.5326 -0.1938 -1.7420
 1171SOL     OW15148   2.179   3.568  17.754  0.1240 -0.1459 -0.1386
 1171SOL    HW115149   2.264   3.561   0.040  0.3762 -1.6872 -0.8647
 1171SOL    HW215150   2.207   3.639  17.696  0.5203 -0.1509  0.0456
 1172SOL     OW15151   1.998   1.225   7.144  0.0999  0.1308  0.0706
 1172SOL    HW115152   2.060   1.158   7.115  1.7948  1.0380  1.5660
 1172SOL    HW215153   1.927   1.205   7.084 -0.3322  0.1766  0.5655
 1173SOL     OW15154   3.706   0.808   1.514  0.6947  0.0948 -0.2402
 1173SOL    HW115155   3.641   0.818   1.584 -0.6096 -1.2383 -1.2623
 1173SOL    HW215156   3.673   0.729   1.473 -0.9783  0.8858 -0.4222
 1174SOL     OW15157   3.633   0.834   1.026 -0.1615  0.6260 -0.3814
 1174SOL    HW115158   3.577   0.819   1.102  1.4309  1.3693  0.9480
 1174SOL    HW215159   3.697   0.899   1.056 -0.0463 -0.1415  1.0654
 1175SOL     OW15160   1.697   2.459   9.061  0.5921  0.6613 -0.2430
 1175SOL    HW115161   1.767   2.394   9.068  0.2035  0.1815 -0.9478
 1175SOL    HW215162   1.706   2.497   9.149 -0.6556 -0.5418  0.3916
 1176SOL     OW15163   2.855   3.737   8.647  0.5117  0.3937 -0.0899
 1176SOL    HW115164   2.880   3.710   8.559 -1.1993 -0.5645 -0.2787
 1176SOL    HW215165   2.891   3.664   8.698 -0.0908 -0.0014 -0.2297
 1177SOL     OW15166   0.831   0.357   7.452 -0.2882  0.3131  0.8339
 1177SOL    HW115167   0.821   0.276   7.402  0.2398 -0.1203  1.4264
 1177SOL    HW215168   0.918   0.341   7.489 -0.5103 -2.8820 -0.0705
 1178SOL     OW15169   0.264   0.627   2.178  0.4985 -0.2966  0.4366
 1178SOL    HW115170   0.280   0.717   2.208 -0.1293 -0.5446  1.5262
 1178SOL    HW215171   0.355   0.617   2.150  1.4231  1.7824  2.6265
 1179SOL     OW15172   2.023   2.333   9.473  0.1000 -0.3039 -0.5983
 1179SOL    HW115173   1.991   2.326   9.383 -1.9857  0.7309  0.0549
 1179SOL    HW215174   1.956   2.383   9.520 -0.0380 -0.1987 -0.9021
 1180SOL     OW15175   0.794   1.253   2.424 -0.1786 -0.1140  0.1521
 1180SOL    HW115176   0.805   1.303   2.344 -0.3314  1.6452  1.2250
 1180SOL    HW215177   0.791   1.161   2.396 -1.2319  0.3279 -1.1772
 1181SOL     OW15178   2.612   1.999  17.092 -0.0237 -0.5570 -0.2921
 1181SOL    HW115179   2.700   1.976  17.121  0.0786 -1.7329 -1.5432
 1181SOL    HW215180   2.636   2.084  17.055  1.0171 -1.3168 -1.3516
 1182SOL     OW15181   2.832   3.873  15.921  0.2650  0.5998  0.3155
 1182SOL    HW115182   2.766   3.934  15.953 -0.3806 -0.8393  1.7239
 1182SOL    HW215183   2.857   3.898  15.832 -0.0497 -0.4541 -0.0645
 1183SOL     OW15184   3.162   3.543   5.423  0.0629 -0.3565 -0.1768
 1183SOL    HW115185   3.176   3.625   5.377 -1.1052 -0.2573 -0.3671
 1183SOL    HW215186   3.200   3.565   5.508  0.3461  1.5015 -0.8057
 1184SOL     OW15187   2.227   0.381   2.134  0.0017  0.1293  0.3393
 1184SOL    HW115188   2.286   0.306   2.126 -2.1658 -1.8138  2.4150
 1184SOL    HW215189   2.163   0.359   2.202  0.4826 -0.4671  0.5974
 1185SOL     OW15190   1.100   3.215  12.890 -0.4389  0.1445 -0.3435
 1185SOL    HW115191   1.176   3.211  12.833 -0.3975  0.0070 -0.2780
 1185SOL    HW215192   1.024   3.205  12.832 -1.0258 -1.5916  0.7264
 1186SOL     OW15193   3.621   3.152   9.566 -0.5040  0.4910  0.1619
 1186SOL    HW115194   3.693   3.122   9.622  0.2315  0.1606 -0.9616
 1186SOL    HW215195   3.624   3.092   9.492 -1.1196 -0.2571  0.7383
 1187SOL     OW15196   1.740   4.462   8.084 -0.3870  0.1710  0.3613
 1187SOL    HW115197   1.833   4.479   8.097 -0.1133 -0.9683 -0.1597
 1187SOL    HW215198   1.733   4.371   8.110  1.9067 -0.8540 -2.5734
 1188SOL     OW15199   2.076   3.099   3.042 -0.1351 -0.0936  0.5651
 1188SOL    HW115200   1.987   3.077   3.070 -0.0430  1.0123  1.7056
 1188SOL    HW215201   2.105   3.010   3.022 -0.7675 -0.2053  0.1567
 1189SOL     OW15202   1.107   4.210   5.470  0.1482 -0.4318 -0.7766
 1189SOL    HW115203   1.103   4.114   5.473 -0.9735 -0.4157 -1.6484
 1189SOL    HW215204   1.015   4.229   5.488  0.3477  0.0203 -0.2307
 1190SOL     OW15205   1.890   4.230   4.466 -0.4083 -0.2655  0.2138
 1190SOL    HW115206   1.809   4.193   4.432 -1.3890  1.0491  1.1112
 1190SOL    HW215207   1.966   4.178   4.443  0.1339  0.3204  0.6682
 1191SOL     OW15208   3.185   3.155   8.799 -0.1198  0.3402  0.4526
 1191SOL    HW115209   3.166   3.226   8.737  1.5407 -0.2922 -0.7826
 1191SOL    HW215210   3.238   3.206   8.860  1.2811 -0.9781  0.3267
 1192SOL     OW15211   4.108   3.026   7.048  0.0030  0.3175 -0.6553
 1192SOL    HW115212   4.202   3.009   7.055 -0.3467 -0.7119  1.5600
 1192SOL    HW215213   4.093   3.075   7.129 -0.7401 -0.6937 -0.1802
 1193SOL     OW15214   4.565   0.841   9.380 -0.2529 -0.5774  0.3936
 1193SOL    HW115215   4.512   0.766   9.407 -1.2992 -0.0965 -0.3511
 1193SOL    HW215216   4.610   0.798   9.308 -1.2415  0.6816 -0.9640
 1194SOL     OW15217   2.246   4.216  15.420 -0.2289 -0.7375 -0.2224
 1194SOL    HW115218   2.181   4.258  15.363 -3.0389 -3.8217  0.6808
 1194SOL    HW215219   2.191   4.192  15.494  0.9773 -1.4363  0.4478
 1195SOL     OW15220   0.781   2.095  11.804 -0.3140 -1.1307 -0.7735
 1195SOL    HW115221   0.715   2.028  11.787 -0.7759 -1.4142  2.1039
 1195SOL    HW215222   0.797   2.099  11.898 -0.6332  3.4192 -0.8858
 1196SOL     OW15223   3.645   0.628  11.449  0.4533  0.3708 -0.1215
 1196SOL    HW115224   3.629   0.721  11.465 -0.1250  0.1962  0.3236
 1196SOL    HW215225   3.563   0.595  11.484 -0.4938  1.6171 -1.1553
 1197SOL     OW15226   1.255   0.131   7.041 -0.0580 -0.1576 -0.1052
 1197SOL    HW115227   1.255   0.040   7.069  2.2395 -0.2655 -0.4622
 1197SOL    HW215228   1.230   0.177   7.121  1.9765  0.6604  0.0799
 1198SOL     OW15229   1.986   2.397   3.586 -0.7805  0.4700  0.3472
 1198SOL    HW115230   1.961   2.336   3.656 -0.5021 -1.0736 -0.9022
 1198SOL    HW215231   1.968   2.349   3.505  1.4357  1.0347 -0.4604
 1199SOL     OW15232   4.725   3.355   3.027  0.7557  0.3345 -0.3071
 1199SOL    HW115233   4.701   3.307   2.948 -0.7613  0.2742  0.1836
 1199SOL    HW215234   4.698   3.440   2.994 -5.7985 -2.0509 -1.3215
 1200SOL     OW15235   0.495   2.921  16.493 -0.1376  0.1629  0.0885
 1200SOL    HW115236   0.553   2.966  16.432 -0.9750 -1.9553 -2.2823
 1200SOL    HW215237   0.496   2.973  16.573 -0.0635  0.0985  0.1291
 1201SOL     OW15238   0.164   3.081   9.501 -0.1290 -0.0320  0.3147
 1201SOL    HW115239   0.138   2.994   9.532 -3.9554  1.3888  1.0555
 1201SOL    HW215240   0.081   3.127   9.496 -0.9976 -1.5079  1.0184
 1202SOL     OW15241   3.553   4.418  16.485  0.3512 -0.5017  0.1272
 1202SOL    HW115242   3.509   4.355  16.429  0.4214 -0.6290  0.2156
 1202SOL    HW215243   3.638   4.378  16.505  1.0140  1.6482  1.6741
 1203SOL     OW15244   0.940   2.550  13.248 -0.2195 -0.2031 -0.2195
 1203SOL    HW115245   0.848   2.559  13.221  0.2643  2.3055 -1.0894
 1203SOL    HW215246   0.980   2.567  13.163  0.8705  1.2035  0.5812
 1204SOL     OW15247   2.035   2.761  12.403  0.2642  0.9043  0.7882
 1204SOL    HW115248   1.991   2.774  12.319  0.5159  1.7868  0.7947
 1204SOL    HW215249   1.964   2.712  12.444  0.0199 -0.1601 -0.8862
 1205SOL     OW15250   0.700   4.536   9.723  0.0757 -0.6998  0.4339
 1205SOL    HW115251   0.615   4.502   9.752 -1.6715  0.2529 -3.5215
 1205SOL    HW215252   0.689   4.625   9.756  2.4904 -0.2068 -0.1238
 1206SOL     OW15253   3.106   0.441   2.322 -0.0643  0.8313 -0.0520
 1206SOL    HW115254   3.023   0.433   2.274 -0.8628 -0.0945  1.5047
 1206SOL    HW215255   3.141   0.524   2.291 -2.8542  0.8830 -3.1389
 1207SOL     OW15256   1.643   2.125   3.468 -0.1026  0.0798  0.3002
 1207SOL    HW115257   1.583   2.057   3.438  1.9852 -0.3404 -2.8611
 1207SOL    HW215258   1.586   2.200   3.449  0.4205  1.0960  2.7676
 1208SOL     OW15259   1.272   4.188   3.359  0.9926  0.1597 -0.2735
 1208SOL    HW115260   1.204   4.221   3.416 -0.6020  0.9547 -2.6331
 1208SOL    HW215261   1.348   4.227   3.402  1.9498 -0.7936 -1.0799
 1209SOL     OW15262   2.077   2.288   5.803 -0.2169 -0.4979 -0.1852
 1209SOL    HW115263   2.154   2.329   5.843 -1.4531  1.4903  0.1150
 1209SOL    HW215264   2.019   2.355   5.768  1.7912  2.1692  1.5764
 1210SOL     OW15265   2.292   1.744   5.153 -0.0307  1.2202 -0.0122
 1210SOL    HW115266   2.297   1.666   5.098 -0.7964  0.9117  0.3575
 1210SOL    HW215267   2.209   1.781   5.124 -0.6513  0.6730  1.0710
 1211SOL     OW15268   3.813   1.059   7.947  0.4560 -0.3834  0.6651
 1211SOL    HW115269   3.802   0.999   8.021 -2.0710 -1.8404 -0.8580
 1211SOL    HW215270   3.720   1.067   7.923  0.8504  2.7538  0.1589
 1212SOL     OW15271   4.409   2.672   4.234 -0.0559 -0.1291 -0.1875
 1212SOL    HW115272   4.335   2.685   4.176  0.4183  2.0603 -0.3030
 1212SOL    HW215273   4.400   2.584   4.271  0.3415 -0.5803 -1.1571
 1213SOL     OW15274   2.965   3.638   7.112  0.7586  0.0074 -0.1238
 1213SOL    HW115275   3.020   3.687   7.051  1.0650  0.2514  0.3479
 1213SOL    HW215276   3.021   3.562   7.133  0.4686 -0.6928 -1.9319
 1214SOL     OW15277   3.812   2.483   4.691  0.0256 -0.0800  0.4547
 1214SOL    HW115278   3.887   2.424   4.702  1.4831  1.2642 -2.3139
 1214SOL    HW215279   3.744   2.423   4.662  0.1518  0.4655 -0.9895
 1215SOL     OW15280   4.669   1.507   4.140 -0.3268  0.0715 -0.2405
 1215SOL    HW115281   4.622   1.591   4.133 -0.6343 -0.1747 -1.1491
 1215SOL    HW215282   0.013   1.518   4.183 -0.4272 -2.0161  0.4478
 1216SOL     OW15283   1.887   3.683   1.451  0.0328  0.2507  0.2805
 1216SOL    HW115284   1.939   3.688   1.371  0.3196 -0.4861  0.4261
 1216SOL    HW215285   1.805   3.712   1.411  0.6989  0.7633 -0.7100
 1217SOL     OW15286   1.883   1.725   9.313 -0.4378 -0.7699 -0.7650
 1217SOL    HW115287   1.806   1.714   9.368  0.0150  0.6068  0.1390
 1217SOL    HW215288   1.943   1.663   9.354 -2.2916 -1.5301  0.7873
 1218SOL     OW15289   3.726   4.560   2.843  0.5254  0.0223  0.3279
 1218SOL    HW115290   3.784   4.534   2.915  0.8991 -1.8427 -0.6558
 1218SOL    HW215291   3.734   4.656   2.845 -1.2403  0.0848  4.4413
 1219SOL     OW15292   0.814   1.674   3.506  0.3402 -0.2775  0.2052
 1219SOL    HW115293   0.727   1.684   3.468 -0.0987 -3.1187  0.4219
 1219SOL    HW215294   0.839   1.765   3.518  1.2325 -0.3431 -1.1919
 1220SOL     OW15295   2.559   4.413   2.614  0.2752 -0.5525  0.0339
 1220SOL    HW115296   2.648   4.395   2.646  1.0476  1.0211 -1.2150
 1220SOL    HW215297   2.507   4.390   2.691  0.6575 -1.5472  0.0021
 1221SOL     OW15298   0.378   2.743   4.558  0.3154  0.1762  0.0442
 1221SOL    HW115299   0.395   2.698   4.640 -2.3134  1.4556  1.2629
 1221SOL    HW215300   0.298   2.783   4.591  0.4462  1.9900 -1.8234
 1222SOL     OW15301   1.289   3.804   8.848 -0.1918  0.3488  0.2895
 1222SOL    HW115302   1.298   3.720   8.893 -0.5501  0.5642  0.7612
 1222SOL    HW215303   1.212   3.841   8.890 -1.0416 -0.2846 -0.7012
 1223SOL     OW15304   3.534   2.830   4.700  0.4702  0.2457 -0.0675
 1223SOL    HW115305   3.629   2.827   4.694  0.4977 -2.0361  1.5049
 1223SOL    HW215306   3.509   2.823   4.792  0.1222  0.1795 -0.1657
 1224SOL     OW15307   1.048   0.129  12.611 -0.0450 -0.0451  0.4255
 1224SOL    HW115308   1.131   0.110  12.655 -0.2982 -1.5965  0.2180
 1224SOL    HW215309   1.027   0.051  12.560 -1.9559  1.6995 -1.4545
 1225SOL     OW15310   1.162   0.590   3.596 -0.0900 -0.6638 -0.0542
 1225SOL    HW115311   1.181   0.508   3.552  1.0738 -0.6203  0.3712
 1225SOL    HW215312   1.084   0.616   3.547  0.6667 -0.6650 -1.2295
 1226SOL     OW15313   3.937   1.941  15.136  0.9065 -0.0521 -0.0076
 1226SOL    HW115314   3.899   2.028  15.136 -2.5816 -1.5973  0.0012
 1226SOL    HW215315   4.031   1.954  15.152  1.1026 -0.0463 -1.1411
 1227SOL     OW15316   2.509   1.949   2.622  0.7922 -0.1446 -0.4629
 1227SOL    HW115317   2.550   2.027   2.661 -1.1070  1.4405 -1.6539
 1227SOL    HW215318   2.573   1.947   2.551  1.0930  0.8002 -0.2322
 1228SOL     OW15319   2.259   1.799   6.693 -0.1030 -0.3681 -0.4886
 1228SOL    HW115320   2.266   1.731   6.626 -1.9479 -3.0045  1.9809
 1228SOL    HW215321   2.170   1.832   6.682 -0.0280 -1.5113 -4.6713
 1229SOL     OW15322   3.109   1.868   4.222 -0.0364  0.1238 -0.6468
 1229SOL    HW115323   3.185   1.810   4.220  0.7533  1.1781 -1.1535
 1229SOL    HW215324   3.081   1.833   4.307 -0.7568 -1.5255 -1.5904
 1230SOL     OW15325   3.019   3.642   6.077 -0.2964 -0.0692  0.7796
 1230SOL    HW115326   3.002   3.730   6.111  0.1712  0.1717  0.3872
 1230SOL    HW215327   2.948   3.595   6.122  0.8785 -0.8674  1.8285
 1231SOL     OW15328   2.852   4.096  16.168 -0.4088  0.0886 -0.6697
 1231SOL    HW115329   2.883   4.018  16.214 -0.7084  0.5433  0.3009
 1231SOL    HW215330   2.760   4.110  16.191  0.2813  1.9099  0.9285
 1232SOL     OW15331   2.400   2.630   8.777  0.2795 -0.4651  0.1192
 1232SOL    HW115332   2.403   2.580   8.695 -0.2646  0.5582 -0.5225
 1232SOL    HW215333   2.362   2.575   8.845  1.1263 -1.6073 -0.3288
 1233SOL     OW15334   0.216   3.148   2.151 -0.4030 -0.4170 -0.1176
 1233SOL    HW115335   0.130   3.111   2.170 -0.1281 -1.9408 -1.7701
 1233SOL    HW215336   0.213   3.139   2.055 -2.3613  1.2326 -0.2011
 1234SOL     OW15337   3.486   1.956   8.989  0.2615 -0.6373 -0.1916
 1234SOL    HW115338   3.481   1.957   9.085 -2.5985 -0.0122 -0.3644
 1234SOL    HW215339   3.574   1.922   8.972  0.1580 -0.2553 -1.4844
 1235SOL     OW15340   2.106   2.366   7.802 -0.7346 -0.4976  0.1611
 1235SOL    HW115341   2.033   2.328   7.850 -0.1307 -0.6580  0.9521
 1235SOL    HW215342   2.166   2.366   7.876 -0.1284  1.9804 -0.3288
 1236SOL     OW15343   1.719   0.655   4.890  0.5847 -0.7254 -0.7061
 1236SOL    HW115344   1.634   0.658   4.848  1.3002  0.5019 -2.0462
 1236SOL    HW215345   1.742   0.741   4.925  0.2556 -0.6955 -0.5659
 1237SOL     OW15346   2.285   2.314   6.601 -0.0438 -0.3582 -0.1049
 1237SOL    HW115347   2.328   2.230   6.584  1.7603 -0.0043  2.7638
 1237SOL    HW215348   2.244   2.341   6.519 -1.2712 -0.1671  0.5695
 1238SOL     OW15349   0.356   3.497   1.368  0.0229  0.1365  0.2811
 1238SOL    HW115350   0.269   3.462   1.349 -0.0642  0.7691 -0.4705
 1238SOL    HW215351   0.354   3.589   1.340  0.6597 -0.7845 -2.7937
 1239SOL     OW15352   3.609   3.393   7.213 -0.3426 -0.5101  0.6505
 1239SOL    HW115353   3.635   3.301   7.222  0.2297 -0.3710  0.3970
 1239SOL    HW215354   3.651   3.437   7.287  0.7477  0.4206 -0.5336
 1240SOL     OW15355   1.038   1.658  10.375  0.6009 -0.1958 -0.0651
 1240SOL    HW115356   0.981   1.673  10.300  3.4253  1.5598 -1.8749
 1240SOL    HW215357   1.021   1.564  10.388 -0.9671  0.4675  2.7275
 1241SOL     OW15358   3.687   0.975   3.271  0.5418  0.3399  0.0109
 1241SOL    HW115359   3.676   0.944   3.181 -0.9540  1.3754 -0.1585
 1241SOL    HW215360   3.743   1.050   3.254  1.0436 -0.3784 -1.4798
 1242SOL     OW15361   0.521   0.149  12.296 -0.1702 -0.3171  0.0927
 1242SOL    HW115362   0.553   0.096  12.223 -1.5414 -0.5007 -0.3609
 1242SOL    HW215363   0.589   0.143  12.363  0.7895  1.7169 -0.6956
 1243SOL     OW15364   1.512   1.148   1.374  0.5240 -1.1493  0.0806
 1243SOL    HW115365   1.549   1.133   1.287 -1.1150 -0.7391 -0.6811
 1243SOL    HW215366   1.586   1.189   1.419 -1.5352  1.9138  0.7472
 1244SOL     OW15367   4.219   3.768   2.610  0.3557  0.6978  0.3172
 1244SOL    HW115368   4.170   3.840   2.570  0.8862  1.5801  1.2188
 1244SOL    HW215369   4.150   3.702   2.613 -0.7506  1.8174 -0.3565
 1245SOL     OW15370   1.938   1.597   4.408  0.1084 -0.0476 -0.0000
 1245SOL    HW115371   1.970   1.532   4.471  3.7530 -1.1742 -3.0166
 1245SOL    HW215372   1.913   1.552   4.327  2.7850 -1.2297 -0.1748
 1246SOL     OW15373   2.921   1.865  10.412  0.0107  0.5059  0.1295
 1246SOL    HW115374   2.988   1.799  10.396  0.6938  0.4671  3.1591
 1246SOL    HW215375   2.917   1.903  10.324 -0.7094 -1.9288 -0.8933
 1247SOL     OW15376   2.700   2.176   6.819 -0.1676 -0.4232  0.3496
 1247SOL    HW115377   2.629   2.117   6.791 -0.7299 -0.5565  2.0598
 1247SOL    HW215378   2.738   2.118   6.885  1.9842  1.6286  0.9091
 1248SOL     OW15379   2.195   2.791   9.049 -0.9814  0.8263 -0.1065
 1248SOL    HW115380   2.212   2.724   9.115 -0.5296  0.1560 -0.9071
 1248SOL    HW215381   2.275   2.843   9.046 -0.0100 -0.8429 -2.4560
 1249SOL     OW15382   4.734   3.186   2.793  0.4023  0.4359 -0.1420
 1249SOL    HW115383   4.660   3.134   2.760 -0.6000  1.6050  0.2607
 1249SOL    HW215384   0.032   3.230   2.718 -1.0940  1.6826 -0.1702
 1250SOL     OW15385   0.981   2.963   5.218  0.4323  0.2320  0.2892
 1250SOL    HW115386   0.985   2.868   5.229 -1.0726  0.4762  3.1010
 1250SOL    HW215387   0.907   2.979   5.160  0.8602  2.8874  0.4848
 1251SOL     OW15388   3.010   3.000  13.920  0.0596 -0.0055  0.2333
 1251SOL    HW115389   3.006   2.904  13.924  1.4952 -0.1449 -1.9362
 1251SOL    HW215390   3.101   3.024  13.939 -0.1138 -0.2068  1.3252
 1252SOL     OW15391   3.448   4.518   2.846  0.3415 -0.3895  0.2795
 1252SOL    HW115392   3.387   4.576   2.802 -1.6084 -1.3976  1.6959
 1252SOL    HW215393   3.535   4.552   2.824  0.7561 -0.9438  1.0750
 1253SOL     OW15394   3.450   1.554   2.549 -0.3925 -0.2174 -0.0044
 1253SOL    HW115395   3.540   1.536   2.576 -1.6071 -1.4042  3.2470
 1253SOL    HW215396   3.425   1.616   2.617 -1.2640  0.3866 -0.8602
 1254SOL     OW15397   3.576   2.612   9.707  0.1942 -0.2123  0.5008
 1254SOL    HW115398   3.519   2.640   9.778  0.2693  1.5921 -0.1678
 1254SOL    HW215399   3.503   2.600   9.647  0.3245 -1.6026  0.6068
 1255SOL     OW15400   1.258   4.175   4.618 -0.2208  0.1173 -0.2676
 1255SOL    HW115401   1.239   4.138   4.532 -0.1495  2.0675 -1.1217
 1255SOL    HW215402   1.314   4.113   4.664  1.3572  0.7856 -1.2999
 1256SOL     OW15403   4.685   2.471  13.315  0.1268  0.3910 -0.2920
 1256SOL    HW115404   4.735   2.390  13.326  0.1819  0.2266 -1.8192
 1256SOL    HW215405   4.740   2.523  13.374  0.5765 -1.9232  1.3214
 1257SOL     OW15406   3.460   1.874   9.822 -0.1268  0.3745 -0.4426
 1257SOL    HW115407   3.498   1.906   9.741 -0.3826 -0.2342 -0.8048
 1257SOL    HW215408   3.534   1.821   9.852  1.1838  2.3197 -0.2447
 1258SOL     OW15409   0.674   1.454   5.212 -0.6778 -0.2135  0.4394
 1258SOL    HW115410   0.640   1.461   5.301 -0.3536  1.9814  0.3990
 1258SOL    HW215411   0.766   1.437   5.232 -1.4150 -0.7490  3.3306
 1259SOL     OW15412   2.588   0.159   1.813 -0.2024  0.7112  0.2048
 1259SOL    HW115413   2.564   0.158   1.720 -0.5537  1.0340  0.2934
 1259SOL    HW215414   2.657   0.225   1.821 -0.3262  0.8205  0.3803
 1260SOL     OW15415   1.109   2.826   2.165  0.1568 -0.4935 -0.6931
 1260SOL    HW115416   1.046   2.767   2.123 -0.0968  0.4540 -1.6567
 1260SOL    HW215417   1.062   2.907   2.146  2.8612  1.0394 -0.8405
 1261SOL     OW15418   3.739   4.358  17.246 -0.1176 -0.0162 -0.1230
 1261SOL    HW115419   3.706   4.273  17.276  0.6671 -1.1982 -2.5925
 1261SOL    HW215420   3.660   4.412  17.250 -0.9644 -1.1486 -1.3491
 1262SOL     OW15421   0.232   3.863   2.106  0.2276  0.3261  0.2038
 1262SOL    HW115422   0.220   3.794   2.041  0.9837  1.0872 -0.7402
 1262SOL    HW215423   0.321   3.852   2.138  0.3172 -0.4231 -0.3098
 1263SOL     OW15424   0.110   0.287   2.713  0.1180  0.1635 -0.3117
 1263SOL    HW115425   0.152   0.369   2.689 -0.1657  0.7810  1.2940
 1263SOL    HW215426   0.145   0.274   2.801 -1.8382  1.9914  0.7320
 1264SOL     OW15427   2.162   0.765   3.720  0.9313 -0.6202  0.9092
 1264SOL    HW115428   2.246   0.766   3.766  1.5732  1.0663 -0.2972
 1264SOL    HW215429   2.180   0.812   3.638 -0.2932 -0.3492  0.8001
 1265SOL     OW15430   3.541   2.910   0.749  0.4406  0.0128  0.0717
 1265SOL    HW115431   3.622   2.866   0.772 -0.5592 -2.5543 -1.2959
 1265SOL    HW215432   3.470   2.863   0.792  1.3429 -0.4637  1.0261
 1266SOL     OW15433   2.635   2.824  11.985  0.2110 -0.1066 -0.0025
 1266SOL    HW115434   2.728   2.838  11.968 -0.2481  1.2918 -1.4190
 1266SOL    HW215435   2.618   2.891  12.050  0.3978 -0.1645  0.1053
 1267SOL     OW15436   1.755   4.478   2.302  0.0321 -0.6443 -0.0041
 1267SOL    HW115437   1.830   4.510   2.351 -0.2467  0.6196 -0.4117
 1267SOL    HW215438   1.747   4.554   2.245 -2.6521 -0.5129  0.5206
 1268SOL     OW15439   3.244   4.404  15.992 -0.1337  0.2964  0.2075
 1268SOL    HW115440   3.180   4.343  15.956  1.8709  0.2327 -3.2323
 1268SOL    HW215441   3.217   4.390  16.083 -1.1584  1.3745  0.0527
 1269SOL     OW15442   0.355   3.903   9.497 -0.4050  0.5431  0.0129
 1269SOL    HW115443   0.289   3.852   9.450  0.6284  0.9539 -1.9020
 1269SOL    HW215444   0.432   3.854   9.470 -1.2257 -0.6105 -0.2296
 1270SOL     OW15445   4.047   3.536   2.742  0.0374 -0.3355  0.2300
 1270SOL    HW115446   3.987   3.592   2.792  0.3540  0.9738 -0.8448
 1270SOL    HW215447   4.013   3.454   2.778  1.4442 -2.2933 -2.9558
 1271SOL     OW15448   4.073   0.228   4.219 -0.0949 -0.0008  0.0071
 1271SOL    HW115449   4.155   0.193   4.184 -0.1908 -0.3929  0.1733
 1271SOL    HW215450   4.042   0.267   4.137 -3.4432  0.8507  1.7033
 1272SOL     OW15451   1.176   4.460  13.597  0.1947 -0.1272  0.4332
 1272SOL    HW115452   1.266   4.462  13.632  0.1730 -1.2343  0.5407
 1272SOL    HW215453   1.133   4.389  13.644 -0.8709  0.2298 -0.0217
 1273SOL     OW15454   1.473   3.860   3.100  0.1521 -0.6151 -0.5880
 1273SOL    HW115455   1.440   3.827   3.016 -0.2090 -0.9398 -0.3191
 1273SOL    HW215456   1.394   3.908   3.125 -0.3701 -0.9749 -1.5399
 1274SOL     OW15457   2.244   2.478  16.510  0.3487 -0.7206 -0.1146
 1274SOL    HW115458   2.251   2.524  16.426  0.3918  1.2944  0.9839
 1274SOL    HW215459   2.326   2.490  16.558 -0.0306 -1.6429  0.7630
 1275SOL     OW15460   2.917   0.409  11.521 -0.0781  0.3043 -0.0269
 1275SOL    HW115461   2.955   0.396  11.434  1.9051 -1.3853  1.0908
 1275SOL    HW215462   2.962   0.336  11.564  1.7564  2.3784  1.5274
 1276SOL     OW15463   4.177   1.774   9.126  0.0001  0.7394  0.4989
 1276SOL    HW115464   4.234   1.765   9.049  1.0726  0.8914  1.2784
 1276SOL    HW215465   4.129   1.691   9.122  0.1861  0.7309 -1.5907
 1277SOL     OW15466   1.477   2.178   8.388  0.0310  0.1953 -1.0427
 1277SOL    HW115467   1.441   2.244   8.447 -0.4592 -0.1002 -1.0147
 1277SOL    HW215468   1.403   2.135   8.346 -0.5776 -1.4448  1.7119
 1278SOL     OW15469   1.093   3.444   4.460 -0.0599  0.1156 -0.4385
 1278SOL    HW115470   1.181   3.407   4.449 -1.0037 -1.7879 -1.6860
 1278SOL    HW215471   1.089   3.476   4.370 -1.0441  1.2022 -0.0138
 1279SOL     OW15472   2.190   2.078   3.481 -0.5125  0.0777 -0.1298
 1279SOL    HW115473   2.128   2.087   3.554 -1.4316 -1.9307 -0.6780
 1279SOL    HW215474   2.265   2.134   3.500  0.7037 -1.8594  0.7380
 1280SOL     OW15475   1.021   0.729  11.424  0.6979 -0.4045  0.2352
 1280SOL    HW115476   1.096   0.773  11.462 -0.5349  0.3150  1.8386
 1280SOL    HW215477   0.940   0.779  11.436  0.1034 -1.3392  0.0863
 1281SOL     OW15478   3.435   4.398   2.282  0.6509 -0.2065  0.4150
 1281SOL    HW115479   3.472   4.371   2.198 -0.4724 -0.0012 -0.1447
 1281SOL    HW215480   3.448   4.330   2.348  3.2198 -1.5343 -1.4738
 1282SOL     OW15481   3.351   0.521   6.034 -0.1105  0.0425  0.2915
 1282SOL    HW115482   3.324   0.453   6.096 -1.3185 -0.4209 -0.7320
 1282SOL    HW215483   3.413   0.575   6.082  1.5467  0.2394 -2.0681
 1283SOL     OW15484   0.235   0.952   2.251 -0.1240  0.1750 -0.2917
 1283SOL    HW115485   0.257   0.935   2.342  3.3925  1.1688 -0.9508
 1283SOL    HW215486   0.147   0.988   2.256 -0.7116 -1.5360  1.6385
 1284SOL     OW15487   0.031   0.367  14.911  0.0007 -0.2751  0.0811
 1284SOL    HW115488   4.730   0.438  14.961 -1.2979 -1.7712  1.1000
 1284SOL    HW215489   0.113   0.407  14.879 -0.4929 -1.5089 -2.7361
 1285SOL     OW15490   0.605   1.311   8.534 -0.2390  0.3349 -0.5312
 1285SOL    HW115491   0.611   1.277   8.623 -2.2109 -0.4617 -0.6845
 1285SOL    HW215492   0.517   1.351   8.531 -0.4362 -0.2205 -2.3357
 1286SOL     OW15493   0.313   2.147  10.106  0.2581 -0.1969 -0.2512
 1286SOL    HW115494   0.320   2.086  10.179  3.0324 -0.0368 -0.3994
 1286SOL    HW215495   0.401   2.183  10.116 -0.6692  2.5110 -1.7203
 1287SOL     OW15496   2.038   1.716  15.313 -0.2416  0.0923 -0.3045
 1287SOL    HW115497   2.078   1.750  15.393 -0.3299 -1.1097  0.2624
 1287SOL    HW215498   1.997   1.638  15.351 -0.1734  0.8010  1.2379
 1288SOL     OW15499   3.369   1.612  12.004  0.2660 -0.3078 -0.2704
 1288SOL    HW115500   3.418   1.683  11.963  2.3708 -1.1146  0.8908
 1288SOL    HW215501   3.303   1.669  12.044  1.1210  0.8277 -0.4833
 1289SOL     OW15502   3.366   3.497  13.722  0.5743  0.5891 -0.3471
 1289SOL    HW115503   3.431   3.435  13.688  0.8726 -0.3121  1.8861
 1289SOL    HW215504   3.304   3.496  13.649 -2.0050 -1.0446  1.8746
 1290SOL     OW15505   1.232   2.423  11.984 -0.5420  1.1667 -0.5618
 1290SOL    HW115506   1.302   2.384  12.036 -1.4704 -0.2421 -0.3740
 1290SOL    HW215507   1.154   2.373  12.008 -0.2367  0.5546 -0.8676
 1291SOL     OW15508   2.014   3.071   9.401 -0.1781  0.2371 -0.4891
 1291SOL    HW115509   2.099   3.038   9.430 -0.8827  0.2030  1.5112
 1291SOL    HW215510   1.992   3.004   9.336  2.1342 -1.2134  0.2489
 1292SOL     OW15511   0.674   1.164   7.036 -0.1215  0.2263  0.4415
 1292SOL    HW115512   0.678   1.081   6.988 -0.5105  0.6805 -0.3803
 1292SOL    HW215513   0.582   1.188   7.039 -0.1232  0.2937 -0.2340
 1293SOL     OW15514   2.078   1.319  10.758 -0.1877 -0.3176  0.4481
 1293SOL    HW115515   2.126   1.395  10.792 -1.7590  0.9687 -0.2269
 1293SOL    HW215516   2.139   1.245  10.749  0.7475  0.2657  1.8826
 1294SOL     OW15517   3.568   0.776   4.563  0.1166  0.1479  0.6319
 1294SOL    HW115518   3.637   0.813   4.617  2.7523 -1.9601 -1.2760
 1294SOL    HW215519   3.618   0.710   4.514 -1.5961 -0.6232 -0.1046
 1295SOL     OW15520   3.918   4.542   5.910 -0.7086  0.0040  0.0779
 1295SOL    HW115521   3.835   4.588   5.905 -0.3145  0.6608 -0.4635
 1295SOL    HW215522   3.921   4.508   5.999  0.1156 -1.9737 -0.6824
 1296SOL     OW15523   1.297   2.761   7.885  0.4304 -0.0870  0.6083
 1296SOL    HW115524   1.291   2.666   7.876 -1.9675  0.3947 -2.8194
 1296SOL    HW215525   1.247   2.782   7.806  0.9297 -0.0787  0.2928
 1297SOL     OW15526   1.907   1.034  17.704  0.0053  1.1238 -0.5122
 1297SOL    HW115527   1.816   1.026  17.733 -0.6558  1.3694 -2.5059
 1297SOL    HW215528   1.920   1.129  17.708 -2.8612  1.5359 -0.7245
 1298SOL     OW15529   3.292   3.315   1.932 -0.4601 -0.2850  0.0120
 1298SOL    HW115530   3.297   3.219   1.938 -0.5791 -0.2261  0.9617
 1298SOL    HW215531   3.202   3.326   1.963 -0.9221 -2.2859 -0.6095
 1299SOL     OW15532   2.013   0.665   3.950 -0.1590 -0.3155  0.1898
 1299SOL    HW115533   2.059   0.583   3.935  0.0826  0.0696 -1.1740
 1299SOL    HW215534   2.061   0.715   3.883 -0.2494  0.0070  0.3645
 1300SOL     OW15535   4.113   4.698   5.575 -0.0976  0.0074  1.0223
 1300SOL    HW115536   4.139   0.035   5.524 -1.4108 -0.9606 -1.1382
 1300SOL    HW215537   4.019   4.709   5.559  0.0524  1.2402  0.9795
 1301SOL     OW15538   4.004   1.070  12.459 -0.3800  0.1920 -0.0194
 1301SOL    HW115539   4.084   1.022  12.435 -0.6306 -0.0346 -0.3987
 1301SOL    HW215540   3.978   1.039  12.546  2.1248 -1.8172  0.0308
 1302SOL     OW15541   4.408   4.407  16.544  0.3890  0.0663  0.0252
 1302SOL    HW115542   4.383   4.338  16.482  1.6939  0.2044 -0.6571
 1302SOL    HW215543   4.486   4.363  16.579  0.5186  0.5082  0.2831
 1303SOL     OW15544   2.651   2.959   9.417 -0.2653 -0.3793  0.0942
 1303SOL    HW115545   2.674   3.051   9.414  0.5241 -0.5547  0.8229
 1303SOL    HW215546   2.629   2.932   9.328  1.0306 -0.1703 -0.2847
 1304SOL     OW15547   2.112   1.117   2.710 -0.9486  0.0333 -0.2296
 1304SOL    HW115548   2.131   1.157   2.625 -0.0602 -1.6789 -0.8580
 1304SOL    HW215549   2.019   1.135   2.723 -0.8104  0.8738 -0.4154
 1305SOL     OW15550   1.890   2.412   0.734 -0.1037 -0.0366 -0.6426
 1305SOL    HW115551   1.983   2.420   0.755 -0.2751 -0.3034  0.2125
 1305SOL    HW215552   1.861   2.482   0.793  2.7834  0.1144  0.5938
 1306SOL     OW15553   1.488   3.170   3.312  0.5917 -0.0897 -0.0548
 1306SOL    HW115554   1.470   3.128   3.228  1.7064 -2.0950  0.7002
 1306SOL    HW215555   1.502   3.257   3.274  1.6665  0.3872  1.4134
 1307SOL     OW15556   1.410   2.841   6.928 -0.4470  0.5776  0.2396
 1307SOL    HW115557   1.472   2.819   6.858  0.0044  0.7200  0.5959
 1307SOL    HW215558   1.445   2.796   7.005 -1.6718 -0.1145  0.3913
 1308SOL     OW15559   3.624   1.609  11.450 -0.4954 -0.1658 -0.5051
 1308SOL    HW115560   3.713   1.644  11.438 -0.0236 -1.6938 -1.3978
 1308SOL    HW215561   3.570   1.674  11.495  0.1053 -1.2167  1.7651
 1309SOL     OW15562   1.931   4.098   1.279 -0.6331 -0.4922 -0.2194
 1309SOL    HW115563   1.987   4.165   1.240 -1.0637  0.1477  0.2723
 1309SOL    HW215564   2.001   4.041   1.311 -0.6721 -1.2493 -1.4929
 1310SOL     OW15565   2.024   0.951   9.037 -0.5424  0.1012 -0.1132
 1310SOL    HW115566   2.040   0.861   9.010  0.8828  1.1359 -2.7512
 1310SOL    HW215567   1.971   0.928   9.114 -1.2726 -0.1000 -0.6773
 1311SOL     OW15568   2.371   1.752   5.986 -0.6010  0.5819 -0.0472
 1311SOL    HW115569   2.352   1.697   5.910  1.4757 -0.2483  0.0358
 1311SOL    HW215570   2.410   1.829   5.945 -2.1122  0.2211 -2.1514
 1312SOL     OW15571   0.433   0.782   5.989 -0.5140  0.2041 -0.0267
 1312SOL    HW115572   0.454   0.871   6.018 -1.1937  0.2174  0.4376
 1312SOL    HW215573   0.421   0.800   5.896 -0.5845 -0.9054 -0.2292
 1313SOL     OW15574   2.687   0.766   9.034  0.4428  0.1186  0.1137
 1313SOL    HW115575   2.738   0.845   9.051  0.1969  0.9210 -2.7447
 1313SOL    HW215576   2.658   0.776   8.943 -0.1495 -0.3518  0.2479
 1314SOL     OW15577   0.464   1.644   2.376 -0.5301  0.0270 -0.0217
 1314SOL    HW115578   0.477   1.725   2.327  0.0996  0.6831  1.2322
 1314SOL    HW215579   0.536   1.663   2.437 -0.9912 -0.7426  0.7678
 1315SOL     OW15580   0.281   4.727   8.661 -0.5741 -0.2798 -0.3539
 1315SOL    HW115581   0.307   0.076   8.639  1.8242 -0.1779  2.8924
 1315SOL    HW215582   0.336   4.697   8.734 -1.3253 -1.0872 -0.1173
 1316SOL     OW15583   4.344   2.861  12.705  0.0691 -0.1048 -0.1642
 1316SOL    HW115584   4.379   2.834  12.790 -3.3979 -2.0149  0.6276
 1316SOL    HW215585   4.308   2.780  12.670  0.3863  0.1660 -1.1217
 1317SOL     OW15586   2.857   1.318   9.738 -0.0152  0.1857 -0.7090
 1317SOL    HW115587   2.765   1.319   9.712 -0.0709  2.8073 -0.4793
 1317SOL    HW215588   2.891   1.270   9.663 -1.8940 -1.7570 -0.3049
 1318SOL     OW15589   2.621   1.810  11.488  0.2117 -0.5169 -0.3697
 1318SOL    HW115590   2.617   1.897  11.447  0.9733  0.7004  2.0896
 1318SOL    HW215591   2.635   1.828  11.581 -0.1205  1.1308 -0.6377
 1319SOL     OW15592   1.016   0.823   7.573 -0.0441 -0.3736 -0.7274
 1319SOL    HW115593   1.088   0.886   7.565 -1.3856  1.2367 -0.1900
 1319SOL    HW215594   0.998   0.809   7.480 -0.6200  1.2715 -0.8692
 1320SOL     OW15595   4.560   3.702   5.425 -0.5730 -0.0861  0.9724
 1320SOL    HW115596   4.539   3.652   5.504  1.1771  0.6737  1.9070
 1320SOL    HW215597   4.603   3.781   5.456  1.1078 -0.5043 -0.3140
 1321SOL     OW15598   2.732   4.532  10.811  0.5157  0.2066  0.1089
 1321SOL    HW115599   2.718   4.447  10.769  0.1015  0.5809 -0.5169
 1321SOL    HW215600   2.711   4.510  10.902 -0.6096  1.6060  0.2060
 1322SOL     OW15601   2.753   0.820   2.747 -0.3066  0.1088  0.1609
 1322SOL    HW115602   2.681   0.758   2.732  1.9864 -2.2252 -1.3078
 1322SOL    HW215603   2.829   0.785   2.701 -1.7064 -1.6602 -0.8492
 1323SOL     OW15604   1.669   0.628   3.987  0.4667  0.1264  0.4888
 1323SOL    HW115605   1.731   0.596   4.053 -0.0492  0.5211  1.1759
 1323SOL    HW215606   1.708   0.605   3.903  3.9419  0.7942  1.9303
 1324SOL     OW15607   3.431   1.587   4.684 -0.0773  0.2203 -0.1421
 1324SOL    HW115608   3.447   1.494   4.704 -1.9198 -0.1701 -0.4704
 1324SOL    HW215609   3.488   1.615   4.613  1.3712  0.0774  0.9487
 1325SOL     OW15610   3.544   3.860   4.770 -0.3462 -0.6048  0.2216
 1325SOL    HW115611   3.636   3.836   4.780 -0.2823 -0.2563  0.5009
 1325SOL    HW215612   3.515   3.804   4.698 -0.1348 -0.0827 -0.2778
 1326SOL     OW15613   0.487   2.804   9.942  0.3963 -0.2290 -0.0089
 1326SOL    HW115614   0.407   2.811   9.890  0.0444 -1.3063  0.4063
 1326SOL    HW215615   0.532   2.800   9.858  0.3682 -1.5564  0.0417
 1327SOL     OW15616   2.881   3.496   5.818  0.0683 -0.0184 -0.1552
 1327SOL    HW115617   2.970   3.530   5.828 -1.1565  3.0934  0.2508
 1327SOL    HW215618   2.867   3.446   5.898  0.0320  0.3202  0.0496
 1328SOL     OW15619   3.814   2.689   9.246 -0.7148 -0.0211 -0.4555
 1328SOL    HW115620   3.822   2.751   9.174 -1.4829  0.3667 -0.2051
 1328SOL    HW215621   3.904   2.657   9.254 -0.7573 -0.0288 -0.0008
 1329SOL     OW15622   4.552   4.249   1.875  0.0262  0.7403  0.3542
 1329SOL    HW115623   4.507   4.197   1.941 -1.2020  4.7696  2.6752
 1329SOL    HW215624   4.566   4.179   1.810 -1.0644  1.3424 -0.5373
 1330SOL     OW15625   3.765   3.259   4.272  0.1378 -0.2816  0.5793
 1330SOL    HW115626   3.733   3.309   4.348 -2.0565 -0.2885 -0.3378
 1330SOL    HW215627   3.762   3.324   4.202  2.2832 -2.2579 -1.3634
 1331SOL     OW15628   0.000   4.170   5.996 -0.0720 -1.0996  0.0567
 1331SOL    HW115629   4.738   4.236   5.927 -1.4412 -0.5709  0.5947
 1331SOL    HW215630   0.049   4.096   5.961  0.4216  0.2442 -2.0925
 1332SOL     OW15631   2.358   4.501   9.411  0.0989 -0.0446 -0.3792
 1332SOL    HW115632   2.274   4.499   9.363  1.5145  2.0911 -2.9336
 1332SOL    HW215633   2.374   4.407   9.402 -0.1977 -0.1207 -0.0989
 1333SOL     OW15634   0.550   1.875   1.502  0.0175 -0.0026 -0.1946
 1333SOL    HW115635   0.642   1.897   1.493  0.1157 -0.4313 -0.2460
 1333SOL    HW215636   0.567   1.781   1.498  2.1976  0.4789 -1.8739
 1334SOL     OW15637   0.672   1.756   2.548  0.1187  0.3497  0.3356
 1334SOL    HW115638   0.714   1.805   2.619 -0.9868  0.6702  0.7673
 1334SOL    HW215639   0.719   1.806   2.481 -0.5061  1.3885  0.6733
 1335SOL     OW15640   3.233   1.962  11.671  0.0453  0.1900 -0.5104
 1335SOL    HW115641   3.167   1.976  11.604 -1.3109  0.7231  0.9349
 1335SOL    HW215642   3.178   1.945  11.748 -0.8434  0.1213 -1.1640
 1336SOL     OW15643   1.082   1.591   8.578  0.3033  0.2991  0.0151
 1336SOL    HW115644   1.042   1.655   8.519  0.4309  1.3582  1.0801
 1336SOL    HW215645   1.164   1.576   8.532  0.9660  2.5776  0.4267
 1337SOL     OW15646   0.270   2.962   3.818 -0.2520 -0.1031  0.2679
 1337SOL    HW115647   0.212   3.010   3.877  0.2760 -1.8267  2.1873
 1337SOL    HW215648   0.220   2.884   3.797 -1.5733  1.0035 -0.6711
 1338SOL     OW15649   4.015   2.341   5.858  0.3280 -0.2266  1.0326
 1338SOL    HW115650   4.054   2.423   5.827 -0.0074  0.2955  2.0061
 1338SOL    HW215651   3.936   2.366   5.905 -0.2003 -0.7210  0.3951
 1339SOL     OW15652   3.973   0.229  13.699 -0.0854 -0.8222 -0.3866
 1339SOL    HW115653   4.047   0.278  13.665  1.7471 -3.1627  0.2005
 1339SOL    HW215654   4.018   0.190  13.774 -1.3750  0.0885  0.8841
 1340SOL     OW15655   2.757   1.818   7.646  0.6538  0.1160  0.1151
 1340SOL    HW115656   2.725   1.752   7.708 -0.8494  1.2636  0.5539
 1340SOL    HW215657   2.669   1.846   7.621 -0.2089 -1.0243  1.8656
 1341SOL     OW15658   1.569   4.011   8.442  0.1486  0.2720 -0.2461
 1341SOL    HW115659   1.630   4.067   8.490  0.9004 -0.7188 -0.0442
 1341SOL    HW215660   1.575   3.927   8.487 -0.3517  0.8690  0.9258
 1342SOL     OW15661   0.413   2.631   6.910 -0.3979  0.0758  0.2984
 1342SOL    HW115662   0.508   2.620   6.915 -0.4377  0.0628  1.0912
 1342SOL    HW215663   0.398   2.706   6.968 -0.5715 -1.3142  2.0259
 1343SOL     OW15664   1.260   2.589  10.659 -0.5013 -0.0399 -0.2361
 1343SOL    HW115665   1.188   2.564  10.717  0.7404 -0.1196  1.2612
 1343SOL    HW215666   1.226   2.669  10.618  0.8169  0.9096  0.5187
 1344SOL     OW15667   3.877   0.605   2.634  0.0121  0.6745  0.4704
 1344SOL    HW115668   3.941   0.544   2.597 -0.1872  0.9672 -0.3453
 1344SOL    HW215669   3.863   0.576   2.725 -1.2604 -3.1973 -0.9477
 1345SOL     OW15670   2.914   0.583   6.294 -0.1682  0.0583 -0.4409
 1345SOL    HW115671   2.964   0.608   6.372  1.6819 -1.0422 -1.2520
 1345SOL    HW215672   2.941   0.491   6.283  1.2245  0.1374  2.1453
 1346SOL     OW15673   3.541   1.725  11.805  0.2414 -0.4281 -0.1623
 1346SOL    HW115674   3.635   1.733  11.791  0.5622 -0.6293  1.7948
 1346SOL    HW215675   3.508   1.773  11.729  1.9995  2.7467  1.0731
 1347SOL     OW15676   3.086   2.475   9.243 -0.0959  0.7572 -0.1758
 1347SOL    HW115677   3.070   2.466   9.337  1.0903 -1.8539 -0.2286
 1347SOL    HW215678   3.002   2.469   9.197 -0.0165 -2.7098  0.1465
 1348SOL     OW15679   4.497   2.886   5.748 -0.1683  0.4176  0.3528
 1348SOL    HW115680   4.461   2.825   5.683 -0.6111 -1.3045  2.2237
 1348SOL    HW215681   4.567   2.927   5.698 -0.0003 -2.2964 -1.6647
 1349SOL     OW15682   2.031   4.169  10.939  0.0973 -0.0793 -0.0590
 1349SOL    HW115683   2.070   4.082  10.951 -2.3856 -0.9234  1.8671
 1349SOL    HW215684   2.051   4.212  11.022  2.1499  0.7254 -0.9786
 1350SOL     OW15685   2.273   0.920   9.166  0.1916 -0.0539 -0.2195
 1350SOL    HW115686   2.252   0.905   9.258  2.0916  0.6841  0.3306
 1350SOL    HW215687   2.206   0.987   9.154 -0.5143 -0.5033  1.2527
 1351SOL     OW15688   3.093   3.932  17.207  0.3899  0.0417  0.1669
 1351SOL    HW115689   3.095   3.867  17.277 -0.7611 -0.2231 -0.0434
 1351SOL    HW215690   3.036   4.002  17.238 -2.6417 -1.5643 -1.7399
 1352SOL     OW15691   3.888   2.721   3.528 -0.0605  0.2153 -0.4898
 1352SOL    HW115692   3.812   2.675   3.492  1.4743 -1.6310 -1.3705
 1352SOL    HW215693   3.847   2.803   3.556 -0.2999 -0.6954  1.7974
 1353SOL     OW15694   4.378   3.749  12.774 -0.5264 -0.1708 -0.0349
 1353SOL    HW115695   4.444   3.817  12.758 -1.7607  1.1684  0.5593
 1353SOL    HW215696   4.385   3.705  12.689 -1.8000  0.9904 -0.7561
 1354SOL     OW15697   1.334   3.666   5.786 -0.1213  0.9546 -0.6798
 1354SOL    HW115698   1.351   3.584   5.833  2.4339  2.2288  0.6129
 1354SOL    HW215699   1.325   3.722   5.863  0.4708  0.3242 -0.1507
 1355SOL     OW15700   0.256   1.120   0.496 -0.1497 -0.5814 -0.1046
 1355SOL    HW115701   0.161   1.115   0.502 -0.2713  0.3061 -1.2762
 1355SOL    HW215702   0.262   1.208   0.535 -0.3967 -0.1540 -1.0252
 1356SOL     OW15703   2.280   2.271   3.774 -0.0231 -0.3813  0.1478
 1356SOL    HW115704   2.224   2.238   3.845 -0.2691  1.0387  0.6334
 1356SOL    HW215705   2.356   2.311   3.815  0.6788 -0.6321 -0.9270
 1357SOL     OW15706   0.263   0.866   4.650  0.5428  0.1908  0.8929
 1357SOL    HW115707   0.261   0.794   4.587 -2.3717 -0.4142  1.7015
 1357SOL    HW215708   0.188   0.918   4.622 -0.9107 -1.7240  1.2138
 1358SOL     OW15709   0.726   2.894   7.787 -0.1047 -0.0853 -0.2105
 1358SOL    HW115710   0.777   2.850   7.855 -1.5466  2.4289  2.5534
 1358SOL    HW215711   0.669   2.829   7.747 -0.2934  0.4961 -0.8818
 1359SOL     OW15712   2.577   4.434   6.834 -0.2270  0.0109  0.2615
 1359SOL    HW115713   2.548   4.343   6.832 -1.1517  0.3157 -0.1819
 1359SOL    HW215714   2.615   4.447   6.921  0.0566 -0.2230  0.1759
 1360SOL     OW15715   3.915   3.945  12.728 -0.2675  0.1906 -0.0243
 1360SOL    HW115716   3.998   3.931  12.773 -0.8713  1.7797  1.5882
 1360SOL    HW215717   3.938   3.961  12.636  0.3445 -0.2801  0.0472
 1361SOL     OW15718   1.357   0.541   8.172  0.6482 -0.2334  0.6996
 1361SOL    HW115719   1.329   0.541   8.081 -2.1306 -0.4044  1.5379
 1361SOL    HW215720   1.361   0.447   8.189 -1.0284 -0.5997 -0.9131
 1362SOL     OW15721   2.574   1.006   5.644  0.1062  0.3192 -0.2330
 1362SOL    HW115722   2.570   1.101   5.652  0.2734  0.2390  0.7241
 1362SOL    HW215723   2.501   0.990   5.704  1.7702  1.5238  2.1100
 1363SOL     OW15724   1.708   3.526   7.081 -0.0463 -0.1317 -0.4792
 1363SOL    HW115725   1.792   3.551   7.119 -1.4064  2.0635  1.0337
 1363SOL    HW215726   1.651   3.527   7.157  0.4021 -0.2123 -0.1453
 1364SOL     OW15727   0.754   0.725   1.304 -0.2859  0.0591 -0.0911
 1364SOL    HW115728   0.690   0.655   1.289  0.4434 -1.1540  2.5688
 1364SOL    HW215729   0.696   0.801   1.306  2.2633  2.0177 -1.4912
 1365SOL     OW15730   2.562   2.181   1.804 -0.3653  0.3344  0.4728
 1365SOL    HW115731   2.619   2.232   1.746  1.9038 -0.7430  1.7622
 1365SOL    HW215732   2.503   2.131   1.747  0.7394 -0.2738 -0.1251
 1366SOL     OW15733   2.122   3.501   1.847  0.2648 -0.1895 -0.5005
 1366SOL    HW115734   2.149   3.436   1.782  2.6728  0.5747 -0.2657
 1366SOL    HW215735   2.127   3.577   1.788 -0.4688  1.1382  1.1432
 1367SOL     OW15736   0.442   4.648   6.430  0.4408 -0.1278 -0.3448
 1367SOL    HW115737   0.494   4.709   6.379 -0.1274  0.5391 -0.1170
 1367SOL    HW215738   0.430   4.583   6.361  0.4347 -0.0682 -0.3997
 1368SOL     OW15739   4.153   0.374   8.304 -0.1857 -0.5314  0.9943
 1368SOL    HW115740   4.217   0.427   8.351 -1.3190  1.4698  0.2581
 1368SOL    HW215741   4.205   0.351   8.227 -2.7543 -0.1514 -0.8576
 1369SOL     OW15742   0.916   4.062   8.308 -0.0258 -0.1511 -0.3352
 1369SOL    HW115743   0.859   4.138   8.322  0.8861  0.3942  0.4772
 1369SOL    HW215744   0.873   4.017   8.236 -0.8668  2.4175 -1.4547
 1370SOL     OW15745   1.606   3.308   0.218  0.3188 -0.4790  0.4129
 1370SOL    HW115746   1.640   3.338   0.133  2.5089 -1.3676  0.9730
 1370SOL    HW215747   1.688   3.302   0.267 -1.0116 -1.1478  2.5138
 1371SOL     OW15748   4.122   3.137   7.302  0.0165  0.2721 -0.0238
 1371SOL    HW115749   4.032   3.164   7.318  0.3146  0.5442  1.2192
 1371SOL    HW215750   4.166   3.215   7.336 -3.0100  1.3908  1.2707
 1372SOL     OW15751   0.333   3.823   4.333  0.3382 -0.0646 -0.0518
 1372SOL    HW115752   0.301   3.814   4.243  0.9802  0.2283 -0.3075
 1372SOL    HW215753   0.256   3.864   4.373 -0.7506 -2.5087  0.3815
 1373SOL     OW15754   1.504   0.396   0.782  0.5039 -0.0582 -0.3698
 1373SOL    HW115755   1.414   0.379   0.755  0.6750  1.3876 -1.7902
 1373SOL    HW215756   1.505   0.488   0.757 -1.4082  0.5302  1.7138
 1374SOL     OW15757   2.176   2.780   9.697 -0.2234 -0.3130 -0.3726
 1374SOL    HW115758   2.207   2.712   9.638 -1.1839 -2.5511  1.7087
 1374SOL    HW215759   2.163   2.734   9.779  1.9841 -1.1225 -0.4904
 1375SOL     OW15760   2.669   0.991   6.703  0.6498  0.4239  0.0808
 1375SOL    HW115761   2.627   1.038   6.631  1.2521  1.5728  0.4816
 1375SOL    HW215762   2.741   1.044   6.736  1.6772 -0.3686 -0.8570
 1376SOL     OW15763   4.002   4.589   1.561 -0.0547 -0.1661 -0.2518
 1376SOL    HW115764   4.004   4.585   1.465 -3.6769 -1.5131 -0.2782
 1376SOL    HW215765   3.977   4.499   1.582  0.4810 -0.5227 -1.0859
 1377SOL     OW15766   2.116   3.370   2.081 -0.0393  0.2974  0.1683
 1377SOL    HW115767   2.118   3.430   2.006 -0.7597 -0.2313 -0.2912
 1377SOL    HW215768   2.180   3.422   2.128 -0.2611 -0.7585  1.6217
 1378SOL     OW15769   4.730   2.565   8.393 -0.2690 -0.3631 -0.2567
 1378SOL    HW115770   0.056   2.530   8.453  0.1153  1.4692  0.4041
 1378SOL    HW215771   0.044   2.547   8.317 -0.5180  0.9273 -0.7392
 1379SOL     OW15772   0.632   4.428  12.265 -0.3266  0.3171  0.4108
 1379SOL    HW115773   0.537   4.431  12.266 -0.3335  0.1447 -0.4374
 1379SOL    HW215774   0.653   4.344  12.224 -0.1510  0.0474  1.0438
 1380SOL     OW15775   1.615   1.759   8.491  0.0414 -0.2734 -0.4581
 1380SOL    HW115776   1.649   1.693   8.551 -0.8565  0.1947  0.5646
 1380SOL    HW215777   1.560   1.801   8.557  2.2615  0.4022  0.9633
 1381SOL     OW15778   3.584   1.720   4.057 -0.3442  0.4670 -0.4017
 1381SOL    HW115779   3.602   1.752   3.969 -1.0776 -2.0962 -1.4730
 1381SOL    HW215780   3.671   1.688   4.080 -0.0463  2.3966  1.1301
 1382SOL     OW15781   3.400   2.195  11.550  0.1485 -0.1768 -0.1806
 1382SOL    HW115782   3.415   2.282  11.514 -3.7019 -0.7817 -3.3396
 1382SOL    HW215783   3.304   2.188  11.547  0.2279 -1.6002  0.4549
 1383SOL     OW15784   3.442   1.861  11.104 -0.0810 -0.6076  0.1668
 1383SOL    HW115785   3.476   1.772  11.115 -2.3027 -1.2781  1.7098
 1383SOL    HW215786   3.350   1.841  11.086 -0.1057  0.2748 -0.6665
 1384SOL     OW15787   0.378   2.658   6.631  0.0499 -0.3582  0.2978
 1384SOL    HW115788   0.343   2.645   6.719  2.0122  1.1379  1.3115
 1384SOL    HW215789   0.467   2.687   6.651 -0.6569  1.2816  1.0477
 1385SOL     OW15790   1.345   4.463   4.691  0.1256  0.2183  0.1582
 1385SOL    HW115791   1.357   4.369   4.708 -0.1538  0.1180 -0.1976
 1385SOL    HW215792   1.267   4.467   4.635 -1.1190 -0.0385  1.8998
 1386SOL     OW15793   2.977   3.552   8.820  0.1249  0.2127  0.5508
 1386SOL    HW115794   2.935   3.466   8.825  1.8862 -0.7470 -1.1200
 1386SOL    HW215795   3.060   3.524   8.781  0.6990  1.3951  0.9157
 1387SOL     OW15796   1.062   4.157   8.648 -0.4213 -1.0355 -0.0199
 1387SOL    HW115797   1.074   4.180   8.740  0.0712 -1.8606  0.1195
 1387SOL    HW215798   0.971   4.129   8.638 -1.1714  1.1838  0.4195
 1388SOL     OW15799   1.663   2.870   9.512  0.0803  0.3943 -0.1223
 1388SOL    HW115800   1.638   2.922   9.588 -2.8688  0.2765 -0.9860
 1388SOL    HW215801   1.583   2.820   9.493 -0.4963  1.5512 -0.7676
 1389SOL     OW15802   0.576   2.302   2.356  0.0620  0.5032 -0.3287
 1389SOL    HW115803   0.633   2.358   2.408  2.0038 -1.7999  0.0132
 1389SOL    HW215804   0.532   2.371   2.305  0.9106  0.4819 -1.0912
 1390SOL     OW15805   4.412   1.909   5.441  0.0502 -0.2847 -0.4078
 1390SOL    HW115806   4.370   1.824   5.425  3.0165 -1.5310 -1.5634
 1390SOL    HW215807   4.437   1.939   5.354  1.4773  0.6661  0.3430
 1391SOL     OW15808   0.175   2.330  16.234 -0.2811  0.7745  0.3967
 1391SOL    HW115809   0.260   2.347  16.192  0.5760 -2.7823  0.6926
 1391SOL    HW215810   0.158   2.243  16.198 -3.3394  2.4923 -2.2813
 1392SOL     OW15811   0.182   2.237   5.272 -0.0363 -0.0319 -0.3078
 1392SOL    HW115812   0.186   2.213   5.365  0.1505  0.3705 -0.2093
 1392SOL    HW215813   0.176   2.152   5.230  1.1910 -0.7687  1.0085
 1393SOL     OW15814   2.784   3.029  11.590 -0.2839  0.3267 -0.0625
 1393SOL    HW115815   2.725   2.996  11.659 -0.2687  0.6321  0.0978
 1393SOL    HW215816   2.744   3.004  11.507  1.6999  3.3308 -1.8678
 1394SOL     OW15817   1.101   3.806   3.958 -0.1669 -0.2713  0.5685
 1394SOL    HW115818   1.196   3.799   3.954 -0.0506  0.4565  2.0866
 1394SOL    HW215819   1.088   3.898   3.935 -0.3867  0.1537  2.3553
 1395SOL     OW15820   0.922   1.379   5.336  0.1961 -0.6389  0.4133
 1395SOL    HW115821   0.960   1.458   5.375  2.0107 -0.0859 -2.4958
 1395SOL    HW215822   0.907   1.328   5.416 -0.9429 -0.4113  0.3473
 1396SOL     OW15823   0.586   2.055  16.282  0.0173  0.0775  0.2072
 1396SOL    HW115824   0.580   2.119  16.353 -1.7640 -0.5577  0.6175
 1396SOL    HW215825   0.587   1.973  16.331 -0.2264 -0.4660 -0.7009
 1397SOL     OW15826   0.479   2.338   5.276  0.0766  0.3351 -0.0263
 1397SOL    HW115827   0.446   2.258   5.317 -0.2412  1.4429  1.8579
 1397SOL    HW215828   0.409   2.349   5.212  0.9629 -0.4876 -1.1452
 1398SOL     OW15829   3.454   1.332   4.928 -0.5051  0.3088  0.1130
 1398SOL    HW115830   3.504   1.254   4.953 -0.1155  1.0029  1.4768
 1398SOL    HW215831   3.481   1.336   4.836  0.4492 -0.5428  0.3416
 1399SOL     OW15832   4.346   4.204   6.685 -0.1467 -0.1537  0.1690
 1399SOL    HW115833   4.266   4.196   6.738 -1.8533 -0.0248 -2.4111
 1399SOL    HW215834   4.368   4.297   6.686  1.2598 -0.4884  0.1655
 1400SOL     OW15835   1.513   0.117   3.855  0.5375 -0.3943  0.5045
 1400SOL    HW115836   1.547   0.165   3.779 -0.0078  1.1382  1.2332
 1400SOL    HW215837   1.592   0.113   3.909 -0.1508 -0.4388  1.5103
 1401SOL     OW15838   1.838   0.966   2.905 -0.5327  0.3988 -0.2478
 1401SOL    HW115839   1.820   0.960   2.811 -0.9718 -0.2051 -0.1204
 1401SOL    HW215840   1.775   0.902   2.937  0.2011 -0.5671 -0.7236
 1402SOL     OW15841   0.093   0.137   8.935 -0.3997  0.9118  0.2354
 1402SOL    HW115842   0.143   0.165   9.011  0.9647 -2.1094  0.4378
 1402SOL    HW215843   0.143   0.179   8.864  3.3108 -1.1977  1.5835
 1403SOL     OW15844   0.669   1.812   9.532 -0.3050 -0.1305  0.2563
 1403SOL    HW115845   0.626   1.896   9.547 -2.3591 -0.7873 -1.9971
 1403SOL    HW215846   0.621   1.764   9.599  0.8800 -0.5951  0.7733
 1404SOL     OW15847   0.915   4.110  14.495  0.1435  0.0300 -0.3430
 1404SOL    HW115848   0.931   4.052  14.570 -0.1835  0.6685  0.2180
 1404SOL    HW215849   0.990   4.167  14.516 -0.9706  0.7210  1.7643
 1405SOL     OW15850   1.528   0.831   4.127 -0.2755 -0.6174  0.8147
 1405SOL    HW115851   1.554   0.811   4.217 -3.0104 -0.4902  1.6194
 1405SOL    HW215852   1.581   0.771   4.074 -1.3267  0.3810 -1.3526
 1406SOL     OW15853   3.235   0.797  16.662  0.3202  0.3801  0.0272
 1406SOL    HW115854   3.268   0.820  16.575 -3.1646  2.6852 -0.6675
 1406SOL    HW215855   3.311   0.755  16.702 -0.4555  2.4374  3.7119
 1407SOL     OW15856   1.483   2.652   0.184 -0.1781 -0.1784  0.2294
 1407SOL    HW115857   1.442   2.595   0.119 -0.7543  2.3991 -1.6999
 1407SOL    HW215858   1.492   2.594   0.259  2.1085 -0.4013 -0.2316
 1408SOL     OW15859   0.622   0.116   2.585  0.3329  0.4567 -0.6220
 1408SOL    HW115860   0.534   0.096   2.615  0.5371  0.9245  0.2942
 1408SOL    HW215861   0.630   0.210   2.569 -0.3630  0.6120  0.0093
 1409SOL     OW15862   2.282   0.071   3.325 -0.2884  0.0977 -0.1526
 1409SOL    HW115863   2.336   0.027   3.391 -1.2176  0.0097  0.5368
 1409SOL    HW215864   2.307   0.015   3.251  0.3256  0.5562 -0.2907
 1410SOL     OW15865   4.155   1.541   8.017  0.3793  0.1746 -0.2189
 1410SOL    HW115866   4.137   1.451   7.991 -1.0262  0.4177 -0.0932
 1410SOL    HW215867   4.239   1.526   8.059  0.0445  3.8954  1.7537
 1411SOL     OW15868   1.075   0.894   2.695 -0.0578  0.1101  0.1130
 1411SOL    HW115869   1.074   0.831   2.623  1.6257 -0.7833  0.8641
 1411SOL    HW215870   1.010   0.851   2.751 -1.5188  3.2219  0.8456
 1412SOL     OW15871   0.554   3.934   1.893 -0.0405  0.2883  0.0169
 1412SOL    HW115872   0.541   3.905   1.983  0.2772  0.3271  0.0741
 1412SOL    HW215873   0.531   3.852   1.848 -1.7098 -0.4057  2.1497
 1413SOL     OW15874   3.524   0.219   3.562 -0.4497  0.4733  0.0368
 1413SOL    HW115875   3.603   0.270   3.580 -1.9229  2.6469  0.3606
 1413SOL    HW215876   3.457   0.287   3.572  1.5505  2.0176  2.9000
 1414SOL     OW15877   3.186   2.387   7.201  0.0087  0.6112 -0.0619
 1414SOL    HW115878   3.115   2.345   7.152  0.0046 -0.6025  0.9778
 1414SOL    HW215879   3.178   2.326   7.275  0.2531 -1.2554 -1.5682
 1415SOL     OW15880   1.853   3.134   7.589 -0.3084  0.2695 -0.1656
 1415SOL    HW115881   1.760   3.135   7.611 -0.1837 -1.6714  0.4504
 1415SOL    HW215882   1.873   3.224   7.616 -3.8062  0.6526  1.0656
 1416SOL     OW15883   3.209   2.180   1.830 -0.5862  0.0923 -0.3408
 1416SOL    HW115884   3.265   2.240   1.879 -1.5894  1.4265 -0.8431
 1416SOL    HW215885   3.205   2.217   1.742  0.1679  0.0919 -0.3725
 1417SOL     OW15886   3.603   0.566   6.866 -0.1830 -0.7009 -0.7561
 1417SOL    HW115887   3.554   0.602   6.792 -0.3618 -0.5070 -0.5404
 1417SOL    HW215888   3.660   0.498   6.829  0.1692 -0.3831 -0.7914
 1418SOL     OW15889   1.214   1.725  15.220  0.0037  0.2797 -0.1546
 1418SOL    HW115890   1.236   1.793  15.156  1.2255 -0.8939 -0.9916
 1418SOL    HW215891   1.243   1.647  15.171 -0.4411  1.3004 -2.0499
 1419SOL     OW15892   3.463   1.469   8.703  0.1607  0.0187 -0.2466
 1419SOL    HW115893   3.431   1.412   8.773 -0.0130 -1.6587 -1.6981
 1419SOL    HW215894   3.381   1.494   8.661 -0.1341 -1.0443 -0.3097
 1420SOL     OW15895   2.455   0.277  14.516  0.0920 -0.0661 -0.2775
 1420SOL    HW115896   2.455   0.185  14.492 -1.0268  0.0411 -0.7218
 1420SOL    HW215897   2.521   0.274  14.585 -0.4677  0.5634  0.2821
 1421SOL     OW15898   2.765   1.053   9.062 -0.3598 -0.1764 -0.5276
 1421SOL    HW115899   2.802   1.031   8.976 -1.1292 -0.7629 -0.7108
 1421SOL    HW215900   2.725   1.134   9.030  1.6463  0.4417 -1.5294
 1422SOL     OW15901   1.805   0.684   7.102 -0.7294  0.0253 -0.3321
 1422SOL    HW115902   1.893   0.656   7.076 -0.5990 -0.0635  0.1954
 1422SOL    HW215903   1.804   0.658   7.194 -0.3889  0.5649 -0.1795
 1423SOL     OW15904   2.890   4.259  13.628  0.2445  0.0126 -0.0256
 1423SOL    HW115905   2.903   4.216  13.543  0.4036  0.4211 -0.2082
 1423SOL    HW215906   2.795   4.260  13.633  0.3975  0.4117  2.8336
 1424SOL     OW15907   2.864   0.614   0.357 -0.5452 -0.1568  0.2490
 1424SOL    HW115908   2.841   0.653   0.273 -0.4939 -0.5372  0.0591
 1424SOL    HW215909   2.840   0.523   0.340 -0.5274 -0.3871  1.4363
 1425SOL     OW15910   1.902   0.187   8.453 -0.2881  0.0543 -0.3969
 1425SOL    HW115911   1.899   0.099   8.416  0.5805 -0.7998  1.5660
 1425SOL    HW215912   1.812   0.210   8.479  0.0918  0.6022  0.4394
 1426SOL     OW15913   1.697   0.081   4.075 -0.1618 -0.4219  0.0836
 1426SOL    HW115914   1.768   0.105   4.016 -0.2430 -1.2531 -0.3401
 1426SOL    HW215915   1.737   0.007   4.120 -0.1795 -0.3768  0.1733
 1427SOL     OW15916   3.321   2.258   9.887 -0.4316 -0.0841  0.4556
 1427SOL    HW115917   3.344   2.285   9.798 -1.6074  0.2436  0.2449
 1427SOL    HW215918   3.225   2.263   9.894 -0.5892  1.2738 -2.5653
 1428SOL     OW15919   2.243   4.031   9.600 -0.2453 -0.6063  0.0797
 1428SOL    HW115920   2.335   4.006   9.602 -0.0140  0.1828 -0.7041
 1428SOL    HW215921   2.206   3.953   9.640 -1.3822 -1.2590 -2.2133
 1429SOL     OW15922   2.889   1.852   4.839  0.2412  1.2552 -0.2158
 1429SOL    HW115923   2.944   1.854   4.918 -1.9318  1.7057  1.2986
 1429SOL    HW215924   2.954   1.846   4.769 -1.1829  0.3489 -1.4323
 1430SOL     OW15925   2.592   4.600   1.108 -0.4073  0.2156  0.1054
 1430SOL    HW115926   2.605   4.684   1.152  1.7549 -0.1755  0.2235
 1430SOL    HW215927   2.650   4.542   1.156  1.5086  0.3428 -2.0247
 1431SOL     OW15928   0.187   4.060   9.653  0.3491 -0.2334 -0.4030
 1431SOL    HW115929   0.269   4.092   9.690  1.0194 -1.0436 -1.1891
 1431SOL    HW215930   0.220   4.028   9.569 -0.8784  1.0663 -1.3812
 1432SOL     OW15931   0.399   3.803   4.782 -0.4703 -0.4616  0.5041
 1432SOL    HW115932   0.316   3.842   4.754  0.2363  2.7784  2.9092
 1432SOL    HW215933   0.453   3.833   4.708 -1.2860  0.8750  0.4502
 1433SOL     OW15934   2.642   2.359   1.249  0.2848  0.3291  0.0668
 1433SOL    HW115935   2.574   2.292   1.262 -0.0733  0.8521  0.9136
 1433SOL    HW215936   2.710   2.332   1.311 -1.1064 -2.6929  0.2881
 1434SOL     OW15937   3.157   2.598  12.218  0.5747 -0.0155 -0.3524
 1434SOL    HW115938   3.225   2.640  12.270 -1.7631  1.8029  1.2568
 1434SOL    HW215939   3.146   2.668  12.154 -1.3036  0.6236  0.6616
 1435SOL     OW15940   4.242   2.201  17.100  0.3207 -0.1615 -0.6058
 1435SOL    HW115941   4.152   2.228  17.082  1.1628  1.6735 -1.9892
 1435SOL    HW215942   4.290   2.277  17.069 -0.3197 -0.1607 -1.5757
 1436SOL     OW15943   1.094   3.118   5.031 -0.1254 -0.3501 -0.6398
 1436SOL    HW115944   1.030   3.085   5.094  1.5235 -0.5478  0.9593
 1436SOL    HW215945   1.062   3.074   4.952 -0.0248 -1.8099  0.1254
 1437SOL     OW15946   3.936   1.447   9.812  0.4035  0.1695  0.1577
 1437SOL    HW115947   3.929   1.539   9.839 -0.4547 -0.1242  0.9467
 1437SOL    HW215948   3.846   1.417   9.822  0.2590  0.7309  0.5621
 1438SOL     OW15949   4.209   0.556   0.272  0.0577  0.1984 -0.2425
 1438SOL    HW115950   4.195   0.534   0.180  1.4754 -2.5628  0.1948
 1438SOL    HW215951   4.248   0.642   0.255 -0.2852  0.6776  1.3539
 1439SOL     OW15952   3.973   1.150  13.409 -0.5211 -0.2032 -0.3627
 1439SOL    HW115953   3.950   1.099  13.331  2.0418 -0.0928 -1.1960
 1439SOL    HW215954   4.068   1.145  13.422 -0.5473 -0.7247 -0.3777
 1440SOL     OW15955   3.501   0.523   3.911 -0.3499 -0.3316 -0.4301
 1440SOL    HW115956   3.493   0.502   3.818 -1.3503 -0.0058 -0.4226
 1440SOL    HW215957   3.426   0.582   3.923  0.6519  0.4871  1.7630
 1441SOL     OW15958   4.685   3.796  14.307 -0.0648 -0.0849 -0.1591
 1441SOL    HW115959   4.662   3.848  14.384 -1.2817  0.0511 -0.6207
 1441SOL    HW215960   4.626   3.837  14.244  0.9131 -0.5770 -1.3959
 1442SOL     OW15961   4.590   4.204   7.542 -0.5983 -0.3961  0.0153
 1442SOL    HW115962   4.606   4.153   7.621 -2.7302 -0.0318  0.6789
 1442SOL    HW215963   4.508   4.168   7.507 -0.2661  1.0895 -2.2984
 1443SOL     OW15964   3.407   1.278   2.964  0.1709  0.3759 -0.2680
 1443SOL    HW115965   3.458   1.212   3.010  1.8019  0.8769 -1.3798
 1443SOL    HW215966   3.370   1.218   2.900 -1.5270  2.4016 -1.2106
 1444SOL     OW15967   4.518   2.652   1.684  0.5908  0.2533 -0.1664
 1444SOL    HW115968   4.603   2.694   1.676  0.0641  1.0960 -1.3678
 1444SOL    HW215969   4.467   2.733   1.690  0.5456  0.2447 -0.4750
 1445SOL     OW15970   2.979   3.366   3.310 -0.3671  0.4044  0.1919
 1445SOL    HW115971   3.074   3.369   3.301 -0.1144 -2.1904  2.2136
 1445SOL    HW215972   2.978   3.342   3.402  0.5820 -3.1411 -0.7267
 1446SOL     OW15973   2.363   2.041   7.270  0.3207  0.0572 -0.1052
 1446SOL    HW115974   2.298   1.972   7.285  1.4321 -1.1046 -0.6098
 1446SOL    HW215975   2.446   1.993   7.270  0.6375  0.6066  0.1437
 1447SOL     OW15976   2.011   0.292   3.253 -0.2704 -0.3917  0.5581
 1447SOL    HW115977   2.008   0.387   3.265  2.0337 -0.0469 -1.3345
 1447SOL    HW215978   1.959   0.286   3.173  0.5382 -1.8526  0.1479
 1448SOL     OW15979   3.048   3.266   5.583  0.6892 -0.0110 -0.1645
 1448SOL    HW115980   3.133   3.303   5.604  0.5218 -0.0790  0.6307
 1448SOL    HW215981   3.025   3.326   5.512  0.6897 -1.9393 -1.7874
 1449SOL     OW15982   1.436   0.374   2.070 -0.2846 -0.3483 -0.0376
 1449SOL    HW115983   1.397   0.358   2.156 -0.5786  1.5484  0.1785
 1449SOL    HW215984   1.395   0.457   2.048  2.2663  1.3032  1.3572
 1450SOL     OW15985   0.361   4.369   5.406 -0.0490  0.4909 -1.0203
 1450SOL    HW115986   0.418   4.391   5.332  0.1464  0.6670 -0.8165
 1450SOL    HW215987   0.304   4.303   5.367 -0.2843 -1.3075  2.4024
 1451SOL     OW15988   0.648   3.157   3.308 -0.2078 -0.1164 -0.5490
 1451SOL    HW115989   0.739   3.179   3.290 -0.7287  2.7370  0.2361
 1451SOL    HW215990   0.620   3.118   3.225  1.6891  0.7253 -1.5884
 1452SOL     OW15991   0.025   1.541   8.143  0.2749  0.3964 -0.1248
 1452SOL    HW115992   4.725   1.518   8.059  0.6505 -0.2766 -0.1226
 1452SOL    HW215993   4.721   1.479   8.201  0.6864 -0.8099 -1.1006
 1453SOL     OW15994   1.386   0.232  11.473  0.3413 -0.4223  0.3079
 1453SOL    HW115995   1.450   0.163  11.487 -0.3772 -1.3711 -1.0578
 1453SOL    HW215996   1.417   0.258  11.386  0.4637  2.2301  1.1355
 1454SOL     OW15997   2.363   0.046   7.012 -0.2099 -0.1428  0.0899
 1454SOL    HW115998   2.335   4.694   7.013  1.6354 -0.7005  0.1647
 1454SOL    HW215999   2.283   0.093   7.035 -0.5082 -0.0589 -1.0861
 1455SOL     OW16000   0.901   1.150  12.630  0.3232  0.1706 -0.2287
 1455SOL    HW116001   0.941   1.063  12.637  0.8892  0.4987  0.6501
 1455SOL    HW216002   0.968   1.207  12.669 -0.4414  1.4159 -0.7646
 1456SOL     OW16003   2.312   3.135   4.106 -0.0102  0.5707 -0.0900
 1456SOL    HW116004   2.237   3.115   4.049 -0.4069 -0.2836  0.7343
 1456SOL    HW216005   2.376   3.146   4.035  0.5360 -0.2216  0.2797
 1457SOL     OW16006   3.380   3.697  13.926 -0.0004 -0.5468  0.7613
 1457SOL    HW116007   3.363   3.620  13.870  1.7982 -0.1597 -0.3417
 1457SOL    HW216008   3.424   3.738  13.851 -1.5646  0.5384  0.4495
 1458SOL     OW16009   1.869   2.295   8.697  0.0038  0.0040  0.4722
 1458SOL    HW116010   1.776   2.317   8.705 -0.2157  0.2541 -2.7215
 1458SOL    HW216011   1.874   2.228   8.629 -1.5777  2.0241 -1.6341
 1459SOL     OW16012   2.063   1.592  13.307 -0.5400  0.0729 -0.1460
 1459SOL    HW116013   2.122   1.546  13.248 -0.2254  1.5749 -0.9891
 1459SOL    HW216014   1.978   1.586  13.264 -0.3253  0.5957 -0.6402
 1460SOL     OW16015   1.478   4.276  15.249  0.2029  0.1029  0.1905
 1460SOL    HW116016   1.389   4.307  15.236  0.2924 -0.2018 -1.1003
 1460SOL    HW216017   1.505   4.257  15.159 -1.4489 -0.1654 -0.2574
 1461SOL     OW16018   1.086   0.135   0.350  0.2153 -0.3770  0.1227
 1461SOL    HW116019   1.049   0.049   0.328  0.7591 -0.7529  0.6614
 1461SOL    HW216020   1.153   0.143   0.282 -1.4921 -1.6205 -1.6964
 1462SOL     OW16021   0.467   2.500   4.701  0.5262 -0.0927 -0.0082
 1462SOL    HW116022   0.460   2.405   4.718 -0.9535 -0.0415 -0.3479
 1462SOL    HW216023   0.514   2.495   4.618  0.2719  0.9903 -0.2082
 1463SOL     OW16024   0.647   0.777   4.121  0.6708  0.9087 -0.3855
 1463SOL    HW116025   0.660   0.733   4.206  0.8758  1.4018 -0.1562
 1463SOL    HW216026   0.566   0.735   4.093  0.9630 -0.7911  1.3026
 1464SOL     OW16027   4.153   2.108   4.876 -0.3191 -0.4352  0.1932
 1464SOL    HW116028   4.158   2.123   4.971  0.3122 -0.6054  0.1848
 1464SOL    HW216029   4.059   2.123   4.862 -0.5075 -0.6353  1.2290
 1465SOL     OW16030   0.513   2.837   5.664  0.0385 -0.3423  0.6999
 1465SOL    HW116031   0.496   2.924   5.699 -0.3242  1.0396 -2.9326
 1465SOL    HW216032   0.453   2.824   5.591 -0.1888  0.6213  0.7261
 1466SOL     OW16033   2.131   1.963   8.553 -0.2290 -0.5309 -0.0318
 1466SOL    HW116034   2.213   1.990   8.510 -0.3219 -2.2424 -1.2745
 1466SOL    HW216035   2.141   1.869   8.539 -1.2885 -0.6414 -0.0235
 1467SOL     OW16036   4.044   1.912   2.300  0.2456 -0.0153 -0.1911
 1467SOL    HW116037   3.988   1.970   2.248  1.1565  1.1667  0.1478
 1467SOL    HW216038   3.979   1.842   2.301  1.2045 -0.8977  0.4542
 1468SOL     OW16039   2.652   0.288   3.431  0.4979 -0.1526 -0.5310
 1468SOL    HW116040   2.571   0.295   3.380 -0.2159  0.5299  0.6895
 1468SOL    HW216041   2.690   0.375   3.426  0.5396 -0.2420 -1.6453
 1469SOL     OW16042   2.963   2.303  13.270 -0.0608  0.4544 -0.3340
 1469SOL    HW116043   2.886   2.247  13.261  0.0786  0.0244  1.0709
 1469SOL    HW216044   2.934   2.362  13.339  2.3014 -0.4860  1.4798
 1470SOL     OW16045   2.531   4.661   2.701  0.1749  0.5691 -1.2320
 1470SOL    HW116046   2.545   4.582   2.648 -0.3953  0.2522 -0.9111
 1470SOL    HW216047   2.483   4.633   2.778 -1.4723  2.2454 -1.6622
 1471SOL     OW16048   4.660   1.585   1.734  0.3786 -0.0929 -0.1893
 1471SOL    HW116049   4.717   1.508   1.741 -0.6133 -0.9634 -1.9571
 1471SOL    HW216050   4.694   1.640   1.805  0.3574 -2.7875  1.9516
 1472SOL     OW16051   2.429   3.074  11.163 -0.4766  0.4457  0.0838
 1472SOL    HW116052   2.516   3.080  11.202 -0.5059  4.2445 -0.4116
 1472SOL    HW216053   2.390   3.124  11.235  1.2206  1.3325  0.3883
 1473SOL     OW16054   0.479   2.711   3.922  0.3794 -0.2564  0.3307
 1473SOL    HW116055   0.427   2.678   3.995  1.3410  2.2543  2.1265
 1473SOL    HW216056   0.562   2.717   3.969  0.8465 -0.6872 -0.4282
 1474SOL     OW16057   4.047   3.565   3.121  0.3887  0.3923  0.0498
 1474SOL    HW116058   4.118   3.620   3.153  0.6303  0.4093 -0.5041
 1474SOL    HW216059   3.988   3.553   3.196  2.9332  0.1597  1.9981
 1475SOL     OW16060   3.744   4.504  13.850  0.6905 -0.7648 -1.1293
 1475SOL    HW116061   3.803   4.511  13.775  1.1344 -2.0180 -0.8911
 1475SOL    HW216062   3.736   4.596  13.875 -1.1294 -0.7803 -1.6417
 1476SOL     OW16063   3.680   1.440   2.675  0.4028  0.1503  0.2161
 1476SOL    HW116064   3.649   1.349   2.681  2.1974 -0.4629 -0.0662
 1476SOL    HW216065   3.734   1.437   2.596  1.5601 -1.3083  1.0627
 1477SOL     OW16066   4.690   1.584   3.327 -0.1509  0.3277 -0.2687
 1477SOL    HW116067   4.647   1.517   3.379  1.0096 -1.9291 -2.2364
 1477SOL    HW216068   4.617   1.646   3.321 -1.4425 -1.2139 -0.2928
 1478SOL     OW16069   3.101   4.715   1.745  0.3083 -0.2774 -0.3753
 1478SOL    HW116070   3.131   4.725   1.835  0.5835  4.1162 -0.9453
 1478SOL    HW216071   3.078   0.063   1.715 -2.4608 -0.3346  1.6195
 1479SOL     OW16072   0.784   4.240   8.609 -0.1956 -0.2719  0.1558
 1479SOL    HW116073   0.747   4.253   8.522  1.0144  2.2225  0.0394
 1479SOL    HW216074   0.735   4.162   8.636 -0.8839  0.8167  2.0738
 1480SOL     OW16075   3.956   3.920   8.951  1.3675 -0.1816 -0.5488
 1480SOL    HW116076   3.945   4.015   8.946  0.0611 -0.2833  0.3170
 1480SOL    HW216077   3.946   3.898   9.043  0.5466  2.4628 -0.0096
 1481SOL     OW16078   3.562   1.746   7.636  0.0923 -0.0166 -0.1015
 1481SOL    HW116079   3.523   1.750   7.723 -0.8727  0.7112 -0.5581
 1481SOL    HW216080   3.655   1.732   7.652  0.5297  0.6111 -2.0978
 1482SOL     OW16081   2.581   4.169  16.173  0.1499  0.0677  0.0197
 1482SOL    HW116082   2.570   4.264  16.164  2.0424  0.2162 -0.7636
 1482SOL    HW216083   2.507   4.133  16.124 -1.0590  1.6027  0.7297
 1483SOL     OW16084   0.413   2.037   6.880 -0.7178  0.6834 -0.1401
 1483SOL    HW116085   0.479   2.003   6.819 -0.5112  0.9232 -0.0526
 1483SOL    HW216086   0.326   2.015   6.846 -0.8193 -0.8383  1.1100
 1484SOL     OW16087   2.587   1.029   3.085 -0.4280 -0.0041  0.3350
 1484SOL    HW116088   2.495   1.039   3.058  0.1166 -1.2227 -1.9572
 1484SOL    HW216089   2.577   1.036   3.180 -1.1247 -0.4128  0.2930
 1485SOL     OW16090   4.556   0.320   8.891 -0.0092 -0.1962 -0.2035
 1485SOL    HW116091   4.567   0.400   8.942  1.1344 -1.2391  1.1602
 1485SOL    HW216092   4.638   0.314   8.842 -1.4351 -0.9955 -2.5316
 1486SOL     OW16093   3.719   4.586   0.422  0.0145  0.3163 -0.3440
 1486SOL    HW116094   3.790   4.617   0.478  0.4015 -1.6771  0.2573
 1486SOL    HW216095   3.716   4.494   0.448  0.2851  0.4833  0.2887
 1487SOL     OW16096   3.016   1.518   3.733  0.3898  0.0160 -0.8481
 1487SOL    HW116097   2.982   1.438   3.774  0.0080 -0.1707 -1.5358
 1487SOL    HW216098   3.048   1.568   3.808 -0.9966 -0.7084  0.2271
 1488SOL     OW16099   4.325   4.011   3.830 -0.0285 -0.0204  0.4926
 1488SOL    HW116100   4.242   3.964   3.818  0.8415 -0.6837 -2.7112
 1488SOL    HW216101   4.308   4.063   3.909  0.2267 -0.1345  0.6218
 1489SOL     OW16102   4.325   4.252   2.276  0.3832 -0.2696 -0.0234
 1489SOL    HW116103   4.307   4.172   2.325  0.5026 -0.4884 -0.3350
 1489SOL    HW216104   4.366   4.205   2.203 -1.4760  1.3613 -2.1196
 1490SOL     OW16105   3.442   1.883  10.707 -0.1608 -0.0455 -0.4001
 1490SOL    HW116106   3.370   1.820  10.714 -1.4756  1.3693 -1.0182
 1490SOL    HW216107   3.424   1.919  10.620  0.1840 -2.0828 -1.3125
 1491SOL     OW16108   2.322   1.574   6.522  0.5654 -0.0425  0.5756
 1491SOL    HW116109   2.313   1.483   6.493 -1.9844 -0.6414  3.2705
 1491SOL    HW216110   2.375   1.610   6.451  1.9578 -1.7902  0.7196
 1492SOL     OW16111   3.377   0.436   3.424  0.9613 -0.0115  0.0362
 1492SOL    HW116112   3.310   0.488   3.380 -0.6243 -1.0713  1.2066
 1492SOL    HW216113   3.407   0.505   3.484 -1.5655  1.3187 -0.2293
 1493SOL     OW16114   3.762   2.522   8.445  0.3142  0.2932  0.1233
 1493SOL    HW116115   3.786   2.470   8.521 -0.6723 -0.4214 -0.0595
 1493SOL    HW216116   3.837   2.580   8.433  1.5792 -1.8197 -2.2351
 1494SOL     OW16117   1.532   2.969   0.177 -0.2680  1.0687  0.0417
 1494SOL    HW116118   1.625   2.955   0.157 -0.5939 -2.3731  0.9610
 1494SOL    HW216119   1.498   2.879   0.180  1.9678  0.1504 -1.9335
 1495SOL     OW16120   4.286   1.032   5.451  0.1565  0.1336 -0.1605
 1495SOL    HW116121   4.230   1.107   5.468  0.0530  0.0820 -0.2732
 1495SOL    HW216122   4.216   0.977   5.415  1.0435 -1.3196  0.3079
 1496SOL     OW16123   4.211   1.194  11.083  0.0801  0.5247  0.1786
 1496SOL    HW116124   4.160   1.217  11.160 -2.4404  1.2664 -1.6972
 1496SOL    HW216125   4.297   1.165  11.113  0.6525  0.9487 -1.0266
 1497SOL     OW16126   0.376   4.389   3.115  0.2546 -0.0494 -0.0467
 1497SOL    HW116127   0.441   4.437   3.167  0.5138  0.7797 -1.1396
 1497SOL    HW216128   0.311   4.359   3.179  0.5613  0.7177  0.6264
 1498SOL     OW16129   2.385   3.884  14.699  0.0961  0.2248  0.0628
 1498SOL    HW116130   2.395   3.963  14.646  0.8510 -0.9706 -1.5940
 1498SOL    HW216131   2.477   3.862  14.711 -0.0096  0.1139  0.6697
 1499SOL     OW16132   3.460   4.093  13.388  0.6843  0.0089 -0.1523
 1499SOL    HW116133   3.518   4.127  13.457  1.7043  1.3343 -1.6652
 1499SOL    HW216134   3.500   4.006  13.386  0.4673 -0.1621  2.4008
 1500SOL     OW16135   0.718   0.541   3.775  0.1189 -0.4677  0.0142
 1500SOL    HW116136   0.764   0.471   3.728  2.3819  1.2880 -0.3813
 1500SOL    HW216137   0.657   0.483   3.820 -0.6202  1.0954  1.0085
 1501SOL     OW16138   2.591   3.845   5.404  0.0932  0.2291  0.3476
 1501SOL    HW116139   2.626   3.769   5.357  1.0062  0.5605  0.5020
 1501SOL    HW216140   2.632   3.925   5.372  1.1057 -0.4679 -0.0895
 1502SOL     OW16141   0.334   3.518  14.349  0.5063  0.3680 -0.2449
 1502SOL    HW116142   0.280   3.563  14.284 -1.7813 -1.5543  0.3334
 1502SOL    HW216143   0.404   3.485  14.293 -0.3068  0.5957 -1.3952
 1503SOL     OW16144   3.191   2.534   5.177 -0.2310  0.1578  0.6190
 1503SOL    HW116145   3.098   2.548   5.198 -1.0469 -0.3572 -2.5642
 1503SOL    HW216146   3.193   2.442   5.203 -2.5314 -0.8058 -2.4518
 1504SOL     OW16147   2.330   3.260  13.037 -0.5449 -0.6718 -0.5706
 1504SOL    HW116148   2.417   3.301  13.035 -0.5375 -0.6306  0.9119
 1504SOL    HW216149   2.294   3.284  13.122  1.2892 -0.4494  0.1586
 1505SOL     OW16150   4.495   2.537   5.152 -0.3553  0.4466 -0.6277
 1505SOL    HW116151   4.557   2.465   5.145 -1.2657 -0.3482 -0.6514
 1505SOL    HW216152   4.418   2.483   5.174  0.0938  0.3725  0.7952
 1506SOL     OW16153   2.508   2.142   7.769  0.2628 -0.6158  0.2140
 1506SOL    HW116154   2.546   2.089   7.699  0.3686 -1.5522  0.9818
 1506SOL    HW216155   2.532   2.231   7.742 -2.4814 -0.1380 -0.6122
 1507SOL     OW16156   3.459   2.254   3.111 -0.2411  0.3310  0.1296
 1507SOL    HW116157   3.525   2.200   3.154  0.4669 -0.6938 -2.2541
 1507SOL    HW216158   3.510   2.281   3.034 -0.1981 -3.0640 -1.0105
 1508SOL     OW16159   3.415   4.296   0.697  0.0912  0.0540 -0.6210
 1508SOL    HW116160   3.377   4.285   0.610 -2.3327  1.0827  0.3221
 1508SOL    HW216161   3.370   4.376   0.721  1.3960  0.1363  1.5722
 1509SOL     OW16162   1.021   1.742   2.112  0.2035  0.4728 -0.2998
 1509SOL    HW116163   1.002   1.813   2.052 -2.8674  1.2836  1.6594
 1509SOL    HW216164   1.093   1.705   2.060 -1.0933 -1.7025 -0.5525
 1510SOL     OW16165   1.504   2.382   1.741  0.0510  0.2665 -0.6685
 1510SOL    HW116166   1.447   2.320   1.695  0.0387  1.4786 -2.2599
 1510SOL    HW216167   1.490   2.351   1.831 -0.6231  0.7505 -0.6067
 1511SOL     OW16168   4.306   3.542   5.886 -0.0188 -0.1453  0.6187
 1511SOL    HW116169   4.356   3.529   5.805  1.3736  0.3258  1.3974
 1511SOL    HW216170   4.346   3.615   5.933  0.6075 -1.4319  2.0899
 1512SOL     OW16171   0.928   4.641   1.132 -0.4754 -0.3414 -0.7437
 1512SOL    HW116172   1.022   4.624   1.142 -0.3560  0.3646 -0.5994
 1512SOL    HW216173   0.927   4.712   1.068 -1.2345 -1.0490 -1.5042
 1513SOL     OW16174   1.839   0.516  13.247 -0.5309  0.3777 -0.1512
 1513SOL    HW116175   1.755   0.470  13.255 -0.4184  0.3031  0.6393
 1513SOL    HW216176   1.838   0.545  13.156 -2.5443  1.6685  0.2833
 1514SOL     OW16177   0.253   0.519   3.733 -0.2244  0.7060  0.6065
 1514SOL    HW116178   0.172   0.495   3.688  0.3670 -1.5931  0.7416
 1514SOL    HW216179   0.233   0.612   3.739 -3.2852  0.1030 -0.3483
 1515SOL     OW16180   2.957   3.678   2.911  0.5365  0.0442 -0.3862
 1515SOL    HW116181   3.006   3.647   2.835  0.4554  2.2500 -1.3238
 1515SOL    HW216182   2.894   3.606   2.921  0.6583  0.1000  0.8061
 1516SOL     OW16183   4.493   4.301   5.687  0.3106 -0.1860  0.1612
 1516SOL    HW116184   4.466   4.289   5.778 -0.2131  0.2480  0.0661
 1516SOL    HW216185   4.475   4.395   5.684  0.1168 -0.2025  0.7609
 1517SOL     OW16186   2.917   3.543   5.242  0.2686 -0.6963  0.2902
 1517SOL    HW116187   2.989   3.548   5.304  0.3984 -3.0871  0.2990
 1517SOL    HW216188   2.943   3.603   5.172 -0.0932 -2.6631 -1.5234
 1518SOL     OW16189   3.770   4.447   9.350 -0.1514  0.0140 -0.2667
 1518SOL    HW116190   3.754   4.464   9.443  2.0262  1.6040 -0.1812
 1518SOL    HW216191   3.682   4.462   9.314 -0.7016  1.3238  1.6049
 1519SOL     OW16192   1.188   2.924   2.903 -0.7384  0.9080  0.1149
 1519SOL    HW116193   1.198   2.964   2.817 -0.2357 -0.3265 -0.3990
 1519SOL    HW216194   1.244   2.847   2.899 -3.0707 -0.6866 -1.7260
 1520SOL     OW16195   3.389   1.080  11.744  0.1173  0.1688  0.0647
 1520SOL    HW116196   3.334   1.029  11.685  1.7282 -1.3456 -0.1362
 1520SOL    HW216197   3.332   1.086  11.821  2.7086  0.2579  1.9791
 1521SOL     OW16198   4.456   4.083   2.082 -0.1982  0.2310 -0.1083
 1521SOL    HW116199   4.520   4.013   2.069  1.3720  1.4435  1.0501
 1521SOL    HW216200   4.387   4.032   2.124  1.5492 -1.7765  0.3325
 1522SOL     OW16201   0.553   2.834   0.040 -0.2972  0.5909  0.4967
 1522SOL    HW116202   0.629   2.815  17.743  0.7355  0.6021  1.9211
 1522SOL    HW216203   0.583   2.906   0.096  2.5259  2.7892 -3.8515
 1523SOL     OW16204   0.162   0.898   5.594 -0.0883 -0.1661  0.2693
 1523SOL    HW116205   0.229   0.926   5.656 -1.6791 -1.7765  2.7101
 1523SOL    HW216206   0.147   0.810   5.627 -0.5710 -0.2742 -0.2409
 1524SOL     OW16207   2.886   4.315   6.202 -0.6701  0.1179 -0.6757
 1524SOL    HW116208   2.914   4.238   6.250 -1.1951 -0.2958 -1.0393
 1524SOL    HW216209   2.961   4.318   6.142 -1.0904 -0.0429 -1.2073
 1525SOL     OW16210   0.116   3.404   6.652 -0.2298 -0.2686  0.2443
 1525SOL    HW116211   0.083   3.492   6.634  1.8545  0.5278  0.3325
 1525SOL    HW216212   0.167   3.396   6.572  2.3677 -0.4586  1.9321
 1526SOL     OW16213   2.920   0.958   4.009  0.0882 -0.1474  0.4694
 1526SOL    HW116214   2.908   0.957   4.104 -1.2711 -0.1635  0.2909
 1526SOL    HW216215   2.889   1.046   3.987  2.9537  1.0118  1.0616
 1527SOL     OW16216   4.502   1.106  14.438  0.1599  0.6321 -0.0327
 1527SOL    HW116217   4.512   1.059  14.355 -0.2440  1.4683 -0.5537
 1527SOL    HW216218   4.527   1.194  14.412  3.2613 -0.1167  0.4225
 1528SOL     OW16219   3.372   2.750  15.822  0.0283 -0.5584 -0.0286
 1528SOL    HW116220   3.397   2.784  15.736 -1.3929 -0.9466 -0.5904
 1528SOL    HW216221   3.406   2.661  15.813 -1.1792 -1.0252  0.0400
 1529SOL     OW16222   1.594   2.452  12.269 -0.2441 -0.5316 -0.5566
 1529SOL    HW116223   1.590   2.546  12.254  1.7386 -0.2284  0.8257
 1529SOL    HW216224   1.646   2.439  12.348 -1.4996 -0.1135  0.3455
 1530SOL     OW16225   1.632   0.304  10.962 -0.0074 -0.5082 -0.1300
 1530SOL    HW116226   1.714   0.353  10.963  0.0362 -0.5837 -0.0520
 1530SOL    HW216227   1.663   0.223  10.921 -3.6190 -1.0802 -1.7558
 1531SOL     OW16228   2.170   4.056   0.952  0.3001 -0.0598  0.1132
 1531SOL    HW116229   2.112   4.115   0.903  1.1116 -0.8715 -1.8000
 1531SOL    HW216230   2.162   4.107   1.033 -1.6850 -0.2337  0.0376
 1532SOL     OW16231   3.390   0.114   3.004 -0.1902  0.0838 -0.2115
 1532SOL    HW116232   3.450   0.046   3.036 -1.0381  0.4139  2.0915
 1532SOL    HW216233   3.429   0.188   3.051  0.3246  0.4497 -1.2075
 1533SOL     OW16234   2.428   0.859  10.223  0.0092  0.0970  0.0578
 1533SOL    HW116235   2.406   0.908  10.302  0.1437  1.2513 -0.6102
 1533SOL    HW216236   2.340   0.850  10.185  0.9594  0.6675 -2.3260
 1534SOL     OW16237   0.708   2.120   2.161  0.0261 -0.0051 -0.2818
 1534SOL    HW116238   0.795   2.149   2.187 -0.5374  2.2763 -0.9649
 1534SOL    HW216239   0.655   2.166   2.227  0.7066  1.7777 -0.9721
 1535SOL     OW16240   0.217   3.214   9.259 -0.6204  0.4329 -0.0093
 1535SOL    HW116241   0.263   3.137   9.226  1.9888  1.7913  0.5180
 1535SOL    HW216242   0.237   3.201   9.351  1.0013 -1.2117 -0.5897
 1536SOL     OW16243   2.615   2.197   6.156 -0.0484 -0.2506 -0.0274
 1536SOL    HW116244   2.683   2.263   6.143  0.1496 -0.3674  0.4047
 1536SOL    HW216245   2.664   2.133   6.209  0.9816 -0.9156 -1.7594
 1537SOL     OW16246   3.401   1.596   7.404  0.7034  0.7498  0.0451
 1537SOL    HW116247   3.453   1.662   7.451  3.7747 -0.7885 -1.1871
 1537SOL    HW216248   3.433   1.611   7.315  1.1116  1.2589  0.2769
 1538SOL     OW16249   0.730   1.442   6.142 -0.2210  0.9628 -0.1895
 1538SOL    HW116250   0.697   1.497   6.071  2.2194  0.7275 -1.5207
 1538SOL    HW216251   0.753   1.504   6.211 -0.0409  0.2870  0.3587
 1539SOL     OW16252   3.112   1.003   5.057 -0.4154  0.1358  0.0321
 1539SOL    HW116253   3.181   0.949   5.019  0.7570  3.2253 -2.2018
 1539SOL    HW216254   3.060   0.940   5.108 -0.3874  0.3941  0.3778
 1540SOL     OW16255   2.361   1.576   7.591 -0.4327 -0.4922 -0.5120
 1540SOL    HW116256   2.310   1.560   7.512 -0.9453 -2.3098  0.1802
 1540SOL    HW216257   2.408   1.493   7.587 -2.1321 -1.4719 -0.1715
 1541SOL     OW16258   0.328   2.360   6.791  0.0048  0.4127  0.7848
 1541SOL    HW116259   0.339   2.453   6.810 -1.1759  0.8217 -0.5418
 1541SOL    HW216260   0.410   2.315   6.812 -0.3108 -0.8034 -0.5877
 1542SOL     OW16261   1.078   1.961  15.064  0.6639  0.1854 -0.2938
 1542SOL    HW116262   1.034   1.949  15.148 -0.9607  0.1885 -1.1557
 1542SOL    HW216263   1.065   2.054  15.044  0.3780  0.4795  1.2937
 1543SOL     OW16264   3.500   1.786   3.016 -0.2662 -0.4309  0.1746
 1543SOL    HW116265   3.434   1.840   2.972  0.3646 -2.2378 -2.9843
 1543SOL    HW216266   3.508   1.708   2.961 -0.9968 -0.6692  0.4011
 1544SOL     OW16267   2.718   4.301   3.393 -0.1293 -0.5380  0.5873
 1544SOL    HW116268   2.636   4.301   3.443 -0.6295 -1.4555 -0.2237
 1544SOL    HW216269   2.772   4.345   3.459  0.2517 -2.0080  1.2351
 1545SOL     OW16270   4.277   1.427   2.638 -0.1120  0.5216  0.0235
 1545SOL    HW116271   4.362   1.471   2.639 -0.2764  0.8153  1.0483
 1545SOL    HW216272   4.262   1.399   2.547 -0.9392 -1.8876  0.9056
 1546SOL     OW16273   0.647   1.530  10.118 -0.0271 -0.1629 -0.2060
 1546SOL    HW116274   0.669   1.437  10.118 -0.3513 -0.2500  1.4063
 1546SOL    HW216275   0.555   1.521  10.140  0.0613 -1.0960 -0.2405
 1547SOL     OW16276   1.180   3.339  12.492 -0.3373 -0.7508  0.6162
 1547SOL    HW116277   1.241   3.312  12.560  0.0202 -0.3284  0.4599
 1547SOL    HW216278   1.094   3.326  12.532 -1.0522  3.2700  0.3450
 1548SOL     OW16279   4.588   3.815   4.313  0.0107  0.0515 -0.5472
 1548SOL    HW116280   4.493   3.817   4.317  0.0326  2.6124 -1.3434
 1548SOL    HW216281   4.605   3.788   4.222  0.8405  0.8816 -0.6325
 1549SOL     OW16282   3.650   4.438  12.292 -0.1419 -0.4357  0.7463
 1549SOL    HW116283   3.740   4.442  12.323  0.2326  1.6151 -0.5772
 1549SOL    HW216284   3.603   4.455  12.373  1.4802  0.5058  1.4856
 1550SOL     OW16285   0.810   1.320   7.562  0.8219 -0.6985 -0.0390
 1550SOL    HW116286   0.751   1.303   7.635 -1.2204 -0.5511 -1.6324
 1550SOL    HW216287   0.773   1.274   7.486 -0.7770  0.4507  0.0447
 1551SOL     OW16288   4.078   4.446   5.448 -0.1862  0.3846  0.0743
 1551SOL    HW116289   4.100   4.492   5.529  0.3434 -0.7373  0.5650
 1551SOL    HW216290   4.107   4.509   5.381 -2.3833 -0.6836 -1.8788
 1552SOL     OW16291   4.625   4.720   4.854 -0.1427  0.1028  0.0611
 1552SOL    HW116292   4.544   0.008   4.897  2.3913  1.7095  3.7534
 1552SOL    HW216293   4.678   4.689   4.927  0.5902 -1.0346 -0.9612
 1553SOL     OW16294   4.270   1.311   9.785  0.5623  0.1002  0.1561
 1553SOL    HW116295   4.298   1.242   9.845 -1.3826 -0.0215  0.9336
 1553SOL    HW216296   4.247   1.384   9.843 -2.6325  1.0925 -2.3373
 1554SOL     OW16297   3.682   1.428   9.959  0.0603  0.0683  0.0175
 1554SOL    HW116298   3.750   1.474  10.007  2.2802 -0.8684 -2.2394
 1554SOL    HW216299   3.614   1.440  10.026 -0.7360 -0.5098 -0.6803
 1555SOL     OW16300   1.420   2.290  12.164 -0.4220 -0.5201 -0.5442
 1555SOL    HW116301   1.498   2.339  12.192 -0.6260 -1.6347  1.8722
 1555SOL    HW216302   1.371   2.308  12.244 -1.0387 -1.2503 -0.7601
 1556SOL     OW16303   0.411   0.146   9.749 -0.4085  0.5125 -0.3914
 1556SOL    HW116304   0.475   0.119   9.814  0.9768  2.4414 -0.9396
 1556SOL    HW216305   0.396   0.069   9.694  1.7761 -0.4147  0.2967
 1557SOL     OW16306   2.436   1.442   9.205 -0.3845  0.2048 -0.0160
 1557SOL    HW116307   2.512   1.417   9.258 -2.1592 -1.5708  1.7036
 1557SOL    HW216308   2.442   1.537   9.196 -1.8065  0.5775  3.0331
 1558SOL     OW16309   4.428   2.652   9.456 -0.0469  0.0950  0.5240
 1558SOL    HW116310   4.373   2.726   9.429  1.8936  0.5083 -2.1831
 1558SOL    HW216311   4.469   2.640   9.371 -0.0029 -2.3166  0.8940
 1559SOL     OW16312   3.104   2.604   2.155 -0.0081  0.1122 -0.0833
 1559SOL    HW116313   3.010   2.608   2.143  0.0098  1.0851  0.1469
 1559SOL    HW216314   3.102   2.579   2.248 -0.3715  0.4835  0.0065
 1560SOL     OW16315   1.948   0.670  13.446  0.0076  0.0129 -0.1692
 1560SOL    HW116316   1.883   0.737  13.425 -0.3759 -0.4949 -0.6010
 1560SOL    HW216317   1.909   0.607  13.386  2.0972  1.4045 -3.0028
 1561SOL     OW16318   0.439   2.934  17.535 -0.3520 -0.4437  0.4690
 1561SOL    HW116319   0.468   2.843  17.539 -1.0165 -0.6255  1.1207
 1561SOL    HW216320   0.419   2.951  17.627 -0.2450  0.7725  0.2658
 1562SOL     OW16321   2.025   4.534   5.768  0.6118  0.0434  0.2055
 1562SOL    HW116322   2.035   4.536   5.673 -1.2077 -2.7961 -0.0245
 1562SOL    HW216323   2.033   4.628   5.786 -4.3670  0.5324 -0.2679
 1563SOL     OW16324   1.520   4.522   0.847 -0.3856 -0.2449  0.6251
 1563SOL    HW116325   1.544   4.544   0.757 -0.6796  2.1968  1.1376
 1563SOL    HW216326   1.536   4.602   0.898  0.1468  2.0908 -3.1780
 1564SOL     OW16327   4.082   0.352  15.907 -0.2458  0.2774 -0.2750
 1564SOL    HW116328   4.054   0.443  15.921 -0.8197 -0.0637  0.8739
 1564SOL    HW216329   4.168   0.344  15.948 -1.2334  0.6682  1.8862
 1565SOL     OW16330   3.122   1.492   0.811  0.1847  0.4458 -0.2129
 1565SOL    HW116331   3.110   1.403   0.779 -1.4942  0.9579 -1.0053
 1565SOL    HW216332   3.144   1.479   0.903  2.0094 -0.7827 -0.8366
 1566SOL     OW16333   3.231   4.622   6.276  0.2960  0.1446 -0.2151
 1566SOL    HW116334   3.308   4.640   6.330 -0.1859 -1.0565  0.8901
 1566SOL    HW216335   3.166   4.636   6.345  2.9334  4.6394  1.3173
 1567SOL     OW16336   3.925   3.131   4.937  0.0786 -0.1123 -0.1595
 1567SOL    HW116337   3.915   3.058   4.876 -2.0373  1.2116 -1.4200
 1567SOL    HW216338   3.858   3.192   4.905 -0.4367 -0.6876 -0.1818
 1568SOL     OW16339   2.145   3.830   0.140  0.0284 -0.3328  0.3964
 1568SOL    HW116340   2.107   3.896   0.198  0.2126  1.3872 -1.4368
 1568SOL    HW216341   2.178   3.764   0.201 -0.5470  0.4602  1.5724
 1569SOL     OW16342   4.547   1.363   6.987 -0.0981  0.5748 -0.8426
 1569SOL    HW116343   4.470   1.392   7.036  0.9969 -0.2015  1.3199
 1569SOL    HW216344   4.542   1.426   6.915 -0.4128  0.0437 -1.2896
 1570SOL     OW16345   4.141   1.658   8.749 -0.3504 -0.5592  0.2232
 1570SOL    HW116346   4.151   1.565   8.770 -0.9161 -0.3646  1.3510
 1570SOL    HW216347   4.210   1.667   8.683 -0.4189 -1.7755 -0.0246
 1571SOL     OW16348   2.636   3.872   6.789 -0.0767 -0.2232  0.3559
 1571SOL    HW116349   2.561   3.860   6.849 -1.4484  0.8028 -1.1614
 1571SOL    HW216350   2.704   3.916   6.840  0.4806  0.1901 -0.7492
 1572SOL     OW16351   3.111   4.422   4.458 -0.2610  0.5636 -0.1384
 1572SOL    HW116352   3.034   4.406   4.403 -1.0447 -2.1742  1.7529
 1572SOL    HW216353   3.135   4.508   4.423 -0.0173  0.7365  0.4498
 1573SOL     OW16354   2.283   4.119   0.430 -0.4057  0.6255  0.3993
 1573SOL    HW116355   2.296   4.205   0.469  1.1349  1.1285 -1.2373
 1573SOL    HW216356   2.194   4.125   0.394 -0.3746 -0.3962  0.1587
 1574SOL     OW16357   0.303   1.676   0.186  0.2027  0.6639 -0.1945
 1574SOL    HW116358   0.283   1.641   0.273 -1.1544  0.4537 -0.5814
 1574SOL    HW216359   0.392   1.709   0.198 -0.2306  0.0444  4.7339
 1575SOL     OW16360   0.567   2.194   8.063  0.2547 -0.2492 -0.7618
 1575SOL    HW116361   0.601   2.107   8.044  0.5131 -0.6084  1.2796
 1575SOL    HW216362   0.632   2.256   8.098  1.1971 -0.9598 -1.2737
 1576SOL     OW16363   0.616   2.101   4.104  0.9246  0.3334  0.1983
 1576SOL    HW116364   0.565   2.076   4.180  2.9688 -1.6499  0.9108
 1576SOL    HW216365   0.549   2.097   4.036  0.1394  2.6409  0.8220
 1577SOL     OW16366   1.131   2.656   3.710 -0.2523  0.1486  0.4346
 1577SOL    HW116367   1.192   2.730   3.706  0.4040 -0.3393  1.5143
 1577SOL    HW216368   1.097   2.686   3.794  0.6872  0.8397  0.5606
 1578SOL     OW16369   3.496   0.746   7.287 -0.6821 -0.2714  0.0737
 1578SOL    HW116370   3.430   0.677   7.279  0.1245 -0.7276 -2.3302
 1578SOL    HW216371   3.560   0.705   7.346 -0.3563 -0.3707 -0.3555
 1579SOL     OW16372   0.638   4.196   1.842  0.0059  0.3034 -0.3303
 1579SOL    HW116373   0.586   4.117   1.848  1.7134 -1.0255 -3.0775
 1579SOL    HW216374   0.613   4.236   1.758  1.2673 -4.3064 -2.8607
 1580SOL     OW16375   3.555   2.001   4.881  0.0631 -0.1020 -0.3066
 1580SOL    HW116376   3.559   1.956   4.965  1.8840  0.3681 -0.1548
 1580SOL    HW216377   3.461   1.998   4.864  0.2500  0.0597 -1.4041
 1581SOL     OW16378   3.141   0.522  13.725  0.0045  0.0426 -0.0543
 1581SOL    HW116379   3.156   0.605  13.771  0.0300 -0.5804  1.0596
 1581SOL    HW216380   3.096   0.464  13.787  0.2316 -2.0097 -1.8222
 1582SOL     OW16381   0.695   4.224   7.094 -0.3332 -0.0351  0.0983
 1582SOL    HW116382   0.669   4.245   7.184 -3.3153 -0.9420 -0.5613
 1582SOL    HW216383   0.721   4.134   7.112  0.3487  0.3286  0.9666
 1583SOL     OW16384   3.412   0.498   5.396 -0.1812  0.1497  0.0471
 1583SOL    HW116385   3.334   0.548   5.416  0.2351  0.1131  1.7345
 1583SOL    HW216386   3.450   0.545   5.322 -0.6698 -1.9759 -1.5694
 1584SOL     OW16387   0.237   0.375   9.644  0.1763  0.3310  0.2585
 1584SOL    HW116388   0.280   0.302   9.689 -0.4721  1.3781  2.5737
 1584SOL    HW216389   0.309   0.434   9.625  1.1519 -1.2902 -1.0958
 1585SOL     OW16390   1.090   0.571  11.794  0.0907 -0.2958  0.1381
 1585SOL    HW116391   1.156   0.544  11.730  1.2854 -0.4291  1.4453
 1585SOL    HW216392   1.023   0.509  11.762  0.7564 -1.3111  0.6979
 1586SOL     OW16393   4.086   0.912   1.643  0.4401  0.2985 -0.1633
 1586SOL    HW116394   4.160   0.972   1.634  0.2705  0.4691 -0.4414
 1586SOL    HW216395   4.016   0.954   1.692 -0.3386 -1.1767 -0.0089
 1587SOL     OW16396   3.711   1.045  13.824  0.5130 -0.7887  0.2183
 1587SOL    HW116397   3.777   1.017  13.887  0.9143  0.1515  0.2132
 1587SOL    HW216398   3.628   1.057  13.871  0.3914 -0.3187 -0.1063
 1588SOL     OW16399   2.285   4.095  12.331 -0.7732 -0.2195 -0.2639
 1588SOL    HW116400   2.211   4.044  12.298 -0.9545  0.1999 -0.5181
 1588SOL    HW216401   2.345   4.110  12.257 -0.6821  0.7643  0.0015
 1589SOL     OW16402   0.327   1.080   9.581 -0.1755  0.0145 -0.0596
 1589SOL    HW116403   0.287   1.163   9.607 -0.2488 -0.2190  0.5718
 1589SOL    HW216404   0.257   1.015   9.587  0.0950 -0.2061  0.7140
 1590SOL     OW16405   4.552   3.787   3.626 -0.4235 -0.1712  0.2594
 1590SOL    HW116406   4.569   3.865   3.680 -0.3285 -0.7357  1.0410
 1590SOL    HW216407   4.624   3.800   3.564 -0.3699  1.9348  0.7455
 1591SOL     OW16408   3.662   4.276   1.852  0.3562 -0.3130 -0.3675
 1591SOL    HW116409   3.584   4.331   1.860  1.4521  0.9666  1.5284
 1591SOL    HW216410   3.636   4.213   1.785 -0.2374  0.7951 -1.1747
 1592SOL     OW16411   0.473   3.133   3.846 -0.3961  0.0917 -1.1320
 1592SOL    HW116412   0.489   3.137   3.941 -1.9111 -0.7004 -0.8500
 1592SOL    HW216413   0.400   3.071   3.848  1.1490 -1.6653  0.3435
 1593SOL     OW16414   3.215   1.721  10.785  0.3444  0.2973 -0.1603
 1593SOL    HW116415   3.171   1.764  10.858  0.2953 -0.2272  0.1150
 1593SOL    HW216416   3.244   1.637  10.820 -0.5677 -0.6029 -1.5766
 1594SOL     OW16417   2.928   0.219   8.638 -0.5771  0.3651 -0.8006
 1594SOL    HW116418   2.919   0.157   8.711 -1.8217  1.8373  0.2869
 1594SOL    HW216419   2.954   0.301   8.679  1.1258  1.0428 -3.2486
 1595SOL     OW16420   1.039   3.679   0.695 -0.4574  0.2160  0.3301
 1595SOL    HW116421   1.039   3.759   0.642  1.5651  0.9193  1.3609
 1595SOL    HW216422   1.086   3.721   0.768 -0.4027 -2.2758  1.7100
 1596SOL     OW16423   3.879   1.440   3.851  0.0690  0.5107  0.7094
 1596SOL    HW116424   3.825   1.365   3.828  0.3589  0.3632  0.5037
 1596SOL    HW216425   3.941   1.403   3.914 -0.5142  0.2764  1.1424
 1597SOL     OW16426   3.824   3.927  14.010 -0.8914 -0.1549  0.4543
 1597SOL    HW116427   3.886   3.996  14.033 -1.0491  0.0497  0.2647
 1597SOL    HW216428   3.885   3.853  14.019 -1.5511 -0.8928 -1.0577
 1598SOL     OW16429   1.534   1.172  17.112 -0.3635 -0.0269 -0.0799
 1598SOL    HW116430   1.577   1.097  17.153 -2.9303 -0.6025  1.5838
 1598SOL    HW216431   1.538   1.134  17.025 -1.1327  2.1409 -1.0612
 1599SOL     OW16432   4.629   0.301   9.269 -0.0653  0.2053 -0.1274
 1599SOL    HW116433   4.675   0.332   9.346 -0.9463  1.6655 -0.1846
 1599SOL    HW216434   4.670   0.354   9.200 -0.6578  3.2258  1.8066
 1600SOL     OW16435   0.310   3.160   5.827 -0.4441  0.0471 -0.3263
 1600SOL    HW116436   0.299   3.174   5.733  2.6013  0.5236 -0.6340
 1600SOL    HW216437   0.398   3.122   5.823  0.6826  2.5963  0.1605
 1601SOL     OW16438   2.075   3.955  12.190  0.0875 -0.3437  0.1221
 1601SOL    HW116439   2.002   3.900  12.219 -0.6342  0.3946 -0.2984
 1601SOL    HW216440   2.032   4.011  12.126 -0.4532  0.9106  1.5783
 1602SOL     OW16441   0.135   3.874   3.849 -0.2248  0.3574 -0.2124
 1602SOL    HW116442   0.043   3.856   3.829 -0.7694  1.1922  1.5501
 1602SOL    HW216443   0.161   3.903   3.761 -0.0565  0.3943 -0.1504
 1603SOL     OW16444   0.141   1.966   9.905 -0.4117  0.3998  0.4818
 1603SOL    HW116445   0.213   2.030   9.899 -1.3217  1.2711 -1.1449
 1603SOL    HW216446   0.179   1.893   9.857  0.9379  0.8089  0.9247
 1604SOL     OW16447   2.670   2.245   6.534  0.1444 -0.0841  0.3238
 1604SOL    HW116448   2.624   2.321   6.499  3.4334  1.2574 -1.1043
 1604SOL    HW216449   2.722   2.284   6.605 -1.3693 -1.4028  2.1605
 1605SOL     OW16450   2.575   4.243   9.716 -0.2203 -0.0627  0.2235
 1605SOL    HW116451   2.577   4.335   9.740  1.6247  0.0213 -0.2342
 1605SOL    HW216452   2.666   4.233   9.686 -0.7821 -0.6908 -1.3077
 1606SOL     OW16453   1.124   1.806   6.601  0.1106 -0.5357 -0.3237
 1606SOL    HW116454   1.186   1.831   6.533  0.7691 -1.0823  0.0839
 1606SOL    HW216455   1.105   1.720   6.563  1.3951 -1.2916  0.7743
 1607SOL     OW16456   2.762   0.522   6.917  0.5845 -0.2273 -0.5036
 1607SOL    HW116457   2.726   0.541   6.831 -0.0255 -0.8675 -0.3907
 1607SOL    HW216458   2.744   0.610   6.953  0.0853 -0.0579 -1.1817
 1608SOL     OW16459   2.555   0.239   0.988 -0.0548 -0.3616  0.2750
 1608SOL    HW116460   2.551   0.334   0.981  1.5452 -0.3427 -0.2464
 1608SOL    HW216461   2.644   0.212   0.966 -0.5006 -1.8796  0.2822
 1609SOL     OW16462   0.478   3.454   6.060 -0.0409 -0.4368 -0.0170
 1609SOL    HW116463   0.427   3.392   6.112  1.2030  0.9296  2.8320
 1609SOL    HW216464   0.414   3.470   5.990  1.7614 -1.1713 -1.8236
 1610SOL     OW16465   3.307   3.961  16.501 -0.0710  0.0918  0.1864
 1610SOL    HW116466   3.242   3.947  16.571 -0.0499 -2.7308 -0.3695
 1610SOL    HW216467   3.315   3.872  16.467  0.9150  0.4708 -0.5535
 1611SOL     OW16468   2.194   3.635   8.748 -0.4729  0.3857 -0.0700
 1611SOL    HW116469   2.263   3.665   8.806 -0.9664  0.4806  0.4763
 1611SOL    HW216470   2.257   3.597   8.687  0.5833  0.3204  1.0658
 1612SOL     OW16471   3.016   0.580   4.934  0.4889  0.2211  0.0328
 1612SOL    HW116472   3.006   0.650   4.870  0.9041  1.6600  1.5444
 1612SOL    HW216473   3.087   0.531   4.892 -0.4057 -1.8960  0.9680
 1613SOL     OW16474   2.638   2.283  13.327  0.0551 -0.0811  0.4119
 1613SOL    HW116475   2.656   2.356  13.387  1.1418 -0.6349  0.7555
 1613SOL    HW216476   2.626   2.210  13.388  1.6554 -0.2589  0.5127
 1614SOL     OW16477   1.893   4.246   9.284  0.2743  0.4655  0.3501
 1614SOL    HW116478   1.839   4.173   9.315 -0.4139  0.2851 -1.2465
 1614SOL    HW216479   1.974   4.231   9.332 -0.2954  0.4508  1.3069
 1615SOL     OW16480   2.521   2.400   5.301 -0.4236  0.3616  0.1162
 1615SOL    HW116481   2.452   2.453   5.261 -1.8007  0.5205  2.7420
 1615SOL    HW216482   2.494   2.309   5.292 -1.1191  0.5560  0.2522
 1616SOL     OW16483   2.641   2.317   8.595 -0.1479 -0.4878  0.0952
 1616SOL    HW116484   2.716   2.273   8.557 -1.1125 -1.6830 -0.4304
 1616SOL    HW216485   2.687   2.349   8.672  0.5588 -1.7046  0.1831
 1617SOL     OW16486   2.586   0.996   1.957 -0.0011 -0.0461 -0.7160
 1617SOL    HW116487   2.554   0.930   1.896 -1.4720 -0.6018  0.6554
 1617SOL    HW216488   2.528   1.066   1.929  3.1579  1.0503 -4.4259
 1618SOL     OW16489   2.795   2.576  17.002  0.3879 -0.5773 -0.2778
 1618SOL    HW116490   2.858   2.507  17.025  0.2408 -0.6740 -0.1670
 1618SOL    HW216491   2.808   2.642  17.070 -4.3527  0.6022 -0.5343
 1619SOL     OW16492   2.243   1.276   1.672  0.5938 -0.0471 -0.4728
 1619SOL    HW116493   2.169   1.304   1.618 -2.1681 -0.5239  3.0436
 1619SOL    HW216494   2.207   1.305   1.756  4.0299  0.6814  0.7805
 1620SOL     OW16495   4.521   0.089   7.653  0.2535  0.2757 -1.1160
 1620SOL    HW116496   4.570   0.157   7.608 -1.2912  1.0167 -1.6745
 1620SOL    HW216497   4.441   0.085   7.601 -0.3232 -0.2504 -0.2073
 1621SOL     OW16498   3.487   3.933   1.514  0.2678  0.9361 -0.3493
 1621SOL    HW116499   3.460   3.845   1.539  1.3944  1.4604  2.7823
 1621SOL    HW216500   3.407   3.985   1.527 -0.6235 -1.1917  2.5950
 1622SOL     OW16501   2.203   2.224  15.158  0.2613 -0.2912  0.5636
 1622SOL    HW116502   2.217   2.307  15.112  0.5122 -0.9612 -0.5865
 1622SOL    HW216503   2.111   2.204  15.146 -0.0325  1.7588 -0.6073
 1623SOL     OW16504   3.917   3.526  10.847  1.2416  0.0150 -0.1089
 1623SOL    HW116505   3.888   3.617  10.855  1.1103 -0.2210  2.2477
 1623SOL    HW216506   3.875   3.505  10.764 -0.7859 -0.8286  1.1357
 1624SOL     OW16507   0.334   1.661   4.663  0.0697  0.1299  0.3707
 1624SOL    HW116508   0.286   1.719   4.723 -0.2932 -0.3089  0.5050
 1624SOL    HW216509   0.422   1.697   4.673 -0.2109  0.8691  0.1815
 1625SOL     OW16510   0.709   3.998   6.542 -0.3314 -0.3300 -0.4882
 1625SOL    HW116511   0.679   3.978   6.453 -1.4594 -1.3799  0.1332
 1625SOL    HW216512   0.704   4.094   6.545 -0.2087 -0.3186 -0.6301
 1626SOL     OW16513   4.315   2.341   7.676 -0.0030  0.0420 -0.4840
 1626SOL    HW116514   4.270   2.352   7.592 -1.4656  0.9959  0.4146
 1626SOL    HW216515   4.328   2.246   7.675 -0.2676  0.0099 -0.7895
 1627SOL     OW16516   2.670   2.864   4.137  0.3267 -0.0438  0.2635
 1627SOL    HW116517   2.585   2.876   4.178 -0.3607  0.3366 -1.2710
 1627SOL    HW216518   2.677   2.769   4.150  0.3450 -0.0191  0.4235
 1628SOL     OW16519   4.000   3.661   3.683 -0.0421  0.2498 -0.2018
 1628SOL    HW116520   4.073   3.678   3.623  1.2886 -1.0561  1.0208
 1628SOL    HW216521   3.932   3.633   3.623 -1.5423  1.0346  1.1401
 1629SOL     OW16522   4.011   1.423   8.301 -0.0238  0.0326 -0.4008
 1629SOL    HW116523   3.961   1.496   8.338 -2.1399 -1.2654 -0.7076
 1629SOL    HW216524   3.966   1.421   8.217  0.0662 -0.0591 -0.4461
 1630SOL     OW16525   1.754   0.749   0.188 -0.6069 -0.0456  0.5994
 1630SOL    HW116526   1.726   0.832   0.227 -0.1209  1.1111 -1.4943
 1630SOL    HW216527   1.668   0.710   0.201 -1.0571  0.8596  0.3966
 1631SOL     OW16528   2.049   3.073  16.364  0.4017 -0.1780  0.1293
 1631SOL    HW116529   2.094   3.118  16.292 -0.7563  0.8134  0.0235
 1631SOL    HW216530   2.092   3.105  16.443 -1.1023 -0.0027  0.8780
 1632SOL     OW16531   1.373   2.082   4.001  0.8211  0.0073 -0.8574
 1632SOL    HW116532   1.393   2.046   4.087  0.7645 -2.8569 -2.0449
 1632SOL    HW216533   1.284   2.052   3.980  0.6391 -0.3901  0.4686
 1633SOL     OW16534   4.605   1.045  16.031  0.3857 -0.3286 -0.0238
 1633SOL    HW116535   4.601   0.958  16.071  0.0987 -1.6113 -2.8580
 1633SOL    HW216536   4.543   1.096  16.082  0.3847 -0.8172  0.4712
 1634SOL     OW16537   4.718   2.611   5.411  0.0504 -0.5013 -0.3415
 1634SOL    HW116538   0.028   2.589   5.332 -1.3435  1.7049 -1.8501
 1634SOL    HW216539   4.725   2.534   5.468 -0.9346 -0.9126 -0.7743
 1635SOL     OW16540   2.152   3.943  13.500 -0.1465 -0.1104 -0.2338
 1635SOL    HW116541   2.087   3.876  13.523 -0.4775 -0.3591 -1.9244
 1635SOL    HW216542   2.153   3.923  13.407 -0.3341  0.6468 -0.3922
 1636SOL     OW16543   3.687   4.288  14.003 -0.1486 -0.2084  0.3663
 1636SOL    HW116544   3.627   4.353  14.040 -0.7539 -0.2801 -0.5188
 1636SOL    HW216545   3.716   4.341  13.930 -1.3924  1.0876  0.8095
 1637SOL     OW16546   0.223   0.007  12.330 -0.0941  0.5110  0.3875
 1637SOL    HW116547   0.153   0.066  12.356  1.1995  2.7146 -1.0698
 1637SOL    HW216548   0.279   0.071  12.283 -1.9712  1.7199 -0.2006
 1638SOL     OW16549   2.761   2.379  14.022 -0.4722  0.6286  0.0231
 1638SOL    HW116550   2.724   2.428  14.096 -2.3895  1.2454 -1.3182
 1638SOL    HW216551   2.679   2.349  13.982 -0.6677  1.1237  0.0525
 1639SOL     OW16552   3.090   0.859   1.931  0.0643 -0.0130 -0.1052
 1639SOL    HW116553   3.069   0.847   2.023  0.0316  1.7479  0.1220
 1639SOL    HW216554   3.018   0.918   1.908 -0.4044 -0.7269 -0.4967
 1640SOL     OW16555   1.167   4.437   2.364 -0.2205 -0.0096 -0.5299
 1640SOL    HW116556   1.140   4.527   2.383 -1.9450 -1.0944  2.1657
 1640SOL    HW216557   1.222   4.454   2.288  0.2906  0.5711 -0.0358
 1641SOL     OW16558   3.341   3.082  15.790 -0.1331  0.0756  0.0149
 1641SOL    HW116559   3.360   3.019  15.721 -0.7472 -1.0779  0.9093
 1641SOL    HW216560   3.398   3.045  15.858  0.1204  0.8120  0.2104
 1642SOL     OW16561   2.785   1.534   4.249  0.0024  0.1580 -0.5196
 1642SOL    HW116562   2.793   1.619   4.294  2.8409  0.1332 -1.0032
 1642SOL    HW216563   2.738   1.483   4.314 -0.6776  1.2730 -0.1318
 1643SOL     OW16564   1.071   3.859   4.610 -0.6941 -0.5397  0.4152
 1643SOL    HW116565   1.068   3.786   4.672 -1.0739  0.6716  1.8111
 1643SOL    HW216566   1.086   3.935   4.667  1.3747 -2.0777  1.9336
 1644SOL     OW16567   4.415   2.004   5.871 -0.3858  0.4725  1.1615
 1644SOL    HW116568   4.458   2.085   5.899  3.0059 -1.4140  1.4682
 1644SOL    HW216569   4.329   2.040   5.892 -1.5363 -0.2718 -2.2721
 1645SOL     OW16570   2.146   0.685   8.981  0.3152  0.3907 -0.1139
 1645SOL    HW116571   2.164   0.680   8.887 -3.9409  1.4112 -1.0004
 1645SOL    HW216572   2.229   0.705   9.024 -0.2658  0.2217  1.0791
 1646SOL     OW16573   3.178   0.608   5.424  0.1195  0.5533 -0.4430
 1646SOL    HW116574   3.122   0.533   5.446  0.6942  0.1078 -0.4875
 1646SOL    HW216575   3.115   0.680   5.421 -2.7429 -1.8872  0.9333
 1647SOL     OW16576   2.085   0.247  14.326  0.4184  0.0486 -0.1875
 1647SOL    HW116577   2.003   0.276  14.367  0.9712 -0.7927  1.4948
 1647SOL    HW216578   2.145   0.310  14.368  1.0132 -0.5810 -0.0866
 1648SOL     OW16579   0.132   0.764   3.651  0.1757 -0.2483  0.9408
 1648SOL    HW116580   0.161   0.786   3.562  0.1175  1.0054  1.2292
 1648SOL    HW216581   0.129   0.855   3.681  0.0388 -0.1494  0.6318
 1649SOL     OW16582   1.771   3.246   4.077 -0.4508  0.0157  0.1498
 1649SOL    HW116583   1.720   3.169   4.054 -0.1369  0.0137 -0.5311
 1649SOL    HW216584   1.734   3.312   4.018  1.1708 -0.1221 -1.0314
 1650SOL     OW16585   2.493   1.881   7.571 -0.2698  0.0334 -0.1322
 1650SOL    HW116586   2.412   1.913   7.610 -0.6533 -2.5156  1.1546
 1650SOL    HW216587   2.478   1.868   7.477 -1.2465  1.7298 -0.1952
 1651SOL     OW16588   1.747   3.867   9.839 -0.4676  0.2823 -0.2123
 1651SOL    HW116589   1.831   3.912   9.833 -0.4843  0.1721 -1.2460
 1651SOL    HW216590   1.728   3.842   9.749  0.5459 -0.3544 -0.2436
 1652SOL     OW16591   2.485   2.640   2.643 -0.5707  0.1120  0.2646
 1652SOL    HW116592   2.409   2.597   2.683  0.0863 -0.6846  0.6555
 1652SOL    HW216593   2.447   2.693   2.573  0.0369  1.4637  0.9641
 1653SOL     OW16594   3.705   4.257   0.091  0.3984 -0.1672  0.0108
 1653SOL    HW116595   3.726   4.348   0.114 -1.0190  0.3255 -0.6714
 1653SOL    HW216596   3.739   4.253   0.002  0.8266 -3.7918  0.3412
 1654SOL     OW16597   2.152   2.286   6.879 -0.2189 -0.4639 -0.2093
 1654SOL    HW116598   2.193   2.282   6.793  0.4772 -0.4377  0.1292
 1654SOL    HW216599   2.073   2.339   6.868  0.2953  0.4233  0.4135
 1655SOL     OW16600   3.694   2.744   2.539  0.8909  0.0964 -0.4111
 1655SOL    HW116601   3.790   2.742   2.540  0.8936 -0.7669 -1.9769
 1655SOL    HW216602   3.680   2.817   2.479 -2.1096 -0.6307 -0.5967
 1656SOL     OW16603   4.038   0.969   5.398  0.8202 -0.3951  0.0591
 1656SOL    HW116604   4.000   0.904   5.457 -0.1739  0.1833  0.0652
 1656SOL    HW216605   3.972   1.035   5.419  1.1613  0.3388 -1.1852
 1657SOL     OW16606   2.308   3.593   2.133 -0.0536 -0.5790  0.3590
 1657SOL    HW116607   2.372   3.544   2.080 -0.3163 -1.1418  0.5604
 1657SOL    HW216608   2.372   3.638   2.188  2.6784 -5.2909  1.1108
 1658SOL     OW16609   1.978   0.835  17.540 -0.6091  0.4317  0.0448
 1658SOL    HW116610   1.977   0.914  17.594 -0.8936 -0.3338  1.1501
 1658SOL    HW216611   1.958   0.772  17.610 -0.1646  0.6979  0.4124
 1659SOL     OW16612   4.033   3.912   2.417 -0.1838  0.1602 -0.2548
 1659SOL    HW116613   3.989   3.835   2.380  0.3246 -0.7813  1.1450
 1659SOL    HW216614   3.963   3.978   2.426 -0.0617  0.8418 -4.3354
 1660SOL     OW16615   3.304   3.423   2.567 -0.5768  0.1488 -0.3671
 1660SOL    HW116616   3.313   3.329   2.579 -0.4261  0.2418  0.2395
 1660SOL    HW216617   3.386   3.459   2.600 -1.1972  0.9430  0.3217
 1661SOL     OW16618   1.378   3.544   3.334  0.2714  0.1035  0.0858
 1661SOL    HW116619   1.354   3.637   3.328 -2.3268 -0.6078 -0.4346
 1661SOL    HW216620   1.304   3.509   3.284 -0.4267  0.7649  0.6427
 1662SOL     OW16621   2.732   2.786   7.156 -0.4020  0.3716 -0.5189
 1662SOL    HW116622   2.809   2.781   7.100 -0.3082  2.3026 -0.5572
 1662SOL    HW216623   2.712   2.693   7.158 -1.2258  0.5374 -0.8719
 1663SOL     OW16624   1.546   3.737   2.496  0.6845 -0.0067 -0.4213
 1663SOL    HW116625   1.472   3.762   2.552  0.3116 -1.6841 -0.1687
 1663SOL    HW216626   1.565   3.649   2.529 -0.9921 -1.3394 -3.0063
 1664SOL     OW16627   0.777   1.859  13.455 -0.5717 -0.2438  0.3657
 1664SOL    HW116628   0.731   1.792  13.405 -0.3194  0.3971 -0.7211
 1664SOL    HW216629   0.705   1.902  13.500 -0.1077 -0.6564  1.5088
 1665SOL     OW16630   0.726   2.284   8.776 -0.3366  0.1875 -0.5536
 1665SOL    HW116631   0.724   2.201   8.730 -1.8288 -1.2798  2.1513
 1665SOL    HW216632   0.704   2.255   8.865 -0.2374  0.4195 -0.4535
 1666SOL     OW16633   0.303   1.152   8.938 -0.0474  0.0445  0.3128
 1666SOL    HW116634   0.303   1.171   9.032 -0.7120  0.7782  0.1606
 1666SOL    HW216635   0.288   1.244   8.916  0.6140  0.1810  0.4078
 1667SOL     OW16636   3.269   4.273  15.656 -0.2493  0.6680  0.3180
 1667SOL    HW116637   3.325   4.228  15.594  0.3380  0.5594  0.9267
 1667SOL    HW216638   3.234   4.191  15.690  1.0079  0.0594  0.1615
 1668SOL     OW16639   3.827   3.750   6.685 -0.4146  0.1774 -0.1135
 1668SOL    HW116640   3.854   3.788   6.769  1.0374 -1.7370  0.2844
 1668SOL    HW216641   3.903   3.695   6.666 -0.7662  0.5479 -2.5518
 1669SOL     OW16642   2.379   4.587   9.656 -0.1163 -0.1589 -0.0403
 1669SOL    HW116643   2.359   4.570   9.563 -1.2737 -1.0489  0.3657
 1669SOL    HW216644   2.304   4.543   9.696 -1.9821  2.8559 -0.1696
 1670SOL     OW16645   2.652   2.307  11.663 -0.2805  0.2135 -0.1688
 1670SOL    HW116646   2.657   2.300  11.758 -0.3002 -0.3396 -0.2079
 1670SOL    HW216647   2.620   2.395  11.643 -0.5843  0.3231  0.8164
 1671SOL     OW16648   4.320   1.327   3.338  0.2073  0.1085 -0.2514
 1671SOL    HW116649   4.287   1.260   3.278 -0.2452 -1.5194  1.8198
 1671SOL    HW216650   4.347   1.386   3.268  1.6757  1.2887  1.2944
 1672SOL     OW16651   1.118   2.173   3.126  0.5476  0.0487  0.8002
 1672SOL    HW116652   1.074   2.088   3.119  1.7865 -0.7909  3.5341
 1672SOL    HW216653   1.150   2.168   3.216 -0.3655 -0.8693  1.0744
 1673SOL     OW16654   1.690   3.228   1.757 -0.5633  0.0066 -0.0625
 1673SOL    HW116655   1.741   3.189   1.828 -0.6153 -0.9358 -0.5366
 1673SOL    HW216656   1.727   3.316   1.763  0.4152 -0.4706  0.7035
 1674SOL     OW16657   2.255   1.633   3.412  0.1469 -0.0809  0.6179
 1674SOL    HW116658   2.239   1.539   3.419 -1.4161  0.1968  0.7689
 1674SOL    HW216659   2.267   1.663   3.502 -0.3210 -0.3432  0.7687
 1675SOL     OW16660   4.280   4.020   2.406  0.2116  0.2879 -0.0454
 1675SOL    HW116661   4.201   3.967   2.415 -0.4749  1.3910  0.3327
 1675SOL    HW216662   4.345   3.952   2.388  0.5849  0.9682 -1.2957
 1676SOL     OW16663   1.311   4.581   6.456  0.0319 -0.4298 -0.4994
 1676SOL    HW116664   1.257   4.554   6.382 -0.0316  1.0065 -0.9718
 1676SOL    HW216665   1.252   4.547   6.523  0.9195  1.0721  1.0592
 1677SOL     OW16666   3.007   4.506   2.955  0.2331 -0.1188 -0.2653
 1677SOL    HW116667   2.939   4.545   3.009  0.6372  0.7504 -0.3872
 1677SOL    HW216668   3.075   4.572   2.967  0.1870 -0.3650  1.2956
 1678SOL     OW16669   1.803   3.159   2.000  0.6670 -0.7163 -0.2599
 1678SOL    HW116670   1.864   3.121   2.063 -0.1660 -2.2519 -0.3873
 1678SOL    HW216671   1.783   3.243   2.043  2.8075 -0.1148 -0.4450
 1679SOL     OW16672   0.854   0.347   5.291  0.5538  0.3241 -0.4184
 1679SOL    HW116673   0.939   0.337   5.335 -0.0027 -0.4624  0.4826
 1679SOL    HW216674   0.839   0.441   5.281 -2.1012  0.0324  1.0046
 1680SOL     OW16675   3.118   2.231  11.588  0.4437 -0.0782  0.1591
 1680SOL    HW116676   3.066   2.212  11.666 -0.7540  0.1645 -0.5852
 1680SOL    HW216677   3.062   2.183  11.527  2.4211 -0.2542 -1.4907
 1681SOL     OW16678   1.995   4.294   2.259  0.1730 -0.0829  0.0241
 1681SOL    HW116679   1.996   4.363   2.325  1.9742  0.7982 -0.9427
 1681SOL    HW216680   1.985   4.337   2.175 -1.4219  1.0513  0.7993
 1682SOL     OW16681   3.988   2.016   9.061 -0.0848  0.2201 -0.3619
 1682SOL    HW116682   4.026   1.930   9.080  0.8811  0.6512 -0.3753
 1682SOL    HW216683   4.055   2.082   9.045  0.7443 -0.9067 -1.5918
 1683SOL     OW16684   1.447   1.296   5.548  0.0055 -0.1019  0.1732
 1683SOL    HW116685   1.449   1.390   5.534  2.4331 -0.0248  0.9405
 1683SOL    HW216686   1.401   1.286   5.631 -0.1682  2.0663  0.3223
 1684SOL     OW16687   3.517   3.155   2.788 -0.4744  0.5122 -0.1746
 1684SOL    HW116688   3.520   3.155   2.693  1.1981 -1.3690 -0.1206
 1684SOL    HW216689   3.601   3.119   2.819 -0.0468  1.4634 -0.2444
 1685SOL     OW16690   2.851   3.640   4.468  0.1847 -0.1835  0.2984
 1685SOL    HW116691   2.761   3.606   4.464  0.7673 -1.7813  0.8167
 1685SOL    HW216692   2.894   3.565   4.509 -0.9713 -1.1629 -0.2614
 1686SOL     OW16693   1.378   0.381  14.730  0.0140  0.0087 -0.3727
 1686SOL    HW116694   1.434   0.453  14.702 -0.2199  1.2047  2.2227
 1686SOL    HW216695   1.306   0.400  14.671  0.3974 -1.6850 -1.3769
 1687SOL     OW16696   3.026   4.697   7.475  0.6937 -0.4566  0.3033
 1687SOL    HW116697   3.111   4.678   7.515  0.1009  0.4428  2.0256
 1687SOL    HW216698   3.012   4.626   7.413 -0.5864 -1.2553  1.5185
 1688SOL     OW16699   3.154   3.115   9.823 -0.3516 -0.1438 -0.3589
 1688SOL    HW116700   3.230   3.147   9.776 -0.0707  0.3017  0.3942
 1688SOL    HW216701   3.151   3.022   9.798  1.5706 -0.1379 -0.5578
 1689SOL     OW16702   2.911   0.815   8.044  0.0697 -0.0656 -0.4567
 1689SOL    HW116703   2.846   0.870   8.001 -0.4887  1.5242  2.3946
 1689SOL    HW216704   2.877   0.730   8.017  0.3801  1.0764 -4.4569
 1690SOL     OW16705   0.448   1.738   7.727 -0.2873  0.3875  0.2048
 1690SOL    HW116706   0.354   1.735   7.707 -0.3782 -1.3927  0.8858
 1690SOL    HW216707   0.475   1.782   7.647 -0.5988  1.4971  0.7175
 1691SOL     OW16708   3.263   3.505   1.684  0.0059  0.4198 -0.0396
 1691SOL    HW116709   3.170   3.489   1.667  0.2932 -0.3763 -0.8503
 1691SOL    HW216710   3.285   3.439   1.750 -0.4592  1.1918  0.8939
 1692SOL     OW16711   1.791   2.991  11.775  0.2006  0.1106  0.5526
 1692SOL    HW116712   1.804   3.075  11.731 -2.7666 -0.4632 -1.4704
 1692SOL    HW216713   1.882   2.965  11.790 -0.9591 -2.5185  3.0799
 1693SOL     OW16714   0.219   3.995   1.875  0.2796  0.3095  0.4272
 1693SOL    HW116715   0.220   4.019   1.968 -2.0520 -1.0339  0.8092
 1693SOL    HW216716   0.303   4.023   1.839 -0.7290  0.9335 -1.4323
 1694SOL     OW16717   2.582   1.638   7.091 -0.2909  0.2925 -0.4484
 1694SOL    HW116718   2.498   1.649   7.137  0.3749 -2.0840  1.3300
 1694SOL    HW216719   2.568   1.569   7.026 -1.4532 -0.2473  0.3694
 1695SOL     OW16720   1.983   0.724  14.957  0.0865 -0.1951 -0.0731
 1695SOL    HW116721   1.952   0.810  14.930 -0.0607 -0.0961  0.4259
 1695SOL    HW216722   1.922   0.668  14.910  0.6733 -1.9106  1.1978
 1696SOL     OW16723   0.449   4.504   7.709 -0.3844  0.3770 -0.2059
 1696SOL    HW116724   0.541   4.480   7.709 -0.1389  1.3087 -0.7782
 1696SOL    HW216725   0.445   4.569   7.780  0.3272 -0.6293  0.7435
 1697SOL     OW16726   4.628   0.699   2.000 -0.1775  0.2612  0.4826
 1697SOL    HW116727   4.639   0.771   1.937 -0.2811 -0.3960 -0.2970
 1697SOL    HW216728   4.554   0.652   1.961  1.2646 -1.6532  0.0660
 1698SOL     OW16729   2.267   2.282  17.725  0.6181  0.1640 -0.1400
 1698SOL    HW116730   2.291   2.193  17.749  0.3027  0.7553  2.4051
 1698SOL    HW216731   2.254   2.323   0.052  0.4058 -1.1331  0.4528
 1699SOL     OW16732   4.613   1.896   8.537 -0.1016  0.1141 -0.1633
 1699SOL    HW116733   4.637   1.833   8.469 -2.1601  0.5951 -1.3209
 1699SOL    HW216734   4.605   1.982   8.494 -0.0960  0.3789  0.3670
 1700SOL     OW16735   1.994   3.107   4.202 -0.2218  0.0347 -0.2850
 1700SOL    HW116736   1.939   3.041   4.243 -1.7665  1.4682 -0.0392
 1700SOL    HW216737   1.921   3.144   4.152 -0.8098  1.2744  1.4763
 1701SOL     OW16738   2.928   0.323  17.659  0.2542  0.5827 -0.1805
 1701SOL    HW116739   2.931   0.397  17.598 -1.5515  1.7330  1.1139
 1701SOL    HW216740   2.952   0.250  17.602  4.0372 -0.7440  3.0787
 1702SOL     OW16741   2.732   4.608   8.083  0.1674  0.3356 -0.3476
 1702SOL    HW116742   2.745   4.678   8.146  2.3079 -3.6500  3.6869
 1702SOL    HW216743   2.804   4.552   8.112  0.7901  0.9245 -0.7667
 1703SOL     OW16744   0.578   1.551   5.933  0.4708 -0.4905 -0.0945
 1703SOL    HW116745   0.497   1.505   5.956 -1.1039  2.4133  0.0841
 1703SOL    HW216746   0.603   1.503   5.854  1.9714  0.3844 -0.1444
 1704SOL     OW16747   0.092   2.200   2.610 -0.0980 -0.3448 -0.0703
 1704SOL    HW116748   0.115   2.228   2.698  0.3405  0.7695 -0.5307
 1704SOL    HW216749   0.172   2.151   2.592 -0.1173 -0.8581  1.3306
 1705SOL     OW16750   4.481   2.459   8.353  0.6328 -0.0626 -0.2351
 1705SOL    HW116751   4.562   2.486   8.396  0.4640 -0.6103  0.4418
 1705SOL    HW216752   4.522   2.409   8.282 -1.9914 -0.9583 -1.1393
 1706SOL     OW16753   0.883   2.493   2.336  0.5234  0.2929  0.2561
 1706SOL    HW116754   0.889   2.588   2.329  2.0151  0.0845 -1.2668
 1706SOL    HW216755   0.867   2.470   2.244 -0.8727 -1.7074  0.9866
 1707SOL     OW16756   2.883   2.595  12.326  0.0301  0.2057  0.1265
 1707SOL    HW116757   2.894   2.690  12.334 -0.2918  0.3024 -0.5772
 1707SOL    HW216758   2.928   2.573  12.245  0.9902 -0.1102  0.7372
 1708SOL     OW16759   4.721   0.491   9.095 -0.4788  0.4437  0.3315
 1708SOL    HW116760   0.029   0.509   9.014  2.7720 -0.2529  2.0915
 1708SOL    HW216761   4.739   0.566   9.151  0.0177  1.9218 -1.7945
 1709SOL     OW16762   1.211   2.345   4.085 -0.1203  0.0692  0.6305
 1709SOL    HW116763   1.258   2.424   4.059  0.5949 -0.2083  1.1054
 1709SOL    HW216764   1.174   2.326   3.999  0.8397 -0.0383  0.2399
 1710SOL     OW16765   0.787   0.637   8.237 -0.7577 -0.2471  0.1391
 1710SOL    HW116766   0.820   0.612   8.151 -1.0257 -2.1983  0.6169
 1710SOL    HW216767   0.819   0.725   8.258 -1.9693 -0.0927  1.3445
 1711SOL     OW16768   1.765   4.507   8.445  0.4009  0.2644 -0.0406
 1711SOL    HW116769   1.756   4.549   8.530 -1.6984  0.6817 -0.4732
 1711SOL    HW216770   1.844   4.454   8.458  1.1144  1.1201 -0.9253
 1712SOL     OW16771   2.435   1.566   8.469  0.2499  0.4287 -0.2670
 1712SOL    HW116772   2.351   1.560   8.515  0.6136 -1.9330  0.0503
 1712SOL    HW216773   2.452   1.647   8.517 -2.0200  1.1766 -0.7027
 1713SOL     OW16774   2.292   2.914  16.611  0.2614  0.1134 -0.0377
 1713SOL    HW116775   2.302   2.877  16.524  0.9265  0.9441 -0.3168
 1713SOL    HW216776   2.210   2.876  16.643 -0.0636  1.5710  0.8788
 1714SOL     OW16777   1.580   2.760  16.311  0.3388 -0.4860  0.2433
 1714SOL    HW116778   1.665   2.715  16.310 -0.0058 -1.1380 -1.2768
 1714SOL    HW216779   1.558   2.750  16.403 -0.3537  1.3847  0.2647
 1715SOL     OW16780   1.175   2.913   6.560 -0.2724 -0.3776 -0.1853
 1715SOL    HW116781   1.169   2.931   6.654  1.1720  4.3401 -0.9958
 1715SOL    HW216782   1.206   2.824   6.547  0.0460 -0.3454  0.3192
 1716SOL     OW16783   3.049   0.699  12.794  0.4473  0.6398 -0.0360
 1716SOL    HW116784   3.058   0.664  12.882 -1.2519 -0.9890 -0.5113
 1716SOL    HW216785   3.140   0.715  12.766  1.1827 -1.3334  1.2121
 1717SOL     OW16786   3.033   1.157   5.630  0.4060  0.1467  0.2585
 1717SOL    HW116787   3.014   1.190   5.717 -0.1693  0.5177 -0.0037
 1717SOL    HW216788   2.968   1.087   5.631 -0.1231  0.6031 -1.3466
 1718SOL     OW16789   3.569   2.208   5.763 -0.7914  0.2642 -0.1068
 1718SOL    HW116790   3.546   2.168   5.847  0.6814 -0.3443  0.0028
 1718SOL    HW216791   3.501   2.179   5.702 -1.3076 -1.5398  1.3284
 1719SOL     OW16792   4.589   3.329   5.452  0.5113  0.0607 -0.0063
 1719SOL    HW116793   4.600   3.288   5.366  1.2103 -3.7304  1.8541
 1719SOL    HW216794   4.500   3.360   5.442 -0.1712 -1.6636  0.7652
 1720SOL     OW16795   0.251   0.829   6.548 -0.4265 -0.0312  0.2032
 1720SOL    HW116796   0.328   0.820   6.492  1.4501  0.2297  2.7398
 1720SOL    HW216797   0.218   0.739   6.546 -0.1731 -0.1042 -1.0167
 1721SOL     OW16798   0.435   4.406  16.178 -0.4019 -0.3886 -0.3170
 1721SOL    HW116799   0.513   4.351  16.163  0.5026  0.7267  0.3136
 1721SOL    HW216800   0.436   4.391  16.273 -1.9877  0.1597 -0.2167
 1722SOL     OW16801   3.023   3.178   4.751 -0.0925 -0.0723  1.2939
 1722SOL    HW116802   3.075   3.110   4.708 -0.5818  0.3658  0.0183
 1722SOL    HW216803   2.938   3.152   4.714 -0.1677  0.9418  0.7486
 1723SOL     OW16804   3.678   3.737   3.017 -0.3571 -0.1328  0.1581
 1723SOL    HW116805   3.584   3.720   3.012 -0.3195  0.1235 -1.7450
 1723SOL    HW216806   3.682   3.794   3.094  0.1738 -1.4796  1.1122
 1724SOL     OW16807   2.506   1.952  16.805 -0.0680  0.1377  0.3624
 1724SOL    HW116808   2.590   1.992  16.826 -0.0284 -0.7019  1.7970
 1724SOL    HW216809   2.461   1.968  16.888 -0.8486 -2.1851  0.4024
 1725SOL     OW16810   1.295   2.301   8.880 -0.4823 -0.1410 -0.0294
 1725SOL    HW116811   1.215   2.250   8.868  0.0612 -0.8824 -0.4883
 1725SOL    HW216812   1.257   2.350   8.953 -0.5627 -0.9977  0.5014
 1726SOL     OW16813   0.822   2.507   4.788  0.1734  0.3704  0.7127
 1726SOL    HW116814   0.810   2.460   4.706  0.3194 -2.6198  2.3849
 1726SOL    HW216815   0.744   2.561   4.792  0.0491  0.0292  2.9902
 1727SOL     OW16816   1.831   1.524   8.230  0.3471 -0.6950 -0.3032
 1727SOL    HW116817   1.809   1.473   8.309 -2.7739  1.1042 -0.0293
 1727SOL    HW216818   1.769   1.479   8.173 -0.1772  0.5382 -0.7093
 1728SOL     OW16819   2.386   1.494  14.941 -0.1507  0.0434 -0.1970
 1728SOL    HW116820   2.386   1.472  15.034 -0.9494  1.9373  0.2578
 1728SOL    HW216821   2.335   1.418  14.911  1.6588 -1.6775  1.0958
 1729SOL     OW16822   1.025   0.103   8.694  0.1091  0.2375 -0.0051
 1729SOL    HW116823   0.953   0.128   8.751 -1.6283  1.6740 -2.8274
 1729SOL    HW216824   0.991   0.019   8.661  0.3862  0.6000 -1.2328
 1730SOL     OW16825   1.255   1.485   4.704 -0.0888 -0.5191 -0.3053
 1730SOL    HW116826   1.310   1.563   4.708 -0.4893 -0.3615  1.9351
 1730SOL    HW216827   1.170   1.521   4.680  0.0644  0.0230 -0.0335
 1731SOL     OW16828   0.719   2.395   1.399  1.1452  0.0592 -0.4349
 1731SOL    HW116829   0.755   2.426   1.482 -0.8818  1.1926  0.0114
 1731SOL    HW216830   0.638   2.352   1.424  1.7244  0.2459  1.7353
 1732SOL     OW16831   2.906   3.877   5.903  0.5770 -0.1201 -0.0598
 1732SOL    HW116832   2.939   3.788   5.889 -0.5962 -0.7018  0.8112
 1732SOL    HW216833   2.838   3.861   5.969 -0.7220  0.0696 -1.3435
 1733SOL     OW16834   4.079   1.988  17.099 -0.4323  0.1185 -0.1089
 1733SOL    HW116835   4.006   2.049  17.113  1.3743  1.9271  1.4531
 1733SOL    HW216836   4.150   2.051  17.107  0.1151 -0.8904  2.8415
 1734SOL     OW16837   0.957   1.309   7.151 -0.3091 -0.7440  0.0680
 1734SOL    HW116838   0.902   1.231   7.153 -1.0333 -0.1790  1.3614
 1734SOL    HW216839   1.030   1.280   7.207 -0.3003  0.0100  0.4492
 1735SOL     OW16840   0.731   2.469   3.794  0.3038  0.1661 -0.5110
 1735SOL    HW116841   0.756   2.550   3.750  0.8556 -0.6863 -1.7587
 1735SOL    HW216842   0.775   2.477   3.878 -1.3905 -2.6546  0.6699
 1736SOL     OW16843   2.885   0.164   5.905 -0.3937 -0.0473 -0.1084
 1736SOL    HW116844   2.828   0.125   5.839 -1.5154 -0.8929  1.3678
 1736SOL    HW216845   2.906   0.079   5.944 -0.1059  0.3002  0.5103
 1737SOL     OW16846   2.784   4.524   5.789 -0.5599 -0.1037 -0.6186
 1737SOL    HW116847   2.801   4.582   5.863 -0.9639  1.7693 -1.9918
 1737SOL    HW216848   2.820   4.439   5.816  2.6814  1.2714 -0.6143
 1738SOL     OW16849   1.957   0.350   1.114 -0.1089  0.6359  0.6817
 1738SOL    HW116850   1.991   0.296   1.186  0.3989 -1.2347 -0.9616
 1738SOL    HW216851   2.000   0.302   1.042 -1.5874  1.6729 -0.8725
 1739SOL     OW16852   2.049   1.353   1.505  0.5061 -0.0822  0.3614
 1739SOL    HW116853   1.973   1.412   1.505  0.0978 -0.6054 -0.7344
 1739SOL    HW216854   2.052   1.340   1.410  2.1316  1.7759  0.1499
 1740SOL     OW16855   0.112   4.699   5.009  0.2956  0.0600  0.4057
 1740SOL    HW116856   0.193   4.703   5.061  1.3384 -0.4818 -1.1685
 1740SOL    HW216857   0.145   4.652   4.932 -0.0923  0.2160  0.1462
 1741SOL     OW16858   2.462   3.949   1.963  0.3653  0.4802  0.1926
 1741SOL    HW116859   2.509   3.904   2.034 -0.7594  0.6198  1.0242
 1741SOL    HW216860   2.374   3.920   1.988 -0.4762  0.5802 -2.6357
 1742SOL     OW16861   3.245   0.446   9.160  0.2672  0.0526 -0.4786
 1742SOL    HW116862   3.167   0.494   9.135 -0.6706 -1.3000 -0.1505
 1742SOL    HW216863   3.312   0.499   9.117 -0.5688 -0.4496 -2.3811
 1743SOL     OW16864   2.183   1.428   3.754  0.5620 -0.2737 -0.0759
 1743SOL    HW116865   2.118   1.366   3.786 -2.3851  3.1477  0.6782
 1743SOL    HW216866   2.201   1.399   3.665  0.8743 -1.5021  0.3985
 1744SOL     OW16867   1.625   4.204   1.723  0.6739  0.5809  0.1234
 1744SOL    HW116868   1.689   4.166   1.783 -0.1588  0.0174  0.6479
 1744SOL    HW216869   1.674   4.268   1.671  0.6798  1.1242  0.7836
 1745SOL     OW16870   1.292   1.441   6.543 -0.4469  0.3479  0.4674
 1745SOL    HW116871   1.362   1.382   6.515 -1.3868 -1.5053  1.9726
 1745SOL    HW216872   1.273   1.483   6.459 -2.2654 -0.5240  0.4333
 1746SOL     OW16873   3.225   0.550   6.696  0.3367 -0.6247 -0.1155
 1746SOL    HW116874   3.215   0.536   6.791 -2.6843 -2.0035 -0.6327
 1746SOL    HW216875   3.317   0.574   6.694  0.1909 -0.0446  0.1929
 1747SOL     OW16876   4.249   2.774   9.160 -0.2619 -0.2710  0.1711
 1747SOL    HW116877   4.189   2.740   9.226  2.0661 -0.8324  1.9412
 1747SOL    HW216878   4.260   2.691   9.113 -0.7696 -0.8388  1.0578
 1748SOL     OW16879   0.819   0.555   9.617  0.7974 -0.6871 -0.0256
 1748SOL    HW116880   0.846   0.488   9.554  3.2306 -0.2868  0.5864
 1748SOL    HW216881   0.874   0.535   9.692  1.2286 -0.0356 -0.1677
 1749SOL     OW16882   0.766   0.553   5.796  0.0863 -0.1665 -1.0603
 1749SOL    HW116883   0.806   0.635   5.827  1.3661 -0.0892 -2.8617
 1749SOL    HW216884   0.680   0.562   5.837 -0.3551 -1.9102 -1.6262
 1750SOL     OW16885   4.707   2.037   7.285  0.2533 -0.2289 -0.3751
 1750SOL    HW116886   0.038   2.059   7.223 -1.1358  0.2257 -1.8050
 1750SOL    HW216887   4.688   1.946   7.261  1.0914 -1.3225  3.1066
 1751SOL     OW16888   0.551   0.396   6.921  0.1762 -0.0405  0.1892
 1751SOL    HW116889   0.497   0.318   6.909 -3.6545  2.2669  2.6081
 1751SOL    HW216890   0.541   0.413   7.015 -0.8054 -2.3676  0.5022
 1752SOL     OW16891   0.492   2.223   7.432  0.0185  0.3973  1.1065
 1752SOL    HW116892   0.570   2.275   7.412  2.5348 -3.5918  0.6188
 1752SOL    HW216893   0.509   2.148   7.376 -3.1524  0.2756  0.2833
 1753SOL     OW16894   4.450   2.500   2.362  0.1454  0.0785  0.0898
 1753SOL    HW116895   4.377   2.546   2.319 -0.1274  1.4485  1.9803
 1753SOL    HW216896   4.407   2.444   2.426 -0.5061 -1.3802 -1.6156
 1754SOL     OW16897   3.337   0.466   6.324 -0.3554  0.6331 -0.2345
 1754SOL    HW116898   3.290   0.430   6.399 -0.4879  0.7522 -0.2600
 1754SOL    HW216899   3.431   0.454   6.341 -0.4288  0.5516  0.1022
 1755SOL     OW16900   2.761   3.086   2.926  0.3667  0.0516  0.2034
 1755SOL    HW116901   2.836   3.095   2.867  1.3903  1.6517  1.7359
 1755SOL    HW216902   2.705   3.035   2.867  0.7318  2.1262 -1.9566
 1756SOL     OW16903   0.742   4.519   7.161  0.1199 -0.0473 -0.3368
 1756SOL    HW116904   0.693   4.534   7.080  0.4903 -0.7124 -0.6877
 1756SOL    HW216905   0.720   4.427   7.179 -1.6973  0.4327 -0.1843
 1757SOL     OW16906   2.674   0.616  12.755 -0.2620 -0.3929  1.0256
 1757SOL    HW116907   2.710   0.700  12.783  1.9117 -1.0436  0.1976
 1757SOL    HW216908   2.581   0.637  12.758 -0.2293 -0.1112  0.1298
 1758SOL     OW16909   4.017   4.040   6.698 -0.8335  0.2093 -0.1055
 1758SOL    HW116910   4.067   3.968   6.736 -1.7337 -0.4351 -0.1568
 1758SOL    HW216911   4.064   4.117   6.731 -1.9343  0.7992  0.0809
 1759SOL     OW16912   0.491   2.080  12.821 -0.5453  0.1129 -0.2256
 1759SOL    HW116913   0.541   2.059  12.900 -1.6833  2.9810  1.2884
 1759SOL    HW216914   0.446   1.997  12.807  1.0124 -0.6253 -0.9413
 1760SOL     OW16915   1.626   4.620  16.693 -0.2061  0.1305 -0.0090
 1760SOL    HW116916   1.668   4.577  16.618  1.3617  0.7455  0.5239
 1760SOL    HW216917   1.553   4.645  16.636  1.5912  1.3107 -1.8144
 1761SOL     OW16918   2.108   4.057   2.349  0.2186  0.2555 -0.6550
 1761SOL    HW116919   2.087   3.996   2.278 -2.1350 -0.9685  1.0606
 1761SOL    HW216920   2.061   4.137   2.327 -0.2847  0.0961 -0.1846
 1762SOL     OW16921   4.674   1.683   9.104 -0.2672  0.0207  0.3796
 1762SOL    HW116922   0.017   1.635   9.114  0.9814  1.5100 -2.6322
 1762SOL    HW216923   4.621   1.603   9.096 -1.8032  1.3010 -2.0408
 1763SOL     OW16924   4.475   3.620  14.224 -0.0087 -0.2678 -0.1234
 1763SOL    HW116925   4.515   3.572  14.152  2.5485 -0.4990  1.4532
 1763SOL    HW216926   4.555   3.662  14.256 -1.1434  1.4041  0.5175
 1764SOL     OW16927   0.246   1.066   6.711  0.3956  0.6766 -0.1532
 1764SOL    HW116928   0.332   1.053   6.750 -0.3187 -3.2445  0.1578
 1764SOL    HW216929   0.230   0.976   6.683 -1.0074  0.9075 -0.1101
 1765SOL     OW16930   1.387   1.929   2.740 -0.5252 -0.2408 -0.4515
 1765SOL    HW116931   1.324   1.893   2.802  0.1934  0.7689  0.8771
 1765SOL    HW216932   1.460   1.946   2.799  0.4777 -0.0765 -1.7325
 1766SOL     OW16933   0.659   2.335   6.385 -0.5511  0.0262  0.0386
 1766SOL    HW116934   0.680   2.270   6.318  1.3748  0.8510 -0.1364
 1766SOL    HW216935   0.569   2.359   6.361 -1.2278 -2.0221  0.4991
 1767SOL     OW16936   3.288   1.971   7.047 -0.2307 -0.1945 -0.2164
 1767SOL    HW116937   3.242   2.012   6.974 -1.5453  0.9975  1.2990
 1767SOL    HW216938   3.225   1.921   7.098  0.4231  0.7567  1.5468
 1768SOL     OW16939   1.793   1.840   4.458  0.5156 -0.7178 -0.2902
 1768SOL    HW116940   1.770   1.836   4.365 -0.6150 -2.2931  0.0625
 1768SOL    HW216941   1.813   1.747   4.466 -1.0830 -0.9678  0.6851
 1769SOL     OW16942   1.745   0.801   8.196  0.1341  0.3933 -0.4910
 1769SOL    HW116943   1.692   0.725   8.171  4.2230 -2.7679  0.4726
 1769SOL    HW216944   1.797   0.765   8.268  1.2687  2.4351 -0.3053
 1770SOL     OW16945   3.986   2.405   9.403 -0.1431 -0.1454  0.7793
 1770SOL    HW116946   3.983   2.397   9.308 -1.9769 -0.7995  0.9045
 1770SOL    HW216947   3.953   2.317   9.421  0.3751 -0.6979 -1.0556
 1771SOL     OW16948   1.969   0.329   0.543  0.0835 -0.0893  0.1682
 1771SOL    HW116949   1.907   0.259   0.562  0.2868 -0.0837  0.8671
 1771SOL    HW216950   2.007   0.299   0.461 -0.7376 -1.6052  0.3608
 1772SOL     OW16951   1.942   1.516   2.423 -0.6428  0.2794  0.4526
 1772SOL    HW116952   2.004   1.539   2.492  1.1385 -1.4477 -0.5421
 1772SOL    HW216953   1.873   1.578   2.442 -1.7227 -0.7170 -0.1846
 1773SOL     OW16954   1.144   0.613   5.658  0.2994  0.3014 -0.2770
 1773SOL    HW116955   1.064   0.665   5.664 -0.8168 -1.7197  2.2323
 1773SOL    HW216956   1.211   0.681   5.651  1.1653 -0.4826  0.4532
 1774SOL     OW16957   4.289   0.129   0.636 -0.2225 -0.0148 -0.0887
 1774SOL    HW116958   4.260   0.055   0.583  0.9812 -0.1741 -0.5354
 1774SOL    HW216959   4.265   0.200   0.577  1.9538 -0.0258 -0.9832
 1775SOL     OW16960   0.986   3.148  12.661 -0.4378  0.1506  0.0160
 1775SOL    HW116961   0.914   3.091  12.687 -0.0162 -0.2172  0.3790
 1775SOL    HW216962   0.949   3.182  12.580  1.0155  0.5164 -0.4949
 1776SOL     OW16963   0.477   0.154   5.028 -0.2037 -0.0663 -1.0753
 1776SOL    HW116964   0.399   0.124   5.075  0.7982 -0.8721  0.0989
 1776SOL    HW216965   0.445   0.241   5.006  1.4197  0.3146 -1.8852
 1777SOL     OW16966   0.779   1.302   2.143  0.0623  0.0195  0.3879
 1777SOL    HW116967   0.826   1.376   2.106 -1.7257  0.3433 -1.2463
 1777SOL    HW216968   0.706   1.283   2.083  1.1773  0.8767 -1.2435
 1778SOL     OW16969   0.218   3.832   8.244 -0.1638  0.4063  0.2358
 1778SOL    HW116970   0.267   3.904   8.205  2.1607  0.0831  2.5321
 1778SOL    HW216971   0.275   3.765   8.205  3.3506  3.4299  0.2103
 1779SOL     OW16972   4.040   3.632   9.465  0.1661 -0.3340  0.3667
 1779SOL    HW116973   3.952   3.626   9.427 -0.3256  1.5444  1.1841
 1779SOL    HW216974   4.031   3.660   9.556  1.5948  0.9795  0.1118
 1780SOL     OW16975   2.077   1.123   5.320  0.4260 -0.1261  0.2956
 1780SOL    HW116976   2.150   1.065   5.297  1.2764  0.3697  1.7242
 1780SOL    HW216977   2.060   1.105   5.413  0.5486 -0.0097  0.3410
 1781SOL     OW16978   4.239   1.348  11.627  0.3879  0.0159  0.3015
 1781SOL    HW116979   4.321   1.396  11.613  0.7117 -0.5614  0.2095
 1781SOL    HW216980   4.200   1.405  11.694  1.3594  0.5359  0.4267
 1782SOL     OW16981   4.433   0.119   7.926 -0.2307 -0.0854  0.4948
 1782SOL    HW116982   4.504   0.092   7.984  0.0920 -1.4003 -0.5180
 1782SOL    HW216983   4.486   0.116   7.846 -0.6747  0.2847  0.1835
 1783SOL     OW16984   1.887   0.894   9.472  0.7282 -0.0005 -0.0931
 1783SOL    HW116985   1.967   0.945   9.484  0.8744 -0.3307  0.3775
 1783SOL    HW216986   1.884   0.886   9.377 -1.6175 -1.6363  0.1346
 1784SOL     OW16987   1.212   3.208   7.542 -0.0983 -0.4129  0.0151
 1784SOL    HW116988   1.237   3.125   7.583  0.2335  0.6794  2.0303
 1784SOL    HW216989   1.203   3.268   7.616  1.6078 -1.8327  1.3931
 1785SOL     OW16990   4.352   2.131  13.928  0.3605 -0.1387 -0.2099
 1785SOL    HW116991   4.437   2.112  13.888 -0.4422 -1.9181 -1.0801
 1785SOL    HW216992   4.310   2.182  13.858  0.3910 -0.1532 -0.2393
 1786SOL     OW16993   2.904   1.618   8.635 -0.1440 -0.1378 -0.0698
 1786SOL    HW116994   2.826   1.647   8.682 -0.5587 -1.4396  0.0431
 1786SOL    HW216995   2.968   1.687   8.653 -1.0459  0.4930  0.7361
 1787SOL     OW16996   2.859   3.274   1.778  0.3774 -0.3109 -0.3280
 1787SOL    HW116997   2.868   3.320   1.861 -1.6387  0.1916 -0.3953
 1787SOL    HW216998   2.885   3.184   1.795  1.4121 -0.0292 -0.4043
 1788SOL     OW16999   3.161   1.001   9.428 -0.0302  0.0257  0.2043
 1788SOL    HW117000   3.104   1.002   9.352 -1.2095  3.3945  1.1331
 1788SOL    HW217001   3.120   0.944   9.493 -2.7710 -0.5911 -2.0507
 1789SOL     OW17002   0.010   4.727  16.724  0.2719 -0.1223  0.0686
 1789SOL    HW117003   0.022   0.028  16.638 -0.2628 -1.2643 -0.5567
 1789SOL    HW217004   0.082   0.024  16.776  2.1581 -1.5652 -1.5280
 1790SOL     OW17005   1.709   2.370   4.789 -0.0764 -0.1479  0.4173
 1790SOL    HW117006   1.714   2.460   4.820  0.3404 -0.2032  0.5113
 1790SOL    HW217007   1.699   2.387   4.695  1.6794 -2.0326 -0.1109
 1791SOL     OW17008   3.759   3.903  13.128  0.2561  0.6297  0.2415
 1791SOL    HW117009   3.730   3.898  13.037 -0.0223 -0.6254  0.4019
 1791SOL    HW217010   3.824   3.833  13.131 -0.0688  0.4148  2.2444
 1792SOL     OW17011   4.179   0.247   4.957  0.5499  0.0446  0.4739
 1792SOL    HW117012   4.139   0.223   4.873 -1.5512  1.0402  1.2063
 1792SOL    HW217013   4.105   0.287   5.001 -0.1794 -0.7855  0.0025
 1793SOL     OW17014   4.107   0.067   3.428 -0.5579 -0.5094 -0.3619
 1793SOL    HW117015   4.032   0.023   3.469 -0.9465 -0.4194 -0.9818
 1793SOL    HW217016   4.142   4.722   3.402  1.2893  0.6096 -1.4537
 1794SOL     OW17017   2.619   2.522   7.149  0.0207  0.3279 -0.0553
 1794SOL    HW117018   2.586   2.487   7.067  1.6595 -2.6094  0.5344
 1794SOL    HW217019   2.540   2.523   7.204 -1.4629  0.3422 -2.1906
 1795SOL     OW17020   0.329   2.528   7.286 -0.2458 -0.3834  0.4618
 1795SOL    HW117021   0.406   2.558   7.335  0.4579 -1.3293 -0.0672
 1795SOL    HW217022   0.357   2.441   7.257 -1.1084 -0.5383  0.1061
 1796SOL     OW17023   4.457   3.419  16.288  0.3959 -0.0456 -0.0611
 1796SOL    HW117024   4.445   3.439  16.381  0.9349  2.2112 -0.4923
 1796SOL    HW217025   4.366   3.416  16.261 -0.1621  1.0964  1.6897
 1797SOL     OW17026   3.033   1.562  11.191  0.1646 -0.1110  0.2425
 1797SOL    HW117027   2.962   1.624  11.209  0.4183  0.2343  0.0759
 1797SOL    HW217028   2.991   1.480  11.215  1.8639 -1.4880 -1.5159
 1798SOL     OW17029   4.261   1.979  10.563  0.1689 -0.5134  0.4665
 1798SOL    HW117030   4.247   1.951  10.654 -0.1363 -0.0531  0.5605
 1798SOL    HW217031   4.299   2.066  10.572  0.3591 -0.6564  1.0330
 1799SOL     OW17032   1.969   2.612   2.541 -0.5061  0.0287  0.0033
 1799SOL    HW117033   1.922   2.530   2.558  2.7070 -1.7034  0.4964
 1799SOL    HW217034   1.895   2.672   2.550  0.0383  0.7905 -0.5742
 1800SOL     OW17035   2.334   4.421   5.352 -0.3538 -0.3010  0.2743
 1800SOL    HW117036   2.367   4.446   5.438  1.3953  0.9828 -0.7727
 1800SOL    HW217037   2.257   4.474   5.330 -0.3310  0.3171  1.6530
 1801SOL     OW17038   3.457   4.707   2.006  0.2317  0.3552  0.3098
 1801SOL    HW117039   3.518   0.041   2.009  1.8718 -0.9928  0.6640
 1801SOL    HW217040   3.374   0.006   1.979  0.4861  0.1996 -0.6819
 1802SOL     OW17041   3.258   0.019  17.329 -0.1246 -0.1483  0.3456
 1802SOL    HW117042   3.297   0.012  17.416  0.2422  1.2909  0.2843
 1802SOL    HW217043   3.196   4.687  17.342 -1.1454  0.6597 -0.0461
 1803SOL     OW17044   2.232   3.823   4.061  0.1763  0.1602 -0.3986
 1803SOL    HW117045   2.174   3.893   4.089  0.6034  0.2757  0.2049
 1803SOL    HW217046   2.248   3.834   3.967  4.1450 -1.0397  0.1201
 1804SOL     OW17047   0.012   0.988   4.828  0.0907 -0.5224 -0.2880
 1804SOL    HW117048   4.670   1.021   4.792 -0.5898 -2.1443 -0.2317
 1804SOL    HW217049   4.740   1.013   4.919 -3.1022 -1.8218 -0.3610
 1805SOL     OW17050   3.754   0.697   2.188  0.2395 -0.4788 -0.3414
 1805SOL    HW117051   3.807   0.621   2.213 -2.3018 -1.7194  1.3300
 1805SOL    HW217052   3.814   0.756   2.144  0.9828  0.3006  1.7239
 1806SOL     OW17053   0.626   3.463   8.848  0.0468 -0.1573 -0.3777
 1806SOL    HW117054   0.554   3.451   8.786  1.0928  0.2830 -1.6735
 1806SOL    HW217055   0.609   3.385   8.901  0.2023 -0.7137 -1.1494
 1807SOL     OW17056   2.975   4.272   2.564 -0.0771  0.0876 -0.1131
 1807SOL    HW117057   3.011   4.184   2.557  0.1997  0.0544  1.6350
 1807SOL    HW217058   2.881   4.257   2.557 -0.0025  0.7340 -2.3600
 1808SOL     OW17059   2.113   1.397   1.885 -0.0123 -0.0590 -0.3288
 1808SOL    HW117060   2.031   1.366   1.924 -0.1246  0.3982 -0.2064
 1808SOL    HW217061   2.149   1.442   1.961 -2.5929  2.1992 -0.4412
 1809SOL     OW17062   1.791   3.166  14.332 -0.1301  0.1666  0.1064
 1809SOL    HW117063   1.719   3.228  14.337  0.0459  0.3964 -0.2128
 1809SOL    HW217064   1.764   3.129  14.248 -0.2496  1.6664 -0.5151
 1810SOL     OW17065   0.828   2.881  15.336 -0.6789 -0.4693  0.6546
 1810SOL    HW117066   0.807   2.956  15.280  2.7086  0.0571  0.1049
 1810SOL    HW217067   0.868   2.925  15.411  2.4175  2.3561 -2.6398
 1811SOL     OW17068   1.689   2.575   6.983  0.0100  0.0821  0.2370
 1811SOL    HW117069   1.680   2.626   7.063  0.0280  0.6041 -0.0920
 1811SOL    HW217070   1.691   2.636   6.909 -0.1984 -0.8050 -0.5072
 1812SOL     OW17071   4.485   1.511  17.101 -0.2563  0.4479 -0.5427
 1812SOL    HW117072   4.521   1.440  17.155 -0.0220 -0.3955 -1.8204
 1812SOL    HW217073   4.407   1.473  17.061 -0.5546  0.5546 -0.0745
 1813SOL     OW17074   1.051   4.326   3.468 -0.7475  0.5551  0.0601
 1813SOL    HW117075   1.093   4.376   3.538 -0.8853  2.6987 -1.4007
 1813SOL    HW217076   1.006   4.387   3.410 -2.2833 -1.6630 -1.0976
 1814SOL     OW17077   3.841   2.920  15.142 -0.1599  0.6744 -0.0672
 1814SOL    HW117078   3.791   2.863  15.083 -2.6612  1.7132  1.0925
 1814SOL    HW217079   3.782   2.995  15.151 -2.7434 -1.5106  1.0084
 1815SOL     OW17080   3.595   1.121   5.002  0.4800 -0.1298  0.1301
 1815SOL    HW117081   3.603   1.140   5.096 -0.9471 -1.1176  0.4550
 1815SOL    HW217082   3.688   1.135   4.984  0.3382  0.6675  0.0479
 1816SOL     OW17083   2.287   0.837  17.015 -0.1207 -0.3916 -0.2887
 1816SOL    HW117084   2.283   0.852  17.110 -1.8833  1.6875 -0.7050
 1816SOL    HW217085   2.302   0.742  17.019  0.2714 -0.2170  2.3467
 1817SOL     OW17086   0.992   3.132  16.275  0.0199 -0.0511  0.4024
 1817SOL    HW117087   0.919   3.128  16.213 -0.3843 -1.8122  1.0008
 1817SOL    HW217088   0.968   3.215  16.316 -1.2439 -0.9587  1.4759
 1818SOL     OW17089   1.821   3.432   6.086  0.1592  0.1432  0.8616
 1818SOL    HW117090   1.867   3.417   6.169 -0.9398 -1.1054  1.2615
 1818SOL    HW217091   1.853   3.353   6.042  0.8088  0.6443  0.4586
 1819SOL     OW17092   3.546   3.568   9.728 -0.0390 -0.2715 -0.7366
 1819SOL    HW117093   3.494   3.513   9.786  0.2267  0.9190  0.6266
 1819SOL    HW217094   3.597   3.502   9.681  1.1370 -0.3139  0.6347
 1820SOL     OW17095   3.993   2.361   1.331 -0.3650 -0.5340 -0.0076
 1820SOL    HW117096   3.953   2.275   1.347 -1.2565 -0.0398  0.3934
 1820SOL    HW217097   4.082   2.346   1.364  0.0394  1.2387 -0.2963
 1821SOL     OW17098   1.221   4.570   6.175 -0.1708  0.2168 -0.3414
 1821SOL    HW117099   1.281   4.572   6.101 -0.5483 -0.7312 -0.6732
 1821SOL    HW217100   1.144   4.609   6.134 -0.4760  1.1721  1.1135
 1822SOL     OW17101   0.029   2.014   4.500  0.2938  0.0878 -0.0944
 1822SOL    HW117102   0.022   1.926   4.464 -0.1393  0.5797 -1.1918
 1822SOL    HW217103   4.699   2.061   4.456 -0.4358  0.5398  1.5333
 1823SOL     OW17104   0.956   3.102   8.212 -0.1232  0.1342  0.5201
 1823SOL    HW117105   0.926   3.019   8.247  0.5736 -0.2034  0.3185
 1823SOL    HW217106   0.878   3.141   8.173 -0.3027 -0.7209  0.0461
 1824SOL     OW17107   0.827   1.971   6.190  0.4569 -0.0205  0.5266
 1824SOL    HW117108   0.915   1.936   6.201 -0.2199 -1.1337  2.3975
 1824SOL    HW217109   0.791   1.911   6.124 -0.5706  1.2130 -0.0210
 1825SOL     OW17110   1.436   4.000   7.029 -0.1200 -0.1327 -0.1878
 1825SOL    HW117111   1.369   4.039   7.085 -1.3648  0.1756 -1.9086
 1825SOL    HW217112   1.508   3.976   7.088 -0.6104 -1.5821 -0.1773
 1826SOL     OW17113   2.205   0.377   4.184  0.4257  0.3973  0.2413
 1826SOL    HW117114   2.194   0.468   4.212 -2.6189  0.0338  0.2742
 1826SOL    HW217115   2.255   0.350   4.260  0.4537  2.8904  1.1024
 1827SOL     OW17116   0.981   4.531   5.250  0.5076  0.0541 -0.1270
 1827SOL    HW117117   1.062   4.483   5.236  0.6020  0.1412  0.1201
 1827SOL    HW217118   1.019   4.610   5.288 -0.4240  0.3902  0.1181
 1828SOL     OW17119   1.400   3.521   2.256  0.4111 -0.0441  0.6279
 1828SOL    HW117120   1.356   3.593   2.300 -0.2984 -0.3644  0.4363
 1828SOL    HW217121   1.408   3.559   2.169 -0.7981  0.7142  0.8478
 1829SOL     OW17122   2.492   2.855   2.444  0.1321  0.2780  0.1611
 1829SOL    HW117123   2.414   2.844   2.390  1.6130  2.3519 -2.3868
 1829SOL    HW217124   2.475   2.947   2.468  0.1479  0.1662  0.6006
 1830SOL     OW17125   4.441   0.531  12.195 -0.0833  0.5936 -0.2571
 1830SOL    HW117126   4.349   0.559  12.199 -0.2679 -0.0910  0.1922
 1830SOL    HW217127   4.473   0.530  12.286 -0.6988 -2.0245 -0.0838
 1831SOL     OW17128   2.997   0.174   8.128  0.3689  0.2568  0.0307
 1831SOL    HW117129   3.086   0.139   8.132  0.3341  0.3078  1.0618
 1831SOL    HW217130   2.967   0.120   8.201  1.7283 -0.9306 -0.2838
 1832SOL     OW17131   2.695   3.977   3.529  0.3156  0.2457 -0.2268
 1832SOL    HW117132   2.730   3.956   3.616 -0.0091 -0.0741 -0.1744
 1832SOL    HW217133   2.778   3.982   3.482  1.4626 -1.5803  1.5921
 1833SOL     OW17134   4.719   4.571   1.544  0.3103 -0.3261 -0.3126
 1833SOL    HW117135   4.635   4.537   1.513 -0.0836  0.8235 -0.4998
 1833SOL    HW217136   4.734   4.518   1.622  1.3034 -1.5695 -1.3516
 1834SOL     OW17137   2.770   4.176   3.755 -0.1598  0.4095  0.7416
 1834SOL    HW117138   2.740   4.175   3.664  0.8065 -2.0404  0.4441
 1834SOL    HW217139   2.780   4.081   3.766  1.3550  0.6913  1.7951
 1835SOL     OW17140   2.527   2.668  11.057 -0.2338  0.0515  0.1080
 1835SOL    HW117141   2.583   2.591  11.069  0.1411  0.5141  1.2355
 1835SOL    HW217142   2.461   2.646  11.123 -0.1576 -0.9685 -0.1455
 1836SOL     OW17143   2.401   0.443  16.772  0.4415 -0.1199  0.2353
 1836SOL    HW117144   2.493   0.420  16.778 -0.5343 -2.9491  4.9014
 1836SOL    HW217145   2.366   0.358  16.744 -0.1505 -0.0164  0.6413
 1837SOL     OW17146   3.044   2.019   3.979 -0.3583 -0.1309 -0.0286
 1837SOL    HW117147   3.069   1.969   4.057  3.4570  1.6735 -0.1103
 1837SOL    HW217148   3.107   2.091   3.974  0.0247 -0.4150  0.7448
 1838SOL     OW17149   1.491   0.702   0.265  0.0096  0.7410 -0.4749
 1838SOL    HW117150   1.505   0.786   0.310 -3.6479  0.6444  0.8391
 1838SOL    HW217151   1.398   0.682   0.278  0.2868  0.3255  0.9155
 1839SOL     OW17152   0.977   3.649   2.532  0.2592  0.1412  0.1340
 1839SOL    HW117153   0.976   3.720   2.468 -3.1315  0.3405  0.4296
 1839SOL    HW217154   0.987   3.574   2.473  1.7265 -0.6927  1.4440
 1840SOL     OW17155   3.020   2.836   5.095 -0.3979  0.4026 -0.1995
 1840SOL    HW117156   3.004   2.836   5.001  3.2582 -0.8843 -0.8025
 1840SOL    HW217157   2.935   2.793   5.106 -0.9911  1.3682 -1.0346
 1841SOL     OW17158   2.360   3.133   7.087  0.0694 -0.1430  0.6123
 1841SOL    HW117159   2.380   3.082   7.166 -1.6061 -1.5723  0.0986
 1841SOL    HW217160   2.444   3.156   7.047 -0.7373  0.5747 -0.6522
 1842SOL     OW17161   0.788   2.021  16.670  0.2288  0.5821  0.2446
 1842SOL    HW117162   0.844   1.996  16.597 -0.2923 -1.1523  0.4403
 1842SOL    HW217163   0.727   2.081  16.627 -0.0942  0.1811  0.1424
 1843SOL     OW17164   1.083   0.933  10.411  0.1994  0.8084 -0.0291
 1843SOL    HW117165   1.116   0.886  10.334  1.2186 -1.1811  1.6249
 1843SOL    HW217166   1.159   0.934  10.470  0.2317 -1.2458 -0.0387
 1844SOL     OW17167   2.627   4.159   1.921  0.3351 -0.0719  0.0733
 1844SOL    HW117168   2.664   4.168   2.008 -0.0725  4.9793 -0.2695
 1844SOL    HW217169   2.567   4.085   1.934  0.0026 -0.1097 -1.5650
 1845SOL     OW17170   2.892   2.855  12.325 -0.2389  0.1497 -0.1141
 1845SOL    HW117171   2.812   2.900  12.295  1.1597  1.0737 -2.4473
 1845SOL    HW217172   2.961   2.920  12.318  0.0815  0.0574  2.1540
 1846SOL     OW17173   0.530   4.087   5.833 -0.1687  0.4306  0.1152
 1846SOL    HW117174   0.455   4.126   5.879 -0.6434  1.2512 -1.3505
 1846SOL    HW217175   0.502   3.996   5.822 -1.6672  0.7842  0.9875
 1847SOL     OW17176   1.104   1.899   2.658 -0.3624 -0.0511 -0.0731
 1847SOL    HW117177   1.185   1.853   2.677  0.8056  1.3836 -1.6100
 1847SOL    HW217178   1.051   1.820   2.647  2.2235 -1.7318 -0.4250
 1848SOL     OW17179   4.025   3.741   4.240  0.0530  0.1987  0.5675
 1848SOL    HW117180   4.091   3.741   4.171  0.4961 -0.0519  0.9949
 1848SOL    HW217181   4.037   3.822   4.289  0.4299 -0.0481  0.8862
 1849SOL     OW17182   3.025   4.177   0.215  0.5248 -0.3546  0.1589
 1849SOL    HW117183   3.026   4.252   0.275  0.0462 -0.0703 -0.1904
 1849SOL    HW217184   2.935   4.198   0.188  1.0133 -0.3633 -1.4515
 1850SOL     OW17185   1.521   3.203   1.080  0.2894  0.6184 -0.7462
 1850SOL    HW117186   1.457   3.274   1.082 -0.6012 -0.2282  0.9352
 1850SOL    HW217187   1.533   3.208   0.986 -0.3303 -0.0629 -0.8634
 1851SOL     OW17188   2.405   3.962  13.589 -0.5542  0.6035 -0.1958
 1851SOL    HW117189   2.312   3.940  13.590 -0.2470 -0.7855 -1.9248
 1851SOL    HW217190   2.422   3.928  13.501  1.0242  1.0471 -0.0658
 1852SOL     OW17191   1.171   0.287   6.123 -0.2134 -0.5394  0.2190
 1852SOL    HW117192   1.188   0.324   6.210 -1.3912  0.1120  0.1679
 1852SOL    HW217193   1.225   0.208   6.124 -0.7485 -0.8981  0.6872
 1853SOL     OW17194   3.073   3.582  16.480  0.0495  0.2029  0.4621
 1853SOL    HW117195   2.990   3.629  16.486  1.7417  2.9727  2.0480
 1853SOL    HW217196   3.041   3.492  16.486 -0.3314  0.2324 -1.0730
 1854SOL     OW17197   4.549   0.812   6.404  0.1687  0.1686 -0.0044
 1854SOL    HW117198   4.600   0.889   6.380 -1.9114  1.7439  0.6470
 1854SOL    HW217199   4.625   0.756   6.417  0.3313  0.1894 -0.8733
 1855SOL     OW17200   1.645   4.719   2.126  0.0210  0.0026 -0.1008
 1855SOL    HW117201   1.577   4.720   2.060  0.0318  0.1951 -0.1100
 1855SOL    HW217202   1.717   4.728   2.063 -0.9273  3.1974 -0.7126
 1856SOL     OW17203   1.249   1.737  10.586  0.4188 -0.0929  0.2470
 1856SOL    HW117204   1.324   1.760  10.641  1.5904  0.5146 -1.6030
 1856SOL    HW217205   1.186   1.732  10.658  0.3850 -1.5816  0.1067
 1857SOL     OW17206   2.073   4.466   7.204 -0.2496  0.0780  0.3398
 1857SOL    HW117207   2.167   4.473   7.221 -0.2594  0.5994  0.1744
 1857SOL    HW217208   2.059   4.483   7.111 -1.4031  0.8564  0.6538
 1858SOL     OW17209   3.564   0.833   4.125  0.3500 -0.4158  0.6651
 1858SOL    HW117210   3.529   0.853   4.212 -0.9927  0.9875 -0.2040
 1858SOL    HW217211   3.618   0.761   4.159 -0.1329 -0.9780  0.2587
 1859SOL     OW17212   3.233   1.459   9.906 -0.0350  0.4939  0.1900
 1859SOL    HW117213   3.169   1.394   9.936  0.0213 -0.1231 -1.0194
 1859SOL    HW217214   3.258   1.501   9.988  0.9334  1.3743 -0.5583
 1860SOL     OW17215   4.042   4.456   3.182 -0.1470  0.4497 -0.2506
 1860SOL    HW117216   3.975   4.516   3.149 -1.2745 -0.4388  0.3942
 1860SOL    HW217217   3.989   4.381   3.210 -0.1034  0.0638 -1.2090
 1861SOL     OW17218   3.114   1.626   8.947  0.5957 -0.5178 -0.4803
 1861SOL    HW117219   3.207   1.620   8.970  0.2755  0.0886  1.0063
 1861SOL    HW217220   3.100   1.541   8.905  2.0356 -1.4852  1.0167
 1862SOL     OW17221   1.338   1.036   8.850 -0.2261 -0.1898  0.0630
 1862SOL    HW117222   1.266   0.974   8.839 -0.7291  0.0199  2.1168
 1862SOL    HW217223   1.411   0.975   8.839  0.1994  0.0390  1.5758
 1863SOL     OW17224   0.683   3.103  10.255 -0.3660  0.2303 -0.0336
 1863SOL    HW117225   0.759   3.162  10.248 -0.5038  0.3559 -0.4915
 1863SOL    HW217226   0.619   3.163  10.293 -0.3046  1.1714 -1.3986
 1864SOL     OW17227   3.995   1.465   2.152  0.6926 -0.4375 -0.2874
 1864SOL    HW117228   3.944   1.424   2.082  3.7913 -0.8039 -2.3350
 1864SOL    HW217229   4.014   1.386   2.203 -0.2724  1.2522  2.6955
 1865SOL     OW17230   1.733   2.693  11.958  0.0006 -0.6116 -0.0422
 1865SOL    HW117231   1.728   2.731  11.870  2.0028 -3.0629 -1.2391
 1865SOL    HW217232   1.794   2.758  11.993  0.1583 -0.4125 -0.6855
 1866SOL     OW17233   3.046   0.228  13.783  0.2516 -0.0780  0.0067
 1866SOL    HW117234   3.029   0.134  13.790  1.5669 -0.2348  1.0756
 1866SOL    HW217235   3.069   0.247  13.692  1.8399 -1.0421  0.2050
 1867SOL     OW17236   4.277   0.632  17.741  0.2747 -0.5073  0.0401
 1867SOL    HW117237   4.359   0.680  17.744  0.1482 -0.4498  2.7463
 1867SOL    HW217238   4.290   0.573  17.667  1.8207 -1.6170  1.1774
 1868SOL     OW17239   2.156   3.086   2.526  0.3185 -0.1171  0.8166
 1868SOL    HW117240   2.141   3.121   2.438  0.6811  0.9627  1.1897
 1868SOL    HW217241   2.179   2.994   2.512  0.8288  0.5640 -2.9807
 1869SOL     OW17242   0.245   2.969  16.329 -0.1380 -0.3486 -0.5056
 1869SOL    HW117243   0.272   2.965  16.237 -0.3160 -0.6165 -0.5449
 1869SOL    HW217244   0.333   2.961  16.366 -0.0408 -2.2413 -1.1102
 1870SOL     OW17245   3.333   4.440   3.076  0.4948 -0.0510  0.1053
 1870SOL    HW117246   3.323   4.346   3.064 -1.4100  0.2505 -0.6798
 1870SOL    HW217247   3.374   4.461   2.992 -0.3705  2.2505  0.2625
 1871SOL     OW17248   1.077   2.457   5.263 -0.3405 -0.2219  0.8988
 1871SOL    HW117249   1.099   2.411   5.181 -0.5690 -2.8135  2.2793
 1871SOL    HW217250   1.132   2.407   5.324 -0.2172  0.5133  1.3907
 1872SOL     OW17251   2.351   1.096  17.371  0.1501 -0.1876  0.0490
 1872SOL    HW117252   2.286   1.098  17.442  0.7544 -2.5517  0.6424
 1872SOL    HW217253   2.422   1.053  17.418  0.7834  1.3766  0.5517
 1873SOL     OW17254   4.222   3.505   3.998 -0.1106 -0.1650 -0.5572
 1873SOL    HW117255   4.228   3.414   4.027 -0.0391 -0.7239 -2.2774
 1873SOL    HW217256   4.237   3.559   4.076  0.1728  0.6034 -1.1404
 1874SOL     OW17257   2.056   4.696  12.935  1.0112 -0.1237 -0.5176
 1874SOL    HW117258   2.025   0.020  12.871  1.5564 -0.1769 -0.8312
 1874SOL    HW217259   2.149   4.687  12.918  1.5369  0.2877  2.0299
 1875SOL     OW17260   1.955   4.115   1.882 -0.2532  0.2035 -0.1171
 1875SOL    HW117261   1.944   4.147   1.792 -1.5069 -1.5718 -0.5914
 1875SOL    HW217262   1.972   4.021   1.879 -2.6508 -0.3164  2.9959
 1876SOL     OW17263   2.246   4.151   9.958  0.3994 -0.2332 -0.1579
 1876SOL    HW117264   2.290   4.227   9.996  0.2289 -0.8014  1.1921
 1876SOL    HW217265   2.164   4.146  10.007  1.6731  0.4585  2.0448
 1877SOL     OW17266   2.064   4.183   1.566 -0.1916 -0.2903  0.3153
 1877SOL    HW117267   2.150   4.220   1.547 -0.3908  0.7530  1.4285
 1877SOL    HW217268   2.066   4.103   1.514 -0.4975  0.1717 -0.3994
 1878SOL     OW17269   1.606   3.884   5.938  0.0650  0.7036 -0.4432
 1878SOL    HW117270   1.546   3.889   5.863 -0.1951  2.6964 -0.1261
 1878SOL    HW217271   1.601   3.791   5.958 -0.2165  0.7829 -0.1377
 1879SOL     OW17272   4.103   4.459   2.334  0.6258  0.3830  0.3607
 1879SOL    HW117273   4.057   4.440   2.415  0.2961  2.7074  0.7292
 1879SOL    HW217274   4.179   4.402   2.327  0.7294  0.6048 -0.3715
 1880SOL     OW17275   4.284   3.338   7.787  0.0981 -0.0743  0.1125
 1880SOL    HW117276   4.221   3.379   7.726  0.1955  2.7140  1.8710
 1880SOL    HW217277   4.226   3.326   7.862 -1.3073  1.4968 -0.6979
 1881SOL     OW17278   2.521   0.626   8.646  0.0834  0.1050 -0.5363
 1881SOL    HW117279   2.548   0.652   8.558 -1.1546 -0.6276 -1.1430
 1881SOL    HW217280   2.534   0.532   8.648  1.9670  0.3522 -0.8500
 1882SOL     OW17281   1.325   3.263   4.998  0.5734 -0.1029  0.2958
 1882SOL    HW117282   1.391   3.197   4.975 -0.2841 -1.1081  0.7306
 1882SOL    HW217283   1.252   3.205   5.018  0.6101 -0.4952 -0.7602
 1883SOL     OW17284   0.903   2.513   3.320 -0.0967  0.3327  0.3001
 1883SOL    HW117285   0.852   2.576   3.269 -0.7086 -0.3584  0.0620
 1883SOL    HW217286   0.937   2.463   3.244  0.5723  1.4110 -0.1113
 1884SOL     OW17287   4.725   1.833   6.126 -0.0186 -0.1083  0.2550
 1884SOL    HW117288   4.670   1.811   6.051  1.1352 -2.0785 -0.0356
 1884SOL    HW217289   4.649   1.868   6.172 -0.2902  0.2193 -0.4504
 1885SOL     OW17290   2.975   3.707   3.734  0.2305  0.6477  0.0979
 1885SOL    HW117291   2.893   3.668   3.763  0.8782 -1.6780 -1.2032
 1885SOL    HW217292   3.022   3.638   3.782  1.6256 -0.3582 -2.7334
 1886SOL     OW17293   4.325   1.015   4.214 -0.4044 -0.2058 -0.2306
 1886SOL    HW117294   4.305   0.952   4.284  0.8815 -0.3489  0.0018
 1886SOL    HW217295   4.387   1.072   4.259  0.7499 -1.6823  0.0349
 1887SOL     OW17296   3.163   4.059  15.783  0.1698  0.2785 -0.0785
 1887SOL    HW117297   3.070   4.034  15.786  0.1895  0.1553 -0.6027
 1887SOL    HW217298   3.158   4.114  15.862  0.5849 -0.9266  0.7822
 1888SOL     OW17299   1.956   2.061   6.081  0.5366 -0.6244 -0.1435
 1888SOL    HW117300   1.986   2.037   5.993  2.1486 -0.2321  0.2992
 1888SOL    HW217301   2.034   2.108   6.112 -2.5402  3.3325  1.5669
 1889SOL     OW17302   2.250   3.826   1.077  0.2686 -0.2190  0.5062
 1889SOL    HW117303   2.241   3.767   1.002 -2.3758  0.7087  0.0824
 1889SOL    HW217304   2.232   3.905   1.026  3.6711 -0.6128 -1.2871
 1890SOL     OW17305   0.549   2.654   9.240  0.5095 -0.1104  0.0425
 1890SOL    HW117306   0.634   2.620   9.213 -0.3109 -0.8902 -1.5241
 1890SOL    HW217307   0.575   2.734   9.287  0.6315  0.5061 -1.0853
 1891SOL     OW17308   1.692   2.165  14.675  0.2986 -0.0789  0.3239
 1891SOL    HW117309   1.766   2.212  14.637 -0.9986  1.5333 -0.2275
 1891SOL    HW217310   1.727   2.105  14.740  2.2026  0.5457 -0.1111
 1892SOL     OW17311   1.321   1.451   0.193  0.5868  0.0010  0.0705
 1892SOL    HW117312   1.306   1.485   0.281  0.0713 -0.4333  0.1522
 1892SOL    HW217313   1.227   1.446   0.174  0.4522  0.7707  0.5311
 1893SOL     OW17314   4.298   4.192  12.897 -0.4015  0.5364  0.0996
 1893SOL    HW117315   4.269   4.103  12.879 -1.3936  1.0226 -0.7081
 1893SOL    HW217316   4.242   4.236  12.834  1.2590  0.4497 -1.4264
 1894SOL     OW17317   2.469   1.274   8.125 -0.0636 -0.0544  0.4729
 1894SOL    HW117318   2.390   1.249   8.077 -0.8221  0.2933  1.5402
 1894SOL    HW217319   2.460   1.368   8.140 -0.2199  0.0649 -0.3986
 1895SOL     OW17320   3.375   0.259   5.699 -0.0477 -0.6141  0.4372
 1895SOL    HW117321   3.288   0.254   5.738  0.0885 -0.6958  0.7318
 1895SOL    HW217322   3.347   0.302   5.618 -2.0177 -0.6858  1.0700
 1896SOL     OW17323   0.852   4.041   3.007  0.8324  0.1018 -0.3186
 1896SOL    HW117324   0.765   4.044   2.967 -0.6750  0.4939  2.9922
 1896SOL    HW217325   0.848   4.087   3.091  2.0887 -1.1611  0.4466
 1897SOL     OW17326   2.622   4.468   9.211 -0.4023  0.4985  0.6758
 1897SOL    HW117327   2.603   4.558   9.237  1.4731  0.5876  1.6897
 1897SOL    HW217328   2.600   4.462   9.118 -0.3455  0.4021  0.6679
 1898SOL     OW17329   3.150   4.285   4.700  0.0200 -0.6486  0.4090
 1898SOL    HW117330   3.137   4.340   4.623  1.8162  0.9788  1.2697
 1898SOL    HW217331   3.061   4.261   4.727 -0.1572  0.8303  1.1272
 1899SOL     OW17332   3.766   4.701   5.241  0.2681  0.5110  0.3016
 1899SOL    HW117333   3.793   4.702   5.149 -1.1933  0.3684 -0.1304
 1899SOL    HW217334   3.725   0.046   5.254 -4.6564 -2.3895  3.9109
 1900SOL     OW17335   0.689   0.892   5.907 -0.0219  0.3333 -0.1440
 1900SOL    HW117336   0.713   0.840   5.984  0.5076 -0.7591 -1.0425
 1900SOL    HW217337   0.609   0.939   5.932  0.2065 -0.6782  2.5682
 1901SOL     OW17338   2.309   0.536   3.383 -0.2457 -0.1934  0.0933
 1901SOL    HW117339   2.376   0.478   3.346 -1.3148 -1.8095  0.7101
 1901SOL    HW217340   2.315   0.518   3.476 -0.9017  2.6343  0.6743
 1902SOL     OW17341   1.594   4.582  16.966 -0.2172  0.1763 -0.1193
 1902SOL    HW117342   1.616   4.585  16.873 -0.3902 -0.4482 -0.1752
 1902SOL    HW217343   1.624   4.668  16.998  3.0302 -1.4386  1.2034
 1903SOL     OW17344   0.276   1.801   9.566  0.6388 -0.3343  0.1755
 1903SOL    HW117345   0.263   1.711   9.536  1.4930 -0.3861 -0.0599
 1903SOL    HW217346   0.190   1.842   9.572  0.5831 -1.0303  4.2338
 1904SOL     OW17347   0.450   4.236   4.057 -0.3184 -0.1113 -0.3214
 1904SOL    HW117348   0.512   4.308   4.061  0.4044 -0.6981 -0.9736
 1904SOL    HW217349   0.470   4.180   4.132 -0.7147  2.3743  1.6249
 1905SOL     OW17350   3.059   2.554   2.456 -0.3242 -0.4030  0.2055
 1905SOL    HW117351   2.978   2.503   2.451 -0.3124 -0.3702 -0.3858
 1905SOL    HW217352   3.022   2.619   2.515  1.7480  1.1971 -0.2914
 1906SOL     OW17353   2.707   1.143  14.490 -0.2295  0.4478 -0.1692
 1906SOL    HW117354   2.770   1.116  14.557  0.0527  0.5858 -0.3844
 1906SOL    HW217355   2.690   1.055  14.456 -1.4495  1.1247 -1.3066
 1907SOL     OW17356   0.324   4.659   5.158  0.0116 -0.6581  0.2876
 1907SOL    HW117357   0.374   4.578   5.168 -2.2413 -2.0046  0.5782
 1907SOL    HW217358   0.376   4.713   5.218  0.6009 -2.2569  1.2157
 1908SOL     OW17359   2.207   3.448   4.520  0.2093 -0.0767  0.0222
 1908SOL    HW117360   2.186   3.420   4.431  0.5126  0.4604 -0.2204
 1908SOL    HW217361   2.133   3.418   4.573 -0.6367  0.7262 -0.7226
 1909SOL     OW17362   3.688   0.470   9.345 -0.5410 -0.3308  0.5631
 1909SOL    HW117363   3.627   0.446   9.414 -0.8614 -0.2627  0.3032
 1909SOL    HW217364   3.685   0.565   9.355 -0.4927 -0.5402  2.5681
 1910SOL     OW17365   1.548   3.344   9.344  0.1770 -0.0927  0.1606
 1910SOL    HW117366   1.602   3.267   9.328  1.3631  0.9566 -0.8033
 1910SOL    HW217367   1.459   3.309   9.347  0.8585 -1.6501  2.1409
 1911SOL     OW17368   0.128   3.753  14.596 -0.0825 -0.1223 -0.2069
 1911SOL    HW117369   0.043   3.792  14.576 -0.2192 -0.8289 -1.0194
 1911SOL    HW217370   0.166   3.811  14.662 -0.7226  0.4087 -0.3041
 1912SOL     OW17371   4.264   1.129   0.692 -0.1012 -0.0986  0.3702
 1912SOL    HW117372   4.210   1.050   0.691  0.1398 -0.2672  0.9273
 1912SOL    HW217373   4.268   1.144   0.787 -0.0223  0.1577  0.3279
 1913SOL     OW17374   1.949   1.931   0.565 -0.4386  0.3228  0.0278
 1913SOL    HW117375   1.871   1.915   0.618 -0.1987  0.3657  0.3907
 1913SOL    HW217376   1.909   1.932   0.478 -0.6730 -0.0484  0.1317
 1914SOL     OW17377   3.552   2.069   2.741  0.0424  0.1593  0.0688
 1914SOL    HW117378   3.562   1.974   2.735  2.6998  0.5176 -1.0187
 1914SOL    HW217379   3.493   2.069   2.816  0.9381  1.0337  0.7754
 1915SOL     OW17380   0.749   2.234   9.058  0.0681 -0.2741  0.4013
 1915SOL    HW117381   0.750   2.309   9.119 -0.5856  0.4395 -0.4589
 1915SOL    HW217382   0.792   2.161   9.102 -1.2398 -2.1040 -1.3807
 1916SOL     OW17383   3.416   4.253   2.667 -0.1118 -0.3097  0.0004
 1916SOL    HW117384   3.474   4.249   2.742 -0.8434 -0.5689  0.5482
 1916SOL    HW217385   3.340   4.303   2.696  2.0645  0.6627  3.9128
 1917SOL     OW17386   3.446   1.388  10.679  0.0222 -0.1075  0.2390
 1917SOL    HW117387   3.517   1.324  10.687 -0.4046 -0.4753  1.0260
 1917SOL    HW217388   3.416   1.403  10.768  1.1137  0.1445  0.5647
 1918SOL     OW17389   1.050   1.778   3.835  0.1926 -0.1546 -0.8518
 1918SOL    HW117390   1.131   1.819   3.862  0.5201 -0.1980 -1.7650
 1918SOL    HW217391   0.999   1.782   3.916 -0.0214 -1.5330 -0.9048
 1919SOL     OW17392   4.680   2.625   5.785 -0.0620  0.6962  0.3703
 1919SOL    HW117393   4.591   2.659   5.774  0.1454  1.1953  0.2602
 1919SOL    HW217394   4.729   2.700   5.753  3.0469 -1.0445  1.0431
 1920SOL     OW17395   0.578   3.596  13.187 -0.5486  0.0547  0.1745
 1920SOL    HW117396   0.612   3.522  13.236 -0.4100 -0.3156 -0.4826
 1920SOL    HW217397   0.629   3.665  13.230  1.1197  1.0500 -3.4423
 1921SOL     OW17398   1.327   1.223   6.270  0.1750  0.5472  0.2712
 1921SOL    HW117399   1.245   1.218   6.319 -0.5272  1.4385 -0.8144
 1921SOL    HW217400   1.390   1.239   6.340  0.7182  0.3010 -0.1541
 1922SOL     OW17401   2.306   0.374   5.872 -0.5113  0.7809 -0.3937
 1922SOL    HW117402   2.390   0.330   5.884 -1.7446 -0.7689  2.6105
 1922SOL    HW217403   2.324   0.423   5.792 -2.7321  1.6707 -0.3559
 1923SOL     OW17404   4.376   1.506   1.872 -0.5714 -0.2957  0.5164
 1923SOL    HW117405   4.338   1.514   1.960  1.5720 -0.9732  1.4972
 1923SOL    HW217406   4.459   1.463   1.892 -1.8230 -3.3413 -0.8271
 1924SOL     OW17407   0.291   2.256   3.226  0.2677 -0.1670  0.3051
 1924SOL    HW117408   0.282   2.248   3.321  2.7198 -0.5668  0.5087
 1924SOL    HW217409   0.331   2.342   3.211  0.0205 -0.0866  0.1109
 1925SOL     OW17410   1.223   1.124  13.585  0.1989 -0.0380  0.3598
 1925SOL    HW117411   1.218   1.044  13.637 -0.8596 -0.6180 -0.6375
 1925SOL    HW217412   1.167   1.084  13.520 -0.8920  1.0290  0.6446
 1926SOL     OW17413   1.233   0.876   0.455 -0.0174 -0.0195 -0.1118
 1926SOL    HW117414   1.324   0.903   0.443 -0.3893  1.7308  1.0120
 1926SOL    HW217415   1.186   0.959   0.448 -0.0661  0.0733  1.1605
 1927SOL     OW17416   3.449   2.213   7.901  0.0378  0.0642  0.3743
 1927SOL    HW117417   3.465   2.197   7.994  0.6682 -1.1703  0.0483
 1927SOL    HW217418   3.358   2.243   7.904 -0.6801 -2.0953  0.3165
 1928SOL     OW17419   3.313   3.434  15.850  0.2287  0.3557  0.4098
 1928SOL    HW117420   3.333   3.468  15.938 -1.2113 -2.4380  1.8341
 1928SOL    HW217421   3.312   3.516  15.800  1.0926  1.9956  3.0551
 1929SOL     OW17422   1.881   4.466  17.485  0.6054 -0.4318  0.1090
 1929SOL    HW117423   1.827   4.402  17.439 -0.7267 -0.4655  1.7367
 1929SOL    HW217424   1.877   4.542  17.426 -2.0547  0.1456  1.0754
 1930SOL     OW17425   1.144   4.080   2.005  0.2283  0.3773  0.5036
 1930SOL    HW117426   1.222   4.100   2.058 -0.2955  0.3468  1.2755
 1930SOL    HW217427   1.129   4.157   1.950 -0.0142 -0.2193 -0.2519
 1931SOL     OW17428   4.570   1.906   2.260  0.6953  0.7141  0.7710
 1931SOL    HW117429   4.491   1.863   2.291  0.9550 -0.2294  0.1088
 1931SOL    HW217430   4.602   1.948   2.340  1.6708 -1.6194  1.5862
 1932SOL     OW17431   2.268   1.182  11.019  0.5127 -0.3122  0.0175
 1932SOL    HW117432   2.307   1.131  10.947 -0.0945 -1.8237  0.7595
 1932SOL    HW217433   2.321   1.152  11.093 -0.3355 -3.4350 -0.6165
 1933SOL     OW17434   3.084   4.305   6.010  0.1473  0.1986  0.1484
 1933SOL    HW117435   3.090   4.374   5.944 -0.0184  0.3585  0.2999
 1933SOL    HW217436   3.098   4.230   5.951 -0.7963 -0.2785  0.5239
 1934SOL     OW17437   1.865   0.068   5.533 -0.0119 -0.3705  0.6402
 1934SOL    HW117438   1.820   0.152   5.527 -2.4952 -1.8262 -1.1579
 1934SOL    HW217439   1.890   0.047   5.443 -1.7026  1.0156 -0.1461
 1935SOL     OW17440   1.266   4.045   9.024 -0.5466  0.5326  0.2577
 1935SOL    HW117441   1.286   4.126   9.070 -0.5912 -0.3962  1.9474
 1935SOL    HW217442   1.343   4.035   8.968 -0.9424  2.0357 -0.5353
 1936SOL     OW17443   3.034   4.101  12.052  0.1235 -0.3635  0.2040
 1936SOL    HW117444   3.078   4.167  12.106  0.3934 -0.6346  0.3129
 1936SOL    HW217445   2.998   4.048  12.123 -0.2364 -1.6062 -0.9074
 1937SOL     OW17446   0.666   1.356  12.885 -0.4580  0.4357  0.1537
 1937SOL    HW117447   0.718   1.294  12.834 -0.7523  0.7207 -0.4937
 1937SOL    HW217448   0.598   1.371  12.819 -1.2802  0.2208  0.9481
 1938SOL     OW17449   0.578   4.105   2.241  0.4186 -0.6346 -0.2359
 1938SOL    HW117450   0.531   4.060   2.171  0.9299 -0.4971 -0.6617
 1938SOL    HW217451   0.518   4.174   2.269  1.1484  0.7141 -2.0556
 1939SOL     OW17452   4.067   1.387   6.230 -0.2336 -0.1467  0.2468
 1939SOL    HW117453   4.044   1.474   6.200 -1.6056 -0.3739  0.6439
 1939SOL    HW217454   3.989   1.337   6.207 -0.1381 -0.1999  0.0385
 1940SOL     OW17455   3.578   2.001  10.926  0.4060  0.1340  0.1541
 1940SOL    HW117456   3.538   1.952  10.853  1.3214  0.6578 -0.6912
 1940SOL    HW217457   3.531   1.966  11.002  0.9529 -1.5568 -0.2783
 1941SOL     OW17458   3.542   2.433   4.629 -0.3058  0.4953 -0.3335
 1941SOL    HW117459   3.455   2.469   4.647 -0.3742  1.6352 -3.0224
 1941SOL    HW217460   3.553   2.394   4.716 -1.0470 -3.2399 -1.9021
 1942SOL     OW17461   1.960   0.847  12.643 -0.1735  0.0481  0.9515
 1942SOL    HW117462   2.048   0.849  12.605  0.3343  0.7113  2.1653
 1942SOL    HW217463   1.947   0.752  12.642 -0.5029  0.1443 -2.1147
 1943SOL     OW17464   3.990   3.717   6.918  0.3523  0.3237  0.4559
 1943SOL    HW117465   3.982   3.776   6.993  0.8453 -1.6823  2.0843
 1943SOL    HW217466   4.066   3.760   6.878  1.0102 -1.1611  0.1062
 1944SOL     OW17467   4.192   0.210   9.875  0.4464  0.3164  0.2454
 1944SOL    HW117468   4.133   0.278   9.906  0.2540 -0.2762  1.1818
 1944SOL    HW217469   4.225   0.178   9.959 -0.2528 -0.3766  0.2482
 1945SOL     OW17470   3.657   0.604  11.061  0.0894  0.1214 -0.5938
 1945SOL    HW117471   3.588   0.671  11.058 -1.9211 -1.8455  1.4596
 1945SOL    HW217472   3.731   0.663  11.075 -0.0272 -0.1917  1.3722
 1946SOL     OW17473   3.243   3.208   6.487  0.0771 -0.0807  0.3719
 1946SOL    HW117474   3.246   3.126   6.537  0.7808  0.2930  0.9391
 1946SOL    HW217475   3.197   3.176   6.410  0.2825 -0.7352  0.5152
 1947SOL     OW17476   3.527   1.523   3.545 -0.2397  0.1163  0.1390
 1947SOL    HW117477   3.561   1.602   3.503 -2.4734  1.2765  0.4765
 1947SOL    HW217478   3.504   1.555   3.633  1.2277 -0.8477  0.8797
 1948SOL     OW17479   4.022   4.723  13.145  0.2775 -0.1059  0.5026
 1948SOL    HW117480   3.929   0.001  13.139  1.1965  3.7679 -2.0162
 1948SOL    HW217481   4.057   0.042  13.078 -3.1658  2.0833  0.6706
 1949SOL     OW17482   3.435   4.159  16.373 -0.1724 -0.6656 -0.6199
 1949SOL    HW117483   3.485   4.118  16.303 -0.6292 -2.7581  0.2737
 1949SOL    HW217484   3.414   4.082  16.426  1.2090 -0.5560  0.0689
 1950SOL     OW17485   0.026   2.774   9.865  0.6130  0.1774  0.5695
 1950SOL    HW117486   4.729   2.704   9.812  2.2366 -1.1214  1.1419
 1950SOL    HW217487   4.697   2.800   9.927  0.8782 -0.9755  1.3449
 1951SOL     OW17488   1.098   1.963  10.276  0.2612  0.0296  0.2587
 1951SOL    HW117489   1.013   1.964  10.231  1.5051  0.3694 -2.0789
 1951SOL    HW217490   1.115   2.057  10.290  3.6840 -0.4494 -0.7458
 1952SOL     OW17491   3.218   3.762   4.652 -0.1452  0.4776 -0.6391
 1952SOL    HW117492   3.310   3.766   4.627 -0.5467  1.2832 -2.0671
 1952SOL    HW217493   3.196   3.672   4.630  0.5358  0.3223 -0.6588
 1953SOL     OW17494   3.455   3.067   7.420 -0.3591 -0.0748 -0.5790
 1953SOL    HW117495   3.437   3.115   7.339  2.8544 -0.1805 -1.3426
 1953SOL    HW217496   3.407   2.985   7.408 -1.2303  0.3503  0.0248
 1954SOL     OW17497   2.502   3.208   8.304 -0.3573 -0.3661 -0.4022
 1954SOL    HW117498   2.586   3.175   8.272 -0.4349 -0.7689 -0.1930
 1954SOL    HW217499   2.433   3.206   8.236 -1.0264  1.0750  0.2410
 1955SOL     OW17500   4.693   1.799   1.511  0.0866 -0.7812 -0.0765
 1955SOL    HW117501   4.702   1.748   1.591 -3.1254 -1.7566 -0.3553
 1955SOL    HW217502   4.673   1.887   1.543  1.6520  0.7030 -3.1459
 1956SOL     OW17503   2.868   1.559   2.808 -0.4704  0.3717  0.5787
 1956SOL    HW117504   2.907   1.530   2.727 -1.4102  1.1319 -0.1563
 1956SOL    HW217505   2.816   1.483   2.835  0.7606 -0.7271 -0.1760
 1957SOL     OW17506   1.300   4.403   5.581  0.9867  1.1334  0.1047
 1957SOL    HW117507   1.362   4.330   5.589 -0.9945 -0.4442  1.0609
 1957SOL    HW217508   1.250   4.365   5.509  1.1756  2.5933 -0.8008
 1958SOL     OW17509   0.362   1.511   1.326  0.4899 -0.0075 -0.2930
 1958SOL    HW117510   0.384   1.598   1.291  0.7476  0.2141  0.4205
 1958SOL    HW217511   0.267   1.507   1.312  0.9124 -2.2564 -2.4829
 1959SOL     OW17512   0.120   2.851   4.202 -0.2665  0.2431  0.0240
 1959SOL    HW117513   0.057   2.866   4.132 -0.6413 -3.9192 -0.5785
 1959SOL    HW217514   0.168   2.930   4.178 -0.5757  0.9926  1.9048
 1960SOL     OW17515   2.315   2.142   4.380  0.4964  0.5213 -0.1089
 1960SOL    HW117516   2.248   2.210   4.377  0.6173  0.7240  1.9781
 1960SOL    HW217517   2.278   2.073   4.324 -0.2734 -1.8050  3.2112
 1961SOL     OW17518   3.569   0.650  11.736  0.2411 -0.1135 -0.2236
 1961SOL    HW117519   3.485   0.683  11.705 -1.4464 -3.3358  0.9125
 1961SOL    HW217520   3.622   0.726  11.715  1.5638 -0.9266  0.1496
 1962SOL     OW17521   2.308   3.210   9.392  0.4767  0.0117 -0.0182
 1962SOL    HW117522   2.294   3.123   9.430  0.9508 -0.6213 -1.2750
 1962SOL    HW217523   2.352   3.192   9.309 -1.4223 -0.2007 -0.9734
 1963SOL     OW17524   4.216   3.535   8.143  0.4164  0.7461 -0.0460
 1963SOL    HW117525   4.310   3.553   8.152  0.5738 -0.1830  0.1923
 1963SOL    HW217526   4.193   3.601   8.078  0.5238  0.4190 -0.4208
 1964SOL     OW17527   3.530   3.644   7.105 -0.9542  1.1875  0.0044
 1964SOL    HW117528   3.622   3.643   7.080 -0.3607 -1.4696  2.2672
 1964SOL    HW217529   3.534   3.558   7.147  0.6792  1.1515 -0.2214
 1965SOL     OW17530   0.523   1.577   7.958  0.2173  0.0571 -0.5763
 1965SOL    HW117531   0.522   1.628   7.877 -0.4282 -1.6552 -1.6189
 1965SOL    HW217532   0.445   1.526   7.942 -1.5581  3.2368 -1.9773
 1966SOL     OW17533   1.333   1.365   2.421 -0.4692  0.6041 -0.3744
 1966SOL    HW117534   1.297   1.453   2.407 -1.0580  0.5242  0.6646
 1966SOL    HW217535   1.265   1.324   2.474  1.0062 -1.1369  0.1617
 1967SOL     OW17536   2.739   1.870   2.834 -0.0795 -0.4234 -0.0791
 1967SOL    HW117537   2.815   1.919   2.868 -0.8842  0.2041  0.8168
 1967SOL    HW217538   2.780   1.796   2.789  0.8116 -1.0850  1.8165
 1968SOL     OW17539   0.591   0.500   8.869 -0.1895 -0.0077 -0.3715
 1968SOL    HW117540   0.676   0.543   8.856 -1.3356  2.2350 -0.5941
 1968SOL    HW217541   0.604   0.469   8.958  1.3374 -1.9769 -1.2848
 1969SOL     OW17542   4.596   0.082  11.754 -0.3099 -0.2538  0.4117
 1969SOL    HW117543   4.688   0.108  11.761  0.3356 -2.0747 -1.4631
 1969SOL    HW217544   4.564   0.126  11.675  0.2977  1.6350  1.2034
 1970SOL     OW17545   3.720   3.416   4.498  0.6272  0.1111  0.2789
 1970SOL    HW117546   3.771   3.345   4.538 -1.6452 -1.5217  0.3132
 1970SOL    HW217547   3.778   3.487   4.523  0.2405  0.2355  0.8162
 1971SOL     OW17548   0.292   0.398   5.891  0.3444 -0.3460 -0.1113
 1971SOL    HW117549   0.237   0.414   5.969  0.7352 -0.6298  0.2219
 1971SOL    HW217550   0.230   0.376   5.822  1.0999 -3.1114  0.0989
 1972SOL     OW17551   0.030   0.186   2.120 -0.4580 -0.6995 -0.2194
 1972SOL    HW117552   0.049   0.272   2.157 -0.7084 -0.6777 -0.1388
 1972SOL    HW217553   4.692   0.201   2.068 -0.8844  1.4500  1.0518
 1973SOL     OW17554   1.161   0.214   3.756  0.2363 -0.4737  0.1823
 1973SOL    HW117555   1.117   0.299   3.748  0.2711 -0.5061 -0.3479
 1973SOL    HW217556   1.215   0.229   3.834 -0.8352  1.6397  0.5263
 1974SOL     OW17557   2.538   1.614  16.403  0.6714  0.2826  0.0531
 1974SOL    HW117558   2.446   1.593  16.388 -0.0632  2.7836  1.2162
 1974SOL    HW217559   2.525   1.702  16.439 -1.3195  0.9567 -2.3313
 1975SOL     OW17560   1.455   0.624   0.662  0.5733 -0.2612 -0.7170
 1975SOL    HW117561   1.361   0.644   0.665  0.5191 -0.3764 -1.7544
 1975SOL    HW217562   1.494   0.701   0.621 -0.3277  1.0690  0.9076
 1976SOL     OW17563   2.333   4.576  16.252 -0.1769  0.4891 -0.0944
 1976SOL    HW117564   2.257   4.545  16.302 -0.0449 -0.3324 -0.4045
 1976SOL    HW217565   2.306   4.654  16.205  0.5199  1.6638  1.4539
 1977SOL     OW17566   1.700   4.052   6.545 -0.4176  0.6517 -0.0156
 1977SOL    HW117567   1.760   4.002   6.600 -2.6159 -1.9718  0.0058
 1977SOL    HW217568   1.724   4.015   6.460  2.3958 -1.5069  1.6848
 1978SOL     OW17569   4.114   1.478   3.172 -0.0722 -0.0925 -0.5959
 1978SOL    HW117570   4.093   1.394   3.130 -1.9780  0.5602 -0.9732
 1978SOL    HW217571   4.034   1.490   3.225 -0.8439  0.2628 -1.8559
 1979SOL     OW17572   3.282   0.156  14.482  0.0749  0.0367  0.0064
 1979SOL    HW117573   3.295   0.228  14.544  1.4325 -1.2397  1.2271
 1979SOL    HW217574   3.345   0.178  14.413  2.5188  0.2824  2.3087
 1980SOL     OW17575   1.907   2.060  12.578 -0.1587 -0.0576  0.0448
 1980SOL    HW117576   1.835   2.001  12.602  1.8578 -1.9933  1.2858
 1980SOL    HW217577   1.949   2.020  12.501 -0.1955 -1.9276  0.9786
 1981SOL     OW17578   1.452   0.712   4.841 -0.3052 -0.3885 -0.9237
 1981SOL    HW117579   1.381   0.672   4.792  0.2186  0.9275 -2.7605
 1981SOL    HW217580   1.408   0.778   4.895  0.6158  1.6088 -2.6006
 1982SOL     OW17581   3.871   3.295  10.071 -0.8417  0.6003 -0.2938
 1982SOL    HW117582   3.953   3.302  10.022 -0.1880  0.6754  0.8336
 1982SOL    HW217583   3.897   3.250  10.151 -2.6507  0.1965  0.0668
 1983SOL     OW17584   3.673   4.396  14.406  0.4880 -0.2838 -0.0285
 1983SOL    HW117585   3.740   4.432  14.348  0.0193  0.1804 -0.2834
 1983SOL    HW217586   3.656   4.454  14.480 -0.7427  0.5050 -0.9296
 1984SOL     OW17587   0.671   3.287   4.302  0.2741 -0.1259  0.1500
 1984SOL    HW117588   0.730   3.289   4.377 -1.0069 -0.1114  1.1518
 1984SOL    HW217589   0.619   3.366   4.313  1.9702  1.0039  0.0387
 1985SOL     OW17590   2.188   1.830   6.965 -0.8024  0.0075 -0.3301
 1985SOL    HW117591   2.232   1.802   6.885  0.7056 -2.2436  1.3030
 1985SOL    HW217592   2.192   1.926   6.959 -0.1318  0.1167  1.8991
 1986SOL     OW17593   3.945   3.907   7.103 -0.2959 -0.2440 -0.4903
 1986SOL    HW117594   3.978   3.997   7.111  1.1526 -0.8034 -0.2589
 1986SOL    HW217595   3.874   3.920   7.040 -0.0336  2.7983 -0.1632
 1987SOL     OW17596   2.477   2.972   5.766 -0.5732 -0.1746 -0.1410
 1987SOL    HW117597   2.556   2.964   5.819 -0.3931 -3.0245 -0.8679
 1987SOL    HW217598   2.487   2.903   5.700 -0.3904  0.1742 -0.4802
 1988SOL     OW17599   2.663   2.948  12.247 -0.4640 -0.1895  0.3380
 1988SOL    HW117600   2.603   3.022  12.239  1.0674  0.8972 -1.0892
 1988SOL    HW217601   2.607   2.905  12.311 -1.3870 -0.3803 -0.5987
 1989SOL     OW17602   1.568   0.862   6.278 -0.4804 -0.6950 -0.0541
 1989SOL    HW117603   1.497   0.915   6.241  0.5706 -0.4546 -1.7340
 1989SOL    HW217604   1.536   0.854   6.368 -0.3418 -1.1398 -0.0428
 1990SOL     OW17605   4.651   0.586   6.185  0.7618 -0.3307  0.0680
 1990SOL    HW117606   4.714   0.657   6.191  0.1046  0.2590  0.0813
 1990SOL    HW217607   4.618   0.575   6.274  0.8483 -0.7524  0.0488
 1991SOL     OW17608   2.390   0.661  13.786  0.0050  0.3253 -0.7464
 1991SOL    HW117609   2.362   0.661  13.878 -2.6544  2.1938 -1.5750
 1991SOL    HW217610   2.307   0.633  13.749 -0.1258  0.2455 -0.3944
 1992SOL     OW17611   0.996   3.494  13.698  0.3370 -0.1681  0.2626
 1992SOL    HW117612   0.986   3.438  13.775  0.3021  0.2518  0.5697
 1992SOL    HW217613   1.042   3.435  13.639 -2.0510  0.8144 -2.5538
 1993SOL     OW17614   2.597   3.171   4.398 -0.0121  0.6511 -0.1279
 1993SOL    HW117615   2.636   3.201   4.316 -0.3775 -2.6207 -1.4938
 1993SOL    HW217616   2.551   3.092   4.370 -0.1852  0.3526  0.9879
 1994SOL     OW17617   1.672   1.261  12.548 -0.1668 -0.6559  0.2552
 1994SOL    HW117618   1.719   1.178  12.561  1.3316  0.4888  2.1861
 1994SOL    HW217619   1.628   1.265  12.634 -1.8673 -1.3407 -0.5918
 1995SOL     OW17620   0.568   3.695   2.383 -0.5860  0.1641 -0.3518
 1995SOL    HW117621   0.652   3.733   2.409 -0.8126  0.0186  0.5999
 1995SOL    HW217622   0.593   3.602   2.382  1.2594  0.6677 -0.4764
 1996SOL     OW17623   1.431   1.977   1.658  0.1653 -0.0351  0.0452
 1996SOL    HW117624   1.519   2.013   1.644 -0.6218  1.3465 -1.2906
 1996SOL    HW217625   1.372   2.045   1.626 -1.4712 -1.4053  0.1402
 1997SOL     OW17626   1.661   4.135   6.054  0.1078 -0.0710 -0.2911
 1997SOL    HW117627   1.615   4.052   6.041 -2.4663  1.1921  0.7576
 1997SOL    HW217628   1.729   4.138   5.987  1.3381 -0.8567  0.9384
 1998SOL     OW17629   1.828   0.728   2.167 -0.6429  0.0480  0.0952
 1998SOL    HW117630   1.754   0.670   2.149  1.9250 -2.7182 -1.5287
 1998SOL    HW217631   1.786   0.811   2.189 -0.0459  0.7042 -1.2404
 1999SOL     OW17632   1.857   4.101   1.010 -0.0997  0.4791  0.3645
 1999SOL    HW117633   1.918   4.105   1.083  0.7005  1.3444 -0.3439
 1999SOL    HW217634   1.770   4.118   1.046  0.3626  1.9150  0.8201
 2000SOL     OW17635   2.349   1.945   8.965 -0.5350  0.6793 -0.0484
 2000SOL    HW117636   2.358   2.020   8.906 -0.8268  0.1026 -0.8193
 2000SOL    HW217637   2.254   1.944   8.972 -0.4327  0.1483  1.3235
 2001SOL     OW17638   3.965   4.289   1.843 -0.3306  0.0715  0.0547
 2001SOL    HW117639   3.879   4.254   1.865 -1.3971  2.4070 -0.3295
 2001SOL    HW217640   3.988   4.326   1.929 -0.4321 -0.6038  0.3690
 2002SOL     OW17641   2.531   1.719  14.812 -0.0043 -0.1577  0.0473
 2002SOL    HW117642   2.479   1.650  14.854  2.7027 -1.2636  1.6465
 2002SOL    HW217643   2.610   1.726  14.866 -0.9517 -1.1140  1.5834
 2003SOL     OW17644   1.530   2.762   8.516 -0.4019  0.5553  0.1990
 2003SOL    HW117645   1.465   2.700   8.549 -0.6897  0.7809  0.0582
 2003SOL    HW217646   1.489   2.847   8.534  1.5608  1.8896 -1.5500
 2004SOL     OW17647   4.133   3.870   5.749  0.5199 -0.0184  0.0971
 2004SOL    HW117648   4.104   3.955   5.717 -0.6738  0.3822  2.2303
 2004SOL    HW217649   4.172   3.834   5.670  0.5616  0.6690 -0.1903
 2005SOL     OW17650   4.366   1.996   4.545  0.0809  0.4371 -0.1525
 2005SOL    HW117651   4.447   2.011   4.497  1.6329  0.7093  2.5855
 2005SOL    HW217652   4.344   2.089   4.547 -1.4220  0.0861 -0.3363
 2006SOL     OW17653   3.150   1.100   1.192  0.1301  0.6777  0.7412
 2006SOL    HW117654   3.188   1.032   1.136  0.3129 -0.5524  2.3642
 2006SOL    HW217655   3.061   1.114   1.160  0.2683 -1.6186 -0.6209
 2007SOL     OW17656   1.372   2.492   8.338  0.1321  0.2811 -0.3377
 2007SOL    HW117657   1.424   2.494   8.258 -2.5128 -1.9033 -2.1001
 2007SOL    HW217658   1.282   2.482   8.308 -0.2695 -0.2242  1.0135
 2008SOL     OW17659   1.467   0.154   6.606 -0.1987  0.4324 -0.1065
 2008SOL    HW117660   1.524   0.079   6.627  1.2114  1.5912  0.1836
 2008SOL    HW217661   1.502   0.188   6.524  1.1269  0.2078  0.3631
 2009SOL     OW17662   2.100   0.985   5.858 -0.4898 -0.2375 -0.1461
 2009SOL    HW117663   2.018   1.009   5.902 -0.9266  0.9350 -1.5901
 2009SOL    HW217664   2.110   0.900   5.901 -0.2026 -1.7067 -3.0575
 2010SOL     OW17665   2.649   2.625   2.361 -0.4238  0.0059  0.2598
 2010SOL    HW117666   2.613   2.679   2.432 -1.8021 -0.2697 -0.2303
 2010SOL    HW217667   2.731   2.593   2.397  0.1487 -1.1030 -2.0611
 2011SOL     OW17668   2.981   1.747   4.433  0.0145  0.1678  0.3990
 2011SOL    HW117669   2.886   1.754   4.418 -0.0514 -0.1499  0.6507
 2011SOL    HW217670   2.996   1.781   4.521  0.7746 -2.0061  1.1139
 2012SOL     OW17671   0.308   4.694   0.482 -0.4257  0.1971  0.2579
 2012SOL    HW117672   0.222   4.706   0.523  1.6329  2.9683  3.7994
 2012SOL    HW217673   0.333   0.038   0.443 -0.6995  1.2441  2.3397
 2013SOL     OW17674   2.712   3.032   1.495 -0.0871  0.0119 -0.4636
 2013SOL    HW117675   2.710   3.042   1.400 -0.2377  0.9487 -0.3608
 2013SOL    HW217676   2.795   2.984   1.501 -0.0435  0.1472  0.0266
 2014SOL     OW17677   4.621   3.427   9.052 -0.0589  0.3870  0.1041
 2014SOL    HW117678   4.592   3.429   9.143 -0.6026  2.0991 -0.1263
 2014SOL    HW217679   4.590   3.499   8.999 -0.0155  0.5764  0.3364
 2015SOL     OW17680   4.030   3.959   4.619 -0.3647 -0.2495  0.6858
 2015SOL    HW117681   4.068   3.873   4.602  0.2853  0.6656 -2.5638
 2015SOL    HW217682   3.954   3.954   4.561  0.8778 -2.5185 -0.7355
 2016SOL     OW17683   0.863   1.126  17.644 -0.2550 -0.4367  0.4270
 2016SOL    HW117684   0.785   1.177  17.667  0.1082  0.7770 -1.0655
 2016SOL    HW217685   0.870   1.077  17.726 -0.1559  1.1601  1.3978
 2017SOL     OW17686   0.717   1.822   9.257 -0.1824  0.7564  0.5857
 2017SOL    HW117687   0.705   1.827   9.352 -1.3085  1.3831  0.4090
 2017SOL    HW217688   0.647   1.879   9.226  0.8931  2.3324  1.1108
 2018SOL     OW17689   1.318   4.054   8.357 -0.1420 -0.4434 -0.2038
 2018SOL    HW117690   1.306   3.983   8.420 -0.5597 -0.7286 -0.6092
 2018SOL    HW217691   1.414   4.048   8.357  0.0349  2.3260  0.5350
 2019SOL     OW17692   0.792   3.829   7.466 -0.1717 -0.1926 -0.2612
 2019SOL    HW117693   0.743   3.784   7.534 -1.1007  0.2955 -0.6032
 2019SOL    HW217694   0.724   3.876   7.418 -0.9818 -0.4377  0.6476
 2020SOL     OW17695   3.272   2.140   3.843 -0.3898 -0.6419 -0.1898
 2020SOL    HW117696   3.231   2.142   3.757 -0.9416  1.3911  0.1247
 2020SOL    HW217697   3.310   2.228   3.846 -1.3012 -0.3771  4.1227
 2021SOL     OW17698   0.372   0.654  10.167 -0.3231 -0.3896 -0.2371
 2021SOL    HW117699   0.300   0.592  10.176  0.4054 -1.2198  0.0054
 2021SOL    HW217700   0.419   0.641  10.250 -0.8596  1.6952  0.3893
 2022SOL     OW17701   2.485   3.205   9.184 -0.2167  0.5436 -0.2318
 2022SOL    HW117702   2.543   3.219   9.259 -0.4677 -1.3348  0.3191
 2022SOL    HW217703   2.471   3.292   9.147 -1.5641  0.3906 -0.0954
 2023SOL     OW17704   0.258   2.222   8.297  0.3599  0.1751 -0.3800
 2023SOL    HW117705   0.214   2.148   8.255 -0.9429  1.2106 -0.8523
 2023SOL    HW217706   0.206   2.230   8.377  1.9203 -1.9658  0.8475
 2024SOL     OW17707   4.439   4.283  12.157 -0.2444 -0.2689 -0.3535
 2024SOL    HW117708   4.476   4.278  12.069 -1.8988  1.1175 -1.1246
 2024SOL    HW217709   4.506   4.249  12.215  0.6965  0.3438 -1.0938
 2025SOL     OW17710   2.537   0.944   4.153 -0.2919  0.1109 -0.0151
 2025SOL    HW117711   2.462   0.895   4.121 -0.3029  1.2459 -1.7269
 2025SOL    HW217712   2.589   0.875   4.195 -2.7380 -1.4877  0.3511
 2026SOL     OW17713   1.764   0.248   6.162 -0.0613 -0.2583 -0.0771
 2026SOL    HW117714   1.791   0.158   6.146  0.7310 -0.6317  3.4508
 2026SOL    HW217715   1.669   0.246   6.154 -0.2963  0.6683  2.6555
 2027SOL     OW17716   3.619   0.353  16.387  0.0739 -0.3433 -0.7784
 2027SOL    HW117717   3.577   0.439  16.392  0.1757 -0.3169 -0.3738
 2027SOL    HW217718   3.541   0.307  16.354  0.4896  0.3106 -2.6779
 2028SOL     OW17719   3.501   3.808   3.975 -0.1272 -0.0147 -0.1953
 2028SOL    HW117720   3.521   3.832   4.066  0.6130 -1.5930  0.0614
 2028SOL    HW217721   3.429   3.747   3.991 -0.6809  0.2133 -1.7961
 2029SOL     OW17722   2.795   4.504  15.226 -0.0235  0.0395 -0.8661
 2029SOL    HW117723   2.778   4.595  15.202 -1.4897  0.0155  0.0240
 2029SOL    HW217724   2.888   4.513  15.244 -0.0694 -2.0038  0.4177
 2030SOL     OW17725   2.403   0.247  17.624 -0.1210 -0.6161 -0.2231
 2030SOL    HW117726   2.411   0.212  17.535  1.6988 -0.9887  0.0742
 2030SOL    HW217727   2.319   0.291  17.614 -0.2287 -0.3367  1.8511
 2031SOL     OW17728   2.078   0.075  16.190 -0.8930  0.1155 -0.2524
 2031SOL    HW117729   2.164   0.109  16.166 -0.1399 -1.1071  0.7303
 2031SOL    HW217730   2.034   0.056  16.107 -1.3778 -1.8515  0.4536
 2032SOL     OW17731   3.330   1.625  12.480  0.0659  0.9284  0.0040
 2032SOL    HW117732   3.325   1.603  12.573  1.7193 -0.6370 -0.2592
 2032SOL    HW217733   3.422   1.605  12.461  0.3257  1.2482  0.9296
 2033SOL     OW17734   1.559   0.655   7.455 -0.2641  0.2114 -0.2457
 2033SOL    HW117735   1.524   0.598   7.386  0.1114  0.5256 -0.6928
 2033SOL    HW217736   1.654   0.644   7.447 -0.3337  0.3697 -1.3661
 2034SOL     OW17737   1.916   0.536   6.225  0.3847  0.1804 -0.4288
 2034SOL    HW117738   1.886   0.455   6.267  0.5500 -1.0766 -2.7211
 2034SOL    HW217739   1.829   0.576   6.228 -0.0806 -0.9088  0.9636
 2035SOL     OW17740   1.838   1.296   0.336 -0.1334  0.3077  0.4314
 2035SOL    HW117741   1.913   1.295   0.394  0.9604  1.2717 -0.9689
 2035SOL    HW217742   1.875   1.286   0.248 -0.7609 -0.3655  0.2375
 2036SOL     OW17743   3.115   3.015  12.344 -0.1567  0.1841 -0.2706
 2036SOL    HW117744   3.118   2.943  12.407  0.1278  0.1977 -0.2686
 2036SOL    HW217745   3.173   3.068  12.398 -1.3649 -0.7116  1.9026
 2037SOL     OW17746   3.882   1.496   3.324 -0.0811  0.2537 -0.2662
 2037SOL    HW117747   3.844   1.559   3.263  0.4526 -2.4105 -3.3385
 2037SOL    HW217748   3.838   1.512   3.408 -1.4590  2.4480 -1.4010
 2038SOL     OW17749   4.168   0.985   6.607  0.0222 -0.2930  0.3664
 2038SOL    HW117750   4.129   1.039   6.538 -2.1262  0.8166  2.4448
 2038SOL    HW217751   4.190   1.060   6.662  0.0719  0.2002 -0.3313
 2039SOL     OW17752   1.291   1.168  11.977  0.1150 -0.1126 -0.0648
 2039SOL    HW117753   1.327   1.079  11.980 -2.3441 -1.0683  0.7651
 2039SOL    HW217754   1.364   1.230  11.965  0.9832 -1.0073  0.6234
 2040SOL     OW17755   2.943   0.940   3.576 -0.2150  0.2050 -0.2677
 2040SOL    HW117756   2.994   1.006   3.530 -0.9450 -0.5416 -2.1412
 2040SOL    HW217757   2.865   0.991   3.594 -0.1880  0.3600 -0.5894
 2041SOL     OW17758   2.437   0.128   2.557  0.1757 -0.4264 -0.2961
 2041SOL    HW117759   2.493   0.065   2.602  0.0619 -0.5237 -0.2910
 2041SOL    HW217760   2.346   0.108   2.577  0.4979 -1.1766  0.3816
 2042SOL     OW17761   3.409   1.662   5.397  0.0816  0.0393 -0.1257
 2042SOL    HW117762   3.328   1.623   5.363  2.0395 -2.5193 -1.7597
 2042SOL    HW217763   3.466   1.596   5.359 -0.4459 -0.4381 -0.0945
 2043SOL     OW17764   2.475   1.880   8.386 -0.4759 -0.0903  0.0087
 2043SOL    HW117765   2.419   1.935   8.332 -2.2013 -2.3597 -0.5157
 2043SOL    HW217766   2.547   1.847   8.334 -1.1039 -0.1962 -0.7881
 2044SOL     OW17767   4.448   2.047   3.826  0.6566  0.0049 -0.0887
 2044SOL    HW117768   4.520   1.998   3.786  0.7152  0.0281 -0.0104
 2044SOL    HW217769   4.477   2.138   3.816  0.8404  0.1050  1.3535
 2045SOL     OW17770   4.544   1.722   4.400  0.6262  0.5983 -0.6716
 2045SOL    HW117771   4.464   1.672   4.419  1.1470  1.0379  2.6035
 2045SOL    HW217772   4.600   1.693   4.472  0.2192  0.2657 -0.4845
 2046SOL     OW17773   1.141   4.560  10.947 -0.0848  0.0515  0.0173
 2046SOL    HW117774   1.090   4.481  10.927 -0.5722 -0.0446  1.6125
 2046SOL    HW217775   1.227   4.524  10.927  0.3414  1.2827 -0.3404
 2047SOL     OW17776   1.129   1.363  12.411  0.4881 -0.4038  0.6147
 2047SOL    HW117777   1.173   1.433  12.458 -0.3847  1.8922 -1.9426
 2047SOL    HW217778   1.207   1.309  12.398 -0.2515 -1.1164 -0.8905
 2048SOL     OW17779   1.991   2.215   8.003 -0.4080  0.6417  0.3075
 2048SOL    HW117780   2.044   2.143   7.969 -1.6283 -0.7006  1.3131
 2048SOL    HW217781   1.939   2.166   8.065  0.8398 -0.9581  0.0998
 2049SOL     OW17782   0.590   1.784  10.752 -0.2801 -0.3136 -0.4752
 2049SOL    HW117783   0.565   1.829  10.833  0.4212 -0.5702 -0.1130
 2049SOL    HW217784   0.679   1.755  10.774  0.1377 -0.0628 -1.8270
 2050SOL     OW17785   1.968   2.827  16.236 -0.4474 -0.0259 -0.1742
 2050SOL    HW117786   1.988   2.897  16.298  2.6592 -1.5908  0.5745
 2050SOL    HW217787   2.028   2.845  16.163 -0.1516  1.3965  0.4281
 2051SOL     OW17788   0.195   1.629   7.706  0.3720 -0.0549 -0.2153
 2051SOL    HW117789   0.114   1.581   7.690  0.8662 -1.4849  1.6068
 2051SOL    HW217790   0.251   1.565   7.751  0.7627  0.6859  0.3467
 2052SOL     OW17791   2.567   0.922  12.065 -0.0245  0.4946 -0.4445
 2052SOL    HW117792   2.654   0.953  12.092 -0.5108 -0.1851  1.9103
 2052SOL    HW217793   2.581   0.853  12.000  0.4110 -0.5343  0.7430
 2053SOL     OW17794   1.228   4.444  17.602  0.3213 -0.4337  0.4029
 2053SOL    HW117795   1.311   4.401  17.621  0.1539  0.1737  2.4151
 2053SOL    HW217796   1.191   4.359  17.579 -1.7042  0.2926  0.9802
 2054SOL     OW17797   3.962   4.729   7.751  0.2014 -0.1776 -0.1045
 2054SOL    HW117798   4.056   4.712   7.749  0.3195  0.5283 -0.4102
 2054SOL    HW217799   3.924   4.641   7.755 -1.4274  0.4952 -0.6421
 2055SOL     OW17800   1.668   2.466   7.766  0.4131  0.0169  0.1862
 2055SOL    HW117801   1.699   2.451   7.855 -2.1909 -1.1890  0.8663
 2055SOL    HW217802   1.737   2.521   7.728  0.4926 -0.2978 -0.1285
 2056SOL     OW17803   1.532   4.260   3.157 -0.4716 -0.7169  0.2056
 2056SOL    HW117804   1.575   4.243   3.073 -2.2539  1.9271 -1.2450
 2056SOL    HW217805   1.577   4.195   3.212  0.0257 -1.1836 -0.7574
 2057SOL     OW17806   3.555   3.606  17.360 -0.3955  0.1230 -0.6411
 2057SOL    HW117807   3.627   3.579  17.416 -1.2840  0.3329  0.5991
 2057SOL    HW217808   3.579   3.544  17.291  0.6153 -2.7661  2.3205
 2058SOL     OW17809   1.098   4.562  14.171 -0.2156 -0.7549 -0.2359
 2058SOL    HW117810   1.144   4.479  14.162 -0.9493 -1.2463  0.5517
 2058SOL    HW217811   1.169   4.610  14.215 -2.6829  0.6269  2.2409
 2059SOL     OW17812   4.302   0.838  11.589 -0.5932 -0.5808  0.2250
 2059SOL    HW117813   4.269   0.927  11.580  0.5777 -0.1141  0.5519
 2059SOL    HW217814   4.250   0.789  11.525  0.4810  1.7241 -2.4230
 2060SOL     OW17815   3.893   0.317   5.668 -0.9648  0.0196  0.2732
 2060SOL    HW117816   3.983   0.287   5.680 -0.8228  0.7323  0.9623
 2060SOL    HW217817   3.852   0.262   5.735 -0.4630 -1.1492 -0.3951
 2061SOL     OW17818   2.424   1.596   4.411  0.0929 -0.1112 -0.0022
 2061SOL    HW117819   2.510   1.616   4.373  0.2830 -0.4873  0.2276
 2061SOL    HW217820   2.393   1.538   4.341 -0.4490 -2.5453  2.2553
 2062SOL     OW17821   0.577   2.867   0.921 -0.8417  0.4471  0.0902
 2062SOL    HW117822   0.594   2.868   1.015 -1.7074 -0.2558  0.2513
 2062SOL    HW217823   0.652   2.913   0.884 -0.7891  0.2043 -0.1074
 2063SOL     OW17824   0.332   3.723   7.063  0.3376 -0.2525  0.6059
 2063SOL    HW117825   0.417   3.690   7.036 -0.9845 -2.2923 -1.1093
 2063SOL    HW217826   0.347   3.815   7.042  2.1688 -1.4817 -3.4215
 2064SOL     OW17827   2.801   3.556   3.188  0.1102  0.4573 -0.5690
 2064SOL    HW117828   2.778   3.517   3.103 -1.5247 -1.0587  0.5439
 2064SOL    HW217829   2.846   3.482   3.229 -1.3197  0.3262  0.7594
 2065SOL     OW17830   1.245   2.538  16.492 -0.7031 -1.0066  0.0115
 2065SOL    HW117831   1.285   2.557  16.577  0.2082 -0.0273 -0.6275
 2065SOL    HW217832   1.172   2.479  16.509 -1.8638  0.6403  0.7380
 2066SOL     OW17833   2.611   0.597   0.489 -0.2879 -0.3493 -0.5270
 2066SOL    HW117834   2.693   0.641   0.464 -1.0521  0.4009 -1.7165
 2066SOL    HW217835   2.560   0.617   0.411 -0.5742 -0.2021 -0.3036
 2067SOL     OW17836   4.244   2.381  14.168  0.5104 -0.0736  0.1935
 2067SOL    HW117837   4.224   2.288  14.155 -0.5616  0.1140  0.4699
 2067SOL    HW217838   4.244   2.413  14.078  1.5163 -0.2317  0.1353
 2068SOL     OW17839   3.418   2.375   5.456  0.0624  0.0703 -0.2625
 2068SOL    HW117840   3.366   2.390   5.535  0.5010  0.3513 -0.0250
 2068SOL    HW217841   3.507   2.378   5.492 -0.3005  2.7060  0.4422
 2069SOL     OW17842   1.791   3.234   9.131  0.2270  0.2428 -0.2502
 2069SOL    HW117843   1.865   3.289   9.157  1.3079 -0.3233 -2.1547
 2069SOL    HW217844   1.769   3.198   9.217 -0.7127  1.0916 -0.1340
 2070SOL     OW17845   3.988   0.781  16.785 -0.5948 -0.0032 -0.0828
 2070SOL    HW117846   3.992   0.685  16.789 -1.1995 -0.0661 -0.9983
 2070SOL    HW217847   3.913   0.803  16.841 -0.1548 -1.0745  0.9353
 2071SOL     OW17848   1.322   3.174  10.790 -0.3975  0.7517  0.3133
 2071SOL    HW117849   1.388   3.225  10.743  0.0529 -0.5928 -0.4993
 2071SOL    HW217850   1.238   3.203  10.755 -1.3528 -0.5454  1.5098
 2072SOL     OW17851   4.361   3.190   9.089  0.5342 -0.5785 -0.5133
 2072SOL    HW117852   4.296   3.148   9.145 -1.0201  0.0232 -1.8495
 2072SOL    HW217853   4.381   3.114   9.033  2.7961 -1.5462  1.6509
 2073SOL     OW17854   0.648   2.775   6.695  0.4980 -0.0371  0.7017
 2073SOL    HW117855   0.667   2.803   6.784  0.7724  0.6001  0.4393
 2073SOL    HW217856   0.732   2.760   6.651  1.3020  1.9175  1.5674
 2074SOL     OW17857   3.681   1.125   4.319  0.2933  0.0508  1.1183
 2074SOL    HW117858   3.766   1.089   4.294  1.3171  3.0085  0.4053
 2074SOL    HW217859   3.627   1.140   4.242  0.3978 -1.2951  0.7840
 2075SOL     OW17860   2.002   3.821   6.843 -0.6022 -0.3126  0.3287
 2075SOL    HW117861   2.011   3.866   6.927  0.2028 -1.1287  0.6796
 2075SOL    HW217862   1.916   3.849   6.811  0.0679  1.0051 -0.3501
 2076SOL     OW17863   4.611   1.944   3.608  0.0782 -0.1138  0.2687
 2076SOL    HW117864   4.668   2.015   3.579 -1.5701  0.8779 -0.4997
 2076SOL    HW217865   4.576   1.913   3.525  1.1207  0.7340 -0.4961
 2077SOL     OW17866   4.686   2.376   7.198  0.0964 -0.1317  0.4264
 2077SOL    HW117867   4.699   2.314   7.270  0.6430  0.9831  1.2754
 2077SOL    HW217868   4.658   2.320   7.125  0.4196  2.0393 -1.3854
 2078SOL     OW17869   3.877   0.831  17.566 -0.1499 -0.0277 -0.0498
 2078SOL    HW117870   3.944   0.818  17.499 -1.8500 -2.8048 -1.1650
 2078SOL    HW217871   3.806   0.784  17.523  0.7682  0.1603 -1.8020
 2079SOL     OW17872   2.295   2.773   3.732 -0.1138  0.4987  0.1448
 2079SOL    HW117873   2.209   2.812   3.749 -0.6462  0.2879 -2.1450
 2079SOL    HW217874   2.265   2.692   3.691  2.4147 -0.9137  1.0954
 2080SOL     OW17875   2.201   0.695   6.801  0.0090 -0.3046  0.2876
 2080SOL    HW117876   2.285   0.659   6.831  0.0653 -1.6044 -1.4200
 2080SOL    HW217877   2.218   0.788   6.820  0.8297 -0.4157  0.1127
 2081SOL     OW17878   4.546   0.380   8.485 -0.4064  0.0286 -0.0708
 2081SOL    HW117879   4.596   0.461   8.494  1.9578 -1.3905 -0.3080
 2081SOL    HW217880   4.593   0.323   8.546  1.4202  0.2476 -1.2550
 2082SOL     OW17881   4.515   1.955   5.188 -0.3518 -0.5872  0.5048
 2082SOL    HW117882   4.533   2.014   5.115  1.0100 -2.1102 -0.3982
 2082SOL    HW217883   4.584   1.888   5.181  1.0384  0.7039  2.1095
 2083SOL     OW17884   4.659   3.390   7.620  0.0233  0.0257  0.0960
 2083SOL    HW117885   4.648   3.480   7.588  0.4913  0.5370  1.3939
 2083SOL    HW217886   4.692   3.342   7.544 -0.1350 -0.9370  0.6406
 2084SOL     OW17887   0.004   4.680   8.191  0.4223  1.0536  0.1616
 2084SOL    HW117888   0.014   4.664   8.285  0.7424 -0.1129 -0.0760
 2084SOL    HW217889   4.650   4.666   8.191  0.3673  1.4086  0.3056
 2085SOL     OW17890   4.291   3.128   8.774 -0.3487 -0.6568  0.3391
 2085SOL    HW117891   4.312   3.132   8.680  0.9940  1.9505  0.7419
 2085SOL    HW217892   4.352   3.196   8.801 -0.2597 -0.4409 -0.3819
 2086SOL     OW17893   0.084   1.728   4.541 -0.4417 -0.3325  0.2333
 2086SOL    HW117894   0.042   1.663   4.596 -1.3958 -2.0955 -2.5517
 2086SOL    HW217895   0.169   1.689   4.518  0.1296  0.4508  1.0415
 2087SOL     OW17896   1.923   2.698   4.278 -0.4373  0.0018 -0.2281
 2087SOL    HW117897   1.996   2.643   4.249 -0.7172 -0.4642 -0.0517
 2087SOL    HW217898   1.855   2.641   4.242  0.8716 -1.1565 -0.8671
 2088SOL     OW17899   2.233   2.942   1.247  0.2448 -0.3532 -0.3440
 2088SOL    HW117900   2.280   2.862   1.224  1.0369  0.4649 -1.5143
 2088SOL    HW217901   2.286   3.011   1.208 -1.0480  1.2034  0.6510
 2089SOL     OW17902   2.216   1.416  12.112 -0.5687  0.6123  0.3624
 2089SOL    HW117903   2.224   1.403  12.207  1.4397  2.8938  0.5145
 2089SOL    HW217904   2.190   1.329  12.082 -0.4006 -0.2200  2.6177
 2090SOL     OW17905   3.804   2.755   1.966  0.5498 -0.4861 -0.6448
 2090SOL    HW117906   3.786   2.777   1.874 -2.8354 -1.0987 -0.1020
 2090SOL    HW217907   3.731   2.699   1.990 -1.2865  2.3701  0.4441
 2091SOL     OW17908   2.262   2.965   9.527  0.3392  0.5162 -0.1797
 2091SOL    HW117909   2.229   2.897   9.586  3.3000  0.3084  1.2400
 2091SOL    HW217910   2.354   2.940   9.519  0.6989  2.0989 -1.0129
 2092SOL     OW17911   1.337   2.399  13.263 -0.2272  0.0035  0.2320
 2092SOL    HW117912   1.327   2.444  13.180 -0.4824  1.6764  1.1734
 2092SOL    HW217913   1.290   2.455  13.325  0.0112  1.1799 -0.6642
 2093SOL     OW17914   0.720   4.428   9.481 -0.2392  0.0550  0.0641
 2093SOL    HW117915   0.748   4.464   9.566 -0.0323 -1.2895  0.5559
 2093SOL    HW217916   0.669   4.355   9.517  1.3226  0.4082  3.0431
 2094SOL     OW17917   0.172   4.453   9.838 -0.3169  0.4193 -0.4944
 2094SOL    HW117918   0.135   4.462   9.926  0.9694 -1.2975  0.2219
 2094SOL    HW217919   0.160   4.542   9.805 -0.2881  1.4593  2.2852
 2095SOL     OW17920   0.928   3.353  16.410  0.1170 -0.2264  0.1490
 2095SOL    HW117921   0.879   3.412  16.353  2.5241  0.3413 -1.3236
 2095SOL    HW217922   0.874   3.352  16.490 -0.1937 -0.9237 -0.0780
 2096SOL     OW17923   0.927   2.241  13.152 -0.0702  0.2866  0.0913
 2096SOL    HW117924   0.833   2.256  13.158 -0.0392  0.6389 -0.3236
 2096SOL    HW217925   0.970   2.326  13.156  3.1526 -1.3254 -0.1839
 2097SOL     OW17926   1.957   0.584   6.594  0.3694  0.2446 -0.4846
 2097SOL    HW117927   1.955   0.555   6.685  1.2550  0.0702 -0.5207
 2097SOL    HW217928   1.926   0.501   6.558 -0.2173 -0.2183  1.1008
 2098SOL     OW17929   1.766   1.210   5.555 -0.7515 -0.0133  0.1171
 2098SOL    HW117930   1.794   1.122   5.578 -1.0045 -0.9619 -3.1909
 2098SOL    HW217931   1.736   1.246   5.639  0.1168  1.1524 -0.0678
 2099SOL     OW17932   3.712   3.005   4.382  0.2371 -0.2059 -0.2121
 2099SOL    HW117933   3.801   2.973   4.367  1.0504  1.3647  1.2739
 2099SOL    HW217934   3.714   3.091   4.339 -0.0173 -1.2099 -2.2762
 2100SOL     OW17935   1.320   1.957   8.677 -0.5720 -0.5588 -0.0861
 2100SOL    HW117936   1.282   1.911   8.602  1.2345  0.4956 -1.6493
 2100SOL    HW217937   1.245   2.009   8.702 -1.7934 -3.1653  1.6402
 2101SOL     OW17938   2.303   4.289   1.420  0.1101 -0.1531  0.7106
 2101SOL    HW117939   2.368   4.223   1.395  2.6709  1.3972  3.1376
 2101SOL    HW217940   2.366   4.351   1.457  0.5088  1.0246 -1.8832
 2102SOL     OW17941   2.143   4.054   6.355 -0.2297  0.4265 -0.2396
 2102SOL    HW117942   2.163   4.095   6.439  0.0629 -0.8477  0.3172
 2102SOL    HW217943   2.087   4.117   6.308 -0.5354 -0.5781 -1.2314
 2103SOL     OW17944   2.007   2.700  13.630  0.2018 -0.8726  0.0070
 2103SOL    HW117945   2.074   2.634  13.610 -0.4320 -1.7778  0.8810
 2103SOL    HW217946   1.932   2.682  13.575 -1.2568  1.4234  1.2293
 2104SOL     OW17947   3.598   1.375   7.851 -0.6117  0.0943  0.3871
 2104SOL    HW117948   3.622   1.372   7.758 -0.3490  1.6997  0.3997
 2104SOL    HW217949   3.589   1.282   7.872 -1.7286  0.2378  0.5578
 2105SOL     OW17950   2.533   0.721   4.332  0.0073  0.6967 -0.0891
 2105SOL    HW117951   2.498   0.788   4.390  1.9864  0.3818  1.4740
 2105SOL    HW217952   2.524   0.641   4.384 -1.9260  1.4780  0.7681
 2106SOL     OW17953   3.689   3.305   2.315 -0.9270  0.7657  0.5174
 2106SOL    HW117954   3.751   3.297   2.242  1.0319 -1.1594  2.4218
 2106SOL    HW217955   3.606   3.279   2.275  0.0287 -1.3588 -0.0871
 2107SOL     OW17956   1.629   0.036   8.355 -0.5222  0.4011 -1.0462
 2107SOL    HW117957   1.595   4.706   8.300  1.6897 -0.2076 -1.6363
 2107SOL    HW217958   1.645   4.718   8.429  0.0737  0.3255 -1.2376
 2108SOL     OW17959   3.461   4.549  10.623  0.2255 -0.0352 -0.3900
 2108SOL    HW117960   3.553   4.567  10.604  0.1158  0.1663 -0.7206
 2108SOL    HW217961   3.444   4.613  10.692 -1.8507  0.4504 -1.3671
 2109SOL     OW17962   1.843   4.520  10.046  0.4127 -0.1135  0.3883
 2109SOL    HW117963   1.826   4.598   9.993  0.6675 -0.6866 -0.5286
 2109SOL    HW217964   1.753   4.495  10.067 -0.4451 -0.5777 -3.9460
 2110SOL     OW17965   3.295   2.429   5.710  0.2464  0.0688  0.1887
 2110SOL    HW117966   3.323   2.366   5.777  4.4395  0.9666 -0.7476
 2110SOL    HW217967   3.272   2.506   5.764  0.4690  1.1026 -1.1991
 2111SOL     OW17968   1.506   2.727  16.915 -0.4203 -0.0643  0.4611
 2111SOL    HW117969   1.553   2.698  16.994 -1.3418 -2.4773  0.1250
 2111SOL    HW217970   1.456   2.796  16.959 -0.0494  0.2826  0.3479
 2112SOL     OW17971   2.837   1.725   6.983  0.3288 -0.2760 -0.3771
 2112SOL    HW117972   2.779   1.689   7.051  0.0543  2.5838  0.8887
 2112SOL    HW217973   2.814   1.685   6.899 -0.5475  0.7982 -0.6479
 2113SOL     OW17974   2.977   3.373   8.016 -0.0719  0.3741 -0.3841
 2113SOL    HW117975   2.945   3.463   8.002 -0.9783 -0.6871 -5.0887
 2113SOL    HW217976   3.062   3.397   8.054 -0.6824  0.0927  1.1470
 2114SOL     OW17977   4.185   1.368   5.471  0.2986  0.0015  0.1703
 2114SOL    HW117978   4.178   1.416   5.554  1.3976  2.2670 -1.0544
 2114SOL    HW217979   4.091   1.364   5.450  0.6514  1.4077 -1.6836
 2115SOL     OW17980   4.227   4.586  14.010 -0.1947  0.2711 -0.2473
 2115SOL    HW117981   4.152   4.628  14.053  1.0762  0.9885  1.2686
 2115SOL    HW217982   4.199   4.600  13.920  1.2634  0.0898 -0.7235
 2116SOL     OW17983   0.109   0.803  13.511  0.4615  0.4044 -0.5937
 2116SOL    HW117984   0.141   0.716  13.490 -2.1226 -0.2690 -1.7115
 2116SOL    HW217985   0.196   0.843  13.514 -0.4038  2.1322  1.6598
 2117SOL     OW17986   0.194   3.651   0.048 -0.0067  0.0197  0.7482
 2117SOL    HW117987   0.172   3.689  17.721  2.0627 -1.8487 -0.6099
 2117SOL    HW217988   0.127   3.695   0.101  1.3356  0.5563  2.0141
 2118SOL     OW17989   2.067   1.178   3.728 -0.2113 -0.3306  0.6221
 2118SOL    HW117990   2.113   1.098   3.705 -0.0737 -0.4474  1.3045
 2118SOL    HW217991   1.994   1.181   3.667  1.0646 -0.5865 -0.9049
 2119SOL     OW17992   4.443   2.573   8.897  0.2818  0.4390 -0.2990
 2119SOL    HW117993   4.362   2.580   8.947 -0.6759 -0.5361 -1.7196
 2119SOL    HW217994   4.450   2.653   8.844  1.1183  1.0260  0.6823
 2120SOL     OW17995   0.427   3.098   9.409 -0.1731 -0.0342 -0.5558
 2120SOL    HW117996   0.452   3.174   9.461  0.5365 -0.7327  0.1283
 2120SOL    HW217997   0.336   3.083   9.438  0.0169 -1.9648 -0.9637
 2121SOL     OW17998   1.725   2.077  15.974  0.1467  0.3355  0.1700
 2121SOL    HW117999   1.635   2.049  15.957 -0.0639  1.7520 -1.0419
 2121SOL    HW218000   1.755   2.032  16.054 -0.6007  1.6789  1.2076
 2122SOL     OW18001   3.421   2.717   9.090  0.1466 -0.4445 -0.9823
 2122SOL    HW118002   3.492   2.724   9.027  2.1294 -0.2237  1.3071
 2122SOL    HW218003   3.408   2.623   9.103 -0.4865 -0.3176 -0.6743
 2123SOL     OW18004   3.040   3.652   6.699 -0.0006  0.2578 -0.1432
 2123SOL    HW118005   3.128   3.612   6.697  0.3538  0.9370  1.3845
 2123SOL    HW218006   3.045   3.719   6.767 -1.1120  0.3457 -0.1505
 2124SOL     OW18007   1.182   1.498  16.992 -0.3112  0.0240  0.9394
 2124SOL    HW118008   1.149   1.582  16.962 -1.3347 -1.2860 -1.6296
 2124SOL    HW218009   1.098   1.457  17.011 -2.1088  2.1248 -2.3422
 2125SOL     OW18010   4.527   4.575   5.872 -0.0470  0.2485  0.0028
 2125SOL    HW118011   4.452   4.603   5.821  0.3366  1.8621  0.3012
 2125SOL    HW218012   4.487   4.504   5.921 -0.7131  0.7327  0.1635
 2126SOL     OW18013   0.118   2.701   2.556  0.1779  0.1286  0.4629
 2126SOL    HW118014   0.026   2.688   2.582 -0.6359  4.0677 -0.4805
 2126SOL    HW218015   0.122   2.622   2.502 -3.1400  1.2952 -1.5097
 2127SOL     OW18016   3.970   4.645   7.330 -0.3633 -0.7320  0.5172
 2127SOL    HW118017   4.044   4.619   7.386 -0.1749 -1.6954 -0.1782
 2127SOL    HW218018   3.910   4.571   7.342 -0.6426 -0.4977  0.5469
 2128SOL     OW18019   0.343   1.092  16.780  0.1744 -0.1423 -0.3428
 2128SOL    HW118020   0.296   1.091  16.863  0.6958 -0.8414 -0.0490
 2128SOL    HW218021   0.271   1.091  16.718 -1.5636 -0.0358  1.6906
 2129SOL     OW18022   1.803   2.021  14.878 -0.1677  0.1628 -0.1012
 2129SOL    HW118023   1.783   1.946  14.933 -2.3533  0.7225 -0.1159
 2129SOL    HW218024   1.889   1.993  14.847  0.1318 -0.3098  1.1635
 2130SOL     OW18025   2.415   0.881  14.422  0.2588  0.5987  0.5874
 2130SOL    HW118026   2.451   0.915  14.341  0.8121  1.4060  1.1674
 2130SOL    HW218027   2.497   0.863  14.469  0.0600 -0.0924  0.6736
 2131SOL     OW18028   0.181   4.166  13.562  0.1166 -0.0951 -0.1666
 2131SOL    HW118029   0.109   4.214  13.522  1.3131  1.5816 -0.3443
 2131SOL    HW218030   0.158   4.188  13.652 -0.5139  0.9867 -0.5905
 2132SOL     OW18031   0.991   2.457   3.573 -0.1498 -0.1831 -0.1144
 2132SOL    HW118032   0.944   2.487   3.495  1.1185  1.1636 -0.3526
 2132SOL    HW218033   1.033   2.536   3.606 -1.4203 -0.1044  1.3058
 2133SOL     OW18034   4.722   3.422  10.345 -0.1588 -0.1810  0.0897
 2133SOL    HW118035   0.056   3.445  10.290  0.0323  1.6141  1.0819
 2133SOL    HW218036   0.012   3.439  10.434 -1.6691  1.0062  0.3757
 2134SOL     OW18037   2.476   4.135   7.696  0.2836  0.0313  0.1590
 2134SOL    HW118038   2.535   4.209   7.712  0.6485 -0.0409 -0.8685
 2134SOL    HW218039   2.421   4.141   7.775  1.6246  0.7110  1.0424
 2135SOL     OW18040   1.575   0.181  15.613  0.1777 -0.3013 -0.5253
 2135SOL    HW118041   1.660   0.226  15.608 -0.5487  1.2525  0.9386
 2135SOL    HW218042   1.539   0.219  15.693 -0.3385 -0.6611 -0.5893
 2136SOL     OW18043   2.010   4.423   2.517 -0.1078 -0.0359  0.4347
 2136SOL    HW118044   1.932   4.407   2.569 -0.0874  0.0802  0.5023
 2136SOL    HW218045   2.074   4.437   2.587 -0.7382  2.3069  0.5425
 2137SOL     OW18046   3.450   4.576  16.290 -0.3168  0.1214  0.1957
 2137SOL    HW118047   3.395   4.583  16.368 -1.9399  2.4999 -1.1608
 2137SOL    HW218048   3.519   4.525  16.332 -0.9378  1.5072  2.8857
 2138SOL     OW18049   3.234   1.273   1.396 -0.2686 -0.4031  0.2396
 2138SOL    HW118050   3.328   1.272   1.378 -0.4093  0.6120 -0.5506
 2138SOL    HW218051   3.201   1.215   1.327 -1.1047 -0.5911  0.8011
 2139SOL     OW18052   1.529   4.015   5.058  0.0428 -0.3828  0.2827
 2139SOL    HW118053   1.461   3.961   5.097 -0.0167 -0.0634  0.6199
 2139SOL    HW218054   1.552   3.966   4.979 -1.6953 -1.6157  0.5600
 2140SOL     OW18055   0.255   1.778  10.786  0.1336  0.1351  0.5084
 2140SOL    HW118056   0.310   1.716  10.739 -1.7751 -0.8077 -0.4884
 2140SOL    HW218057   0.317   1.815  10.849 -0.4471  0.5723  0.8287
 2141SOL     OW18058   2.042   2.241   6.392  0.8819  0.2390 -0.2997
 2141SOL    HW118059   2.037   2.305   6.321  0.3910  1.6279  0.9924
 2141SOL    HW218060   2.126   2.199   6.372  0.6880 -0.8042  1.1013
 2142SOL     OW18061   3.935   0.200   0.464  0.0087  0.2390 -0.3742
 2142SOL    HW118062   3.910   0.188   0.372 -0.1672 -2.3108  0.0087
 2142SOL    HW218063   3.848   0.193   0.505  1.2999  0.8901  2.4853
 2143SOL     OW18064   2.384   1.019   1.566 -0.1286  0.0462 -0.1599
 2143SOL    HW118065   2.345   1.018   1.479  0.6563  0.3493 -0.5147
 2143SOL    HW218066   2.361   1.108   1.592  1.5944  0.1326  1.1097
 2144SOL     OW18067   4.649   1.195  16.787  1.2729  0.4824 -0.0568
 2144SOL    HW118068   4.580   1.139  16.750  0.5700  1.4334 -0.1946
 2144SOL    HW218069   4.630   1.286  16.762 -0.1649  0.3211  0.4486
 2145SOL     OW18070   1.937   0.962   2.356  0.0998 -0.3057 -0.2925
 2145SOL    HW118071   1.969   0.966   2.266  1.9735 -0.5823  0.3676
 2145SOL    HW218072   2.007   0.904   2.385  2.1210  1.9364 -0.7401
 2146SOL     OW18073   3.818   4.483  10.784 -0.4244 -0.4972 -0.5405
 2146SOL    HW118074   3.820   4.410  10.723  3.6003 -1.3127  0.5581
 2146SOL    HW218075   3.863   4.445  10.860 -1.0502  0.2706  0.2168
 2147SOL     OW18076   0.422   4.687  16.135 -0.3708 -0.0448  0.4761
 2147SOL    HW118077   0.453   4.666  16.047 -0.5549 -0.1354  0.4331
 2147SOL    HW218078   0.427   4.598  16.170  1.2341 -0.9456 -2.0077
 2148SOL     OW18079   2.323   0.111   8.421  0.0539 -0.4602 -0.2895
 2148SOL    HW118080   2.387   0.042   8.437  1.1621  0.8337  0.8622
 2148SOL    HW218081   2.301   0.135   8.511 -0.3305 -0.2301 -0.4438
 2149SOL     OW18082   1.602   1.824   0.127 -0.3005 -0.5874 -0.2395
 2149SOL    HW118083   1.514   1.854   0.104 -1.0915  0.6027  4.3975
 2149SOL    HW218084   1.608   1.752   0.064 -0.1795 -1.3005  0.5971
 2150SOL     OW18085   4.317   3.911   4.365 -0.0219  0.5731  0.4305
 2150SOL    HW118086   4.265   3.970   4.312  0.4459 -0.7611 -1.5383
 2150SOL    HW218087   4.337   3.981   4.427 -1.4275 -1.1526  2.8292
 2151SOL     OW18088   3.374   2.215  10.891 -0.6362  0.1936  0.3657
 2151SOL    HW118089   3.460   2.184  10.919 -0.0725 -0.5158 -2.0689
 2151SOL    HW218090   3.335   2.131  10.869  1.3613 -0.5734 -0.2066
 2152SOL     OW18091   2.089   4.544   6.944 -0.3924  0.1739  0.4278
 2152SOL    HW118092   2.139   4.579   6.871 -1.7480 -1.6314 -1.3524
 2152SOL    HW218093   2.012   4.532   6.888 -0.2153  1.8167 -0.1687
 2153SOL     OW18094   4.461   2.587   4.870 -0.4385  0.6962 -0.2428
 2153SOL    HW118095   4.479   2.553   4.958  0.0935 -0.5109 -0.8235
 2153SOL    HW218096   4.380   2.537   4.858 -1.1098  1.6829  0.1575
 2154SOL     OW18097   3.181   3.582   6.445  0.2638  0.0878 -0.2524
 2154SOL    HW118098   3.090   3.571   6.473  0.1669  0.7275 -0.3179
 2154SOL    HW218099   3.220   3.513   6.499  3.8178  0.6689 -2.0613
 2155SOL     OW18100   2.876   4.156  15.456  0.0320  0.2090  0.6756
 2155SOL    HW118101   2.887   4.091  15.386 -0.3647  0.6104  0.2343
 2155SOL    HW218102   2.944   4.213  15.421  0.4105 -0.6141  0.0685
 2156SOL     OW18103   2.631   1.408   7.617 -0.8760 -0.4195  0.5228
 2156SOL    HW118104   2.624   1.436   7.526  0.8187  1.2661  0.9007
 2156SOL    HW218105   2.671   1.322   7.607  2.7797  1.2266  0.9399
 2157SOL     OW18106   3.647   2.787   8.062  0.0653 -0.2234 -0.1304
 2157SOL    HW118107   3.694   2.704   8.064  1.1571  0.4406  1.5112
 2157SOL    HW218108   3.652   2.810   7.969 -2.0171 -0.1163 -0.2213
 2158SOL     OW18109   3.386   2.791   6.494  0.6103  0.2709  0.5835
 2158SOL    HW118110   3.438   2.795   6.575  0.9043 -0.4557  0.4392
 2158SOL    HW218111   3.314   2.851   6.513 -0.0439 -0.9261  1.9048
 2159SOL     OW18112   0.066   0.817   6.190  0.3006 -0.1141  0.1963
 2159SOL    HW118113   0.078   0.867   6.271 -1.1233  1.5830 -0.6607
 2159SOL    HW218114   0.064   0.885   6.123  1.2374  0.4143  0.6966
 2160SOL     OW18115   1.958   0.943   4.706  0.3485  0.0104  0.0232
 2160SOL    HW118116   1.878   0.917   4.661  0.9382 -2.9826  0.6584
 2160SOL    HW218117   1.951   1.038   4.698 -1.0529  0.0117  1.3404
 2161SOL     OW18118   0.633   2.753   8.905 -0.2656 -0.3562  0.6995
 2161SOL    HW118119   0.625   2.668   8.861 -0.3774  0.8727 -1.6059
 2161SOL    HW218120   0.586   2.796   8.834 -0.2808  0.7106  1.3557
 2162SOL     OW18121   3.766   0.297   4.686  0.4458 -0.0588 -0.4067
 2162SOL    HW118122   3.831   0.287   4.617 -2.0150 -0.6597 -2.6621
 2162SOL    HW218123   3.785   0.388   4.711  0.4735 -0.2121  0.1261
 2163SOL     OW18124   3.108   0.782   0.340 -0.6986 -0.4168 -0.1917
 2163SOL    HW118125   3.038   0.727   0.373 -0.2443 -0.2424  1.0424
 2163SOL    HW218126   3.145   0.712   0.286 -2.0742 -1.8871  0.8306
 2164SOL     OW18127   3.982   4.324   6.634 -0.5281 -0.2967  0.2532
 2164SOL    HW118128   3.978   4.332   6.730  2.6020 -3.4890  0.6604
 2164SOL    HW218129   3.893   4.352   6.616 -0.5877 -1.2688 -1.0008
 2165SOL     OW18130   4.174   1.824  13.952 -0.4529 -0.4213  0.4242
 2165SOL    HW118131   4.081   1.842  13.961  0.1455  2.7650  0.2108
 2165SOL    HW218132   4.221   1.906  13.970  0.6399 -0.2705 -3.0609
 2166SOL     OW18133   4.499   3.412  13.769  0.1277  0.0009 -0.0889
 2166SOL    HW118134   4.429   3.460  13.724  1.4776  1.2256 -0.8661
 2166SOL    HW218135   4.519   3.465  13.846  1.9792 -2.4471  1.1236
 2167SOL     OW18136   2.838   0.711  17.612 -0.4729 -0.3499  0.0499
 2167SOL    HW118137   2.786   0.638  17.578  0.1447 -1.2725  1.1057
 2167SOL    HW218138   2.854   0.747  17.524 -0.7238 -2.1476 -0.7255
 2168SOL     OW18139   4.274   1.371  16.985 -0.3639  0.5964 -0.0689
 2168SOL    HW118140   4.244   1.289  16.945 -2.1033  0.4772  1.5193
 2168SOL    HW218141   4.194   1.415  17.014 -2.2752 -1.3068 -2.4696
 2169SOL     OW18142   4.229   0.665  15.034 -0.5615  0.6484  0.2117
 2169SOL    HW118143   4.251   0.585  14.986 -3.2698 -0.2372  0.4539
 2169SOL    HW218144   4.134   0.653  15.034 -0.5483  0.5261  1.2579
 2170SOL     OW18145   2.899   4.375   3.575  0.0462  0.1453 -0.5998
 2170SOL    HW118146   2.973   4.425   3.539  1.4189 -1.7213 -0.3842
 2170SOL    HW218147   2.945   4.296   3.605  0.2970  0.3397 -0.4702
 2171SOL     OW18148   3.970   4.620   9.227  0.4635 -0.3611  0.3387
 2171SOL    HW118149   3.901   4.569   9.268  1.8729 -0.1769  2.9253
 2171SOL    HW218150   4.022   4.646   9.303  1.0363 -0.6697  0.0492
 2172SOL     OW18151   4.170   4.255  13.213 -0.0066  0.0858 -0.5742
 2172SOL    HW118152   4.153   4.340  13.173  4.6902  1.8029  1.0518
 2172SOL    HW218153   4.106   4.200  13.168  1.2532 -1.4251 -0.5399
 2173SOL     OW18154   2.268   2.473  10.674 -0.5345 -0.4824  0.0716
 2173SOL    HW118155   2.233   2.476  10.763  1.2227  0.6669  0.7307
 2173SOL    HW218156   2.195   2.509  10.623 -0.9973 -0.3132  0.8603
 2174SOL     OW18157   1.931   4.699   3.659 -0.0938 -0.1230 -0.3083
 2174SOL    HW118158   1.958   4.684   3.568 -0.9634 -0.8630 -0.4508
 2174SOL    HW218159   2.015   4.695   3.704 -1.2679 -1.5214  1.7911
 2175SOL     OW18160   2.849   0.781   0.595 -0.4076  0.1735  0.1309
 2175SOL    HW118161   2.822   0.833   0.519  1.3010 -0.4811 -0.9375
 2175SOL    HW218162   2.899   0.711   0.552  0.3260  1.3248 -0.9242
 2176SOL     OW18163   3.817   0.468   5.210  0.1939  0.0500 -0.4518
 2176SOL    HW118164   3.770   0.545   5.176  1.4627  0.7576 -0.5981
 2176SOL    HW218165   3.860   0.435   5.132  1.2079  0.9472 -0.2649
 2177SOL     OW18166   0.002   2.557   4.221  0.0143 -0.2729 -0.2981
 2177SOL    HW118167   0.073   2.610   4.184  0.3924 -1.1715 -0.8567
 2177SOL    HW218168   4.676   2.557   4.151 -0.8731  3.8973  0.5446
 2178SOL     OW18169   0.252   0.910   3.400 -0.2982 -0.0401 -0.0561
 2178SOL    HW118170   0.328   0.912   3.458 -1.7410  3.0023  1.7045
 2178SOL    HW218171   0.281   0.963   3.326  1.0822 -1.3403 -0.4467
 2179SOL     OW18172   1.021   1.597   7.713  0.3829 -0.1430 -0.4808
 2179SOL    HW118173   1.064   1.572   7.631 -1.3488 -2.8817 -0.5669
 2179SOL    HW218174   1.060   1.684   7.722  0.0140  0.1180 -1.4028
 2180SOL     OW18175   2.947   0.013   0.665  0.4678 -0.2083 -1.2668
 2180SOL    HW118176   2.931   0.104   0.639  2.5553  0.5833  0.2900
 2180SOL    HW218177   3.042   0.008   0.670  0.4455 -0.9540 -1.5204
 2181SOL     OW18178   1.866   2.498   3.915 -0.0631  0.2882 -0.1025
 2181SOL    HW118179   1.927   2.447   3.862  0.1291 -1.2587  1.6379
 2181SOL    HW218180   1.909   2.526   3.996 -0.0910  1.0260 -0.3355
 2182SOL     OW18181   0.421   1.793   1.275 -0.2257  0.2606  0.0961
 2182SOL    HW118182   0.354   1.861   1.278  1.4032  1.8164  2.0416
 2182SOL    HW218183   0.479   1.824   1.345  0.2686  2.3538 -1.2220
 2183SOL     OW18184   1.690   4.609   5.550  0.1197  0.3200  0.5267
 2183SOL    HW118185   1.755   4.677   5.570  0.1388 -0.3248  2.6319
 2183SOL    HW218186   1.707   4.600   5.456 -0.8694  0.3529  0.3497
 2184SOL     OW18187   0.763   3.225  16.142 -0.8884  0.6345 -0.3833
 2184SOL    HW118188   0.760   3.318  16.166  1.1905  0.1225  1.8805
 2184SOL    HW218189   0.784   3.238  16.050  2.1345  1.2848  0.4078
 2185SOL     OW18190   0.397   0.741   7.628 -0.3754 -0.2211  0.1296
 2185SOL    HW118191   0.389   0.837   7.626  0.6796 -0.1467 -0.4143
 2185SOL    HW218192   0.390   0.716   7.536  0.3869  1.2568 -0.3395
 2186SOL     OW18193   1.562   2.153   4.507 -0.3983 -0.2604 -0.5420
 2186SOL    HW118194   1.542   2.194   4.422 -0.4301  0.1752 -0.3240
 2186SOL    HW218195   1.519   2.217   4.563 -0.7961  0.2816 -1.4515
 2187SOL     OW18196   3.839   3.137   8.725  0.8376 -0.1184 -0.4241
 2187SOL    HW118197   3.918   3.091   8.750 -0.4053 -1.0546  1.7713
 2187SOL    HW218198   3.845   3.220   8.772  2.5983 -0.4055 -0.1508
 2188SOL     OW18199   1.929   1.190   8.564  0.0517  0.0361  0.4071
 2188SOL    HW118200   1.944   1.151   8.650 -0.0092 -0.2806  0.2743
 2188SOL    HW218201   2.010   1.239   8.549 -0.4089 -0.1960 -2.7830
 2189SOL     OW18202   3.604   4.140   2.311  0.4618 -0.0533 -0.1061
 2189SOL    HW118203   3.576   4.062   2.359  0.6357  0.4392  0.8096
 2189SOL    HW218204   3.559   4.141   2.227  1.3113 -1.3554 -0.5730
 2190SOL     OW18205   0.007   2.130   3.243 -0.8595 -0.1185  0.1790
 2190SOL    HW118206   4.690   2.203   3.217 -2.4795 -0.9415  1.3780
 2190SOL    HW218207   0.084   2.176   3.210  0.7775 -2.6808  0.4741
 2191SOL     OW18208   3.484   2.686   8.491  0.1200  0.5479 -0.0470
 2191SOL    HW118209   3.511   2.775   8.468 -1.0854  0.8264 -0.3696
 2191SOL    HW218210   3.496   2.642   8.407 -2.0335 -0.9734  0.4714
 2192SOL     OW18211   4.441   3.582   4.722  0.3643  0.2735  0.1121
 2192SOL    HW118212   4.459   3.617   4.634  0.6450 -0.5798 -0.1709
 2192SOL    HW218213   4.350   3.555   4.712  0.5397 -0.4011  0.3746
 2193SOL     OW18214   0.988   2.051   7.842  0.1292  0.1054 -0.4231
 2193SOL    HW118215   0.924   2.002   7.790 -1.2423 -0.1788  1.5103
 2193SOL    HW218216   0.938   2.131   7.859  3.4427  1.6685  1.9950
 2194SOL     OW18217   0.803   1.528  17.371  0.0157  0.4439 -0.4179
 2194SOL    HW118218   0.749   1.525  17.291 -1.5221 -1.1574  0.6924
 2194SOL    HW218219   0.832   1.437  17.374 -1.3545 -0.0271 -0.9985
 2195SOL     OW18220   2.516   1.703   3.345  0.5169  0.3017 -0.1705
 2195SOL    HW118221   2.496   1.730   3.255 -1.9213  2.2595  0.9366
 2195SOL    HW218222   2.430   1.676   3.375 -0.0661  2.8613  0.4714
 2196SOL     OW18223   2.457   0.057  15.595 -0.4823 -0.2791  0.1171
 2196SOL    HW118224   2.500   0.020  15.518 -1.2070  1.7157 -1.2442
 2196SOL    HW218225   2.515   0.132  15.609  2.2670 -2.3127 -0.3253
 2197SOL     OW18226   3.115   2.572   6.535  0.0169  0.1890  0.3583
 2197SOL    HW118227   3.208   2.584   6.554 -0.0869  0.6490  0.5650
 2197SOL    HW218228   3.080   2.615   6.613  1.7923 -1.4768  2.0486
 2198SOL     OW18229   2.060   1.817   5.019 -0.6904  0.5094 -0.0144
 2198SOL    HW118230   2.039   1.910   5.017  1.8587  1.0767 -0.6675
 2198SOL    HW218231   2.016   1.795   4.937  0.4965  1.4453 -0.9128
 2199SOL     OW18232   3.793   3.985   6.883  0.8183  0.1057 -0.3333
 2199SOL    HW118233   3.866   4.024   6.836 -0.2060 -0.4853 -2.4301
 2199SOL    HW218234   3.726   4.053   6.878  0.5608 -0.1152  0.1173
 2200SOL     OW18235   1.065   1.220  17.144  0.2724 -0.1691  0.2434
 2200SOL    HW118236   1.056   1.127  17.122  2.1850 -0.7711  1.9494
 2200SOL    HW218237   1.123   1.206  17.219  1.7339 -1.2879 -1.0896
 2201SOL     OW18238   2.717   1.695   8.851 -0.3791 -0.3050  0.2292
 2201SOL    HW118239   2.711   1.610   8.895  1.4140 -0.7015 -0.2663
 2201SOL    HW218240   2.666   1.745   8.915  0.1514  3.6647 -2.4544
 2202SOL     OW18241   2.480   2.445   3.900  0.0815  0.2500  0.9446
 2202SOL    HW118242   2.512   2.457   3.990 -1.3089  0.6436  1.3873
 2202SOL    HW218243   2.544   2.375   3.888  0.1635  0.1584  1.8947
 2203SOL     OW18244   4.569   2.074   2.057  0.3893  0.3355  0.2923
 2203SOL    HW118245   4.532   2.148   2.104 -2.5388  0.7155 -2.6156
 2203SOL    HW218246   4.581   2.014   2.132 -0.7514  0.3964  0.5194
 2204SOL     OW18247   0.548   2.161   9.431 -0.6340 -0.1604  0.0788
 2204SOL    HW118248   0.641   2.153   9.412 -0.4666 -1.0478  1.2580
 2204SOL    HW218249   0.544   2.107   9.509 -0.3629 -2.2314 -1.3461
 2205SOL     OW18250   4.616   0.659   8.459  0.1690  0.2138  0.8200
 2205SOL    HW118251   4.703   0.691   8.436 -0.4133 -0.4041 -2.2978
 2205SOL    HW218252   4.583   0.724   8.522 -1.7369  0.2265 -0.1739
 2206SOL     OW18253   4.216   3.079   3.852 -0.5237  0.2204 -0.2181
 2206SOL    HW118254   4.169   3.006   3.812 -0.1971 -0.3878  0.4853
 2206SOL    HW218255   4.159   3.072   3.929  0.9102 -2.7059  0.6195
 2207SOL     OW18256   1.025   2.987   2.544  0.0744  0.4549  0.2250
 2207SOL    HW118257   0.975   3.067   2.526 -0.1687  0.4466  0.8816
 2207SOL    HW218258   1.092   3.012   2.608  0.4364 -2.7759  1.0733
 2208SOL     OW18259   3.203   1.131  11.320  0.0760  0.4635  0.5617
 2208SOL    HW118260   3.244   1.194  11.380  1.6836 -1.3101  1.3025
 2208SOL    HW218261   3.169   1.199  11.262  3.6431  0.4870 -1.4748
 2209SOL     OW18262   1.189   1.231  14.760  0.3032 -0.4971 -0.2986
 2209SOL    HW118263   1.163   1.317  14.727  2.8043  0.4004  0.0815
 2209SOL    HW218264   1.151   1.240  14.847  1.2598  0.6200 -0.0021
 2210SOL     OW18265   4.018   1.339   2.725  0.5324 -0.1133 -0.3950
 2210SOL    HW118266   4.007   1.275   2.655  1.3424  0.0887 -0.6982
 2210SOL    HW218267   4.101   1.380   2.702  0.1902  0.7934 -0.0314
 2211SOL     OW18268   1.659   2.345   8.260 -0.4986  0.0736  0.3148
 2211SOL    HW118269   1.690   2.404   8.328 -0.5490 -0.3688  0.7235
 2211SOL    HW218270   1.592   2.291   8.302  0.1801  0.4895  1.9177
 2212SOL     OW18271   4.584   3.114   9.431 -0.3072 -0.1237 -0.3731
 2212SOL    HW118272   4.584   3.054   9.505  1.0670 -1.1985 -1.2302
 2212SOL    HW218273   4.635   3.063   9.368  2.8003  0.7382  1.4487
 2213SOL     OW18274   4.048   2.048  13.499  0.3897 -0.8219  0.2240
 2213SOL    HW118275   4.070   1.961  13.533 -0.4875 -1.0609  0.1772
 2213SOL    HW218276   4.125   2.096  13.531  0.2764  1.7278 -3.3950
 2214SOL     OW18277   1.532   2.272   4.267  0.4176  0.0271  0.3776
 2214SOL    HW118278   1.553   2.318   4.186 -0.0269  0.3070  0.4257
 2214SOL    HW218279   1.437   2.271   4.268  0.4260 -1.4525 -1.7099
 2215SOL     OW18280   2.453   1.822  16.557  0.0875 -0.2062 -0.1639
 2215SOL    HW118281   2.427   1.903  16.514  0.3148  1.4937  2.8503
 2215SOL    HW218282   2.457   1.855  16.647  2.0109 -0.9952  0.0441
 2216SOL     OW18283   2.567   3.202   3.563  0.2523 -0.5408 -0.3539
 2216SOL    HW118284   2.527   3.128   3.608  0.4353  1.2291  2.7190
 2216SOL    HW218285   2.567   3.270   3.630 -0.0728  1.6687 -2.5942
 2217SOL     OW18286   3.915   3.945  14.374 -0.2925 -0.1932 -0.1041
 2217SOL    HW118287   3.887   3.886  14.445 -1.3859 -0.4934 -0.7853
 2217SOL    HW218288   3.845   3.926  14.311  0.6497 -0.8230 -0.9581
 2218SOL     OW18289   0.080   0.693   4.448  0.1851 -0.1619  0.0563
 2218SOL    HW118290   0.028   0.772   4.431  0.8378  0.0855 -0.7787
 2218SOL    HW218291   0.064   0.647   4.366 -2.0799 -0.8234  0.8722
 2219SOL     OW18292   2.780   2.685   3.833  0.0338  0.2100  0.5538
 2219SOL    HW118293   2.773   2.756   3.769 -1.1666 -0.6220 -0.2558
 2219SOL    HW218294   2.702   2.702   3.885 -0.1327 -0.0692  0.4017
 2220SOL     OW18295   1.440   3.474   7.671 -0.2772 -0.6345 -0.5720
 2220SOL    HW118296   1.450   3.492   7.577  2.0946  0.2932 -0.1484
 2220SOL    HW218297   1.531   3.479   7.700  0.1289 -0.4410 -1.8674
 2221SOL     OW18298   1.272   2.818   8.149 -0.2837  0.2288  0.4522
 2221SOL    HW118299   1.263   2.810   8.054 -1.3086  0.7505  0.5075
 2221SOL    HW218300   1.367   2.811   8.158 -0.3646 -0.2640  0.9417
 2222SOL     OW18301   0.655   2.509   3.478 -0.2096  0.1367 -0.3967
 2222SOL    HW118302   0.733   2.495   3.425 -0.5551  0.4370 -0.9779
 2222SOL    HW218303   0.694   2.566   3.544 -1.3718 -1.2164  1.4409
 2223SOL     OW18304   0.272   1.912   4.902 -0.0392 -0.1278 -0.3261
 2223SOL    HW118305   0.350   1.874   4.941  0.8083  2.8291  0.8471
 2223SOL    HW218306   0.308   1.961   4.828  0.4641 -0.5134 -0.3318
 2224SOL     OW18307   3.745   1.341   4.132  0.4247  0.2091  0.0453
 2224SOL    HW118308   3.660   1.297   4.137 -0.9014  2.7220 -0.4910
 2224SOL    HW218309   3.777   1.295   4.055 -1.7332  0.2505 -0.8916
 2225SOL     OW18310   3.193   3.922   0.218 -0.2065 -0.5046  0.0744
 2225SOL    HW118311   3.245   3.991   0.176 -2.6929  1.8539  0.8691
 2225SOL    HW218312   3.116   3.976   0.239 -1.6431 -1.9246 -1.5229
 2226SOL     OW18313   2.151   1.233   8.196 -0.2996 -0.2902 -0.4091
 2226SOL    HW118314   2.154   1.329   8.202  0.7568 -0.4507  1.5830
 2226SOL    HW218315   2.056   1.223   8.187 -0.4643  1.5523 -0.7324
 2227SOL     OW18316   1.127   1.151   0.939 -0.1999  0.1942  0.0434
 2227SOL    HW118317   1.096   1.187   0.856 -0.2267 -0.3418 -0.1817
 2227SOL    HW218318   1.059   1.174   1.002  0.4927  3.4207 -0.3750
 2228SOL     OW18319   0.069   3.393   3.678  0.0364 -0.0009 -0.2337
 2228SOL    HW118320   0.025   3.455   3.735 -3.6003 -0.7842 -2.2096
 2228SOL    HW218321   0.154   3.377   3.721 -1.8287 -1.3817  3.0157
 2229SOL     OW18322   1.403   0.621   8.690 -0.1019 -0.1067  0.1953
 2229SOL    HW118323   1.403   0.528   8.669 -1.8876  0.4097 -2.0825
 2229SOL    HW218324   1.315   0.650   8.668 -1.2345 -1.7728  2.5125
 2230SOL     OW18325   1.376   3.945   0.528  0.5275  0.4171  0.0032
 2230SOL    HW118326   1.415   3.939   0.442 -0.3948  0.8567 -0.4449
 2230SOL    HW218327   1.373   3.850   0.545  0.5682  0.4753  0.3328
 2231SOL     OW18328   3.154   3.927  11.336  0.6658 -0.1626 -0.1626
 2231SOL    HW118329   3.060   3.938  11.328  0.4114 -0.5950  2.0902
 2231SOL    HW218330   3.159   3.848  11.390  1.2257 -0.5729 -0.8143
 2232SOL     OW18331   4.592   0.083   7.228  0.0066 -0.0835  0.4430
 2232SOL    HW118332   4.586   0.088   7.132  1.2265  0.3826  0.3906
 2232SOL    HW218333   4.603   4.728   7.237 -1.1578 -0.0870  1.8005
 2233SOL     OW18334   2.852   0.049  17.254 -0.0390  0.4077 -0.2758
 2233SOL    HW118335   2.874   4.696  17.246 -1.9706 -0.1678  1.0386
 2233SOL    HW218336   2.916   0.091  17.197 -1.2334  1.4770 -0.8254
 2234SOL     OW18337   2.442   1.901   4.864  0.4404 -0.1450 -0.1661
 2234SOL    HW118338   2.387   1.914   4.786  2.2274 -0.5757 -1.4941
 2234SOL    HW218339   2.389   1.859   4.931  2.6349 -2.1477  0.2864
 2235SOL     OW18340   2.714   2.553   2.717  0.4958  0.3220  0.5266
 2235SOL    HW118341   2.752   2.520   2.635  2.0337  1.4184  0.8046
 2235SOL    HW218342   2.628   2.587   2.695  0.8636  1.2972  0.5988
 2236SOL     OW18343   0.571   1.574   3.357 -0.3417  0.5814  0.5686
 2236SOL    HW118344   0.528   1.618   3.284 -2.0408  0.3994  1.4667
 2236SOL    HW218345   0.566   1.482   3.331 -0.9231  1.3152 -1.8637
 2237SOL     OW18346   2.343   2.929   9.883  0.2112  0.0765 -0.4039
 2237SOL    HW118347   2.295   2.880   9.817 -0.2389  1.5966 -1.2218
 2237SOL    HW218348   2.428   2.892   9.862  0.5445  0.7234 -0.2174
 2238SOL     OW18349   0.030   2.912   8.078 -0.1239 -0.8446  0.9360
 2238SOL    HW118350   0.094   2.845   8.102  0.1585 -0.4258  1.3591
 2238SOL    HW218351   0.079   2.989   8.109 -1.0989  0.2592 -0.2605
 2239SOL     OW18352   4.083   0.732   6.599  0.2566  0.0741 -0.4912
 2239SOL    HW118353   4.097   0.827   6.598 -1.6592  0.3814  2.0263
 2239SOL    HW218354   4.174   0.705   6.583  0.5701  0.7084  0.2049
 2240SOL     OW18355   3.158   1.771  11.046  0.0881 -0.2642 -0.5583
 2240SOL    HW118356   3.068   1.802  11.037  1.0165  2.1430 -1.5538
 2240SOL    HW218357   3.140   1.705  11.113  0.5875  0.3498  0.1767
 2241SOL     OW18358   4.572   3.641   6.283 -0.3204  0.0943  0.2458
 2241SOL    HW118359   4.582   3.704   6.354 -1.0073 -0.2572  0.6574
 2241SOL    HW218360   4.527   3.699   6.222  2.2302 -0.8613 -2.5289
 2242SOL     OW18361   1.536   0.023  17.565 -0.8934 -0.7192 -0.8219
 2242SOL    HW118362   1.546   4.670  17.545 -0.6472 -0.9005  0.1165
 2242SOL    HW218363   1.444   0.018  17.591 -0.6287  0.3338  0.3630
 2243SOL     OW18364   3.323   2.501   6.749  0.0489  0.0508 -0.6056
 2243SOL    HW118365   3.411   2.471   6.725  0.7444  0.6185  1.2982
 2243SOL    HW218366   3.334   2.505   6.844 -4.6308  0.8753 -0.1049
 2244SOL     OW18367   1.402   4.634   7.775  0.0897  0.3701 -0.0558
 2244SOL    HW118368   1.400   4.720   7.734  0.1155  0.4096  0.0261
 2244SOL    HW218369   1.326   4.632   7.834 -0.5823 -0.1508 -0.9383
 2245SOL     OW18370   4.627   2.790   8.516  0.1415  0.3721 -0.3368
 2245SOL    HW118371   4.655   2.705   8.483  0.5508  0.3432  0.0828
 2245SOL    HW218372   4.645   2.841   8.437 -1.7980  0.7886 -0.5008
 2246SOL     OW18373   0.606   4.723  12.119  0.0188  0.2742  0.2276
 2246SOL    HW118374   0.571   4.678  12.043 -0.9589  0.7532  0.3897
 2246SOL    HW218375   0.604   4.650  12.181 -0.7621  1.6077  1.7675
 2247SOL     OW18376   4.363   2.364  10.368 -0.1801  0.0634 -0.1181
 2247SOL    HW118377   4.296   2.420  10.408 -0.4517 -0.5151  0.2356
 2247SOL    HW218378   4.416   2.335  10.442  0.2498 -0.0942 -0.4895
 2248SOL     OW18379   3.369   3.352   6.197  0.3836 -0.4706 -0.4039
 2248SOL    HW118380   3.449   3.302   6.216 -0.8427 -1.8737  1.0796
 2248SOL    HW218381   3.405   3.440   6.195  0.1637 -0.3296  1.4382
 2249SOL     OW18382   3.182   3.056  16.963 -0.3240  0.2483 -0.3902
 2249SOL    HW118383   3.202   3.081  16.873  2.1017 -0.7819 -0.1293
 2249SOL    HW218384   3.231   2.974  16.960 -1.4792 -0.4779  0.7440
 2250SOL     OW18385   2.786   2.100   4.022  0.2541  0.3492  0.0163
 2250SOL    HW118386   2.830   2.175   4.062 -0.0908 -0.7849  2.5654
 2250SOL    HW218387   2.862   2.045   4.001 -0.6735 -1.1701  0.5654
 2251SOL     OW18388   2.569   1.870   7.277  0.2745 -0.5381  0.2323
 2251SOL    HW118389   2.653   1.914   7.265  0.6033 -0.7919  1.6242
 2251SOL    HW218390   2.584   1.796   7.218  2.6612  1.9059 -2.2328
 2252SOL     OW18391   3.203   0.663   7.357  0.1539 -0.2239  0.2830
 2252SOL    HW118392   3.215   0.579   7.401 -0.7852 -1.1364 -1.2075
 2252SOL    HW218393   3.179   0.725   7.426  1.0780  1.4876 -0.9480
 2253SOL     OW18394   3.467   0.567   5.785  0.3670  0.0218 -0.3511
 2253SOL    HW118395   3.436   0.524   5.865  0.2759 -0.7784 -0.8211
 2253SOL    HW218396   3.557   0.534   5.784  0.7272  0.9863 -0.1770
 2254SOL     OW18397   2.940   0.271   9.390  0.0158  0.6260 -0.3007
 2254SOL    HW118398   2.853   0.298   9.362 -0.5341 -1.7225 -0.8346
 2254SOL    HW218399   2.985   0.256   9.306  0.9237  0.3067  0.2427
 2255SOL     OW18400   0.466   2.170  15.305 -0.5132 -0.4073 -0.0138
 2255SOL    HW118401   0.389   2.169  15.362 -0.0321  1.0482  0.6645
 2255SOL    HW218402   0.542   2.159  15.363 -0.2933  0.6402 -0.1023
 2256SOL     OW18403   4.258   4.340   4.230 -0.2159  0.1659 -0.5027
 2256SOL    HW118404   4.259   4.431   4.258 -0.9790 -0.7620  2.6022
 2256SOL    HW218405   4.328   4.304   4.285 -0.2973 -2.6317 -2.2107
 2257SOL     OW18406   0.321   2.698  11.418 -0.2925  0.1296 -0.5981
 2257SOL    HW118407   0.328   2.762  11.346 -1.4484 -0.8139 -1.5420
 2257SOL    HW218408   0.266   2.755  11.472 -0.9645 -0.3658 -0.7646
 2258SOL     OW18409   4.510   2.610   9.159  0.3453 -0.4635 -0.2797
 2258SOL    HW118410   4.492   2.567   9.075  1.2148 -0.7856 -0.3051
 2258SOL    HW218411   4.581   2.671   9.138  0.4681  0.4964  2.9068
 2259SOL     OW18412   1.573   0.834   8.545  0.3284 -0.3359 -0.7462
 2259SOL    HW118413   1.504   0.769   8.562 -0.1880  0.2345 -0.6470
 2259SOL    HW218414   1.637   0.788   8.491  2.2835 -0.8088  1.9901
 2260SOL     OW18415   2.432   2.103   1.193  0.4892  0.2678  0.5376
 2260SOL    HW118416   2.517   2.065   1.167 -0.1386 -0.0429 -1.0535
 2260SOL    HW218417   2.392   2.140   1.114  0.5448  1.4993  1.0980
 2261SOL     OW18418   4.698   3.047   2.168 -0.9911 -0.1582  0.3026
 2261SOL    HW118419   4.731   2.962   2.139 -3.0493 -0.3636 -1.5303
 2261SOL    HW218420   4.619   3.016   2.212  0.0093  0.4765  2.5022
 2262SOL     OW18421   4.288   3.421   6.131  0.3047  0.4985 -0.3862
 2262SOL    HW118422   4.279   3.467   6.047  2.9082  1.9247  0.1116
 2262SOL    HW218423   4.383   3.428   6.144  0.0107  0.5285  1.7738
 2263SOL     OW18424   2.696   0.825  15.720 -0.4398  0.1732  0.8591
 2263SOL    HW118425   2.685   0.839  15.626 -0.7111  2.2276  1.2021
 2263SOL    HW218426   2.782   0.784  15.720  0.1579  1.4211  2.1515
 2264SOL     OW18427   1.303   2.876   3.727 -0.1500  0.7041  0.4762
 2264SOL    HW118428   1.317   2.915   3.641 -0.0074  0.0947  0.2202
 2264SOL    HW218429   1.281   2.951   3.783 -5.0848  0.8227 -1.6380
 2265SOL     OW18430   1.622   3.595   3.475 -0.3303  0.3127 -0.5541
 2265SOL    HW118431   1.531   3.566   3.470  0.3520 -1.4714 -2.6689
 2265SOL    HW218432   1.632   3.642   3.392  0.0862  3.3005  1.1949
 2266SOL     OW18433   2.186   2.051   5.451  0.1091  0.6032  0.8634
 2266SOL    HW118434   2.169   1.995   5.527  1.7203  0.6466  1.2486
 2266SOL    HW218435   2.281   2.040   5.454  0.3206  2.7492  1.7162
 2267SOL     OW18436   2.191   0.643   2.160 -0.4527  0.2755 -0.2693
 2267SOL    HW118437   2.255   0.684   2.101  0.4217 -0.4889  0.1452
 2267SOL    HW218438   2.211   0.551   2.143 -0.2617  0.2655 -0.0041
 2268SOL     OW18439   3.782   2.997   8.204  0.2561  0.0541  0.3704
 2268SOL    HW118440   3.856   3.040   8.161  0.1413  1.0307  1.1528
 2268SOL    HW218441   3.756   2.923   8.150 -2.1193  3.2212 -2.8325
 2269SOL     OW18442   2.008   3.254   3.290 -0.0344  0.4469  0.2199
 2269SOL    HW118443   1.967   3.339   3.276 -1.5086 -0.1651  0.8126
 2269SOL    HW218444   2.098   3.280   3.274  1.0035 -1.6702  2.5031
 2270SOL     OW18445   2.701   4.643  16.970 -0.2817  0.7974 -0.4051
 2270SOL    HW118446   2.645   4.585  17.021 -0.0901  0.7864 -0.2059
 2270SOL    HW218447   2.790   4.645  17.006 -1.6833  0.7913  3.0316
 2271SOL     OW18448   1.458   3.049   4.888 -0.1083  0.4514  0.0080
 2271SOL    HW118449   1.482   3.013   4.973  3.5130  0.3304 -1.0879
 2271SOL    HW218450   1.423   2.970   4.847  1.5592 -1.1718  1.7001
 2272SOL     OW18451   2.550   2.904  15.181  0.0888  0.2777  0.4384
 2272SOL    HW118452   2.498   2.858  15.115  0.0340  2.4925 -1.0600
 2272SOL    HW218453   2.602   2.957  15.121  1.0511  0.0407  1.0653
 2273SOL     OW18454   1.131   1.933  11.159  0.2059  0.1189 -0.4997
 2273SOL    HW118455   1.183   1.896  11.231 -1.6684 -3.2518 -0.8902
 2273SOL    HW218456   1.070   1.985  11.211  1.2576 -0.4349  1.2849
 2274SOL     OW18457   2.439   0.628   3.021 -0.1088  0.5198 -0.1569
 2274SOL    HW118458   2.485   0.544   3.028  0.6218  1.0028  0.8008
 2274SOL    HW218459   2.476   0.659   3.103  0.3577 -1.1963  0.2943
 2275SOL     OW18460   4.597   2.538   2.663  0.2772 -0.1125  0.3799
 2275SOL    HW118461   4.641   2.485   2.597 -1.9032 -0.0866 -1.1063
 2275SOL    HW218462   4.510   2.498   2.672  0.3455 -0.2247  0.5400
 2276SOL     OW18463   0.798   3.606   1.420 -0.4973 -0.1819 -0.0963
 2276SOL    HW118464   0.811   3.557   1.339 -1.4410 -1.7471  0.6986
 2276SOL    HW218465   0.889   3.621   1.447 -0.9165  1.7472  0.2466
 2277SOL     OW18466   3.328   1.497  15.936  0.2371 -0.4043  0.3416
 2277SOL    HW118467   3.250   1.546  15.910  1.8194  2.2218  0.5421
 2277SOL    HW218468   3.390   1.566  15.958  0.4416 -0.0850 -1.2385
 2278SOL     OW18469   1.938   2.534   2.216  0.0989  0.1434 -0.4249
 2278SOL    HW118470   1.895   2.506   2.297 -1.5046  2.1763 -0.5813
 2278SOL    HW218471   1.901   2.620   2.197  0.1159 -0.3328 -2.5570
 2279SOL     OW18472   1.174   1.911   5.519  0.0762  0.1651 -0.1004
 2279SOL    HW118473   1.125   1.886   5.598 -2.0280 -1.1662 -1.8479
 2279SOL    HW218474   1.127   1.992   5.497  0.6779  0.7943  0.8992
 2280SOL     OW18475   0.850   4.132  13.109 -0.0828  0.0243  0.4750
 2280SOL    HW118476   0.911   4.060  13.124  1.3447  1.0800 -0.2317
 2280SOL    HW218477   0.775   4.095  13.062 -1.1056  2.8994 -0.1514
 2281SOL     OW18478   2.444   1.583  15.942 -0.5550  0.3903 -0.0473
 2281SOL    HW118479   2.506   1.637  15.992  1.1956  0.3280 -2.1196
 2281SOL    HW218480   2.398   1.536  16.011 -0.6207 -0.1471 -0.4568
 2282SOL     OW18481   1.176   0.053   3.494 -0.1599  0.1494 -0.1296
 2282SOL    HW118482   1.204   0.006   3.416 -1.2090  0.8761 -0.9428
 2282SOL    HW218483   1.155   4.735   3.568 -0.8934 -2.0911 -2.1101
 2283SOL     OW18484   1.649   3.356   6.750  0.1379 -0.7638  0.2510
 2283SOL    HW118485   1.629   3.360   6.657 -0.3572  1.3364  0.4343
 2283SOL    HW218486   1.570   3.311   6.779 -1.1129  1.7043  0.7364
 2284SOL     OW18487   2.536   0.918  17.479  0.2229 -0.3521  0.1373
 2284SOL    HW118488   2.574   0.889  17.396 -1.7994  2.6002 -1.8240
 2284SOL    HW218489   2.474   0.849  17.505 -1.7089  0.8977 -1.1641
 2285SOL     OW18490   0.971   4.410   1.350  0.1681 -0.0696  0.1731
 2285SOL    HW118491   1.034   4.482   1.347 -1.0737  0.9714 -0.7514
 2285SOL    HW218492   0.913   4.449   1.414 -0.9233  1.0025 -1.4603
 2286SOL     OW18493   0.434   4.623   8.385 -0.3710  0.3714 -0.1322
 2286SOL    HW118494   0.391   4.606   8.301 -0.1307  0.0219 -0.1801
 2286SOL    HW218495   0.388   4.564   8.445  0.4487  2.0224  2.1205
 2287SOL     OW18496   2.285   2.633   0.418 -0.1981 -0.7308  0.4863
 2287SOL    HW118497   2.218   2.618   0.485 -0.2805  3.2183  1.3187
 2287SOL    HW218498   2.368   2.596   0.448 -0.2459 -0.6477  0.7279
 2288SOL     OW18499   0.777   4.177   5.475 -0.2129 -0.2079 -0.3093
 2288SOL    HW118500   0.810   4.109   5.534 -1.9462 -0.8030 -0.0207
 2288SOL    HW218501   0.684   4.161   5.491  0.0799 -0.8546  0.7428
 2289SOL     OW18502   1.809   1.092   3.994  0.1229  0.0114 -0.2163
 2289SOL    HW118503   1.813   1.116   3.902 -1.6430 -0.9739 -0.5499
 2289SOL    HW218504   1.715   1.083   4.010 -0.2836  3.5404 -0.6347
 2290SOL     OW18505   2.895   4.153   9.156  0.3591 -0.4294  0.0541
 2290SOL    HW118506   2.839   4.129   9.082  0.6596 -0.0518 -0.2941
 2290SOL    HW218507   2.982   4.126   9.125 -0.0428 -0.7215 -0.8212
 2291SOL     OW18508   0.516   0.981   1.551 -0.3352  0.1396  0.0017
 2291SOL    HW118509   0.533   1.059   1.603 -0.6587  0.8971 -1.0242
 2291SOL    HW218510   0.432   0.964   1.593 -0.6355  1.5023 -0.0531
 2292SOL     OW18511   2.653   1.182   4.055 -0.5373  0.2772  0.2915
 2292SOL    HW118512   2.653   1.089   4.078  1.6086  0.3482  0.5444
 2292SOL    HW218513   2.560   1.184   4.032 -1.3168  0.0429  3.3939
 2293SOL     OW18514   4.419   2.692   7.675 -0.6942  0.0850 -0.4306
 2293SOL    HW118515   4.406   2.644   7.757  1.3415 -1.9345 -1.2624
 2293SOL    HW218516   4.423   2.780   7.711  0.8161  0.6157 -1.9462
 2294SOL     OW18517   1.221   1.941  13.575  0.4173 -0.2920 -0.4487
 2294SOL    HW118518   1.166   1.906  13.504 -0.5557  2.3729 -1.0216
 2294SOL    HW218519   1.270   1.863  13.601  1.1325  0.9651  1.9402
 2295SOL     OW18520   0.339   3.183   5.566 -0.6497  0.2830 -0.5122
 2295SOL    HW118521   0.429   3.158   5.546 -0.4090  1.9100 -1.4437
 2295SOL    HW218522   0.288   3.173   5.485 -0.8283 -1.5857 -0.1770
 2296SOL     OW18523   2.129   4.671   3.053 -0.2514  0.3568  0.1735
 2296SOL    HW118524   2.057   4.725   3.023  0.5084  0.2609 -1.8066
 2296SOL    HW218525   2.120   4.680   3.148 -0.2371  1.6458  0.0560
 2297SOL     OW18526   2.327   3.113  12.592  0.1553 -0.0868 -0.5449
 2297SOL    HW118527   2.364   3.034  12.553  1.0268  0.4443 -0.8053
 2297SOL    HW218528   2.238   3.102  12.558  0.1336 -3.0479  0.4634
 2298SOL     OW18529   2.971   2.133   1.420 -0.3409 -0.1476 -0.9218
 2298SOL    HW118530   3.016   2.206   1.463  0.8031 -1.1272 -0.4478
 2298SOL    HW218531   2.886   2.140   1.463  0.6834 -0.8721  1.2031
 2299SOL     OW18532   4.506   2.263  14.133  0.2207 -0.3432  0.1477
 2299SOL    HW118533   4.452   2.234  14.060 -0.7154  0.9894  0.3201
 2299SOL    HW218534   4.445   2.330  14.164  1.2322  1.6062 -2.0553
 2300SOL     OW18535   4.730   3.505   3.453 -0.1797  0.2513 -0.5998
 2300SOL    HW118536   4.649   3.476   3.411 -0.9417  0.5008  0.6876
 2300SOL    HW218537   4.731   3.452   3.532 -0.9806  0.8816 -0.1694
 2301SOL     OW18538   0.459   0.847   1.897  0.1345  0.2778 -0.8906
 2301SOL    HW118539   0.536   0.884   1.854 -2.1878  3.5519 -2.2493
 2301SOL    HW218540   0.394   0.851   1.826  1.8636  1.7993 -2.4053
 2302SOL     OW18541   3.922   1.453  12.093  0.1032 -0.2705  0.2580
 2302SOL    HW118542   3.926   1.417  12.182 -2.4172 -2.4128 -0.4994
 2302SOL    HW218543   3.828   1.449  12.076 -0.0776 -1.3319  1.4654
 2303SOL     OW18544   0.156   2.317   6.571  0.4940  0.3074  0.1070
 2303SOL    HW118545   0.092   2.387   6.580 -2.2638 -1.9871 -1.5678
 2303SOL    HW218546   0.218   2.343   6.638  0.2871 -0.1672  0.4812
 2304SOL     OW18547   0.076   3.193   7.137  0.0882  0.3490  0.6305
 2304SOL    HW118548   0.034   3.109   7.150 -1.6421  1.3331  1.3019
 2304SOL    HW218549   0.095   3.195   7.043 -0.0113  0.2588  0.6090
 2305SOL     OW18550   2.585   3.276   7.983  0.2711  0.2414 -0.4859
 2305SOL    HW118551   2.631   3.192   7.978  0.9557  0.6047 -0.2594
 2305SOL    HW218552   2.500   3.245   8.015  0.1927  1.0815  0.1344
 2306SOL     OW18553   1.857   3.910   5.675 -0.1149  0.4408 -0.5225
 2306SOL    HW118554   1.922   3.894   5.606 -0.2237 -1.0353 -0.2886
 2306SOL    HW218555   1.835   3.821   5.702  0.1173  0.7248  0.6129
 2307SOL     OW18556   1.702   2.029   4.238 -0.2721  0.3194 -0.6328
 2307SOL    HW118557   1.613   1.995   4.224  0.0762  0.2654 -2.7427
 2307SOL    HW218558   1.678   2.114   4.276 -1.1370  0.2760 -1.0766
 2308SOL     OW18559   4.205   3.255   6.811 -0.3083  0.8465  0.0619
 2308SOL    HW118560   4.262   3.215   6.745 -0.3518 -0.1287  0.6104
 2308SOL    HW218561   4.253   3.240   6.892  0.5455  1.7887 -0.2659
 2309SOL     OW18562   3.270   2.325   2.641 -0.8194  0.0153  0.1653
 2309SOL    HW118563   3.204   2.285   2.698  0.0715  1.4979  2.2725
 2309SOL    HW218564   3.329   2.363   2.707  2.5716 -1.2505 -2.1254
 2310SOL     OW18565   0.708   2.380   5.668  0.4267  0.1346  0.0409
 2310SOL    HW118566   0.795   2.385   5.627 -0.4504  1.1855 -1.7298
 2310SOL    HW218567   0.697   2.467   5.707 -2.4360  0.0962 -0.6381
 2311SOL     OW18568   1.007   0.703   2.497 -0.2381 -0.0700 -0.3491
 2311SOL    HW118569   1.005   0.771   2.430  1.5514 -0.3303 -0.6776
 2311SOL    HW218570   0.914   0.694   2.519  0.1440 -0.4416  1.0931
 2312SOL     OW18571   4.383   0.379   4.779  0.4322 -0.1701 -0.0621
 2312SOL    HW118572   4.345   0.326   4.709 -0.0948  0.2925 -0.1291
 2312SOL    HW218573   4.461   0.329   4.799  0.5053  0.4723  1.2633
 2313SOL     OW18574   1.382   2.686   9.051 -0.0855 -0.5180 -0.0921
 2313SOL    HW118575   1.307   2.725   9.006  0.9120  1.3380 -0.1482
 2313SOL    HW218576   1.458   2.704   8.996  0.5029  1.9362  1.5229
 2314SOL     OW18577   0.578   0.012   5.987  0.0307  0.3415  0.6967
 2314SOL    HW118578   0.611   0.096   6.022  1.6839  0.4594 -1.1273
 2314SOL    HW218579   0.622   4.694   6.049 -1.0946 -1.4951 -0.2406
 2315SOL     OW18580   2.341   2.484   5.095 -0.5095  0.8569 -0.2722
 2315SOL    HW118581   2.320   2.456   5.006  1.8023 -1.2211 -0.1797
 2315SOL    HW218582   2.252   2.482   5.129 -0.1937 -1.0358  0.3962
 2316SOL     OW18583   2.035   3.816   6.255 -0.0104 -0.4348 -0.2074
 2316SOL    HW118584   2.070   3.897   6.291  0.6501 -0.2518 -1.2854
 2316SOL    HW218585   1.943   3.822   6.283 -0.6515 -2.0257 -1.9495
 2317SOL     OW18586   1.752   1.590   8.685 -0.1267  0.6247 -0.0583
 2317SOL    HW118587   1.809   1.619   8.757 -0.2774 -0.1313  0.3614
 2317SOL    HW218588   1.816   1.579   8.615 -1.3487 -2.4259 -0.6892
 2318SOL     OW18589   2.710   1.478   9.042 -0.0154 -0.1937 -0.2704
 2318SOL    HW118590   2.637   1.486   9.103 -2.3446  0.3770 -3.1044
 2318SOL    HW218591   2.714   1.388   9.010 -0.9372 -1.0792  2.1405
 2319SOL     OW18592   0.375   2.230   4.483 -0.0495  0.1000 -0.3097
 2319SOL    HW118593   0.316   2.304   4.501 -0.2858 -0.3812  0.8560
 2319SOL    HW218594   0.418   2.277   4.412  0.5941  0.9568  0.6499
 2320SOL     OW18595   1.486   1.930  17.169  0.5590  0.0106  0.7557
 2320SOL    HW118596   1.520   1.847  17.137  3.6107  0.7049  2.2617
 2320SOL    HW218597   1.411   1.902  17.222  0.6363 -2.3695 -0.4083
 2321SOL     OW18598   4.261   4.138   5.393  0.2360 -0.2756 -0.2997
 2321SOL    HW118599   4.284   4.111   5.304  1.0084 -0.7231  0.0364
 2321SOL    HW218600   4.262   4.234   5.384 -1.2652 -0.2437 -0.1345
 2322SOL     OW18601   3.548   4.362   7.193 -0.0008  0.0639  0.0112
 2322SOL    HW118602   3.501   4.349   7.276  0.9056 -0.3589  0.4606
 2322SOL    HW218603   3.545   4.272   7.160 -2.4931  0.2649 -0.3294
 2323SOL     OW18604   1.119   1.365  11.825  0.1487  0.5230 -0.5258
 2323SOL    HW118605   1.137   1.325  11.740  1.1148 -4.3246  1.9525
 2323SOL    HW218606   1.176   1.317  11.886  0.7344  1.2327 -0.5063
 2324SOL     OW18607   1.216   0.500   5.198  0.4671 -0.3825  0.6577
 2324SOL    HW118608   1.140   0.480   5.254  2.0443 -6.7887  0.4593
 2324SOL    HW218609   1.254   0.573   5.247 -0.5209  0.6142 -0.0438
 2325SOL     OW18610   4.555   4.604  11.922  0.2859 -0.1299  0.1888
 2325SOL    HW118611   4.573   4.684  11.873 -0.4375 -0.9990 -1.5070
 2325SOL    HW218612   4.591   4.638  12.003 -4.3601  2.7675  1.0226
 2326SOL     OW18613   2.972   1.263   9.105  0.3493 -0.0649  0.2590
 2326SOL    HW118614   2.949   1.300   9.190 -1.6548 -1.4143  0.3074
 2326SOL    HW218615   2.981   1.168   9.107 -0.9371 -0.2029 -1.0482
 2327SOL     OW18616   4.053   2.518   5.281  0.0546  0.0067 -0.4763
 2327SOL    HW118617   4.023   2.552   5.196  0.6153 -0.3783 -0.8346
 2327SOL    HW218618   4.126   2.460   5.261  0.8776  0.2780  1.7987
 2328SOL     OW18619   3.657   4.103   6.408 -0.0651  0.3679 -0.4986
 2328SOL    HW118620   3.700   4.017   6.404 -0.1322  0.3210 -0.2423
 2328SOL    HW218621   3.595   4.100   6.334 -0.7305 -0.5244  0.0826
 2329SOL     OW18622   3.447   2.422  16.925  0.5235  0.0323 -0.2118
 2329SOL    HW118623   3.507   2.472  16.868  0.5700  1.4600  1.0818
 2329SOL    HW218624   3.466   2.465  17.008  2.1797  0.2717 -0.7058
 2330SOL     OW18625   2.797   3.266   3.877  0.4108  0.3445 -0.3865
 2330SOL    HW118626   2.892   3.273   3.868  0.1403  2.6666 -1.3792
 2330SOL    HW218627   2.773   3.355   3.851  2.4655  1.0960  0.2973
 2331SOL     OW18628   3.179   2.681   7.141 -0.3451  0.1094 -0.1268
 2331SOL    HW118629   3.251   2.679   7.078  0.6741 -0.6980  1.0649
 2331SOL    HW218630   3.195   2.598   7.187  3.2653 -1.2999 -3.9119
 2332SOL     OW18631   4.398   2.778   2.666  0.5691  0.0342  0.0427
 2332SOL    HW118632   4.302   2.782   2.672  0.6136  0.2229  0.6353
 2332SOL    HW218633   4.428   2.727   2.742  2.3965  1.4676  0.2790
 2333SOL     OW18634   1.396   0.725   3.555  0.3703 -0.1736 -0.6533
 2333SOL    HW118635   1.304   0.703   3.568  0.2535  0.4125 -0.4622
 2333SOL    HW218636   1.382   0.790   3.485 -0.3392  1.9687  1.4521
 2334SOL     OW18637   1.056   1.603   3.372  0.3053  0.1511 -0.2054
 2334SOL    HW118638   0.975   1.626   3.418  0.9498 -0.6114  1.3141
 2334SOL    HW218639   1.118   1.629   3.440  0.9267 -1.5485 -0.1109
 2335SOL     OW18640   1.704   0.061  11.269 -0.1913 -0.2256  0.3205
 2335SOL    HW118641   1.653   0.141  11.282 -0.4091 -0.0208 -1.8132
 2335SOL    HW218642   1.637   4.733  11.264  0.8543 -1.1854 -0.5264
 2336SOL     OW18643   2.385   4.183   3.116 -0.3411  0.6454 -0.7280
 2336SOL    HW118644   2.454   4.142   3.166 -0.5647  0.9031 -0.2011
 2336SOL    HW218645   2.325   4.111   3.098 -1.1144  1.0424  0.2232
 2337SOL     OW18646   2.581   0.001   5.317  0.2595 -0.5265 -0.1047
 2337SOL    HW118647   2.576   4.688   5.396 -2.4476  0.0839  0.1265
 2337SOL    HW218648   2.521   4.690   5.261  0.6893 -0.7063 -0.4068
 2338SOL     OW18649   2.739   2.544   7.430  0.2958 -0.5031  0.0426
 2338SOL    HW118650   2.769   2.595   7.354 -0.8412 -0.9052 -0.6825
 2338SOL    HW218651   2.728   2.612   7.497 -2.7205 -0.0311 -0.9201
 2339SOL     OW18652   2.139   2.682   5.137  0.3232 -0.0823 -0.5426
 2339SOL    HW118653   2.051   2.644   5.129  0.4631 -0.6394  0.5292
 2339SOL    HW218654   2.145   2.734   5.056 -1.0956  0.8956 -0.0303
 2340SOL     OW18655   0.419   4.328  12.454 -0.1866  0.4481  0.4617
 2340SOL    HW118656   0.507   4.337  12.491  0.7812 -0.1255 -1.7159
 2340SOL    HW218657   0.407   4.404  12.397 -0.1323 -1.4330 -2.0440
 2341SOL     OW18658   0.256   1.781   4.253  0.0800 -0.0190  0.2323
 2341SOL    HW118659   0.226   1.690   4.259 -0.6837  0.0703 -2.4939
 2341SOL    HW218660   0.187   1.829   4.207 -0.3208 -0.3426  0.4943
 2342SOL     OW18661   4.127   1.825   4.580  0.0574  0.6391 -0.8619
 2342SOL    HW118662   4.209   1.874   4.576 -0.8026  1.9454 -2.3905
 2342SOL    HW218663   4.174   1.742   4.587 -0.2039  0.6936  1.4164
 2343SOL     OW18664   3.387   1.845   3.764  0.2810 -0.2504 -0.3383
 2343SOL    HW118665   3.482   1.838   3.773  0.2443 -1.9207 -1.2516
 2343SOL    HW218666   3.378   1.940   3.769 -0.8917 -0.3238 -1.0711
 2344SOL     OW18667   2.766   0.028  15.175  0.3013 -0.7940  0.1738
 2344SOL    HW118668   2.771   0.113  15.219  1.7043 -1.2607  0.9219
 2344SOL    HW218669   2.757   0.059  15.085  1.9215 -2.1534 -0.4604
 2345SOL     OW18670   4.670   0.620   7.618 -0.1902  0.5734 -0.7944
 2345SOL    HW118671   4.728   0.692   7.592  1.3924  0.3198  1.9978
 2345SOL    HW218672   4.714   0.552   7.567 -0.4203  1.5281 -2.2520
 2346SOL     OW18673   4.223   4.435  12.191  0.2650  0.0345 -0.2422
 2346SOL    HW118674   4.289   4.365  12.197 -0.0785 -0.1714  1.1146
 2346SOL    HW218675   4.244   4.460  12.101  1.9723  0.4779  0.2777
 2347SOL     OW18676   4.313   4.169   0.316 -0.1714 -0.4556  0.2660
 2347SOL    HW118677   4.320   4.173   0.220 -2.1453 -1.8487  0.0613
 2347SOL    HW218678   4.339   4.078   0.334 -1.2499 -0.6109  1.0224
 2348SOL     OW18679   0.225   3.426  16.142 -0.0374  0.2503 -0.0724
 2348SOL    HW118680   0.219   3.331  16.155  1.9563  0.0029 -0.8885
 2348SOL    HW218681   0.163   3.456  16.208  0.1605  0.6569 -0.0756
 2349SOL     OW18682   0.392   4.463   6.236 -0.3418  0.0096 -0.0957
 2349SOL    HW118683   0.302   4.452   6.204 -1.4274  1.3724  2.4394
 2349SOL    HW218684   0.411   4.371   6.253  0.7991  0.6950  2.2326
 2350SOL     OW18685   2.082   4.679  14.880 -0.1696  0.0171 -0.2965
 2350SOL    HW118686   2.134   4.615  14.929 -0.8351 -0.1288  0.2198
 2350SOL    HW218687   2.016   4.696  14.948 -0.7188  2.6273 -1.4980
 2351SOL     OW18688   2.849   3.975  12.232  0.1231 -0.3181 -0.1105
 2351SOL    HW118689   2.910   3.902  12.226  2.6370  1.8317 -0.6367
 2351SOL    HW218690   2.773   3.938  12.278  1.3514 -0.5696  1.7125
 2352SOL     OW18691   1.804   4.390   9.622  0.0954  0.4440  0.1611
 2352SOL    HW118692   1.748   4.313   9.632  1.4997 -0.7047 -0.8207
 2352SOL    HW218693   1.859   4.378   9.700  0.1405 -1.7042 -0.1843
 2353SOL     OW18694   1.297   2.801   2.373  0.0616  0.2518 -0.3664
 2353SOL    HW118695   1.359   2.866   2.342 -0.3229  0.6913 -0.2111
 2353SOL    HW218696   1.237   2.810   2.299 -1.9777 -1.4576  1.0355
 2354SOL     OW18697   4.725   1.149   0.543  0.4476 -0.4987  0.4761
 2354SOL    HW118698   4.720   1.235   0.586 -0.3124  0.3679 -1.3482
 2354SOL    HW218699   4.633   1.142   0.519  0.9097 -0.8771 -1.1866
 2355SOL     OW18700   0.508   2.572   0.961  0.6869  0.5868 -0.5041
 2355SOL    HW118701   0.538   2.560   1.051  1.3307 -2.0625 -1.0549
 2355SOL    HW218702   0.534   2.662   0.944  0.6722  0.4619 -1.1842
 2356SOL     OW18703   3.446   1.261   7.321 -0.4380  0.1236  0.0650
 2356SOL    HW118704   3.390   1.186   7.300  1.1512 -1.4815  1.5928
 2356SOL    HW218705   3.419   1.328   7.258 -0.8117  1.5016  1.7130
 2357SOL     OW18706   1.392   3.919  15.073  0.2873 -0.2540  0.3227
 2357SOL    HW118707   1.449   3.947  15.144  2.1391 -0.6474 -1.0186
 2357SOL    HW218708   1.383   3.999  15.020 -1.5585 -0.5073  0.2539
 2358SOL     OW18709   1.800   1.194   9.212  0.3706  0.4109 -0.6845
 2358SOL    HW118710   1.871   1.182   9.276  1.6373  0.0527 -2.1364
 2358SOL    HW218711   1.715   1.196   9.255  1.4930  2.5773  1.4264
 2359SOL     OW18712   1.306   3.124   3.889 -0.0217 -0.0532  0.5501
 2359SOL    HW118713   1.388   3.172   3.878 -0.7321  1.2909  1.0028
 2359SOL    HW218714   1.239   3.192   3.885 -0.2586 -0.4171 -1.6790
 2360SOL     OW18715   2.358   0.456   8.403  0.4566  0.1236 -0.0252
 2360SOL    HW118716   2.269   0.431   8.426  0.0404  2.4676  0.8583
 2360SOL    HW218717   2.414   0.385   8.437 -0.9221 -1.3534 -0.8216
 2361SOL     OW18718   1.460   1.516   6.110 -0.1790 -0.5331 -0.0520
 2361SOL    HW118719   1.543   1.564   6.113 -0.5176 -0.0959  2.0371
 2361SOL    HW218720   1.479   1.425   6.135 -1.2320 -0.5108  0.8572
 2362SOL     OW18721   3.061   1.629   6.643  0.1894  0.1768 -0.0848
 2362SOL    HW118722   3.019   1.714   6.631  3.3105  2.2835  3.7186
 2362SOL    HW218723   3.138   1.642   6.698  0.1034  0.4613 -0.0338
 2363SOL     OW18724   3.567   4.009   8.400  0.3131  0.0517 -0.3899
 2363SOL    HW118725   3.629   3.966   8.341  0.5985 -0.0626 -0.0114
 2363SOL    HW218726   3.614   4.091   8.417  1.6301 -0.8319  0.2945
 2364SOL     OW18727   0.020   2.148   3.523  0.5469  0.5028 -0.1584
 2364SOL    HW118728   0.113   2.170   3.519  1.1967 -1.9723  1.5286
 2364SOL    HW218729   0.002   2.149   3.429  0.3298  1.0657 -0.1149
 2365SOL     OW18730   3.140   4.041   7.080  0.2974  0.4127  0.7742
 2365SOL    HW118731   3.148   4.090   7.162  0.1715  0.5717  0.6925
 2365SOL    HW218732   3.103   4.113   7.028 -3.3048 -0.5339  2.0045
 2366SOL     OW18733   3.851   4.641   3.105  0.0005  0.4882  0.7218
 2366SOL    HW118734   3.864   4.678   3.192  0.1778  1.5679  0.2298
 2366SOL    HW218735   3.756   4.652   3.097  0.2527  1.2019 -1.2104
 2367SOL     OW18736   1.420   2.573   6.802 -0.6251 -0.6723  0.0919
 2367SOL    HW118737   1.441   2.643   6.740 -1.7022 -0.8889 -0.5108
 2367SOL    HW218738   1.507   2.537   6.822  0.2134  0.8492 -0.7922
 2368SOL     OW18739   1.269   4.104   6.625 -0.1337 -0.1981  0.6531
 2368SOL    HW118740   1.328   4.137   6.693  1.1036 -1.1102  0.0249
 2368SOL    HW218741   1.290   4.154   6.546  0.9773 -0.1709  0.9570
 2369SOL     OW18742   1.020   1.689   9.939 -0.2112  0.6370 -0.4420
 2369SOL    HW118743   0.967   1.728   9.870  1.3091  0.8525 -1.4858
 2369SOL    HW218744   0.958   1.682  10.012  1.4476  2.4541  1.1195
 2370SOL     OW18745   0.517   2.838   4.345  0.9650  0.3637  0.1788
 2370SOL    HW118746   0.446   2.902   4.339 -0.1455 -0.8708 -0.0014
 2370SOL    HW218747   0.515   2.806   4.435 -2.8871 -0.0508 -0.0271
 2371SOL     OW18748   4.648   0.092  12.100  0.0756  0.4989  1.0254
 2371SOL    HW118749   4.683   0.006  12.123 -0.7991 -0.4544 -1.2106
 2371SOL    HW218750   4.691   0.109  12.016 -1.2537 -0.1875  0.2215
 2372SOL     OW18751   3.419   1.311   3.408  0.6220  0.0329 -0.2488
 2372SOL    HW118752   3.439   1.398   3.442  1.2403 -0.3287  0.3067
 2372SOL    HW218753   3.324   1.312   3.398  0.6225 -2.0151 -0.4498
 2373SOL     OW18754   1.568   4.067   7.415 -0.0944 -0.3888  0.4432
 2373SOL    HW118755   1.555   4.007   7.488  2.0203  0.0997  1.2100
 2373SOL    HW218756   1.538   4.151   7.450 -2.7188 -1.3915  0.6400
 2374SOL     OW18757   0.039   0.199  12.398 -0.0885 -0.0321  0.3275
 2374SOL    HW118758   4.700   0.197  12.345  0.3222 -0.6980 -0.2709
 2374SOL    HW218759   0.019   0.249  12.477  0.8254 -1.1844  1.2876
 2375SOL     OW18760   4.722   0.312   4.171 -0.0845 -0.6288 -0.1587
 2375SOL    HW118761   4.692   0.305   4.262  0.4792 -1.8896 -0.0690
 2375SOL    HW218762   4.722   0.405   4.152  0.9450 -0.8398 -1.2202
 2376SOL     OW18763   0.657   0.357   6.097  0.2102  0.3177  0.7585
 2376SOL    HW118764   0.750   0.352   6.119  0.8650  1.0097 -1.8087
 2376SOL    HW218765   0.650   0.391   6.008  3.1884  1.4516  0.9612
 2377SOL     OW18766   3.702   4.175   5.946  0.5480 -0.3368  0.3863
 2377SOL    HW118767   3.743   4.093   5.974 -0.2507 -0.3439  1.5252
 2377SOL    HW218768   3.778   4.219   5.908  0.2558  0.4732  0.7301
 2378SOL     OW18769   4.736   4.537  10.042 -0.1212  0.4578 -0.5505
 2378SOL    HW118770   4.740   4.559  10.135  1.2324 -0.5476 -0.3610
 2378SOL    HW218771   4.653   4.581  10.024 -0.3598 -0.4664 -1.7590
 2379SOL     OW18772   3.897   0.640   3.266 -0.0369  0.3987 -0.0310
 2379SOL    HW118773   3.820   0.686   3.299  0.0517  0.4576  0.0912
 2379SOL    HW218774   3.942   0.613   3.346 -0.0623 -2.0341 -0.8406
 2380SOL     OW18775   4.303   4.608   1.958  0.4372  0.2047  0.7069
 2380SOL    HW118776   4.251   4.586   1.880  0.4568 -0.1907  0.8067
 2380SOL    HW218777   4.359   4.682   1.931 -0.9123  0.0685 -2.5588
 2381SOL     OW18778   2.341   3.566   3.758 -0.0246  0.4870 -0.3387
 2381SOL    HW118779   2.263   3.607   3.796  0.5406  0.9423  0.3387
 2381SOL    HW218780   2.362   3.631   3.691 -0.0941  1.8559  0.9695
 2382SOL     OW18781   1.529   1.252   5.299 -0.6756 -0.8484 -0.1508
 2382SOL    HW118782   1.610   1.209   5.327 -0.3893 -1.3939 -1.8001
 2382SOL    HW218783   1.488   1.264   5.385  2.1325  2.7956  0.7099
 2383SOL     OW18784   0.095   4.402   9.442  0.2939  0.2817 -0.2592
 2383SOL    HW118785   0.004   4.394   9.469  0.1371  0.3312 -0.7680
 2383SOL    HW218786   0.103   4.327   9.384  1.3485  0.0752  0.1446
 2384SOL     OW18787   4.253   4.370  11.764  0.6287 -0.2519  0.3021
 2384SOL    HW118788   4.283   4.420  11.840 -0.1069  0.2128  0.2862
 2384SOL    HW218789   4.219   4.291  11.806  1.0755 -0.4422  0.3102
 2385SOL     OW18790   2.155   4.298   8.162  0.0878  0.3064  0.1425
 2385SOL    HW118791   2.103   4.338   8.232  0.2799 -0.7303  0.8834
 2385SOL    HW218792   2.236   4.275   8.208  0.7978  0.6377 -0.9518
 2386SOL     OW18793   3.233   0.394   7.834  0.0486  0.1541 -0.3757
 2386SOL    HW118794   3.282   0.476   7.845 -0.0900  0.6152 -3.1738
 2386SOL    HW218795   3.173   0.396   7.908  0.5688  2.4127 -0.0026
 2387SOL     OW18796   4.619   3.802   6.490 -0.1765  0.1953 -0.7762
 2387SOL    HW118797   4.601   3.731   6.551 -1.2451  1.5799  0.5224
 2387SOL    HW218798   4.583   3.873   6.543 -0.8986  0.5879 -1.7853
 2388SOL     OW18799   2.902   1.034  17.499 -0.3822  0.1135 -0.3436
 2388SOL    HW118800   2.832   1.065  17.442  0.5404  0.4109 -1.3111
 2388SOL    HW218801   2.979   1.060  17.450 -0.9437 -0.6818 -1.6291
 2389SOL     OW18802   4.059   0.790  17.384  0.2617  0.2041 -0.5468
 2389SOL    HW118803   4.096   0.713  17.341  1.5493  0.9206 -0.7482
 2389SOL    HW218804   4.039   0.851  17.313  0.5195  0.8916 -0.0294
 2390SOL     OW18805   4.684   1.126   6.892  0.1090 -0.3782  0.0255
 2390SOL    HW118806   4.687   1.202   6.833 -3.1828  0.2824  0.7256
 2390SOL    HW218807   4.624   1.164   6.956  1.0893 -0.5039  1.0126
 2391SOL     OW18808   0.577   1.537   6.951 -0.3947 -0.3977 -0.1210
 2391SOL    HW118809   0.651   1.498   6.996 -1.3898 -0.4687  1.4539
 2391SOL    HW218810   0.597   1.629   6.970 -0.6646 -0.3667  0.0279
 2392SOL     OW18811   3.881   0.186  15.535 -0.2479 -0.1470 -0.0900
 2392SOL    HW118812   3.813   0.251  15.552  1.4432  1.9691 -1.3608
 2392SOL    HW218813   3.932   0.216  15.611  1.9691 -3.1073 -0.3801
 2393SOL     OW18814   0.151   0.626   1.877  1.2926 -0.1885  0.9625
 2393SOL    HW118815   0.200   0.556   1.835  0.6902 -0.7195  1.1333
 2393SOL    HW218816   0.198   0.645   1.958  0.3949 -3.1135  2.2008
 2394SOL     OW18817   3.502   2.068   0.769  0.4168 -0.1326  0.0852
 2394SOL    HW118818   3.524   2.008   0.841  1.2680 -0.2432 -0.2637
 2394SOL    HW218819   3.499   2.147   0.823  0.5369  1.0904 -1.7069
 2395SOL     OW18820   4.707   3.913  13.035 -0.4849 -0.1783  0.0334
 2395SOL    HW118821   4.662   3.997  13.023 -1.0824 -0.5665 -0.4537
 2395SOL    HW218822   4.646   3.873  13.096 -2.0035  0.4971 -1.0406
 2396SOL     OW18823   3.633   4.205  13.567  0.1821  0.2575 -0.2495
 2396SOL    HW118824   3.614   4.298  13.575  1.0052  0.2148  2.1605
 2396SOL    HW218825   3.709   4.206  13.508  1.2429 -0.3114  1.1065
 2397SOL     OW18826   0.140   2.047   5.483 -0.3377 -0.1361  0.1900
 2397SOL    HW118827   0.224   2.044   5.529 -0.7981  0.6669  1.0927
 2397SOL    HW218828   0.114   1.963   5.445 -1.5199  0.7688 -1.0178
 2398SOL     OW18829   3.067   1.729   9.295 -0.2878  0.0131 -0.4447
 2398SOL    HW118830   3.136   1.787   9.265  0.1495 -0.4378 -0.3057
 2398SOL    HW218831   2.992   1.750   9.240 -1.0812 -0.4995  0.4274
 2399SOL     OW18832   0.883   3.922   8.968 -0.3574 -0.2351 -0.5371
 2399SOL    HW118833   0.892   3.878   8.883 -1.8657 -0.1509 -0.7354
 2399SOL    HW218834   0.789   3.935   8.971 -0.3079  0.1546 -0.7527
 2400SOL     OW18835   2.833   0.752   4.589 -0.6447  0.6466  0.2979
 2400SOL    HW118836   2.789   0.667   4.597 -0.4991  0.3616 -2.0223
 2400SOL    HW218837   2.818   0.779   4.499 -0.3885  0.8445  0.3131
 2401SOL     OW18838   0.433   3.341   8.688 -0.5891  0.0569  0.3596
 2401SOL    HW118839   0.339   3.357   8.677 -0.2345  2.0516  0.1933
 2401SOL    HW218840   0.422   3.259   8.735 -0.2888 -0.0954  0.1609
 2402SOL     OW18841   1.025   1.904   5.758 -0.2344 -0.2845 -0.2611
 2402SOL    HW118842   0.997   1.988   5.795  0.4585 -1.4419  2.9093
 2402SOL    HW218843   0.968   1.839   5.799  0.7087  0.5693  2.4237
 2403SOL     OW18844   2.166   2.920  16.082 -0.6595  0.0085 -0.2044
 2403SOL    HW118845   2.250   2.875  16.068 -0.0604  1.1307 -0.2166
 2403SOL    HW218846   2.174   2.996  16.025  1.9703  0.1311  0.3421
 2404SOL     OW18847   4.380   2.143   5.594  0.3655 -0.4805 -0.2437
 2404SOL    HW118848   4.365   2.074   5.530 -4.1641 -0.9873  1.3331
 2404SOL    HW218849   4.475   2.152   5.601  0.1684  0.0611  2.0770
 2405SOL     OW18850   2.517   3.511   4.080 -0.2538  0.1485 -0.8871
 2405SOL    HW118851   2.423   3.503   4.063 -0.5564  0.0641  0.8326
 2405SOL    HW218852   2.521   3.604   4.100 -0.9191 -0.0552  0.2101
 2406SOL     OW18853   1.324   2.872   4.075 -0.2039 -0.1125  0.8516
 2406SOL    HW118854   1.279   2.954   4.055  1.2111  0.6145  0.6199
 2406SOL    HW218855   1.399   2.861   4.017 -0.6180 -0.3667  0.3659
 2407SOL     OW18856   4.422   4.329   2.601  0.7097 -0.0676  0.2534
 2407SOL    HW118857   4.334   4.347   2.567  0.5106  0.9560  1.3128
 2407SOL    HW218858   4.487   4.363   2.541  0.5132 -1.2623 -0.6375
 2408SOL     OW18859   3.959   2.879  16.635 -0.5724  0.1815  0.1675
 2408SOL    HW118860   3.955   2.794  16.678 -0.4320  0.4308  0.6857
 2408SOL    HW218861   3.931   2.856  16.547 -0.5931 -0.4957  0.3557
 2409SOL     OW18862   3.710   2.010   7.248  0.3525  0.2825  0.2177
 2409SOL    HW118863   3.690   2.007   7.341 -0.4421  0.7156  0.0616
 2409SOL    HW218864   3.684   1.920   7.232  0.9196  0.2407 -0.4788
 2410SOL     OW18865   4.694   2.828  13.213 -0.2383  0.1184  0.5415
 2410SOL    HW118866   4.726   2.823  13.123  1.4352  1.4890  1.0568
 2410SOL    HW218867   0.012   2.898  13.244 -0.0971 -0.5131  1.6883
 2411SOL     OW18868   2.405   3.933  12.509  0.1758  0.0738  0.3118
 2411SOL    HW118869   2.469   4.000  12.533 -0.2321 -0.5333  3.1403
 2411SOL    HW218870   2.347   3.988  12.456  0.2827 -2.2807 -2.2344
 2412SOL     OW18871   0.317   1.212   8.280  0.6687  0.1257  0.0520
 2412SOL    HW118872   0.295   1.166   8.199 -2.4961  0.4894  0.7191
 2412SOL    HW218873   0.397   1.262   8.263  0.1047  0.7530 -0.7819
 2413SOL     OW18874   2.990   1.768   3.405  0.7778  0.1449  0.2743
 2413SOL    HW118875   3.011   1.833   3.472  0.6306  1.4730 -0.9616
 2413SOL    HW218876   2.917   1.722   3.446 -1.7376  2.0869 -2.0469
 2414SOL     OW18877   2.437   0.763  12.555  0.0200  0.4946 -0.7069
 2414SOL    HW118878   2.359   0.810  12.525  1.2673  2.5482 -0.7324
 2414SOL    HW218879   2.410   0.751  12.646  2.6954  0.4235  0.0818
 2415SOL     OW18880   0.750   3.887   4.370 -0.1314 -0.7706 -0.8999
 2415SOL    HW118881   0.699   3.877   4.289  1.5509  2.7852 -2.4004
 2415SOL    HW218882   0.836   3.910   4.334  0.4134 -2.6427 -0.7770
 2416SOL     OW18883   0.839   1.178   6.109  0.0028 -0.4523  0.4191
 2416SOL    HW118884   0.783   1.132   6.172 -1.4095  1.1068  0.3068
 2416SOL    HW218885   0.804   1.267   6.109 -2.2598 -1.3536  0.6387
 2417SOL     OW18886   3.609   1.672   0.104 -0.1497 -0.1625  0.0767
 2417SOL    HW118887   3.658   1.754   0.104 -1.9806  0.9281 -0.2155
 2417SOL    HW218888   3.657   1.624   0.172 -1.9194 -0.4048  1.1654
 2418SOL     OW18889   4.403   3.220  13.955  0.1300  0.2745 -0.1685
 2418SOL    HW118890   4.419   3.299  13.903 -0.8132  0.2122 -0.5615
 2418SOL    HW218891   4.311   3.235  13.976  0.4419  1.9674 -0.0149
 2419SOL     OW18892   3.810   3.626   9.162 -0.2316 -0.0757 -0.8745
 2419SOL    HW118893   3.823   3.609   9.256 -0.7289 -0.3028 -0.8483
 2419SOL    HW218894   3.727   3.581   9.147  0.8724 -1.4690 -2.8510
 2420SOL     OW18895   0.400   4.455   5.751  0.0492  0.0883  0.1440
 2420SOL    HW118896   0.468   4.523   5.747  0.2445  0.0071  2.0873
 2420SOL    HW218897   0.348   4.478   5.828 -2.9394  0.4620 -2.0125
 2421SOL     OW18898   1.396   1.360   0.469  0.2933 -0.6810 -0.0653
 2421SOL    HW118899   1.408   1.367   0.564 -0.3007 -0.3761 -0.0145
 2421SOL    HW218900   1.471   1.413   0.440 -2.2826  2.9520 -0.1045
 2422SOL     OW18901   4.609   3.558   2.809 -0.1176 -0.6872  0.2562
 2422SOL    HW118902   4.523   3.523   2.829  0.0687 -1.4100 -0.1936
 2422SOL    HW218903   4.577   3.645   2.786 -0.5658 -0.9766 -0.2201
 2423SOL     OW18904   1.303   2.624   5.369 -0.3153 -0.0530  0.4228
 2423SOL    HW118905   1.261   2.539   5.384  0.1890 -0.1285  1.4653
 2423SOL    HW218906   1.249   2.674   5.430 -1.0763  0.2360 -0.4910
 2424SOL     OW18907   2.147   4.438   7.924  0.5389 -0.8766  0.3985
 2424SOL    HW118908   2.166   4.377   7.995  0.8230 -0.6579  0.5107
 2424SOL    HW218909   2.190   4.385   7.856 -1.7140 -0.8401 -1.0455
 2425SOL     OW18910   2.879   2.577  13.338  0.4220  0.1357  0.1667
 2425SOL    HW118911   2.789   2.586  13.370 -0.0530 -0.7005 -0.9603
 2425SOL    HW218912   2.870   2.573  13.243 -2.2447  0.7270  0.4045
 2426SOL     OW18913   2.886   3.854   9.769  0.4420  0.0871 -0.2570
 2426SOL    HW118914   2.810   3.796   9.766  1.2025 -0.9309  0.1205
 2426SOL    HW218915   2.900   3.863   9.863  0.4225 -0.3357 -0.2113
 2427SOL     OW18916   0.940   3.107   9.900 -0.6209  0.4245  0.1693
 2427SOL    HW118917   0.968   3.113   9.991 -1.7782  1.1494  0.4769
 2427SOL    HW218918   0.849   3.083   9.917 -0.5547  0.0678  0.0306
 2428SOL     OW18919   2.804   3.993   8.162  0.0227  0.2787 -0.6653
 2428SOL    HW118920   2.843   3.975   8.247 -1.2127 -1.2672 -0.4184
 2428SOL    HW218921   2.812   4.088   8.161 -2.4835  0.4897 -0.2024
 2429SOL     OW18922   2.259   4.524  14.992  0.1166 -0.0360  0.4656
 2429SOL    HW118923   2.220   4.442  14.964 -0.8418  1.0758 -1.4733
 2429SOL    HW218924   2.329   4.488  15.046 -1.2134 -2.5005  0.5416
 2430SOL     OW18925   3.370   1.919   4.502  0.1074 -0.0829 -1.2657
 2430SOL    HW118926   3.442   1.970   4.465  0.4561  0.3748  0.0419
 2430SOL    HW218927   3.369   1.849   4.437 -1.9871  0.0134 -1.3198
 2431SOL     OW18928   3.039   0.353   0.366  0.0609 -0.0132 -0.1312
 2431SOL    HW118929   3.000   0.390   0.287 -1.0457  0.1996  0.5173
 2431SOL    HW218930   3.091   0.425   0.403  0.3679 -0.9455  1.2849
 2432SOL     OW18931   1.304   0.831   5.707  0.1313 -0.3313  0.5169
 2432SOL    HW118932   1.242   0.881   5.760  1.2269 -0.1055  1.5670
 2432SOL    HW218933   1.356   0.900   5.666 -0.0565  0.0299  0.8914
 2433SOL     OW18934   0.817   0.860  12.399 -0.3419  0.2913 -0.0528
 2433SOL    HW118935   0.866   0.795  12.350 -0.0705 -1.1519  2.1570
 2433SOL    HW218936   0.852   0.944  12.368 -1.8548  0.1660 -2.0782
 2434SOL     OW18937   1.401   3.926  15.519 -0.5705 -0.3448 -0.1423
 2434SOL    HW118938   1.413   4.020  15.531 -0.8446  0.1594 -3.7046
 2434SOL    HW218939   1.482   3.885  15.489  0.1707 -0.2564  1.7355
 2435SOL     OW18940   2.452   3.740   1.703  0.5209 -0.1817 -0.3956
 2435SOL    HW118941   2.483   3.772   1.788  0.0257  2.4312 -1.2251
 2435SOL    HW218942   2.445   3.645   1.715 -1.2790 -0.1042 -0.7767
 2436SOL     OW18943   3.687   3.856  12.855  0.7416 -0.1133 -0.7446
 2436SOL    HW118944   3.756   3.884  12.795  0.8221 -0.4604 -0.8135
 2436SOL    HW218945   3.670   3.768  12.822 -1.1104  0.0470 -0.2142
 2437SOL     OW18946   3.154   3.159   5.160 -0.1905  0.5763 -0.3424
 2437SOL    HW118947   3.089   3.198   5.217  0.7580  3.8106 -1.4416
 2437SOL    HW218948   3.087   3.109   5.113  0.8372 -1.0120 -0.1151
 2438SOL     OW18949   3.732   1.427   8.737 -0.4760 -0.1478 -0.1250
 2438SOL    HW118950   3.721   1.393   8.648  0.6900  1.2545 -0.7985
 2438SOL    HW218951   3.661   1.491   8.741  2.5364  3.2575 -1.4955
 2439SOL     OW18952   0.945   2.506   5.560  0.3270 -0.1760  0.1484
 2439SOL    HW118953   1.016   2.570   5.568  1.0732 -0.8715 -0.7482
 2439SOL    HW218954   0.977   2.460   5.482 -0.0292 -1.9233  1.0230
 2440SOL     OW18955   1.121   0.688   3.229 -0.0714  0.2724  0.1678
 2440SOL    HW118956   1.050   0.707   3.168  0.4397 -1.4656 -0.9568
 2440SOL    HW218957   1.075   0.668   3.310 -0.7662  0.4966 -0.1767
 2441SOL     OW18958   1.630   1.583   0.696 -0.0804  0.3126 -0.0230
 2441SOL    HW118959   1.583   1.516   0.745 -0.0446  0.1970 -0.1474
 2441SOL    HW218960   1.616   1.555   0.605 -1.7368 -0.8960  0.5995
 2442SOL     OW18961   2.213   3.641   7.591  0.0401 -0.0837 -0.1369
 2442SOL    HW118962   2.174   3.703   7.653 -0.2481 -1.3728  0.9511
 2442SOL    HW218963   2.238   3.693   7.514  0.8503  2.2527  1.7280
 2443SOL     OW18964   0.396   2.281  16.727 -0.1298  0.0690  0.3144
 2443SOL    HW118965   0.369   2.275  16.635  2.1178 -0.0373 -0.3396
 2443SOL    HW218966   0.477   2.332  16.721 -1.4207  1.8916 -1.6806
 2444SOL     OW18967   4.031   2.949   1.961  0.4930  0.0984  0.2415
 2444SOL    HW118968   3.959   2.891   1.984 -0.1343  1.0265  0.6026
 2444SOL    HW218969   3.988   3.030   1.935 -2.1988 -2.1377 -2.2926
 2445SOL     OW18970   1.925   4.571  15.868  0.3215  0.0542  0.0037
 2445SOL    HW118971   1.945   4.637  15.801 -0.8102  0.2100 -0.1829
 2445SOL    HW218972   1.899   4.615  15.949 -1.2223  0.0150 -0.4763
 2446SOL     OW18973   3.587   0.435   4.182  0.5696  0.1406 -0.1443
 2446SOL    HW118974   3.545   0.351   4.197 -0.5262  0.7173  0.0052
 2446SOL    HW218975   3.542   0.470   4.105  0.1332 -0.5823 -0.2177
 2447SOL     OW18976   3.716   1.809   9.928 -0.0683  0.2783 -0.1466
 2447SOL    HW118977   3.754   1.732   9.971 -0.4687  0.4183  0.4660
 2447SOL    HW218978   3.749   1.797   9.839  0.4905  2.9309 -0.2928
 2448SOL     OW18979   3.716   0.343   8.610  0.1853  0.4824  0.1807
 2448SOL    HW118980   3.760   0.397   8.676 -2.2526  3.2036 -0.3829
 2448SOL    HW218981   3.789   0.332   8.550 -0.9138  2.9033 -1.6210
 2449SOL     OW18982   0.115   1.627   3.048  0.2279  0.5163 -0.0098
 2449SOL    HW118983   0.077   1.657   3.130 -3.8354 -0.4267 -1.5534
 2449SOL    HW218984   0.160   1.706   3.019 -0.0938  0.1933 -1.3758
 2450SOL     OW18985   1.809   2.415   7.996  0.3617  0.1784  0.0452
 2450SOL    HW118986   1.886   2.358   7.988 -0.2849 -0.8737  1.4511
 2450SOL    HW218987   1.777   2.390   8.083 -1.2685 -0.6693 -0.8153
 2451SOL     OW18988   2.759   2.895   2.349 -0.0461  0.3511  0.6378
 2451SOL    HW118989   2.735   2.874   2.259 -0.7041  1.4979  0.5521
 2451SOL    HW218990   2.692   2.962   2.357  0.9320  1.2640  1.2260
 2452SOL     OW18991   2.729   1.337   9.331  0.5225  0.5892 -0.5495
 2452SOL    HW118992   2.715   1.303   9.419 -0.2700  0.4993 -0.7149
 2452SOL    HW218993   2.715   1.261   9.274 -1.6288 -0.2291  1.0864
 2453SOL     OW18994   4.471   4.601   8.291  0.4844 -0.8551 -0.3868
 2453SOL    HW118995   4.473   4.667   8.360  0.6560 -0.7900 -0.4536
 2453SOL    HW218996   4.452   4.522   8.341 -0.2873  0.3522  1.2214
 2454SOL     OW18997   2.689   2.433  11.155 -0.2060 -0.0506 -0.4430
 2454SOL    HW118998   2.659   2.368  11.092 -0.2346  0.7307 -1.2432
 2454SOL    HW218999   2.619   2.427  11.220 -1.8575 -0.6159 -2.2739
 2455SOL     OW19000   4.576   3.249  16.685  0.4199  0.3011 -0.4725
 2455SOL    HW119001   4.610   3.193  16.616  0.1920 -0.2287 -0.1529
 2455SOL    HW219002   4.657   3.295  16.709 -0.0304  1.8705 -1.9712
 2456SOL     OW19003   1.525   0.456   5.002 -0.3853  0.2490  1.0200
 2456SOL    HW119004   1.481   0.531   4.963 -0.1853  0.6276  1.5274
 2456SOL    HW219005   1.595   0.503   5.048  0.9475 -1.0915  0.3671
 2457SOL     OW19006   3.522   4.185   6.627  0.3228 -0.0331  0.2584
 2457SOL    HW119007   3.447   4.209   6.573 -0.7535  1.4555  2.3926
 2457SOL    HW219008   3.578   4.152   6.557  0.1152  0.6839 -0.2415
 2458SOL     OW19009   0.381   4.271   2.752 -0.0338 -0.0453  0.2516
 2458SOL    HW119010   0.437   4.308   2.684  1.3095 -1.5359  0.5455
 2458SOL    HW219011   0.371   4.349   2.806 -3.5368 -0.5855  0.3872
 2459SOL     OW19012   1.562   2.496   7.307  0.0041  0.0278  0.2780
 2459SOL    HW119013   1.600   2.412   7.332  0.2243 -0.7657 -2.7550
 2459SOL    HW219014   1.646   2.539   7.299 -0.4011  0.6518 -0.6373
 2460SOL     OW19015   1.786   2.421   2.403  0.2101 -0.3331  0.2382
 2460SOL    HW119016   1.750   2.352   2.458  2.0068 -0.6902  0.9909
 2460SOL    HW219017   1.706   2.469   2.386 -0.1840 -1.0571  0.0253
 2461SOL     OW19018   4.162   2.455   4.437 -0.2669 -0.3276  0.0512
 2461SOL    HW119019   4.106   2.381   4.460 -1.9822  1.5535  1.8665
 2461SOL    HW219020   4.128   2.474   4.349  0.1945  0.5501  0.0718
 2462SOL     OW19021   3.863   2.330   8.638  0.0908  0.7303 -0.0887
 2462SOL    HW119022   3.945   2.299   8.679  1.6624  4.6792 -0.2538
 2462SOL    HW219023   3.801   2.259   8.656  2.0642 -0.7115  1.0250
 2463SOL     OW19024   0.208   2.092   7.086  0.0292  0.2646 -0.7273
 2463SOL    HW119025   0.183   2.095   6.993 -0.6345  2.4042 -0.4816
 2463SOL    HW219026   0.278   2.156   7.095 -0.7294  0.9537  0.2859
 2464SOL     OW19027   3.747   3.000   9.762  0.2256  0.1601  0.5158
 2464SOL    HW119028   3.693   3.022   9.838 -2.8359 -0.0378 -1.5961
 2464SOL    HW219029   3.724   2.909   9.742  2.9689 -0.5394  0.5489
 2465SOL     OW19030   4.735   2.252  17.353 -0.0397  0.3890 -0.4738
 2465SOL    HW119031   0.015   2.159  17.337  0.1280  0.3975 -0.3138
 2465SOL    HW219032   4.646   2.245  17.390 -0.0562  0.1242 -0.5638
 2466SOL     OW19033   3.394   3.611   6.281 -0.1646 -0.3388 -0.0190
 2466SOL    HW119034   3.319   3.589   6.336 -0.6482 -0.7084 -0.8418
 2466SOL    HW219035   3.431   3.686   6.328 -1.8562 -0.4330  1.4654
 2467SOL     OW19036   1.257   4.164  11.966 -0.3435 -0.3560 -0.0690
 2467SOL    HW119037   1.167   4.184  11.941 -0.6964 -0.0266  1.4601
 2467SOL    HW219038   1.248   4.070  11.980 -2.0955 -0.0627  0.7153
 2468SOL     OW19039   3.633   1.654  12.105 -0.2144  0.1379 -0.3704
 2468SOL    HW119040   3.630   1.702  12.188 -1.7479 -0.5305 -0.0487
 2468SOL    HW219041   3.541   1.629  12.105 -0.7770  2.2327 -1.6269
 2469SOL     OW19042   0.919   1.907   8.880  0.2517 -0.2780 -0.1696
 2469SOL    HW119043   0.836   1.861   8.880  0.1322 -0.0664  0.6946
 2469SOL    HW219044   0.926   1.945   8.968  2.0439  1.4375 -1.0261
 2470SOL     OW19045   2.170   2.708   8.455 -0.4387  0.4418  0.3252
 2470SOL    HW119046   2.104   2.659   8.407 -0.4888 -0.0550  0.9025
 2470SOL    HW219047   2.250   2.701   8.403 -0.6893 -1.8550  0.2521
 2471SOL     OW19048   1.750   3.603   6.584 -0.0666  0.2410 -0.1248
 2471SOL    HW119049   1.655   3.605   6.595 -0.0092  0.8952  0.2702
 2471SOL    HW219050   1.786   3.619   6.671  0.8935  2.1825 -0.8905
 2472SOL     OW19051   4.353   2.855   9.744 -0.5975 -0.2733 -0.0209
 2472SOL    HW119052   4.417   2.907   9.793  0.2135  0.7014 -2.0844
 2472SOL    HW219053   4.326   2.787   9.805  0.8251 -0.1620  0.7207
 2473SOL     OW19054   2.161   0.480   6.368  0.3471 -0.4023  0.1858
 2473SOL    HW119055   2.082   0.531   6.349  1.3285  0.4934 -1.4774
 2473SOL    HW219056   2.188   0.445   6.283 -0.3701  1.2425 -0.7227
 2474SOL     OW19057   4.406   0.503  13.880  0.0599 -0.4088 -0.1420
 2474SOL    HW119058   4.314   0.529  13.881 -0.1339 -1.1321  1.1231
 2474SOL    HW219059   4.440   0.532  13.965  2.9491  1.1248 -1.8064
 2475SOL     OW19060   2.089   3.760   2.526  0.1561 -0.7668 -0.4091
 2475SOL    HW119061   2.177   3.792   2.549 -1.1811  1.1699  1.9773
 2475SOL    HW219062   2.029   3.776   2.599  0.5765 -1.4105  0.0768
 2476SOL     OW19063   1.804   2.875  13.388 -0.3333  0.3310  0.4187
 2476SOL    HW119064   1.739   2.924  13.438 -1.3160 -0.4770 -0.0523
 2476SOL    HW219065   1.753   2.798  13.362  0.4530  1.0722 -3.3216
 2477SOL     OW19066   4.015   4.315   3.573 -0.2575 -0.0172 -0.1494
 2477SOL    HW119067   4.094   4.272   3.542 -1.2664 -1.1021 -1.2242
 2477SOL    HW219068   4.052   4.403   3.577 -0.5464  0.0672  0.6256
 2478SOL     OW19069   0.714   3.089  15.143  0.4945 -0.3924 -0.7053
 2478SOL    HW119070   0.724   3.101  15.049  2.4163  1.6324 -0.2285
 2478SOL    HW219071   0.789   3.138  15.177 -0.3244 -0.9147  1.8929
 2479SOL     OW19072   2.815   4.677   3.067 -0.1715  0.8546  0.5494
 2479SOL    HW119073   2.819   4.693   3.162  1.1063  2.8642  0.1576
 2479SOL    HW219074   2.732   4.629   3.074 -0.9536  2.1193 -0.1267
 2480SOL     OW19075   4.103   4.053   4.271  0.2119 -0.2128 -0.0251
 2480SOL    HW119076   4.081   4.146   4.276 -0.5767 -0.2832 -2.0121
 2480SOL    HW219077   4.015   4.016   4.262 -0.2876  1.5790 -2.6302
 2481SOL     OW19078   2.591   2.013   3.696 -0.1031  0.4428  0.1055
 2481SOL    HW119079   2.626   2.010   3.607 -1.8628 -2.0466 -0.4866
 2481SOL    HW219080   2.610   1.922   3.717 -0.9420  0.1419 -0.4201
 2482SOL     OW19081   1.893   0.420  17.232 -0.1843 -0.4963 -0.4605
 2482SOL    HW119082   1.927   0.503  17.267  1.9827 -2.3858  1.9146
 2482SOL    HW219083   1.827   0.454  17.172  0.5723  2.4490  0.3883
 2483SOL     OW19084   1.749   1.821   1.871 -0.4065 -0.2314  0.2014
 2483SOL    HW119085   1.790   1.842   1.787  0.7090  1.6726  1.2407
 2483SOL    HW219086   1.826   1.785   1.915  1.8482  1.9540 -1.9263
 2484SOL     OW19087   1.828   4.148   4.750 -0.0310 -0.4674 -0.5242
 2484SOL    HW119088   1.878   4.075   4.712 -1.9100 -0.3521 -3.2366
 2484SOL    HW219089   1.790   4.184   4.670  3.7843  0.2051 -2.0449
 2485SOL     OW19090   0.566   2.426   2.781 -0.6622 -0.0482 -0.2558
 2485SOL    HW119091   0.501   2.469   2.725  0.8489  1.0917 -1.1081
 2485SOL    HW219092   0.632   2.394   2.720 -2.1053  0.1987 -1.9519
 2486SOL     OW19093   4.399   2.912   6.293  0.5195 -0.3463 -0.3780
 2486SOL    HW119094   4.399   2.997   6.250 -0.9876 -2.3885 -4.4012
 2486SOL    HW219095   4.304   2.901   6.295  0.3262  1.2735 -0.8342
 2487SOL     OW19096   3.271   3.620   7.013 -0.0390  0.0631  0.7055
 2487SOL    HW119097   3.356   3.630   7.055  2.4600 -2.8060 -3.6983
 2487SOL    HW219098   3.277   3.692   6.950  0.2222 -1.0090 -0.4848
 2488SOL     OW19099   2.309   1.230  14.869  0.0592 -0.2777  0.3899
 2488SOL    HW119100   2.305   1.142  14.831  0.8834  0.7352 -2.0724
 2488SOL    HW219101   2.289   1.207  14.960  1.0984  0.5922  0.8230
 2489SOL     OW19102   0.820   1.506  14.156 -0.0612 -0.0334  0.1310
 2489SOL    HW119103   0.760   1.480  14.225 -0.6826 -0.7481 -0.6795
 2489SOL    HW219104   0.901   1.513  14.206  0.4340  0.1362 -0.6987
 2490SOL     OW19105   0.495   0.675   9.438  0.1006  0.2294  0.3515
 2490SOL    HW119106   0.576   0.705   9.397 -1.5314  1.9149 -1.5880
 2490SOL    HW219107   0.422   0.701   9.382 -1.7393 -3.1293  1.1619
 2491SOL     OW19108   4.348   3.126   6.570 -0.3396  0.9000  0.1501
 2491SOL    HW119109   4.422   3.120   6.510 -1.2248  3.1233 -1.1814
 2491SOL    HW219110   4.394   3.090   6.646 -0.4503  2.2102  0.8327
 2492SOL     OW19111   3.180   1.664  14.059  1.0712 -0.1029  0.1345
 2492SOL    HW119112   3.147   1.753  14.048 -2.1298 -1.0246  2.2216
 2492SOL    HW219113   3.247   1.656  13.991  2.2128 -0.2424  1.2827
 2493SOL     OW19114   2.948   4.638   0.403 -0.4314 -0.4221 -0.3054
 2493SOL    HW119115   2.936   4.665   0.494  2.5540 -0.6304  0.1581
 2493SOL    HW219116   2.995   4.713   0.367 -3.0163 -0.2569 -3.3430
 2494SOL     OW19117   2.262   1.566   5.792 -0.2975 -0.5834 -0.3545
 2494SOL    HW119118   2.174   1.556   5.757 -1.5702  3.0109  1.7978
 2494SOL    HW219119   2.304   1.608   5.717  2.5921  1.0988  2.2124
 2495SOL     OW19120   1.596   0.041   4.818 -0.3349  0.2195 -0.6669
 2495SOL    HW119121   1.530   0.002   4.875 -2.2585  2.8150 -1.1328
 2495SOL    HW219122   1.628   0.114   4.871  1.2234 -1.4282  0.6903
 2496SOL     OW19123   0.722   4.626   0.426 -0.1271  0.4767 -0.9996
 2496SOL    HW119124   0.783   4.646   0.356  1.0377 -2.3340 -0.7983
 2496SOL    HW219125   0.775   4.621   0.505 -0.1495  2.2810 -0.8830
 2497SOL     OW19126   2.921   2.399   6.698  0.3254 -0.0274  0.1601
 2497SOL    HW119127   2.894   2.404   6.790  0.5633 -0.5530  0.2543
 2497SOL    HW219128   2.876   2.480   6.673 -1.6862 -1.0486  0.4586
 2498SOL     OW19129   2.407   3.520  16.460 -0.0366 -0.3435  0.1025
 2498SOL    HW119130   2.459   3.506  16.381 -1.0103  1.3083 -0.8161
 2498SOL    HW219131   2.387   3.613  16.465  0.4575 -0.2393  0.1878
 2499SOL     OW19132   4.055   0.695   4.044  0.4925  0.4053 -0.4364
 2499SOL    HW119133   4.041   0.692   3.950  0.1327  1.4043 -0.4224
 2499SOL    HW219134   4.109   0.774   4.050  1.4149 -0.3703  1.6449
 2500SOL     OW19135   0.376   2.737   6.349 -0.4109 -0.3720  0.2154
 2500SOL    HW119136   0.438   2.670   6.321 -0.2528  0.5816 -1.7710
 2500SOL    HW219137   0.356   2.694   6.431 -0.6807  2.0460  1.4360
 2501SOL     OW19138   2.531   3.815   7.654  0.0806 -0.7552 -0.1781
 2501SOL    HW119139   2.542   3.901   7.696 -3.8376 -0.0464 -0.5974
 2501SOL    HW219140   2.594   3.830   7.583 -2.3651 -0.4089 -2.2700
 2502SOL     OW19141   4.522   2.850   7.374  0.1902 -0.6583  0.6002
 2502SOL    HW119142   4.560   2.898   7.448 -1.5224  0.4054  0.8204
 2502SOL    HW219143   4.551   2.761   7.392 -0.5566 -1.4835 -2.3154
 2503SOL     OW19144   2.561   1.061   3.358  0.2977 -0.1008 -0.7239
 2503SOL    HW119145   2.472   1.054   3.393  1.1029 -2.0394  0.9524
 2503SOL    HW219146   2.618   1.064   3.435  0.7863 -2.7463 -0.9707
 2504SOL     OW19147   1.355   0.714   2.435  0.4446  0.2164  0.1286
 2504SOL    HW119148   1.264   0.722   2.461 -0.4489 -1.9736 -2.3339
 2504SOL    HW219149   1.379   0.804   2.415 -1.7033  0.3135 -1.8738
 2505SOL     OW19150   2.425   3.351  16.678 -0.8939  0.0501  0.1326
 2505SOL    HW119151   2.427   3.424  16.616  2.5613 -0.0837  0.0993
 2505SOL    HW219152   2.398   3.400  16.756 -0.6319  0.4940 -0.0588
 2506SOL     OW19153   0.754   3.465  16.212 -0.3315 -0.0199 -0.3203
 2506SOL    HW119154   0.748   3.556  16.183  0.3231  0.5511  1.3192
 2506SOL    HW219155   0.693   3.481  16.284  0.3538 -2.0212  0.7296
 2507SOL     OW19156   0.075   3.211   6.349 -0.0235  0.0452 -0.3936
 2507SOL    HW119157   0.144   3.171   6.402 -1.3697 -3.6709 -1.4712
 2507SOL    HW219158   0.064   3.140   6.285  0.6095 -0.0589 -0.3854
 2508SOL     OW19159   0.975   1.987  15.680 -0.0403 -0.2849 -0.1131
 2508SOL    HW119160   0.892   2.031  15.701 -0.1525 -1.3124  1.5513
 2508SOL    HW219161   1.002   2.051  15.614 -0.8977  1.0294  0.7966
 2509SOL     OW19162   3.588   1.093  14.403 -0.4220  0.0014  0.2036
 2509SOL    HW119163   3.505   1.141  14.403 -1.1906 -1.3457  1.4385
 2509SOL    HW219164   3.645   1.168  14.422 -2.4319  1.4034  0.7246
 2510SOL     OW19165   1.837   0.424  11.559 -0.0067  0.0281 -0.0461
 2510SOL    HW119166   1.843   0.457  11.649  0.4258 -0.5432  0.1352
 2510SOL    HW219167   1.795   0.339  11.576 -0.8936  0.3154 -0.8051
 2511SOL     OW19168   3.539   3.793   9.444  0.7053 -0.2921  0.0757
 2511SOL    HW119169   3.514   3.812   9.535 -0.1374 -0.4807 -0.1223
 2511SOL    HW219170   3.468   3.730   9.430  0.3444  0.1235  0.0371
 2512SOL     OW19171   4.468   3.093  11.491  0.0586 -0.2405  0.3443
 2512SOL    HW119172   4.460   3.031  11.563 -2.0866 -0.3986 -0.0499
 2512SOL    HW219173   4.487   3.044  11.410  1.9047  2.2054 -0.7047
 2513SOL     OW19174   1.900   4.372  13.781  0.0396 -0.1514 -0.4138
 2513SOL    HW119175   1.956   4.444  13.749 -0.7789  1.3343  1.5259
 2513SOL    HW219176   1.839   4.363  13.708  1.4997  1.4392 -1.8603
 2514SOL     OW19177   2.106   1.605   9.086 -0.0118  0.3243 -0.6910
 2514SOL    HW119178   2.156   1.632   9.163  1.7308  0.5536 -1.9223
 2514SOL    HW219179   2.057   1.687   9.076  0.3500  0.5488 -0.5962
 2515SOL     OW19180   3.080   1.249   5.173 -0.0723 -0.2949  0.3745
 2515SOL    HW119181   3.089   1.163   5.131  0.5685 -0.4572  0.8509
 2515SOL    HW219182   3.158   1.291   5.135 -0.7029 -1.6515 -2.4728
 2516SOL     OW19183   4.536   4.020   4.066  0.3572 -1.0673  0.3815
 2516SOL    HW119184   4.457   4.034   4.119 -0.4460 -1.6425 -0.6441
 2516SOL    HW219185   4.612   4.045   4.118 -0.8827  1.9121  0.7693
 2517SOL     OW19186   3.803   3.612  15.710 -0.4054 -0.9111 -0.2966
 2517SOL    HW119187   3.756   3.531  15.729  1.5277 -2.1951 -1.0285
 2517SOL    HW219188   3.772   3.626  15.621 -0.4695  3.1448  0.3296
 2518SOL     OW19189   1.846   4.257   3.663  0.1515 -0.9613 -0.8589
 2518SOL    HW119190   1.921   4.317   3.668  1.0253 -2.1399  0.1184
 2518SOL    HW219191   1.840   4.243   3.568 -0.8101 -0.6875 -0.8410
 2519SOL     OW19192   0.144   4.522   0.794  0.4974 -0.0365 -0.4518
 2519SOL    HW119193   0.080   4.545   0.727 -0.7286 -1.7405  0.1266
 2519SOL    HW219194   0.217   4.493   0.739  0.9500  2.8916 -1.3637
 2520SOL     OW19195   1.940   3.392   7.310 -0.1875 -0.1340 -0.2217
 2520SOL    HW119196   1.860   3.340   7.314  0.2730 -0.7821  0.3267
 2520SOL    HW219197   1.975   3.358   7.227  1.4506 -0.3380  0.5634
 2521SOL     OW19198   4.058   3.061   8.878  0.1366  0.4483  0.1017
 2521SOL    HW119199   4.150   3.074   8.856 -0.0367 -2.8756 -2.7648
 2521SOL    HW219200   4.045   3.117   8.954 -0.2139  0.0568  0.3337
 2522SOL     OW19201   4.238   1.046   9.900 -0.3847  0.3262 -0.3057
 2522SOL    HW119202   4.160   1.100   9.910  0.7003  1.6732  0.8136
 2522SOL    HW219203   4.205   0.987   9.832  1.5677  0.7472 -1.6238
 2523SOL     OW19204   1.732   2.905   1.688 -0.4087  0.5188  0.0592
 2523SOL    HW119205   1.653   2.935   1.643 -0.8376  2.6767  2.2423
 2523SOL    HW219206   1.792   2.977   1.670 -0.7638  0.2756 -2.0628
 2524SOL     OW19207   3.810   3.962   4.340 -0.8154 -0.5696  0.2226
 2524SOL    HW119208   3.808   4.038   4.282 -1.2648 -1.4515 -0.8904
 2524SOL    HW219209   3.735   3.969   4.399  0.2583 -2.6048  1.8278
 2525SOL     OW19210   0.635   1.188   4.535 -0.2810 -0.0126  0.6884
 2525SOL    HW119211   0.673   1.261   4.583 -0.4515  0.7892 -0.3881
 2525SOL    HW219212   0.611   1.121   4.599 -0.3332 -1.5063 -0.8935
 2526SOL     OW19213   2.997   0.357   4.042 -0.2766  0.9758 -0.1262
 2526SOL    HW119214   2.956   0.311   3.969 -0.3984 -0.0175  0.5702
 2526SOL    HW219215   3.084   0.318   4.045 -0.2690  0.9320 -1.1238
 2527SOL     OW19216   1.171   1.260  11.574  0.3447  0.0609 -0.2618
 2527SOL    HW119217   1.126   1.177  11.585 -1.4573  1.1549  0.7054
 2527SOL    HW219218   1.097   1.311  11.539  1.8523  2.3055 -0.1608
 2528SOL     OW19219   1.220   0.045  13.956  0.0284 -0.1407 -0.6369
 2528SOL    HW119220   1.185   4.728  14.025  1.3762 -2.0015 -1.4779
 2528SOL    HW219221   1.156   0.115  13.968  1.2646  0.9026 -0.0674
 2529SOL     OW19222   3.374   3.850   6.830  0.1016 -0.2094 -0.2906
 2529SOL    HW119223   3.430   3.808   6.765  0.7605  0.7662 -0.3615
 2529SOL    HW219224   3.440   3.872   6.896  1.4261  1.8400 -2.2970
 2530SOL     OW19225   1.543   3.491   1.360  0.3899 -0.0125  0.7996
 2530SOL    HW119226   1.465   3.492   1.305  0.0943  1.7267  1.2731
 2530SOL    HW219227   1.566   3.583   1.370  0.1288  0.2335 -1.0468
 2531SOL     OW19228   2.427   1.036   6.565  0.3558 -0.1497  0.0823
 2531SOL    HW119229   2.423   1.128   6.593 -0.0568  0.0123 -0.5047
 2531SOL    HW219230   2.462   1.034   6.476 -0.7743 -3.0766 -0.3045
 2532SOL     OW19231   3.730   3.088   6.615  0.1399 -0.2025 -0.4306
 2532SOL    HW119232   3.780   3.169   6.606 -0.9689  0.4553 -0.6478
 2532SOL    HW219233   3.644   3.113   6.582  0.5120 -3.1784 -3.6713
 2533SOL     OW19234   3.613   4.209   4.148 -0.1329  0.3804  0.3307
 2533SOL    HW119235   3.558   4.211   4.227  2.1172  1.3891  1.8412
 2533SOL    HW219236   3.604   4.293   4.104  1.5214  1.2664  1.7181
 2534SOL     OW19237   3.591   1.917   8.041  0.1238 -0.3654  0.0108
 2534SOL    HW119238   3.613   2.003   8.078 -0.1607 -1.7155  3.2655
 2534SOL    HW219239   3.676   1.888   8.007  0.0843 -0.8502  0.3226
 2535SOL     OW19240   0.367   0.483   4.595 -0.0108 -0.1678  0.6991
 2535SOL    HW119241   0.290   0.436   4.563 -0.8795  2.4146 -1.0067
 2535SOL    HW219242   0.423   0.433   4.654  0.7359 -1.6559 -1.2899
 2536SOL     OW19243   0.719   3.163  14.861 -0.5562 -0.2169 -0.0255
 2536SOL    HW119244   0.786   3.174  14.793  1.4957 -1.1125  1.8735
 2536SOL    HW219245   0.645   3.179  14.803  0.0578  0.7121 -0.5617
 2537SOL     OW19246   4.171   1.775   7.847  0.2268 -0.5845 -0.3519
 2537SOL    HW119247   4.199   1.837   7.914  1.7305 -0.1705 -1.3510
 2537SOL    HW219248   4.161   1.693   7.895 -2.3363  0.4011  0.7706
 2538SOL     OW19249   2.053   0.325  12.055  0.5052 -0.4272  0.0374
 2538SOL    HW119250   2.119   0.263  12.085  1.0942  0.2536  0.1568
 2538SOL    HW219251   1.971   0.280  12.073  1.1738 -0.4063  3.1069
 2539SOL     OW19252   3.880   4.508   8.402 -0.5198  0.2701 -0.0528
 2539SOL    HW119253   3.948   4.575   8.395 -0.3213  0.1062  0.3222
 2539SOL    HW219254   3.821   4.560   8.456 -0.5394  0.0797  0.1112
 2540SOL     OW19255   2.096   4.210  17.227  0.1934  0.0446  0.4730
 2540SOL    HW119256   2.170   4.247  17.178  1.0741 -3.5545 -0.9618
 2540SOL    HW219257   2.099   4.254  17.312  0.6676 -0.5195  0.7495
 2541SOL     OW19258   3.153   0.746   4.262  0.4629  0.5073  0.1309
 2541SOL    HW119259   3.059   0.756   4.272  0.7225  1.5300  1.5608
 2541SOL    HW219260   3.162   0.732   4.167  0.2722 -1.0546  0.3528
 2542SOL     OW19261   2.887   2.470   9.074  0.7847  0.4898 -0.5161
 2542SOL    HW119262   2.897   2.512   8.989  2.7034 -0.2698 -0.6746
 2542SOL    HW219263   2.904   2.378   9.051  2.5965  0.8573 -0.6923
 2543SOL     OW19264   3.832   3.776  10.185 -0.5503 -0.2670  0.0555
 2543SOL    HW119265   3.759   3.838  10.194  0.4116  0.7898  0.6181
 2543SOL    HW219266   3.800   3.723  10.113 -1.6270  1.0262 -0.4222
 2544SOL     OW19267   4.349   1.173   1.291  0.4322 -0.0181  0.3702
 2544SOL    HW119268   4.371   1.264   1.275 -0.2106 -0.3840 -2.5147
 2544SOL    HW219269   4.256   1.175   1.271  0.7613  2.2726 -0.9177
 2545SOL     OW19270   4.304   3.098   2.515  0.1257 -0.4557 -0.1034
 2545SOL    HW119271   4.232   3.132   2.461 -0.1699 -1.1823 -0.1581
 2545SOL    HW219272   4.258   3.029   2.563  0.4985 -0.4216  0.3027
 2546SOL     OW19273   1.358   4.327   3.879 -0.3146  0.5572  0.3573
 2546SOL    HW119274   1.301   4.383   3.931  0.5694  1.9362 -0.1532
 2546SOL    HW219275   1.348   4.351   3.787  2.5527 -1.0269 -0.3501
 2547SOL     OW19276   2.485   3.856   6.535 -0.4389  0.0387  0.2266
 2547SOL    HW119277   2.392   3.839   6.550  0.0791 -1.8818  1.3179
 2547SOL    HW219278   2.515   3.872   6.625  0.7595  1.3661 -0.4239
 2548SOL     OW19279   0.163   3.707  15.545  0.1689 -0.1143  0.3308
 2548SOL    HW119280   0.248   3.750  15.551  0.0026  0.2216  0.2660
 2548SOL    HW219281   0.141   3.690  15.637  1.8067  0.6249  0.8588
 2549SOL     OW19282   0.008   3.717   1.857  0.6868  0.0744  0.1572
 2549SOL    HW119283   0.091   3.686   1.892 -0.5317 -1.1790  1.9108
 2549SOL    HW219284   0.038   3.807   1.843  0.0735  0.4841  1.5008
 2550SOL     OW19285   1.483   4.574   8.089  0.1010  0.0311  0.2483
 2550SOL    HW119286   1.433   4.496   8.062  1.4553 -0.3108 -1.2292
 2550SOL    HW219287   1.574   4.546   8.087 -0.4531 -1.7033 -0.7861
 2551SOL     OW19288   1.856   1.469   0.788 -0.0479  0.1435  0.5287
 2551SOL    HW119289   1.788   1.528   0.755 -2.0837 -2.2853  0.4346
 2551SOL    HW219290   1.929   1.498   0.733  0.7125  0.5431  1.7583
 2552SOL     OW19291   1.796   1.426   4.190 -0.3495  0.0557 -0.4001
 2552SOL    HW119292   1.779   1.344   4.235  2.2461 -0.7841 -0.9418
 2552SOL    HW219293   1.730   1.433   4.121  0.4935  0.6684 -1.1406
 2553SOL     OW19294   4.412   2.605   7.961 -0.5554 -0.1188  0.8603
 2553SOL    HW119295   4.479   2.542   7.935 -0.2585  0.4914  0.1598
 2553SOL    HW219296   4.332   2.552   7.960 -2.7558  3.2833 -1.5450
 2554SOL     OW19297   0.209   3.134   7.831 -0.0010  0.2238  0.5084
 2554SOL    HW119298   0.221   3.156   7.738 -1.2088 -0.8751  0.1052
 2554SOL    HW219299   0.114   3.148   7.835 -0.3383 -1.2173 -2.7609
 2555SOL     OW19300   0.209   0.523   6.119 -0.3511 -0.0487 -0.0459
 2555SOL    HW119301   0.201   0.562   6.206  1.3723  2.3401 -0.9581
 2555SOL    HW219302   0.249   0.594   6.068 -1.1945  0.8818  0.6080
 2556SOL     OW19303   1.582   0.310   8.378 -0.2037  0.3991  0.2331
 2556SOL    HW119304   1.506   0.320   8.435 -0.6304  0.6754 -0.3809
 2556SOL    HW219305   1.587   0.215   8.362 -2.0623  0.3882 -0.3366
 2557SOL     OW19306   1.013   1.515  10.735 -0.5937 -0.0761  0.2386
 2557SOL    HW119307   0.921   1.534  10.717 -0.3530  0.7586 -0.0971
 2557SOL    HW219308   1.015   1.442  10.798  2.8280 -0.2257 -0.0629
 2558SOL     OW19309   0.121   2.866  11.519 -0.1530  0.1874 -0.6667
 2558SOL    HW119310   0.082   2.952  11.536 -3.3730 -1.1642 -1.2112
 2558SOL    HW219311   0.053   2.809  11.556  0.3799  1.7009  2.5818
 2559SOL     OW19312   1.472   3.367   3.766  0.1626 -0.6925 -0.5238
 2559SOL    HW119313   1.410   3.420   3.816 -0.0220  0.1019 -1.5745
 2559SOL    HW219314   1.428   3.355   3.681  0.3887  0.6998 -0.8536
 2560SOL     OW19315   3.854   0.450  11.551  0.2973 -0.3627 -0.2349
 2560SOL    HW119316   3.801   0.520  11.515  1.0532  0.1466 -0.3579
 2560SOL    HW219317   3.940   0.471  11.514  0.1184  0.9382  0.0879
 2561SOL     OW19318   1.842   3.713  16.974  0.3022 -0.2469 -0.3200
 2561SOL    HW119319   1.860   3.777  16.905 -0.6206  1.4197  0.9898
 2561SOL    HW219320   1.906   3.643  16.962 -1.4422 -1.5752 -1.7067
 2562SOL     OW19321   0.727   3.393   6.622 -0.0308 -0.9024 -0.2158
 2562SOL    HW119322   0.774   3.451   6.562  0.8915 -0.6050  0.7873
 2562SOL    HW219323   0.710   3.445   6.701 -1.3611 -2.0199  0.2317
 2563SOL     OW19324   2.941   0.334   6.783  0.4554 -0.2050  0.1783
 2563SOL    HW119325   2.933   0.279   6.861 -0.2473  0.4014  0.5367
 2563SOL    HW219326   2.885   0.407   6.806  0.7185 -0.2609  0.9665
 2564SOL     OW19327   2.080   1.180  12.383 -0.3732 -0.0355  0.1361
 2564SOL    HW119328   2.079   1.175  12.288 -0.8611 -1.6065  0.2113
 2564SOL    HW219329   2.070   1.273  12.405  0.1186  0.3841 -1.4667
 2565SOL     OW19330   4.358   2.229   3.424  0.4262  0.1011  0.2264
 2565SOL    HW119331   4.350   2.134   3.428 -1.7927  0.2969  0.4334
 2565SOL    HW219332   4.402   2.230   3.339 -0.7162 -0.5478 -0.3608
 2566SOL     OW19333   3.097   3.401   9.118 -0.4761  0.5917  0.0164
 2566SOL    HW119334   3.073   3.491   9.097  0.7902  1.2663  1.4193
 2566SOL    HW219335   3.149   3.425   9.196  0.7587 -1.0515 -0.2974
 2567SOL     OW19336   0.734   4.287   8.884 -0.2877 -0.2653  0.2110
 2567SOL    HW119337   0.751   4.274   8.791 -0.7583 -1.1753  0.2467
 2567SOL    HW219338   0.803   4.231   8.920 -0.5837 -1.8131 -1.5967
 2568SOL     OW19339   3.085   4.477   2.090  0.1831 -0.1215 -0.0411
 2568SOL    HW119340   3.123   4.390   2.081  1.8751  0.6043  0.1405
 2568SOL    HW219341   3.063   4.480   2.183 -1.6744 -2.4326 -0.4137
 2569SOL     OW19342   1.774   2.778   8.701  0.0661  0.7761 -0.1384
 2569SOL    HW119343   1.824   2.709   8.658  0.9400 -0.0991  2.2701
 2569SOL    HW219344   1.764   2.839   8.628  0.1071  1.3924  0.3709
 2570SOL     OW19345   1.865   4.622   4.180  0.3793 -0.2759  0.5804
 2570SOL    HW119346   1.818   4.618   4.263  0.0618  0.4431  0.4362
 2570SOL    HW219347   1.907   4.536   4.169 -1.0489 -0.6921 -1.6458
 2571SOL     OW19348   3.650   1.542   6.544  0.1910  0.1718  0.8633
 2571SOL    HW119349   3.704   1.578   6.615  0.0786  1.8968  0.0790
 2571SOL    HW219350   3.725   1.530   6.486 -1.2162 -1.8440 -0.5088
 2572SOL     OW19351   4.105   4.208   8.610 -0.1070 -0.4623 -0.0011
 2572SOL    HW119352   4.112   4.300   8.636 -0.8678 -0.1191 -0.9857
 2572SOL    HW219353   4.198   4.185   8.600 -0.1803 -0.2329 -1.2125
 2573SOL     OW19354   0.204   3.519   4.221 -0.0252 -0.4369  0.1742
 2573SOL    HW119355   0.206   3.596   4.164  1.1024  0.1977  1.0705
 2573SOL    HW219356   0.130   3.473   4.181 -0.1090 -1.8890  2.0124
 2574SOL     OW19357   0.825   3.178   1.146 -0.2522 -0.2426  0.3862
 2574SOL    HW119358   0.795   3.212   1.061 -0.2630  4.5082  2.2712
 2574SOL    HW219359   0.738   3.165   1.183 -1.3104 -0.0273 -1.9840
 2575SOL     OW19360   4.643   0.107  14.966  0.1382  0.9267 -0.2551
 2575SOL    HW119361   4.724   0.062  14.991  1.6775  2.4934 -2.4006
 2575SOL    HW219362   4.680   0.194  14.951  1.7259 -0.0461 -2.0431
 2576SOL     OW19363   2.941   4.437   1.821  0.1866  0.5601 -0.1129
 2576SOL    HW119364   2.913   4.520   1.784 -2.0187 -0.5059 -0.8426
 2576SOL    HW219365   2.979   4.458   1.906  0.0546  0.5099 -0.0419
 2577SOL     OW19366   1.932   3.819   3.224 -0.6765  0.2705  0.0197
 2577SOL    HW119367   1.971   3.778   3.147 -0.0802 -1.2166  1.1182
 2577SOL    HW219368   1.892   3.892   3.177  2.0069  1.3852 -0.5577
 2578SOL     OW19369   4.104   2.508   8.519  0.3144 -0.0794  0.4480
 2578SOL    HW119370   4.031   2.567   8.536  0.6674 -0.0784  1.9630
 2578SOL    HW219371   4.091   2.484   8.428 -0.4971  0.4866  0.4223
 2579SOL     OW19372   1.791   2.460   5.991  0.7578  0.3476  0.8377
 2579SOL    HW119373   1.815   2.494   5.905  0.5037  2.3188  1.5399
 2579SOL    HW219374   1.775   2.543   6.036  1.9351  0.3211  1.3187
 2580SOL     OW19375   2.278   3.185  10.628 -0.4980 -0.6051 -0.2768
 2580SOL    HW119376   2.253   3.276  10.614  3.3277  0.2249 -1.7237
 2580SOL    HW219377   2.255   3.162  10.718 -1.3359  1.4596  0.0321
 2581SOL     OW19378   2.431   2.671   7.890  0.0508 -0.0918  0.2011
 2581SOL    HW119379   2.397   2.758   7.869  0.5291 -0.2043 -1.0377
 2581SOL    HW219380   2.519   2.695   7.920 -0.1571 -0.1764  0.8910
 2582SOL     OW19381   3.344   3.573  16.109  0.2644 -0.3964 -0.3940
 2582SOL    HW119382   3.279   3.613  16.168  0.3738 -2.3978  1.0675
 2582SOL    HW219383   3.388   3.654  16.083 -0.9322  1.1652  2.3221
 2583SOL     OW19384   2.466   2.329   9.208  0.3636 -0.4728  0.3251
 2583SOL    HW119385   2.519   2.373   9.274 -0.6911  3.0996 -1.2328
 2583SOL    HW219386   2.439   2.252   9.258  3.5577 -1.0007  1.2169
 2584SOL     OW19387   4.530   1.258   7.469  0.0468 -0.2753  0.3023
 2584SOL    HW119388   4.606   1.269   7.412  0.9724 -2.3786  1.1560
 2584SOL    HW219389   4.479   1.189   7.427  2.0760 -1.1055 -0.7697
 2585SOL     OW19390   0.682   4.004   8.693 -0.1866 -0.4980 -0.1626
 2585SOL    HW119391   0.639   3.999   8.778  2.6518  0.9400  1.3682
 2585SOL    HW219392   0.660   3.919   8.655  0.2701 -0.1015 -1.3443
 2586SOL     OW19393   1.554   2.448   5.630 -0.5379 -0.5513 -0.2964
 2586SOL    HW119394   1.621   2.516   5.639 -1.9910  0.7640  0.4509
 2586SOL    HW219395   1.495   2.473   5.701  2.0117  0.9565  1.3162
 2587SOL     OW19396   0.989   3.054   4.791  0.2116 -0.5276 -0.2204
 2587SOL    HW119397   0.896   3.051   4.772 -0.2191 -1.5182  2.1340
 2587SOL    HW219398   1.031   3.062   4.705 -2.4211  0.4630 -1.3904
 2588SOL     OW19399   0.224   1.512   3.845 -0.2594  0.4804  0.3016
 2588SOL    HW119400   0.191   1.507   3.756  1.2011  0.2453 -0.2176
 2588SOL    HW219401   0.302   1.565   3.833  0.0101 -0.5629 -2.4533
 2589SOL     OW19402   0.746   3.611   7.629 -0.0047  0.2668 -0.1340
 2589SOL    HW119403   0.713   3.601   7.718 -0.1950  0.3063 -0.1989
 2589SOL    HW219404   0.838   3.588   7.641 -0.3668 -0.8871  0.4427
 2590SOL     OW19405   1.726   3.900   2.620 -0.6346 -0.5571  0.1997
 2590SOL    HW119406   1.787   3.837   2.660  0.2690 -0.6786 -1.3614
 2590SOL    HW219407   1.689   3.852   2.546  1.1633 -1.2177 -0.2837
 2591SOL     OW19408   3.793   1.148  10.140 -0.1002  0.6973  0.2724
 2591SOL    HW119409   3.702   1.153  10.171 -0.7258 -0.1787 -1.4284
 2591SOL    HW219410   3.840   1.178  10.218  1.7274 -0.7861 -0.2561
 2592SOL     OW19411   1.291   2.640  16.256  0.2430 -0.7186 -0.3599
 2592SOL    HW119412   1.289   2.609  16.347 -1.0949 -2.0651 -0.8445
 2592SOL    HW219413   1.355   2.578  16.222  1.5441  1.3205 -1.5893
 2593SOL     OW19414   3.174   1.847   7.701 -0.3157  0.3622 -0.3961
 2593SOL    HW119415   3.142   1.908   7.768 -0.9531 -0.9160  0.4487
 2593SOL    HW219416   3.209   1.781   7.761 -0.6327  1.5496  1.1041
 2594SOL     OW19417   2.653   4.104  15.876  0.2633 -0.1056  0.2000
 2594SOL    HW119418   2.696   4.156  15.809  1.6971  0.3616  1.4980
 2594SOL    HW219419   2.681   4.149  15.956 -0.5414 -2.4657  1.8361
 2595SOL     OW19420   0.361   1.069   6.305  0.4696 -0.4649  0.3067
 2595SOL    HW119421   0.401   1.153   6.282 -0.6543 -0.7202 -2.5474
 2595SOL    HW219422   0.283   1.097   6.354  1.6968  1.8090  0.9621
 2596SOL     OW19423   1.520   2.071  14.482 -0.3435 -0.1090 -0.4408
 2596SOL    HW119424   1.572   2.115  14.549 -3.2282  0.0373  1.7276
 2596SOL    HW219425   1.440   2.052  14.532 -0.1851 -2.5037 -1.0987
 2597SOL     OW19426   1.760   2.921   4.305 -0.1185  0.0412 -0.0468
 2597SOL    HW119427   1.748   2.939   4.212  0.6174  0.2185 -0.1133
 2597SOL    HW219428   1.798   2.833   4.306  2.3690  1.1096  0.9476
 2598SOL     OW19429   3.253   1.429   5.079  0.2903 -0.1175  0.9806
 2598SOL    HW119430   3.258   1.517   5.041  1.4259  0.6099  2.7869
 2598SOL    HW219431   3.323   1.383   5.031  0.2157  1.4811 -0.6472
 2599SOL     OW19432   4.572   0.571   2.975 -0.3359 -0.4686  0.2136
 2599SOL    HW119433   4.553   0.478   2.978 -1.5821 -0.1887  0.8186
 2599SOL    HW219434   4.667   0.573   2.961 -0.3104 -2.0831  0.1825
 2600SOL     OW19435   0.390   2.880   4.863 -0.2190  0.2041  0.5747
 2600SOL    HW119436   0.315   2.820   4.869 -1.0089  1.1138 -0.0591
 2600SOL    HW219437   0.395   2.907   4.954 -0.8253  1.5465  0.2129
 2601SOL     OW19438   3.078   0.325   3.479  0.1450 -0.0659 -0.0269
 2601SOL    HW119439   3.164   0.335   3.438  0.7811  0.6329  1.4740
 2601SOL    HW219440   3.033   0.371   3.408  0.9834 -1.1214 -1.2605
 2602SOL     OW19441   3.943   2.158  11.573 -0.3314 -0.2656 -0.3888
 2602SOL    HW119442   3.849   2.170  11.579 -0.0291  1.6735  0.7814
 2602SOL    HW219443   3.955   2.096  11.644  1.5355  1.3707  0.7224
 2603SOL     OW19444   4.071   3.148   3.275  0.4418  0.1723 -0.3435
 2603SOL    HW119445   4.154   3.136   3.228  1.9274  1.9212  1.8447
 2603SOL    HW219446   4.069   3.063   3.319 -0.9831 -0.3944 -1.5009
 2604SOL     OW19447   0.144   1.499   8.758 -0.0124 -0.1633 -0.3226
 2604SOL    HW119448   0.086   1.576   8.751  1.5631  1.0434  0.0470
 2604SOL    HW219449   0.145   1.469   8.667  1.0816 -4.6446  1.1805
 2605SOL     OW19450   3.906   2.022   2.081 -0.2786  0.7525  0.3393
 2605SOL    HW119451   3.913   1.938   2.036  2.9065  0.2831  1.7190
 2605SOL    HW219452   3.925   2.077   2.005  0.1941  2.9978  2.0951
 2606SOL     OW19453   1.813   0.816   6.108 -0.8624  0.7438  0.1766
 2606SOL    HW119454   1.893   0.779   6.145  0.5122  1.0709 -2.5383
 2606SOL    HW219455   1.744   0.761   6.146  0.2691 -0.7276  0.0983
 2607SOL     OW19456   4.253   1.723   6.218 -0.3066 -0.0443  0.4269
 2607SOL    HW119457   4.278   1.664   6.147  0.6788  1.6885 -0.6385
 2607SOL    HW219458   4.306   1.680   6.285  0.5402  1.2372  0.5576
 2608SOL     OW19459   0.545   4.498   4.095 -0.3582 -0.1922 -0.3173
 2608SOL    HW119460   0.485   4.548   4.040 -0.2495 -0.3128 -0.5487
 2608SOL    HW219461   0.577   4.573   4.145 -0.8524 -0.6533  0.7033
 2609SOL     OW19462   4.424   3.993  11.599  0.1076  0.4726  0.2795
 2609SOL    HW119463   4.414   3.898  11.603 -2.5701  0.7419 -0.1659
 2609SOL    HW219464   4.418   4.004  11.504 -0.2269 -0.9607  0.1457
 2610SOL     OW19465   0.374   1.701   6.419 -0.5665 -0.2523  0.0846
 2610SOL    HW119466   0.350   1.699   6.327 -1.2341  0.5333  0.2419
 2610SOL    HW219467   0.440   1.766   6.397 -0.9588 -0.4041 -1.5498
 2611SOL     OW19468   0.139   3.138  13.892 -0.0522  0.5051 -0.6391
 2611SOL    HW119469   0.162   3.080  13.820 -0.3452  1.2548 -1.3392
 2611SOL    HW219470   0.062   3.094  13.929  1.3692  0.8495  2.7745
 2612SOL     OW19471   3.823   0.359   4.334  0.7053  0.5133  0.0376
 2612SOL    HW119472   3.780   0.384   4.253 -3.2460  0.9584  2.2801
 2612SOL    HW219473   3.809   0.264   4.323 -2.0436  0.8674  0.4233
 2613SOL     OW19474   0.255   3.421   5.893 -0.3967  0.6413  0.5118
 2613SOL    HW119475   0.191   3.385   5.955  1.4287 -0.5582  1.6868
 2613SOL    HW219476   0.306   3.341   5.880 -0.1063  0.6236  1.8431
 2614SOL     OW19477   3.230   1.439  14.555  0.1383  0.2171  0.2252
 2614SOL    HW119478   3.206   1.512  14.497  0.2073 -0.2898 -0.4332
 2614SOL    HW219479   3.300   1.468  14.614 -1.7986  0.7736  2.2724
 2615SOL     OW19480   2.898   3.615   4.861  0.1648 -0.0843 -0.1971
 2615SOL    HW119481   2.817   3.664   4.847 -0.4949 -0.8753  0.8770
 2615SOL    HW219482   2.915   3.586   4.771 -1.4486  2.2726 -1.2568
 2616SOL     OW19483   3.324   3.445  14.982  0.0571 -0.1513  0.0135
 2616SOL    HW119484   3.334   3.539  14.994  0.4525 -0.2054  0.1139
 2616SOL    HW219485   3.229   3.438  14.977  0.0928 -0.6460  0.0172
 2617SOL     OW19486   2.420   0.729  13.087  0.5432  0.3567  0.5072
 2617SOL    HW119487   2.486   0.778  13.137  1.1973  1.6390 -1.6283
 2617SOL    HW219488   2.443   0.641  13.117 -0.1822  1.0996  3.2561
 2618SOL     OW19489   0.210   4.017   3.645 -0.1875  0.2653  0.2769
 2618SOL    HW119490   0.245   4.009   3.556 -1.5022  1.8888 -0.3959
 2618SOL    HW219491   0.285   4.057   3.687 -0.3321 -1.7062  2.4087
 2619SOL     OW19492   0.844   1.736  10.168 -0.0537  0.2002  0.2838
 2619SOL    HW119493   0.796   1.816  10.149  1.0198  1.0075  0.9928
 2619SOL    HW219494   0.777   1.668  10.162 -0.3054  0.6531 -1.9290
 2620SOL     OW19495   3.106   3.561   9.906  0.1558 -0.2647 -0.5286
 2620SOL    HW119496   3.152   3.617   9.844 -0.4382  0.0588 -0.6801
 2620SOL    HW219497   3.096   3.622   9.979  0.6623 -1.2879  0.4022
 2621SOL     OW19498   2.494   4.488   1.393  0.1680 -0.1081 -0.1974
 2621SOL    HW119499   2.578   4.456   1.362  0.8759 -0.4919  2.0975
 2621SOL    HW219500   2.524   4.549   1.461 -0.7925 -0.2737  0.3770
 2622SOL     OW19501   1.027   3.609   7.957  0.1080 -0.1680 -0.3732
 2622SOL    HW119502   0.993   3.672   7.893 -0.0512  1.7890  1.5930
 2622SOL    HW219503   1.113   3.603   7.916  0.8964  1.5382  1.0007
 2623SOL     OW19504   2.821   1.064  14.718 -0.1040  0.2962  0.1910
 2623SOL    HW119505   2.907   1.103  14.732  0.4622 -0.9115  0.0952
 2623SOL    HW219506   2.846   0.978  14.751 -1.6210  0.3704  1.5176
 2624SOL     OW19507   3.697   1.213   2.982 -0.4230 -0.4156 -0.1291
 2624SOL    HW119508   3.685   1.242   3.072  0.8708  0.3879 -0.2166
 2624SOL    HW219509   3.785   1.245   2.961 -0.9275  1.4101  0.5644
 2625SOL     OW19510   3.634   1.020   5.675  0.5265  0.1308 -0.3959
 2625SOL    HW119511   3.572   0.977   5.734  1.8191 -1.9598 -0.5279
 2625SOL    HW219512   3.628   0.954   5.605  0.6532  0.3977 -0.6581
 2626SOL     OW19513   3.360   0.826   5.378 -1.1663 -0.6332 -0.2653
 2626SOL    HW119514   3.296   0.897   5.386 -0.0183  0.4378 -0.5481
 2626SOL    HW219515   3.294   0.757   5.369  0.4855 -2.4241  1.3448
 2627SOL     OW19516   0.491   3.678   0.063 -0.8683 -0.4599 -0.2197
 2627SOL    HW119517   0.471   3.723   0.145 -0.8635  2.6554 -1.9333
 2627SOL    HW219518   0.405   3.635   0.062 -0.9211 -0.3560 -0.0570
 2628SOL     OW19519   0.258   4.356   3.729 -0.9471  0.2402 -0.1383
 2628SOL    HW119520   0.323   4.288   3.748 -1.1201  0.8436  2.6621
 2628SOL    HW219521   0.206   4.348   3.809 -1.1532  1.7042 -0.1365
 2629SOL     OW19522   3.022   1.886   5.702 -0.3501 -0.2000 -0.1639
 2629SOL    HW119523   3.031   1.808   5.758  1.5780  0.8098  0.9412
 2629SOL    HW219524   3.005   1.839   5.620  2.3115  0.7611 -1.2873
 2630SOL     OW19525   4.479   2.891  17.490  0.6241  0.6228  0.0653
 2630SOL    HW119526   4.444   2.852  17.410 -1.0204 -0.6642  1.3909
 2630SOL    HW219527   4.561   2.925  17.454  0.4813  1.6512  0.7280
 2631SOL     OW19528   0.730   0.030   9.086 -0.1910 -0.3155  0.0655
 2631SOL    HW119529   0.643   0.059   9.111 -0.2578  1.0607 -1.7738
 2631SOL    HW219530   0.710   4.727   9.003  0.6420 -1.6579  0.5558
 2632SOL     OW19531   3.309   1.572   6.127  0.0026  0.9387  0.3048
 2632SOL    HW119532   3.369   1.614   6.189 -0.1727  0.7134  0.6234
 2632SOL    HW219533   3.235   1.632   6.120 -1.3099 -0.5243  1.5368
 2633SOL     OW19534   0.372   1.415   6.002 -0.2742  0.7066  0.5509
 2633SOL    HW119535   0.372   1.368   6.085 -1.3281  1.9102  1.2290
 2633SOL    HW219536   0.305   1.370   5.950  1.1782  0.8468 -1.4351
 2634SOL     OW19537   4.464   4.147  16.424  0.3958  0.2375  0.1271
 2634SOL    HW119538   4.523   4.193  16.364 -0.6770 -0.3807 -1.4048
 2634SOL    HW219539   4.515   4.130  16.503  2.2925  1.9859 -0.7356
 2635SOL     OW19540   1.445   3.535   7.343  0.7693  0.3127 -0.3048
 2635SOL    HW119541   1.403   3.610   7.385  2.4463  2.6307 -2.7636
 2635SOL    HW219542   1.387   3.516   7.269 -0.5677 -0.1029  0.8559
 2636SOL     OW19543   0.977   0.843   7.288 -0.0567 -0.0700  0.3675
 2636SOL    HW119544   0.927   0.923   7.272  0.5507  0.5830  1.6949
 2636SOL    HW219545   0.909   0.777   7.278 -2.5280  2.3407  1.5365
 2637SOL     OW19546   2.585   2.887   6.646 -0.5898  0.0384 -0.0441
 2637SOL    HW119547   2.622   2.912   6.562 -2.4312 -1.0093 -1.1822
 2637SOL    HW219548   2.520   2.827   6.609 -2.1351  1.1163  0.9246
 2638SOL     OW19549   0.752   2.372   8.175  0.1136 -0.2375 -0.1342
 2638SOL    HW119550   0.825   2.310   8.186 -0.7565 -1.5835 -1.8687
 2638SOL    HW219551   0.804   2.432   8.123 -1.4840  2.4171  1.3548
 2639SOL     OW19552   3.843   1.876   6.478 -0.3275  0.0866  0.0701
 2639SOL    HW119553   3.838   1.794   6.527  3.1455  0.0881  0.4290
 2639SOL    HW219554   3.928   1.866   6.435 -0.4604  1.4596 -0.4970
 2640SOL     OW19555   4.607   0.110   5.669 -1.1008  0.5650 -0.1205
 2640SOL    HW119556   4.574   0.027   5.636 -2.0003  0.7033  0.4115
 2640SOL    HW219557   4.684   0.115   5.612 -0.8475 -0.6025  0.1300
 2641SOL     OW19558   1.347   4.724   9.093 -0.7564 -0.4222  0.4617
 2641SOL    HW119559   1.300   4.674   9.160 -1.0433 -0.8455 -0.0533
 2641SOL    HW219560   1.404   0.039   9.147  1.6695 -0.3197 -2.2496
 2642SOL     OW19561   0.952   0.954   9.282 -0.4023 -0.4834  0.3584
 2642SOL    HW119562   1.036   0.987   9.249 -0.8295  0.0039 -0.2352
 2642SOL    HW219563   0.980   0.883   9.340  1.1464 -0.1153  0.0621
 2643SOL     OW19564   0.502   2.226   1.461 -0.7781  0.0957 -0.6031
 2643SOL    HW119565   0.541   2.171   1.529 -2.0749  1.9437  1.6534
 2643SOL    HW219566   0.459   2.289   1.520 -0.9025 -0.6679  0.1189
 2644SOL     OW19567   0.330   1.967   5.691 -0.1866 -0.3537 -0.1765
 2644SOL    HW119568   0.413   1.966   5.738 -0.4308  2.5470  0.3446
 2644SOL    HW219569   0.269   1.964   5.764  2.5780  2.5058  2.2605
 2645SOL     OW19570   2.658   1.484   7.331 -0.0104 -0.5399 -0.1125
 2645SOL    HW119571   2.614   1.565   7.306  0.8349  0.8029  2.8261
 2645SOL    HW219572   2.745   1.498   7.293 -0.3958 -1.0029 -1.1924
 2646SOL     OW19573   1.859   0.578   4.154 -0.1329  0.0507 -0.3430
 2646SOL    HW119574   1.893   0.506   4.207 -3.3203 -0.3046  1.2010
 2646SOL    HW219575   1.934   0.598   4.097 -0.9337  1.0832 -1.0296
 2647SOL     OW19576   4.678   2.989   4.585 -0.0261  0.2987 -0.4909
 2647SOL    HW119577   4.668   2.948   4.671  2.5225 -3.1199 -1.8035
 2647SOL    HW219578   4.682   2.910   4.531  2.1412 -0.2451  0.4507
 2648SOL     OW19579   0.098   0.601   5.616  0.0340  0.1745  0.3475
 2648SOL    HW119580   0.099   0.514   5.656  2.0422 -0.3075 -0.7573
 2648SOL    HW219581   0.039   0.656   5.666 -0.0892  0.0175  0.3741
 2649SOL     OW19582   1.888   2.713   9.517  0.0488  0.4781  0.2696
 2649SOL    HW119583   1.914   2.759   9.597  1.0370 -0.2709  0.3771
 2649SOL    HW219584   1.812   2.766   9.493 -0.4130  0.3750  1.5200
 2650SOL     OW19585   0.450   0.116  11.134  0.5733 -0.1116 -0.4990
 2650SOL    HW119586   0.386   0.053  11.100 -2.1032  1.6848  1.1922
 2650SOL    HW219587   0.460   0.181  11.064 -0.2396  1.5416  0.9011
 2651SOL     OW19588   1.795   0.048   0.495 -0.0510  0.0198 -0.0680
 2651SOL    HW119589   1.809   0.034   0.401  1.3001 -1.5262  0.3592
 2651SOL    HW219590   1.730   0.118   0.498  1.0118  0.9251  1.8160
 2652SOL     OW19591   4.301   0.080   2.899  0.6046 -0.4306  0.3236
 2652SOL    HW119592   4.304   0.097   2.805  0.7682  0.4273  0.4876
 2652SOL    HW219593   4.209   0.098   2.922  0.7093 -2.0969  2.1508
 2653SOL     OW19594   3.251   3.341   3.405  0.3525 -0.3798  0.7365
 2653SOL    HW119595   3.316   3.296   3.351  1.6491  0.3566  1.6838
 2653SOL    HW219596   3.312   3.395   3.454 -1.4512  2.2309  0.1461
 2654SOL     OW19597   1.450   2.967   0.484  0.3469  0.3197 -0.3714
 2654SOL    HW119598   1.510   3.000   0.417  0.4191  0.5521 -0.1903
 2654SOL    HW219599   1.374   2.945   0.429  0.1142  1.0117 -0.3279
 2655SOL     OW19600   0.988   2.544   9.058 -0.7523 -0.6808 -0.0612
 2655SOL    HW119601   1.073   2.502   9.049 -0.5776  0.1069 -2.0690
 2655SOL    HW219602   0.948   2.533   8.972  1.1462 -1.3215 -0.8585
 2656SOL     OW19603   3.052   2.270   9.924  0.3892  0.4853  0.6430
 2656SOL    HW119604   3.068   2.273   9.830  1.3001 -2.6436  0.6865
 2656SOL    HW219605   3.000   2.189   9.928  0.4255  0.4834  1.1478
 2657SOL     OW19606   3.522   0.876   2.660 -0.0158  0.4825  0.3804
 2657SOL    HW119607   3.578   0.831   2.597 -1.0886 -0.2746 -0.0389
 2657SOL    HW219608   3.452   0.913   2.606 -0.4813 -0.1206  0.5787
 2658SOL     OW19609   2.366   1.509   3.081  0.0253 -0.3251  0.3658
 2658SOL    HW119610   2.442   1.558   3.048  0.4457 -0.1644  1.5549
 2658SOL    HW219611   2.315   1.582   3.116  0.2755 -0.2447  0.5677
 2659SOL     OW19612   0.567   1.337   8.240  0.0123  0.0085 -0.1056
 2659SOL    HW119613   0.625   1.410   8.263  0.1541  0.2095 -1.1098
 2659SOL    HW219614   0.636   1.271   8.234 -0.1404 -0.1878  0.3184
 2660SOL     OW19615   3.861   4.121   4.114  0.1601 -0.5206  0.1197
 2660SOL    HW119616   3.903   4.196   4.073 -1.9749  0.5171 -0.1980
 2660SOL    HW219617   3.774   4.161   4.116  0.7680  0.8314 -0.4217
 2661SOL     OW19618   0.193   2.269   2.878 -0.1530 -0.9059 -0.8254
 2661SOL    HW119619   0.130   2.200   2.900 -0.9578  0.4033  0.9679
 2661SOL    HW219620   0.267   2.228   2.923  0.0954  1.9200  1.3393
 2662SOL     OW19621   2.107   4.245   5.549  0.0266 -0.3260  0.3779
 2662SOL    HW119622   2.104   4.247   5.644 -0.3432 -0.1059  0.3606
 2662SOL    HW219623   2.139   4.332   5.527  1.0567 -0.5870  0.8363
 2663SOL     OW19624   3.881   0.225   7.643  0.0418  0.1095  0.1169
 2663SOL    HW119625   3.905   0.206   7.553 -0.6489  1.3354 -0.3334
 2663SOL    HW219626   3.911   0.149   7.692  1.9079  0.8007  0.0187
 2664SOL     OW19627   3.957   1.657   5.897  0.0976 -0.3992  0.4197
 2664SOL    HW119628   3.977   1.650   5.991 -0.0544  0.7702  0.5405
 2664SOL    HW219629   3.888   1.594   5.875  0.6088  0.0178 -2.3540
 2665SOL     OW19630   3.345   0.040   0.983 -0.4941  0.0592  0.6577
 2665SOL    HW119631   3.295   4.725   0.923 -0.5980  0.9387 -0.0727
 2665SOL    HW219632   3.283   0.110   1.003  1.7344  2.4500 -0.8057
 2666SOL     OW19633   0.443   2.236   7.065 -0.0923  0.5088  0.3495
 2666SOL    HW119634   0.442   2.188   6.982  1.7720  0.1435  0.5337
 2666SOL    HW219635   0.537   2.254   7.062 -0.8299  4.3064  0.9471
 2667SOL     OW19636   2.321   2.311   3.329  0.3668 -0.3769 -0.3193
 2667SOL    HW119637   2.241   2.259   3.316 -0.0782  0.2875 -0.2093
 2667SOL    HW219638   2.299   2.398   3.296  0.6515 -0.9197 -1.9543
 2668SOL     OW19639   3.822   2.744  12.767  0.3976 -0.1513 -0.0459
 2668SOL    HW119640   3.736   2.782  12.786  0.5916  0.4235 -0.3212
 2668SOL    HW219641   3.887   2.815  12.764  0.3345 -0.0736  0.4536
 2669SOL     OW19642   3.212   3.910   3.255 -0.0941 -0.0820  0.3604
 2669SOL    HW119643   3.143   3.844   3.248 -0.1783 -0.1312  1.6281
 2669SOL    HW219644   3.274   3.871   3.194  0.4434 -1.8009  2.0057
 2670SOL     OW19645   4.705   4.584   4.614 -0.1210  0.2440  0.0517
 2670SOL    HW119646   4.665   4.607   4.698  0.5494 -1.6589  0.8762
 2670SOL    HW219647   4.669   4.649   4.553  1.8145  0.8855 -0.4114
 2671SOL     OW19648   0.153   1.308   6.650 -0.0339  0.2969 -0.2052
 2671SOL    HW119649   0.189   1.228   6.687  0.5530  0.6199 -0.0886
 2671SOL    HW219650   0.094   1.265   6.588  1.0367  0.4427 -1.3173
 2672SOL     OW19651   3.567   2.932   8.405  0.2999 -0.0610  0.3109
 2672SOL    HW119652   3.586   3.011   8.455 -0.1596 -0.0677  0.4983
 2672SOL    HW219653   3.643   2.925   8.348 -0.2968 -1.4583 -0.2989
 2673SOL     OW19654   4.327   0.220   4.411 -0.0180  0.0150  0.1944
 2673SOL    HW119655   4.380   0.298   4.425 -0.2126 -0.1324  1.7744
 2673SOL    HW219656   4.286   0.244   4.328 -0.0210 -0.1653  0.1436
 2674SOL     OW19657   0.954   0.252   6.649 -0.8647  0.1702 -0.0151
 2674SOL    HW119658   0.953   0.159   6.672 -2.2933  0.1494 -0.1327
 2674SOL    HW219659   0.916   0.286   6.730 -2.9430 -0.5799 -0.6853
 2675SOL     OW19660   4.549   1.785   9.852 -0.3260 -0.3419 -0.4345
 2675SOL    HW119661   4.559   1.731   9.773  1.9620  1.4082 -1.3543
 2675SOL    HW219662   4.467   1.754   9.891  0.0849  0.0571  0.7373
 2676SOL     OW19663   1.136   3.671   2.763  0.5775  0.3600  0.3867
 2676SOL    HW119664   1.059   3.686   2.709 -0.2110 -1.5516  0.9712
 2676SOL    HW219665   1.139   3.737   2.832 -0.1824  1.6307 -0.7966
 2677SOL     OW19666   1.454   4.290   4.995 -0.3758 -0.0570  0.2069
 2677SOL    HW119667   1.360   4.276   4.981  0.0930 -1.1145 -1.7876
 2677SOL    HW219668   1.480   4.198   4.991  2.1191  0.6531  0.0240
 2678SOL     OW19669   1.608   4.023   8.784 -0.5125 -0.4997 -0.4887
 2678SOL    HW119670   1.614   4.088   8.713  0.6429  0.2625  0.3114
 2678SOL    HW219671   1.684   3.966   8.778 -0.1388 -0.1758  1.1586
 2679SOL     OW19672   3.505   1.491   5.631 -0.1704 -0.8980 -0.2429
 2679SOL    HW119673   3.530   1.459   5.544  3.5473  0.1978  0.4134
 2679SOL    HW219674   3.464   1.572   5.603  2.1464  0.1057 -0.7752
 2680SOL     OW19675   4.344   1.455  15.290 -0.6561  0.1982  0.7535
 2680SOL    HW119676   4.353   1.385  15.355  1.0920 -0.6433 -0.3901
 2680SOL    HW219677   4.425   1.452  15.240 -0.8352 -2.5506  0.6130
 2681SOL     OW19678   4.255   2.135   2.893  0.4603  0.6265 -0.0047
 2681SOL    HW119679   4.232   2.100   2.979 -0.2432  1.0932  0.0023
 2681SOL    HW219680   4.255   2.058   2.837  1.6285  0.2567  0.5202
 2682SOL     OW19681   1.971   4.363   8.541 -0.6446 -0.4155 -0.3724
 2682SOL    HW119682   1.981   4.373   8.636 -0.4228  2.1976 -0.6809
 2682SOL    HW219683   2.063   4.336   8.535  0.2683  3.0758 -2.3560
 2683SOL     OW19684   0.589   1.601   1.499 -0.4999  0.2768  0.1953
 2683SOL    HW119685   0.627   1.522   1.538 -0.6187 -0.2039 -0.6590
 2683SOL    HW219686   0.538   1.567   1.425 -0.9787 -0.1445  0.7144
 2684SOL     OW19687   0.605   0.393   2.567 -0.1011  0.2007 -0.4653
 2684SOL    HW119688   0.644   0.461   2.511  1.6706 -0.4005  0.0429
 2684SOL    HW219689   0.514   0.403   2.537  0.0010  0.9388 -0.5264
 2685SOL     OW19690   0.304   3.431   5.210  0.2410 -0.0825 -0.4785
 2685SOL    HW119691   0.308   3.381   5.129  0.4061  0.0642 -0.5623
 2685SOL    HW219692   0.215   3.465   5.207  0.6292  1.0834  0.8252
 2686SOL     OW19693   1.256   4.727  17.615  0.1131  0.0970 -0.1329
 2686SOL    HW119694   1.206   0.025  17.543  0.4702  0.6328 -0.0954
 2686SOL    HW219695   1.250   4.635  17.589 -1.1688  0.2275 -0.3146
 2687SOL     OW19696   4.549   2.760   2.428  0.1369  0.1649  0.9343
 2687SOL    HW119697   4.503   2.753   2.512  0.1774 -1.6699  0.8030
 2687SOL    HW219698   4.539   2.675   2.384 -2.4733  0.3236  1.1790
 2688SOL     OW19699   2.470   4.352   2.905  0.6684  0.3031  0.0983
 2688SOL    HW119700   2.538   4.286   2.893 -1.0371 -0.9605 -2.4794
 2688SOL    HW219701   2.405   4.312   2.962 -0.9011 -0.3865 -2.2111
 2689SOL     OW19702   2.908   4.308   5.071  0.4443 -0.5035 -0.6301
 2689SOL    HW119703   2.856   4.284   4.995 -2.0780 -1.4026  1.3925
 2689SOL    HW219704   2.902   4.403   5.080 -3.1148 -0.9869  2.1856
 2690SOL     OW19705   1.532   3.660   8.382 -0.5735 -0.5565  0.1968
 2690SOL    HW119706   1.528   3.730   8.447  0.7234  0.1387 -0.4736
 2690SOL    HW219707   1.441   3.659   8.353 -0.5402 -1.1086  0.1049
 2691SOL     OW19708   0.526   1.772   4.027 -0.3363 -0.1351 -0.2217
 2691SOL    HW119709   0.444   1.744   4.068  0.9710 -1.2181  1.6656
 2691SOL    HW219710   0.590   1.767   4.099 -2.0629 -1.0729  1.2652
 2692SOL     OW19711   2.330   3.788   2.678  0.3164  0.0369  0.2206
 2692SOL    HW119712   2.305   3.856   2.741 -0.0977  0.0267  0.0668
 2692SOL    HW219713   2.320   3.712   2.735  0.8891 -0.0280  0.2353
 2693SOL     OW19714   3.772   4.617   0.971 -0.0659 -0.1481 -0.1544
 2693SOL    HW119715   3.733   4.539   0.932 -0.5748 -0.1766  0.4020
 2693SOL    HW219716   3.863   4.589   0.965 -0.5156 -0.9905 -2.8162
 2694SOL     OW19717   3.262   0.023   7.219  0.7668 -0.1341  0.3664
 2694SOL    HW119718   3.228   4.674   7.229 -0.4693  0.1633 -1.2742
 2694SOL    HW219719   3.337   0.014   7.160  0.8161 -0.9722  0.5536
 2695SOL     OW19720   3.538   0.073   2.634  0.0199  0.0157 -0.9564
 2695SOL    HW119721   3.596   0.056   2.709  0.0897  0.6972 -0.8566
 2695SOL    HW219722   3.580   0.031   2.559  0.8501 -3.6845  1.5625
 2696SOL     OW19723   0.782   0.192   3.116  0.7452 -0.0431  0.1788
 2696SOL    HW119724   0.860   0.137   3.116  0.6285 -0.2126 -1.6116
 2696SOL    HW219725   0.713   0.132   3.089 -1.1431  1.1817  2.3072
 2697SOL     OW19726   2.141   3.931   1.775 -0.4637 -0.3924  0.3729
 2697SOL    HW119727   2.194   3.894   1.845 -0.0481  0.9357  0.7633
 2697SOL    HW219728   2.117   3.850   1.730  1.7975  0.0243 -1.5561
 2698SOL     OW19729   4.074   1.731   9.856 -0.7132 -0.3187 -0.0084
 2698SOL    HW119730   4.147   1.791   9.871 -1.0245  0.2574 -0.8167
 2698SOL    HW219731   4.035   1.725   9.944 -0.6835 -0.0936  0.0203
 2699SOL     OW19732   0.360   4.501  12.257 -0.0872 -0.0490 -0.0298
 2699SOL    HW119733   0.304   4.468  12.186  2.1921 -1.5075 -1.1485
 2699SOL    HW219734   0.302   4.573  12.282  0.0368 -0.3027  0.9945
 2700SOL     OW19735   1.468   1.831   4.980 -0.3186 -0.0777 -0.1259
 2700SOL    HW119736   1.452   1.924   4.962  1.0073  0.1944  0.0638
 2700SOL    HW219737   1.562   1.838   4.998 -0.2954 -1.4809  0.2589
 2701SOL     OW19738   0.035   1.106   4.114  0.0745 -0.2118 -0.0192
 2701SOL    HW119739   0.056   1.178   4.055  0.9693 -1.5754 -1.3712
 2701SOL    HW219740   0.103   1.115   4.182  0.4570  1.8137 -0.6938
 2702SOL     OW19741   4.173   0.381   9.439  0.2199  0.1333 -0.3814
 2702SOL    HW119742   4.262   0.351   9.420  0.1870 -1.0756  1.3118
 2702SOL    HW219743   4.141   0.424   9.360 -1.4668  0.0545  0.2509
 2703SOL     OW19744   4.092   1.039  15.872  0.0052 -0.1946  0.4834
 2703SOL    HW119745   4.147   1.078  15.941 -0.6363  4.8497 -1.8635
 2703SOL    HW219746   4.005   1.058  15.908 -0.6312  0.0307 -1.1979
 2704SOL     OW19747   2.396   4.068   9.054  0.5138 -0.5097 -1.0569
 2704SOL    HW119748   2.373   4.161   9.056  0.1332 -0.6749  1.8860
 2704SOL    HW219749   2.440   4.079   8.969  2.3712 -3.1625 -0.4209
 2705SOL     OW19750   2.467   2.256   9.947 -0.2884  0.2160  0.6485
 2705SOL    HW119751   2.552   2.276   9.908 -1.0067  3.0870  0.6081
 2705SOL    HW219752   2.410   2.323   9.910 -1.6029 -2.0905 -1.5685
 2706SOL     OW19753   3.888   0.065   1.307 -0.2305  0.2951 -0.8055
 2706SOL    HW119754   3.955   0.110   1.255  1.5465 -1.2077  0.1746
 2706SOL    HW219755   3.925   4.718   1.298 -0.1133  0.1782  0.7325
 2707SOL     OW19756   2.087   1.970  12.060 -0.1337  0.2737 -0.1010
 2707SOL    HW119757   2.019   1.911  12.090 -0.0741 -0.1642 -0.8308
 2707SOL    HW219758   2.161   1.909  12.062 -2.3349 -2.3520  1.0942
 2708SOL     OW19759   1.302   1.857   6.417  0.1093  0.7535  0.1636
 2708SOL    HW119760   1.367   1.853   6.346  0.1336 -0.8543  0.2680
 2708SOL    HW219761   1.344   1.927   6.467  0.0525  2.3435 -2.0086
 2709SOL     OW19762   1.154   2.734   3.271 -0.4783 -0.0660  0.2590
 2709SOL    HW119763   1.112   2.656   3.236 -1.2605  1.3308 -1.9228
 2709SOL    HW219764   1.083   2.766   3.327 -0.8603  0.1119 -0.3245
 2710SOL     OW19765   4.129   1.160   8.218 -0.0302 -0.0530 -0.0326
 2710SOL    HW119766   4.075   1.082   8.226  2.7465 -1.9237  0.3158
 2710SOL    HW219767   4.076   1.224   8.267  0.4414  1.0018 -0.9065
 2711SOL     OW19768   0.086   0.253   6.179  0.0156 -0.5156 -0.4569
 2711SOL    HW119769   0.106   0.347   6.169  0.7610 -0.4763  1.3337
 2711SOL    HW219770   0.090   0.227   6.087  0.0835  1.8062 -1.1224
 2712SOL     OW19771   0.934   1.959   9.162  0.2422 -0.0222  0.5740
 2712SOL    HW119772   1.004   1.898   9.185 -1.2616 -1.7865  0.4580
 2712SOL    HW219773   0.860   1.904   9.188  0.6849 -0.3173  1.2235
 2713SOL     OW19774   0.843   3.745   5.783  0.6152  0.2789  0.0141
 2713SOL    HW119775   0.810   3.682   5.847  0.2200  2.1037  1.6342
 2713SOL    HW219776   0.908   3.678   5.765  2.4108  1.7995  0.7286
 2714SOL     OW19777   1.383   4.151  15.826  0.2384  0.1530 -0.1869
 2714SOL    HW119778   1.430   4.205  15.762  1.3961 -0.0819  0.4625
 2714SOL    HW219779   1.294   4.169  15.794 -0.2491  1.1244  1.7216
 2715SOL     OW19780   1.997   0.078   4.701 -0.1171 -0.0246 -0.1789
 2715SOL    HW119781   1.928   0.015   4.682 -0.6698  0.2744  0.8890
 2715SOL    HW219782   1.991   0.084   4.796  1.9253 -0.2636 -0.0187
 2716SOL     OW19783   3.742   0.643   4.409 -0.0682 -0.1513 -0.1853
 2716SOL    HW119784   3.789   0.699   4.347  0.0027 -1.4305 -1.2887
 2716SOL    HW219785   3.750   0.561   4.361 -0.5546 -0.8433  0.9247
 2717SOL     OW19786   3.330   4.271   6.978  0.1255  0.1076 -0.4910
 2717SOL    HW119787   3.320   4.176   6.978  1.7326 -0.0484 -2.5412
 2717SOL    HW219788   3.417   4.289   6.942 -0.3033  0.6251 -1.2739
 2718SOL     OW19789   1.216   4.582   2.674  0.3841 -0.3531  0.4872
 2718SOL    HW119790   1.203   4.603   2.766  0.7887  0.0501  0.4530
 2718SOL    HW219791   1.272   4.505   2.677  3.3954  1.7789 -0.7822
 2719SOL     OW19792   0.586   0.997   8.025  0.4663 -0.2887  0.4963
 2719SOL    HW119793   0.528   1.062   7.985  0.9457 -0.5023 -0.5153
 2719SOL    HW219794   0.574   0.922   7.967 -0.0658 -0.7324  1.1808
 2720SOL     OW19795   1.484   1.012   5.628 -0.1631 -0.1538 -0.5679
 2720SOL    HW119796   1.562   0.980   5.672  1.0317  0.0228 -2.5292
 2720SOL    HW219797   1.501   1.102   5.598  0.3308  0.3088  1.1100
 2721SOL     OW19798   1.067   1.306   4.046 -0.5451 -0.1031  0.0821
 2721SOL    HW119799   1.003   1.235   4.035 -1.1834  0.5740 -0.5366
 2721SOL    HW219800   1.008   1.380   4.055 -0.4932  0.1833 -1.9282
 2722SOL     OW19801   0.936   1.220   8.221 -0.8352  0.0932  0.2411
 2722SOL    HW119802   1.021   1.214   8.266 -0.8382 -1.7628 -0.0178
 2722SOL    HW219803   0.881   1.265   8.286  0.3625  1.5555  0.2579
 2723SOL     OW19804   3.461   3.850   6.431 -0.3767  0.1165 -0.5289
 2723SOL    HW119805   3.538   3.900   6.403  0.2812 -0.5092  0.1530
 2723SOL    HW219806   3.495   3.798   6.504  1.2372  1.1925 -0.5158
 2724SOL     OW19807   0.861   1.417   5.627 -0.1775  0.4117  0.1779
 2724SOL    HW119808   0.929   1.411   5.695 -0.6459 -2.0906  0.4343
 2724SOL    HW219809   0.896   1.485   5.569  2.4581 -0.7088  0.4313
 2725SOL     OW19810   3.432   3.928   5.566  0.2718 -0.0952 -0.1359
 2725SOL    HW119811   3.380   3.911   5.645 -0.7338 -0.7092 -0.9206
 2725SOL    HW219812   3.523   3.935   5.594  0.2861  2.6173 -0.9632
 2726SOL     OW19813   2.827   0.921   5.595 -0.6498 -0.2752 -0.7220
 2726SOL    HW119814   2.827   0.896   5.687  0.7013  0.9571 -0.3895
 2726SOL    HW219815   2.733   0.939   5.587 -0.3492  1.5440 -0.1218
 2727SOL     OW19816   3.839   3.419   8.763  0.1241 -0.0407  0.4531
 2727SOL    HW119817   3.821   3.412   8.670  1.7144  3.9942 -0.1647
 2727SOL    HW219818   3.840   3.512   8.783  1.2977 -0.2514  1.3751
 2728SOL     OW19819   1.228   2.204   6.051  0.3022  0.2037  0.3879
 2728SOL    HW119820   1.320   2.188   6.029  0.6681  1.4103  1.1118
 2728SOL    HW219821   1.234   2.202   6.146  0.9073 -2.0400  0.3030
 2729SOL     OW19822   0.723   3.042   3.802  0.7197 -0.2624 -0.1349
 2729SOL    HW119823   0.745   3.031   3.894 -0.5078  1.6871  0.3789
 2729SOL    HW219824   0.632   3.071   3.812  1.0826  0.7938  0.0648
 2730SOL     OW19825   4.043   3.572   6.642 -0.2799 -0.1612  0.1888
 2730SOL    HW119826   4.117   3.625   6.613 -2.2616  1.8898 -1.1590
 2730SOL    HW219827   4.003   3.557   6.556 -0.4980  0.6065  0.1610
 2731SOL     OW19828   4.625   1.489  16.089  0.2630  0.6145 -0.2213
 2731SOL    HW119829   4.544   1.500  16.039 -0.7707  1.7801  1.7149
 2731SOL    HW219830   4.679   1.545  16.033  0.7803 -0.0654 -0.4032
 2732SOL     OW19831   1.446   0.986   6.667  0.0036 -0.0570 -0.2498
 2732SOL    HW119832   1.439   0.920   6.598 -2.8291  0.2056 -0.2091
 2732SOL    HW219833   1.524   0.961   6.717  0.3542 -0.1577 -0.8559
 2733SOL     OW19834   0.352   0.260   7.242  0.7306 -0.2076  0.2921
 2733SOL    HW119835   0.302   0.181   7.264  2.6095 -1.9364 -1.5301
 2733SOL    HW219836   0.289   0.294   7.179 -0.8101 -1.1463  1.3370
 2734SOL     OW19837   0.553   4.449  15.432  0.4194 -0.6759  0.2451
 2734SOL    HW119838   0.586   4.465  15.344  0.6756  0.2371  0.5060
 2734SOL    HW219839   0.474   4.504  15.432  0.3686 -0.7483 -0.5480
 2735SOL     OW19840   0.025   0.272  11.861  0.0306  0.7597  0.2374
 2735SOL    HW119841   4.722   0.320  11.932 -1.4407  1.7531 -1.3447
 2735SOL    HW219842   0.116   0.276  11.890  0.5086  0.3547 -1.2636
 2736SOL     OW19843   2.659   3.063   7.445 -0.1293  0.0601  0.0175
 2736SOL    HW119844   2.660   3.142   7.391 -0.3422 -0.2389 -0.4234
 2736SOL    HW219845   2.665   3.090   7.537  1.2300  2.2189 -0.7155
 2737SOL     OW19846   3.991   0.130  15.296  0.3234  0.4389 -1.4478
 2737SOL    HW119847   4.059   0.125  15.363  0.1495  2.0552 -1.1372
 2737SOL    HW219848   3.923   0.153  15.360 -0.0612 -0.2640 -1.6041
 2738SOL     OW19849   4.377   1.952   4.826 -0.6922 -0.6374 -0.1067
 2738SOL    HW119850   4.296   1.997   4.849  0.2451  0.9926 -0.0209
 2738SOL    HW219851   4.391   1.973   4.734 -1.2044 -1.1815 -0.3087
 2739SOL     OW19852   2.357   2.014  11.613 -0.0326 -0.2379  0.4638
 2739SOL    HW119853   2.287   2.052  11.666 -0.3955  1.9180 -1.5499
 2739SOL    HW219854   2.317   1.947  11.557 -3.5791  1.4545  0.9362
 2740SOL     OW19855   3.067   4.324   1.588 -0.2434  0.3628  0.2487
 2740SOL    HW119856   2.996   4.285   1.537  0.0932  0.0263  0.0398
 2740SOL    HW219857   3.024   4.362   1.665  1.9836  1.8600  0.7461
 2741SOL     OW19858   2.003   4.560   8.123 -0.0982  0.0033  0.2524
 2741SOL    HW119859   2.062   4.527   8.054 -0.9043  1.6229 -1.2130
 2741SOL    HW219860   2.060   4.630   8.157  2.3153 -2.1595  0.6751
 2742SOL     OW19861   2.325   3.106   6.558 -0.8284  0.0138  0.4663
 2742SOL    HW119862   2.312   3.201   6.558  4.3780  0.7463  1.5897
 2742SOL    HW219863   2.304   3.092   6.651 -2.0588 -3.5649 -0.3318
 2743SOL     OW19864   0.060   3.961   1.647  0.0957 -0.2957  0.3987
 2743SOL    HW119865   0.005   4.036   1.666 -0.6207 -1.1838  1.9093
 2743SOL    HW219866   0.126   3.978   1.715 -1.1792  2.7057  0.8690
 2744SOL     OW19867   3.840   1.307   8.100  0.4281 -0.0676  0.0262
 2744SOL    HW119868   3.864   1.236   8.041  2.7919  1.2871 -0.6624
 2744SOL    HW219869   3.780   1.259   8.157  1.0426  1.5193  2.0071
 2745SOL     OW19870   3.585   1.464   1.669 -0.0429  0.0873 -0.8000
 2745SOL    HW119871   3.546   1.495   1.586 -1.4981  0.8746  0.1762
 2745SOL    HW219872   3.633   1.542   1.699 -0.2167  0.4663 -1.4984
 2746SOL     OW19873   3.868   4.301   2.785 -0.2407  0.3978  0.4746
 2746SOL    HW119874   3.861   4.376   2.726  0.5954  0.0676 -0.0435
 2746SOL    HW219875   3.778   4.285   2.814 -0.6052  0.5396 -0.5907
 2747SOL     OW19876   2.221   2.482   5.958 -0.3591 -0.1755 -0.1326
 2747SOL    HW119877   2.316   2.485   5.947 -0.0867 -0.1803  2.2006
 2747SOL    HW219878   2.206   2.576   5.950  1.5568 -0.0114 -1.9002
 2748SOL     OW19879   0.500   2.026   0.113 -0.7314 -0.1942 -0.0474
 2748SOL    HW119880   0.574   2.053   0.058 -0.8572 -0.1716 -0.2053
 2748SOL    HW219881   0.478   2.109   0.154  2.0612 -0.5553  2.1224
 2749SOL     OW19882   3.081   0.441   8.054  0.6989 -0.0389 -0.1069
 2749SOL    HW119883   3.123   0.499   8.116 -0.9310 -0.2595  1.2131
 2749SOL    HW219884   3.061   0.363   8.106  1.1577  0.2850  0.5488
 2750SOL     OW19885   4.591   2.696  14.824 -0.0493  0.1241 -0.1735
 2750SOL    HW119886   4.604   2.737  14.739  0.3819  1.5586  0.5933
 2750SOL    HW219887   4.513   2.735  14.862  0.7636  2.0352 -0.4685
 2751SOL     OW19888   3.424   0.466   4.421  0.3405  0.0421  0.0199
 2751SOL    HW119889   3.478   0.477   4.343 -0.9117 -2.1582 -1.1321
 2751SOL    HW219890   3.397   0.375   4.408  0.8483 -0.0084 -0.6922
 2752SOL     OW19891   4.105   3.292   9.026 -0.2690  0.1562 -0.5135
 2752SOL    HW119892   4.089   3.364   8.965  0.0416  1.8329  1.4064
 2752SOL    HW219893   4.198   3.304   9.044 -0.4994 -0.4747  1.0806
 2753SOL     OW19894   1.229   1.356   2.824  0.5461 -0.6778  0.7098
 2753SOL    HW119895   1.162   1.292   2.799  1.8323 -1.5978 -0.3765
 2753SOL    HW219896   1.304   1.331   2.770 -0.0800 -0.7296 -0.1460
 2754SOL     OW19897   4.271   2.367   7.412  0.6139 -0.2487  0.1991
 2754SOL    HW119898   4.301   2.366   7.322  0.8361 -0.5740  0.2739
 2754SOL    HW219899   4.238   2.457   7.415  2.3442  0.4032 -0.1796
 2755SOL     OW19900   3.633   4.027   3.068  0.1129  0.7185  0.1590
 2755SOL    HW119901   3.727   4.013   3.077  0.0151  0.4009  0.6604
 2755SOL    HW219902   3.607   3.971   3.141  0.6417 -0.1886 -0.3473
 2756SOL     OW19903   3.093   2.234   2.835  0.4256 -0.5024 -0.5283
 2756SOL    HW119904   3.025   2.206   2.774  1.5646  0.2759 -2.1492
 2756SOL    HW219905   3.085   2.171   2.906 -0.2131 -1.3817 -1.3751
 2757SOL     OW19906   4.482   1.304   4.172 -0.0410  0.1602  0.2969
 2757SOL    HW119907   4.574   1.320   4.192  0.1420  0.2960 -0.6808
 2757SOL    HW219908   4.473   1.356   4.093 -1.6929  0.5535  0.7511
 2758SOL     OW19909   2.707   3.764   6.087  0.2179 -0.0630 -0.5236
 2758SOL    HW119910   2.733   3.701   6.154  2.0570 -0.1545 -1.3236
 2758SOL    HW219911   2.613   3.774   6.105 -0.5138 -1.9807 -3.1969
 2759SOL     OW19912   2.527   4.583  12.185 -0.2494 -0.7712 -0.3977
 2759SOL    HW119913   2.543   4.673  12.213  1.1657 -0.2968 -2.7676
 2759SOL    HW219914   2.466   4.591  12.113 -1.6778 -1.5780  0.7095
 2760SOL     OW19915   4.468   1.462  11.396  0.3599  0.8984  0.0554
 2760SOL    HW119916   4.497   1.482  11.307  1.3818  1.5791  0.5425
 2760SOL    HW219917   4.410   1.534  11.421  0.9333  1.1895  0.5543
 2761SOL     OW19918   3.673   3.026   1.100 -0.4142  0.5006 -0.3672
 2761SOL    HW119919   3.679   2.937   1.064  2.6548 -0.0320  1.5081
 2761SOL    HW219920   3.618   3.021   1.178  0.2141  2.6440  0.2011
 2762SOL     OW19921   2.548   3.993  13.820 -0.5585 -0.9873 -0.1161
 2762SOL    HW119922   2.484   3.992  13.750 -2.0522  0.3056  1.2253
 2762SOL    HW219923   2.615   3.928  13.798 -1.1791 -1.1153 -1.5946
 2763SOL     OW19924   4.410   0.091  14.831  0.4091  0.5754 -0.3551
 2763SOL    HW119925   4.359   0.095  14.912 -0.0632  2.0711 -0.7312
 2763SOL    HW219926   4.490   0.139  14.852 -0.1051  0.8326  1.0767
 2764SOL     OW19927   3.173   2.742   1.543 -0.0301  0.2327  0.5791
 2764SOL    HW119928   3.134   2.686   1.476 -0.0970  0.1525  0.6858
 2764SOL    HW219929   3.259   2.701   1.551  0.6995  1.8173  0.8805
 2765SOL     OW19930   3.124   0.041   5.685  0.1592 -0.5149  0.1092
 2765SOL    HW119931   3.126   0.090   5.767 -0.6906 -0.8061  0.2989
 2765SOL    HW219932   3.059   0.091   5.636 -0.5900 -0.1687  1.4703
 2766SOL     OW19933   2.429   3.431   5.462 -0.5124  0.1428 -0.2985
 2766SOL    HW119934   2.468   3.518   5.476 -1.5532  0.2378  2.0144
 2766SOL    HW219935   2.446   3.399   5.551  0.3634  1.7227  0.1172
 2767SOL     OW19936   3.730   1.210  13.103 -0.4300 -0.0356  0.3691
 2767SOL    HW119937   3.667   1.260  13.154  0.9502  3.4615 -1.3989
 2767SOL    HW219938   3.673   1.133  13.096  0.5186 -0.7308  0.2490
 2768SOL     OW19939   4.494   1.928   6.250  0.6580  0.6096 -0.9506
 2768SOL    HW119940   4.404   1.941   6.220 -0.8638 -1.7836  2.4738
 2768SOL    HW219941   4.505   2.014   6.290  2.5390  0.3484 -0.8964
 2769SOL     OW19942   3.510   1.806   7.118 -0.1097  0.1889  0.0825
 2769SOL    HW119943   3.439   1.865   7.094 -0.8609 -0.5179  0.5535
 2769SOL    HW219944   3.547   1.784   7.032  0.7107  2.4811 -0.1419
 2770SOL     OW19945   0.550   3.584   5.189  0.3558 -0.3782  0.0398
 2770SOL    HW119946   0.549   3.598   5.094 -0.5780  0.9609  0.2420
 2770SOL    HW219947   0.457   3.567   5.199  0.4128 -0.5978  0.1895
 2771SOL     OW19948   4.089   0.003   8.393 -0.7978 -0.2899 -0.3686
 2771SOL    HW119949   4.181   4.737   8.368 -1.1089 -1.3546 -1.2440
 2771SOL    HW219950   4.110   0.021   8.485 -0.0050  0.2331 -0.6525
 2772SOL     OW19951   0.448   2.412   4.236  0.0091  0.1723  0.0854
 2772SOL    HW119952   0.507   2.373   4.172  2.7085 -1.1654  3.3680
 2772SOL    HW219953   0.414   2.481   4.178 -1.4208 -0.3683  0.2812
 2773SOL     OW19954   0.732   0.539   4.855  0.3327  0.5841  0.0996
 2773SOL    HW119955   0.815   0.502   4.885  0.4840  0.7888 -0.0669
 2773SOL    HW219956   0.689   0.543   4.941  3.0543 -1.1690  1.5367
 2774SOL     OW19957   0.471   3.318  16.799 -0.0023 -0.2885 -0.0477
 2774SOL    HW119958   0.405   3.384  16.778 -0.3403 -1.1671 -1.7018
 2774SOL    HW219959   0.538   3.366  16.848  0.0609  0.4229 -0.8297
 2775SOL     OW19960   4.642   0.882   7.296  0.0405 -0.1983  0.1188
 2775SOL    HW119961   4.597   0.966   7.290  2.7724  1.4258  1.9786
 2775SOL    HW219962   4.730   0.918   7.307  1.2387 -2.4189 -2.3653
 2776SOL     OW19963   0.087   3.371   7.977  0.5967  0.3284 -0.1532
 2776SOL    HW119964   0.135   3.365   8.060 -0.1015 -0.5989  0.1773
 2776SOL    HW219965   4.739   3.401   8.000  0.3581 -1.9462  1.8990
 2777SOL     OW19966   4.050   2.385  16.540 -0.4603 -0.2929  0.0461
 2777SOL    HW119967   3.958   2.356  16.540 -0.5043 -0.1504  0.2567
 2777SOL    HW219968   4.094   2.305  16.568 -0.6110 -0.9624 -1.5736
 2778SOL     OW19969   3.765   4.600   2.214 -0.0935 -0.4788  0.1690
 2778SOL    HW119970   3.791   4.549   2.137 -3.8986 -0.4771 -1.1107
 2778SOL    HW219971   3.744   4.687   2.182 -3.4064 -1.5033 -0.4757
 2779SOL     OW19972   0.709   3.057   9.996  0.1725  0.2140 -0.6872
 2779SOL    HW119973   0.686   3.083  10.085  0.7841  1.1331 -0.7988
 2779SOL    HW219974   0.626   3.030   9.957  0.0318 -0.9541  0.4060
 2780SOL     OW19975   2.961   3.611  15.730  0.7237 -0.2541  0.2023
 2780SOL    HW119976   2.962   3.619  15.825 -2.6464 -1.2555  0.3181
 2780SOL    HW219977   2.869   3.633  15.717  0.3681 -0.6179  2.2224
 2781SOL     OW19978   2.913   2.437   6.398 -0.6299 -0.4054  0.0346
 2781SOL    HW119979   2.869   2.399   6.475  2.2699 -0.0226  1.8636
 2781SOL    HW219980   2.987   2.483   6.437 -0.3438  0.2094 -1.2417
 2782SOL     OW19981   0.394   1.482   9.271  0.4907 -0.2665  0.2364
 2782SOL    HW119982   0.434   1.427   9.338 -0.5802 -1.9029 -0.4699
 2782SOL    HW219983   0.461   1.487   9.202  0.0774 -0.7751 -0.1967
 2783SOL     OW19984   0.915   0.713   2.788  0.2194  0.2614 -0.2963
 2783SOL    HW119985   0.840   0.699   2.730 -0.6087  2.0754  0.3185
 2783SOL    HW219986   0.972   0.640   2.763 -1.7190 -0.7808 -1.6807
 2784SOL     OW19987   1.927   1.824   7.702  0.0534  0.3948 -0.2523
 2784SOL    HW119988   1.942   1.914   7.674 -0.8332  0.7493  0.3779
 2784SOL    HW219989   1.854   1.803   7.644  0.3994  1.9495 -1.2331
 2785SOL     OW19990   0.683   3.019   8.459  0.0919 -0.2188  0.5961
 2785SOL    HW119991   0.710   2.946   8.403 -0.6278  1.1655 -1.5367
 2785SOL    HW219992   0.768   3.063   8.457  0.1383 -0.3072  0.6264
 2786SOL     OW19993   1.357   4.674  11.357  0.7043 -0.4929  0.0956
 2786SOL    HW119994   1.435   4.632  11.322  0.7300 -1.0951  0.8832
 2786SOL    HW219995   1.360   4.637  11.445 -0.0425  0.5734  0.5695
 2787SOL     OW19996   2.629   3.428   8.439 -0.3893 -0.2978  0.4155
 2787SOL    HW119997   2.567   3.382   8.382 -0.0952  0.5259 -0.5723
 2787SOL    HW219998   2.705   3.414   8.383 -0.3388 -1.8341  0.8793
 2788SOL     OW19999   0.327   3.627   8.050  0.1010 -0.1801 -0.4331
 2788SOL    HW120000   0.284   3.551   8.091 -1.0024 -0.3601 -1.9090
 2788SOL    HW220001   0.303   3.612   7.958  0.5635  4.4463 -1.2709
 2789SOL     OW20002   4.294   4.607   4.233  0.9523 -0.1362  0.0221
 2789SOL    HW120003   4.319   4.644   4.148  1.6251  0.3630  0.4375
 2789SOL    HW220004   4.208   4.644   4.249  1.1707  0.8049 -0.9986
 2790SOL     OW20005   1.023   2.581   4.964  0.3316 -0.4635 -0.7591
 2790SOL    HW120006   0.965   2.519   4.919  0.8354 -1.7009  0.3156
 2790SOL    HW220007   0.959   2.626   5.020 -0.6172 -0.2740 -1.9980
 2791SOL     OW20008   1.116   3.638   5.255  0.0331  0.3784 -0.5702
 2791SOL    HW120009   1.029   3.617   5.222  0.1647  1.3146 -1.5130
 2791SOL    HW220010   1.167   3.564   5.224 -0.6602 -0.7063  0.8961
 2792SOL     OW20011   0.095   4.198   0.925  0.5747 -0.6668 -0.3741
 2792SOL    HW120012   0.176   4.212   0.878  1.5759  1.0127  1.8349
 2792SOL    HW220013   0.125   4.202   1.016 -0.3421  0.5789 -0.1162
 2793SOL     OW20014   3.637   3.515   8.208  0.6208 -0.3907 -0.3552
 2793SOL    HW120015   3.723   3.510   8.167 -0.7505 -1.3075 -3.1481
 2793SOL    HW220016   3.614   3.423   8.205  0.6071 -0.4662  1.7170
 2794SOL     OW20017   0.356   1.406   8.906 -0.1223 -0.6650  0.3130
 2794SOL    HW120018   0.449   1.410   8.883 -0.8229  0.7887 -2.2722
 2794SOL    HW220019   0.311   1.444   8.831  1.2788 -0.2153 -0.3082
 2795SOL     OW20020   0.561   3.338   1.297 -0.0594  0.2613 -0.1033
 2795SOL    HW120021   0.586   3.398   1.226 -1.0937 -1.7555 -2.1497
 2795SOL    HW220022   0.492   3.389   1.340  2.9136  4.2672 -0.1018
 2796SOL     OW20023   0.054   0.961   7.843  0.0746 -0.1460  0.0311
 2796SOL    HW120024   0.080   0.915   7.763 -1.6246 -2.5397  0.8273
 2796SOL    HW220025   0.029   0.885   7.896  0.4460  1.9241  3.1543
 2797SOL     OW20026   1.777   3.920   6.306 -0.1880  0.6562 -0.6787
 2797SOL    HW120027   1.732   3.871   6.237 -0.1966  0.7864 -0.7654
 2797SOL    HW220028   1.828   3.977   6.248  2.1759 -0.9825 -0.2097
 2798SOL     OW20029   0.086   0.162   1.435 -0.0015 -0.6439  1.1461
 2798SOL    HW120030   0.170   0.133   1.468  1.1248  2.6695  1.1509
 2798SOL    HW220031   0.059   0.088   1.380  0.4897  0.0870 -0.0917
 2799SOL     OW20032   3.711   0.412  11.268 -0.2005  0.2920  0.0055
 2799SOL    HW120033   3.660   0.434  11.191  2.1618 -0.9275 -1.9180
 2799SOL    HW220034   3.678   0.482  11.325 -0.2765  1.6811 -1.7365
 2800SOL     OW20035   4.324   3.251  17.592 -0.2221  0.0394  0.3734
 2800SOL    HW120036   4.381   3.326  17.608 -2.1120  1.2839  1.2544
 2800SOL    HW220037   4.390   3.199  17.547  0.5526  2.1362 -0.9167
 2801SOL     OW20038   2.360   2.782  12.199 -0.6448  0.4170  1.1345
 2801SOL    HW120039   2.317   2.733  12.269 -0.2179  0.1560  1.2062
 2801SOL    HW220040   2.441   2.732  12.191 -0.1989  1.2088  0.6742
 2802SOL     OW20041   2.495   3.513   2.562 -0.0418  0.3854 -0.4657
 2802SOL    HW120042   2.433   3.461   2.614  0.3609  1.0771  0.7000
 2802SOL    HW220043   2.577   3.465   2.575 -0.0231  0.5041 -0.1609
 2803SOL     OW20044   1.704   3.803   9.585 -0.1615  0.1455 -0.0201
 2803SOL    HW120045   1.609   3.797   9.580  0.0990 -2.0466 -2.0740
 2803SOL    HW220046   1.741   3.720   9.556  0.6431  0.5162 -0.0574
 2804SOL     OW20047   3.568   1.547   8.307 -0.2178 -0.0048  0.1695
 2804SOL    HW120048   3.548   1.541   8.213 -0.8884  1.5126  0.2176
 2804SOL    HW220049   3.493   1.593   8.344  1.0246 -0.1458  2.8055
 2805SOL     OW20050   2.313   0.353  15.909  0.3868  0.9758  0.2917
 2805SOL    HW120051   2.307   0.433  15.856 -2.6455  2.0315  2.2158
 2805SOL    HW220052   2.406   0.343  15.887  0.6932 -2.3482  3.1546
 2806SOL     OW20053   1.957   4.076  11.956 -0.5428 -0.1473 -0.3103
 2806SOL    HW120054   1.874   4.034  11.980 -1.0846  0.2665 -1.4114
 2806SOL    HW220055   1.917   4.152  11.912 -1.5693  0.7248  2.1289
 2807SOL     OW20056   3.032   3.722   3.169  0.2056  0.0693  0.0918
 2807SOL    HW120057   2.966   3.653   3.175 -0.1230  0.6300  3.2198
 2807SOL    HW220058   3.040   3.710   3.074 -1.3862 -0.0365 -0.0231
 2808SOL     OW20059   2.300   4.331   0.219  0.3746  0.4440  0.1113
 2808SOL    HW120060   2.355   4.372   0.285  0.6077  2.3228 -1.2331
 2808SOL    HW220061   2.240   4.405   0.210 -0.9098 -0.8101 -1.6061
 2809SOL     OW20062   1.044   0.024   4.917  0.1081 -0.0605 -0.5509
 2809SOL    HW120063   1.084   0.081   4.852  0.7838  0.2476  0.1385
 2809SOL    HW220064   1.122   4.724   4.956 -0.8209 -0.3085  1.0700
 2810SOL     OW20065   0.269   1.741   5.529  0.1071 -0.4364 -0.3010
 2810SOL    HW120066   0.277   1.664   5.585  1.0304 -0.1721 -0.0783
 2810SOL    HW220067   0.305   1.811   5.582  0.5131 -0.6341 -0.3116
 2811SOL     OW20068   1.817   4.166   7.345 -0.2265 -0.2997 -0.3241
 2811SOL    HW120069   1.729   4.142   7.375  0.1548 -3.9559 -2.1116
 2811SOL    HW220070   1.869   4.092   7.376  0.2593  1.0012  1.9138
 2812SOL     OW20071   4.052   4.289   5.219  0.2616  0.6924 -0.2744
 2812SOL    HW120072   4.078   4.333   5.300 -0.9254 -0.2853  0.6299
 2812SOL    HW220073   3.957   4.294   5.232  0.1658 -1.7641 -0.1465
 2813SOL     OW20074   3.677   3.664   5.027  0.3848  0.4357 -0.5895
 2813SOL    HW120075   3.650   3.734   5.085 -0.9187  0.5890 -1.3839
 2813SOL    HW220076   3.599   3.608   5.027  0.7686 -0.0945  1.3525
 2814SOL     OW20077   3.507   2.411   3.504 -0.3028  0.8004  0.4751
 2814SOL    HW120078   3.586   2.436   3.552 -0.2533 -0.3608  1.0166
 2814SOL    HW220079   3.438   2.454   3.554  0.1186  0.5764  1.2619
 2815SOL     OW20080   4.227   4.317   6.378 -0.1151 -0.0709 -0.3423
 2815SOL    HW120081   4.134   4.296   6.378 -0.2974  0.7361 -0.1021
 2815SOL    HW220082   4.259   4.227   6.389 -1.4648 -0.5645 -0.3870
 2816SOL     OW20083   2.705   2.164   4.799 -0.8116 -0.1675  0.1831
 2816SOL    HW120084   2.719   2.092   4.861  1.0897 -1.2093 -1.4823
 2816SOL    HW220085   2.758   2.231   4.842 -0.9123 -0.1980  0.3552
 2817SOL     OW20086   2.803   0.181   0.957  0.3256 -0.1936 -0.4162
 2817SOL    HW120087   2.826   0.090   0.974  0.5120 -0.1617 -0.5065
 2817SOL    HW220088   2.871   0.206   0.895 -1.0317  0.0902 -1.7998
 2818SOL     OW20089   3.833   0.601  15.854  0.0200  0.0793  0.0693
 2818SOL    HW120090   3.848   0.610  15.948  0.0925  0.1782  0.0479
 2818SOL    HW220091   3.812   0.692  15.833  1.8338  0.6175  0.6220
 2819SOL     OW20092   1.239   2.610   1.984  0.0120  0.4470  0.4394
 2819SOL    HW120093   1.302   2.639   2.050 -3.4486 -0.2903  4.1220
 2819SOL    HW220094   1.243   2.688   1.929 -1.8709 -0.6163 -1.1932
 2820SOL     OW20095   0.726   1.893   4.636 -0.3676 -0.2273 -0.1532
 2820SOL    HW120096   0.759   1.817   4.588  1.6282 -0.1075  1.0501
 2820SOL    HW220097   0.702   1.951   4.563 -0.2871 -1.9454 -1.5396
 2821SOL     OW20098   3.756   3.600   7.757  0.3072  0.3061 -0.2330
 2821SOL    HW120099   3.790   3.533   7.816  1.1606  0.4905 -0.5103
 2821SOL    HW220100   3.668   3.626   7.783  1.1068  1.8278  0.9600
 2822SOL     OW20101   3.601   2.580   5.925  0.5324 -0.0750 -0.1128
 2822SOL    HW120102   3.543   2.655   5.941  1.6156  0.6151  0.5150
 2822SOL    HW220103   3.591   2.563   5.831  2.0339  0.2739 -0.3347
 2823SOL     OW20104   3.606   2.596  16.793  0.2165 -0.0999 -0.1027
 2823SOL    HW120105   3.622   2.535  16.721  0.7514 -2.0639  1.6899
 2823SOL    HW220106   3.649   2.679  16.775 -1.3376  1.0268  1.3168
 2824SOL     OW20107   2.393   4.135   2.705 -0.5758  0.3562 -0.0049
 2824SOL    HW120108   2.364   4.126   2.614  0.8381 -2.5682 -0.1362
 2824SOL    HW220109   2.314   4.100   2.745  0.1694 -1.8557 -0.4741
 2825SOL     OW20110   1.820   4.028   3.103  0.1888  0.9768  0.2525
 2825SOL    HW120111   1.900   4.062   3.063  0.4434  0.8490  0.6518
 2825SOL    HW220112   1.758   4.035   3.030 -3.0041  1.6747  3.0584
 2826SOL     OW20113   2.032   1.537   4.880 -0.1545  0.0383  0.4447
 2826SOL    HW120114   1.991   1.562   4.963  1.9277  0.7683  1.2397
 2826SOL    HW220115   1.998   1.611   4.829  0.1593  1.0368  1.7090
 2827SOL     OW20116   0.744   2.716   6.200  0.3976 -0.0279  0.0488
 2827SOL    HW120117   0.736   2.707   6.295 -2.1125  0.6485 -0.0761
 2827SOL    HW220118   0.698   2.800   6.192 -0.6453 -0.5224  0.8089
 2828SOL     OW20119   1.062   2.080   8.725  0.4623 -0.1570  0.1885
 2828SOL    HW120120   1.082   2.131   8.803 -0.1546 -0.0979  0.3054
 2828SOL    HW220121   1.023   2.003   8.766  1.1850  0.1515  1.4458
 2829SOL     OW20122   2.268   1.669   9.277  0.4100 -0.3831 -0.5830
 2829SOL    HW120123   2.272   1.647   9.370  0.2756  1.5558 -0.1119
 2829SOL    HW220124   2.331   1.741   9.282  0.9372 -0.9016  0.0777
 2830SOL     OW20125   4.410   3.220  13.268  0.6044  0.3846  0.1260
 2830SOL    HW120126   4.389   3.190  13.356  0.2710  1.9723  0.5961
 2830SOL    HW220127   4.394   3.140  13.219 -0.3338 -0.0679  1.1820
 2831SOL     OW20128   0.278   0.317   7.518 -0.1206 -0.0451 -0.0755
 2831SOL    HW120129   0.288   0.227   7.488  0.4602 -0.7114  2.1555
 2831SOL    HW220130   0.349   0.355   7.466  0.7791 -0.3855  0.8952
 2832SOL     OW20131   2.528   1.465   2.063 -0.2037  0.1718 -0.3714
 2832SOL    HW120132   2.529   1.514   2.145  0.0764 -0.9278  0.2760
 2832SOL    HW220133   2.473   1.395   2.099 -0.2800  1.2333  1.5621
 2833SOL     OW20134   1.936   2.333   9.221 -0.0298  0.0284  0.2277
 2833SOL    HW120135   1.869   2.279   9.181 -0.8870  0.5064  1.0207
 2833SOL    HW220136   2.006   2.297   9.166 -3.1913  1.4335 -4.7063
 2834SOL     OW20137   3.284   1.108   2.054  0.3896  0.3503 -0.3421
 2834SOL    HW120138   3.263   1.171   1.986  0.6384  0.9992  0.1825
 2834SOL    HW220139   3.250   1.031   2.009 -0.1999  0.4085  0.0029
 2835SOL     OW20140   3.906   2.010  11.793 -0.3351  0.0527  0.0254
 2835SOL    HW120141   3.832   2.064  11.820 -0.4897 -0.4882  0.6735
 2835SOL    HW220142   3.895   1.923  11.831  0.6688  1.1358  2.7752
 2836SOL     OW20143   3.924   1.384   1.429  0.4482 -0.1503 -0.1173
 2836SOL    HW120144   3.857   1.447   1.401 -1.0932 -2.4542 -1.6228
 2836SOL    HW220145   3.881   1.314   1.478 -0.0285  2.0488  2.6884
 2837SOL     OW20146   2.647   1.341  17.395  0.5240 -0.1297  0.4453
 2837SOL    HW120147   2.555   1.363  17.408  0.0590 -1.6945 -0.2380
 2837SOL    HW220148   2.647   1.267  17.334  2.0155  0.0252  0.2479
 2838SOL     OW20149   1.649   3.745   1.353  0.1653  0.1269 -0.2588
 2838SOL    HW120150   1.589   3.753   1.279 -0.4559 -1.1354  0.0992
 2838SOL    HW220151   1.673   3.836   1.370 -1.4915  0.2749  1.2718
 2839SOL     OW20152   3.756   3.388   3.143  0.0700  0.6176  0.1853
 2839SOL    HW120153   3.771   3.472   3.187 -0.9068  1.8788 -1.8646
 2839SOL    HW220154   3.665   3.396   3.114  0.3427  0.4405 -0.7295
 2840SOL     OW20155   2.062   4.559  13.523  0.2286  0.1325  0.1485
 2840SOL    HW120156   2.122   4.486  13.505 -2.2222 -1.1688 -2.6936
 2840SOL    HW220157   2.119   4.593  13.592 -1.1780  2.7822  0.0157
 2841SOL     OW20158   1.025   1.205   7.736  0.5001 -0.6554 -0.6024
 2841SOL    HW120159   0.942   1.225   7.692  0.9693  2.2890 -0.1320
 2841SOL    HW220160   0.983   1.161   7.810 -0.6164 -1.6585 -1.8277
 2842SOL     OW20161   2.840   1.990   9.181 -0.0718  0.5824 -0.8198
 2842SOL    HW120162   2.765   2.016   9.127  1.4615  2.4065 -2.1117
 2842SOL    HW220163   2.863   1.907   9.140  0.7360  0.7400 -0.6836
 2843SOL     OW20164   4.422   3.510   8.398 -0.2934  0.4374  0.4658
 2843SOL    HW120165   4.465   3.520   8.313  2.1837  2.0335  1.8983
 2843SOL    HW220166   4.483   3.457   8.449  0.5944  0.0791 -0.9594
 2844SOL     OW20167   3.802   2.588  13.486 -0.2766 -0.0725  0.0180
 2844SOL    HW120168   3.825   2.652  13.418  0.6956  1.8704  2.1801
 2844SOL    HW220169   3.725   2.552  13.442 -0.7407  2.1194 -0.9845
 2845SOL     OW20170   1.316   0.776   4.476  0.1883  0.1045  0.0022
 2845SOL    HW120171   1.339   0.717   4.404  2.6718  0.2978  0.6622
 2845SOL    HW220172   1.251   0.724   4.525  0.6703  0.1910  0.7403
 2846SOL     OW20173   2.553   1.553   1.349 -0.6049  0.0995 -0.4653
 2846SOL    HW120174   2.620   1.555   1.417 -2.5890 -0.4978  1.5148
 2846SOL    HW220175   2.494   1.493   1.394  0.7698 -0.7279  0.2473
 2847SOL     OW20176   1.507   3.721  10.481 -0.0249 -0.6848 -0.0004
 2847SOL    HW120177   1.522   3.674  10.399 -1.3159  0.4432 -0.8885
 2847SOL    HW220178   1.413   3.707  10.496 -0.7486  1.7623 -2.1756
 2848SOL     OW20179   1.248   1.761   7.948  0.5265 -0.0814 -0.6331
 2848SOL    HW120180   1.294   1.677   7.955 -0.4620 -0.5311  0.4230
 2848SOL    HW220181   1.231   1.766   7.854 -0.2001 -0.8381 -0.5425
 2849SOL     OW20182   2.780   1.616   9.356 -0.1304  0.1024 -0.6323
 2849SOL    HW120183   2.832   1.625   9.436 -0.8936 -0.6080 -0.0496
 2849SOL    HW220184   2.772   1.523   9.335  0.0179 -0.1243  0.3078
 2850SOL     OW20185   0.526   0.525   5.900 -0.0609 -0.2049 -1.0078
 2850SOL    HW120186   0.491   0.593   5.959 -0.1383  1.5013 -3.0404
 2850SOL    HW220187   0.445   0.474   5.894 -0.2434 -0.1083  0.4314
 2851SOL     OW20188   2.179   3.817  17.600  0.0659 -0.1916 -0.3163
 2851SOL    HW120189   2.154   3.910  17.600 -1.8338 -0.6995 -0.6820
 2851SOL    HW220190   2.095   3.783  17.631 -0.2676  2.4041  1.6322
 2852SOL     OW20191   1.746   4.181   8.178  0.3651  0.9504  0.2401
 2852SOL    HW120192   1.797   4.111   8.220  0.7608  0.2382 -1.4161
 2852SOL    HW220193   1.668   4.180   8.233 -0.5183  1.2008 -1.0319
 2853SOL     OW20194   3.889   3.275   9.191 -0.1896  0.4741 -0.4400
 2853SOL    HW120195   3.956   3.304   9.129 -0.3383  2.6316  0.3758
 2853SOL    HW220196   3.938   3.296   9.270  1.3887 -1.1093 -1.0105
 2854SOL     OW20197   0.269   4.642   8.166 -0.1189 -0.3784  0.6448
 2854SOL    HW120198   0.296   4.703   8.097 -0.7469  1.2650  1.8343
 2854SOL    HW220199   0.198   4.690   8.209 -1.2033 -1.0840 -0.3575
 2855SOL     OW20200   4.571   0.374  11.663  0.8140  0.0237  0.1648
 2855SOL    HW120201   4.592   0.327  11.743  2.1600  0.3629  0.0035
 2855SOL    HW220202   4.532   0.299  11.618 -1.3675  0.3538  1.4933
 2856SOL     OW20203   2.843   4.461   8.866  0.6611 -0.7032  0.7700
 2856SOL    HW120204   2.909   4.423   8.924  0.3914  1.4786  2.4970
 2856SOL    HW220205   2.909   4.504   8.812  0.9380 -1.5377  0.4406
 2857SOL     OW20206   0.456   1.437   6.442 -0.6353 -0.2574  0.9426
 2857SOL    HW120207   0.430   1.528   6.432  0.3932 -0.0072  0.5963
 2857SOL    HW220208   0.499   1.437   6.527 -0.9325 -0.4532  1.0963
 2858SOL     OW20209   1.099   2.713   5.516  0.2062  0.3006  0.5100
 2858SOL    HW120210   1.061   2.731   5.430  2.1151 -1.2004 -0.6455
 2858SOL    HW220211   1.106   2.802   5.550 -0.2176  0.4656  0.1524
 2859SOL     OW20212   4.396   0.147  12.925  0.5847  0.4802 -0.1150
 2859SOL    HW120213   4.422   0.055  12.924 -1.1776 -0.0008 -0.5856
 2859SOL    HW220214   4.443   0.190  12.997  2.3974 -1.0299 -0.3854
 2860SOL     OW20215   2.803   0.501  15.134  0.5601 -0.3172 -0.4397
 2860SOL    HW120216   2.759   0.554  15.200  0.9057  0.2211 -0.6456
 2860SOL    HW220217   2.803   0.415  15.177 -0.9412  0.1298  0.4661
 2861SOL     OW20218   1.429   3.245  10.430  0.0280 -0.2937 -0.0918
 2861SOL    HW120219   1.516   3.284  10.437  0.7533 -1.7089 -1.1197
 2861SOL    HW220220   1.376   3.294  10.493  0.5066 -1.0960  0.9305
 2862SOL     OW20221   3.003   0.169  14.457 -0.1746  0.3494  0.2516
 2862SOL    HW120222   3.090   0.166  14.498 -0.5278 -0.1675  0.9687
 2862SOL    HW220223   3.021   0.132  14.371 -0.4270  2.1166 -0.5572
 2863SOL     OW20224   1.675   0.788  10.165  0.0430 -0.0632  0.1439
 2863SOL    HW120225   1.637   0.703  10.141  1.3450 -0.4729 -0.4392
 2863SOL    HW220226   1.607   0.821  10.223 -0.7302  1.4938 -1.6543
 2864SOL     OW20227   3.172   4.223   7.873  0.3088 -0.1075  0.3786
 2864SOL    HW120228   3.161   4.130   7.895  1.1313  0.0809  1.5641
 2864SOL    HW220229   3.258   4.237   7.912  0.9605 -0.2220 -1.0592
 2865SOL     OW20230   4.681   1.096   8.066 -0.0759  0.4983 -0.2968
 2865SOL    HW120231   4.625   1.038   8.117  0.9848 -1.3825 -1.2377
 2865SOL    HW220232   4.680   1.056   7.979 -1.1215  0.9327 -0.4900
 2866SOL     OW20233   2.478   0.169   5.006  0.4717  0.0229  0.4305
 2866SOL    HW120234   2.480   0.265   5.011 -1.4685 -0.1349  4.2633
 2866SOL    HW220235   2.554   0.156   4.950 -0.3048 -0.9957 -0.4020
 2867SOL     OW20236   4.667   3.016   1.383 -0.2447 -1.0662 -0.4828
 2867SOL    HW120237   4.637   2.998   1.471 -0.4354 -1.4072 -0.6173
 2867SOL    HW220238   0.020   2.998   1.396  0.2356  0.6553 -1.4680
 2868SOL     OW20239   2.474   2.991   3.693  0.1168 -0.4801  0.1102
 2868SOL    HW120240   2.407   2.924   3.708 -1.6417  1.6028  1.4918
 2868SOL    HW220241   2.482   3.024   3.782 -3.0585  0.5989  0.0152
 2869SOL     OW20242   4.439   1.186   5.205 -0.3963  0.2982  0.0866
 2869SOL    HW120243   4.435   1.192   5.300  0.3562  2.0850  0.0095
 2869SOL    HW220244   4.383   1.261   5.187  0.7024  0.7331 -1.5024
 2870SOL     OW20245   3.322   0.416   8.569  0.2831  0.1920 -0.2808
 2870SOL    HW120246   3.239   0.459   8.551 -0.4969 -0.4113  1.9152
 2870SOL    HW220247   3.325   0.413   8.664 -2.0054  2.0424 -0.1664
 2871SOL     OW20248   2.407   0.906   4.470 -0.1974 -0.4016  0.5361
 2871SOL    HW120249   2.461   0.979   4.500  1.2084 -1.7743  1.3452
 2871SOL    HW220250   2.323   0.946   4.451 -0.2195 -0.8270 -0.2585
 2872SOL     OW20251   0.423   2.900   2.108 -0.4025  0.5197 -0.3751
 2872SOL    HW120252   0.347   2.917   2.163 -1.5329 -1.3871 -1.3282
 2872SOL    HW220253   0.435   2.992   2.088 -2.2317  1.3721  2.3901
 2873SOL     OW20254   3.067   0.225   9.167 -0.0320  0.0860 -0.4858
 2873SOL    HW120255   3.090   0.139   9.131  1.5421 -0.3062  1.4112
 2873SOL    HW220256   3.151   0.270   9.168  0.2101 -0.3861  1.8205
 2874SOL     OW20257   1.411   0.761   6.496 -0.1978  0.1435  0.0859
 2874SOL    HW120258   1.440   0.674   6.523  1.3200 -0.0800 -2.3003
 2874SOL    HW220259   1.319   0.741   6.482  0.3441 -0.8296 -2.0195
 2875SOL     OW20260   3.633   3.416   9.514 -0.0873  0.0790 -0.2403
 2875SOL    HW120261   3.633   3.328   9.553  0.6440  0.0958 -0.2014
 2875SOL    HW220262   3.544   3.430   9.482 -0.2166  0.8965  0.5111
 2876SOL     OW20263   4.002   3.082   8.046 -0.1805  0.3977 -0.3339
 2876SOL    HW120264   4.038   3.170   8.037 -0.6701  0.8029  1.7272
 2876SOL    HW220265   4.002   3.066   7.951 -0.0682 -2.8390  0.1973
 2877SOL     OW20266   4.214   4.465   6.603 -0.1557  0.3496 -0.2158
 2877SOL    HW120267   4.248   4.422   6.524  0.7345 -0.3599  0.5542
 2877SOL    HW220268   4.137   4.411   6.625 -0.0013 -0.8671 -2.6090
 2878SOL     OW20269   3.998   3.272   9.428  0.0759 -0.6880 -0.5037
 2878SOL    HW120270   4.093   3.265   9.433  0.1513  0.6293 -0.0084
 2878SOL    HW220271   3.976   3.304   9.516  1.6840  1.8782 -1.0464
 2879SOL     OW20272   2.523   2.752   5.613  0.1134 -0.1339  0.1220
 2879SOL    HW120273   2.504   2.672   5.565  0.3515 -0.1408  0.0405
 2879SOL    HW220274   2.610   2.767   5.578  0.3080 -2.8949 -0.5812
 2880SOL     OW20275   2.986   2.422   1.581  0.2969  0.1181  0.0865
 2880SOL    HW120276   2.957   2.473   1.657 -0.3100  0.6387 -0.4870
 2880SOL    HW220277   2.994   2.493   1.517  1.3663 -1.3969 -1.4597
 2881SOL     OW20278   4.018   0.005   2.654 -0.2727  0.4535 -1.2714
 2881SOL    HW120279   3.966   4.688   2.597  2.7966 -3.2299 -0.3518
 2881SOL    HW220280   4.105   4.735   2.617  0.4712 -0.6958  0.7841
 2882SOL     OW20281   2.313   3.098  10.887 -0.1833  0.1895 -0.1821
 2882SOL    HW120282   2.363   3.065  10.962 -0.0275  2.7092  0.8184
 2882SOL    HW220283   2.356   3.036  10.828 -0.0299  2.1682 -2.1309
 2883SOL     OW20284   0.492   2.519   9.497  0.2177  0.7147 -0.4630
 2883SOL    HW120285   0.579   2.555   9.515  0.0638  1.7808 -1.8737
 2883SOL    HW220286   0.481   2.559   9.411  0.8719 -0.7121 -1.2091
 2884SOL     OW20287   2.294   0.782  16.505 -0.0670 -0.4188  0.4100
 2884SOL    HW120288   2.349   0.722  16.455 -1.0710 -0.5748 -0.5200
 2884SOL    HW220289   2.250   0.815  16.426  0.5449  0.0244  0.2454
 2885SOL     OW20290   4.211   3.759   9.308 -0.2566  0.2774 -0.0324
 2885SOL    HW120291   4.291   3.712   9.331 -0.3399 -0.3782 -1.0508
 2885SOL    HW220292   4.154   3.721   9.375  0.1481 -1.8668 -0.8997
 2886SOL     OW20293   2.071   0.200   7.518 -0.3921  0.3030 -0.3509
 2886SOL    HW120294   2.061   0.118   7.565 -0.2361  1.0598  0.9992
 2886SOL    HW220295   2.167   0.203   7.522 -0.3175 -0.5566 -1.4202
 2887SOL     OW20296   4.326   4.564   5.690  0.5499 -0.0945  0.0745
 2887SOL    HW120297   4.246   4.612   5.669  0.9161  0.4114 -0.1642
 2887SOL    HW220298   4.391   4.600   5.630 -1.4211  1.3925 -1.1661
 2888SOL     OW20299   4.692   4.735   2.921  0.3586  0.0486  0.0321
 2888SOL    HW120300   0.017   4.685   2.873  0.8387 -0.9551  1.7377
 2888SOL    HW220301   4.610   4.702   2.882  0.2196  1.2401 -0.6783
 2889SOL     OW20302   0.806   4.207   4.297  0.3523 -0.0814 -0.2298
 2889SOL    HW120303   0.789   4.130   4.243  0.1855 -0.3498  0.1987
 2889SOL    HW220304   0.865   4.167   4.360  1.4959  0.2585 -1.1005
 2890SOL     OW20305   2.736   3.134  10.529  1.0454 -0.0555  0.3360
 2890SOL    HW120306   2.821   3.093  10.515  1.3035  0.5752  0.0298
 2890SOL    HW220307   2.687   3.108  10.452 -0.2692  1.9701  0.4761
 2891SOL     OW20308   2.063   0.370   8.364 -0.1552  0.2421  0.2599
 2891SOL    HW120309   1.987   0.322   8.397 -1.6012  1.7663 -0.8881
 2891SOL    HW220310   2.098   0.306   8.302 -0.3150  2.6825 -2.3321
 2892SOL     OW20311   2.220   4.420   2.696 -0.2834  0.0113 -0.0701
 2892SOL    HW120312   2.294   4.364   2.719  2.2168  3.4688  0.4004
 2892SOL    HW220313   2.249   4.463   2.615 -2.9738  1.1672 -0.4295
 2893SOL     OW20314   2.552   0.628   0.761  0.1438  0.2351 -0.3124
 2893SOL    HW120315   2.468   0.645   0.718 -0.3911 -0.3864  0.4772
 2893SOL    HW220316   2.605   0.620   0.681  1.0938  1.4241  0.2047
 2894SOL     OW20317   1.478   0.008  14.084 -0.0503 -0.5343 -0.4602
 2894SOL    HW120318   1.561   0.024  14.041  0.9112 -2.6275  0.6183
 2894SOL    HW220319   1.421   0.053  14.021  1.6988 -2.1837 -3.2336
 2895SOL     OW20320   1.494   2.917   9.188  0.6938 -0.2704 -0.2187
 2895SOL    HW120321   1.588   2.901   9.182  1.0020  1.0680  0.8914
 2895SOL    HW220322   1.463   2.833   9.222  0.0224  0.6517  1.4258
 2896SOL     OW20323   0.119   1.946   6.618 -0.4603  0.4325 -0.1190
 2896SOL    HW120324   0.134   1.908   6.532 -0.4940  0.1973 -0.0232
 2896SOL    HW220325   0.191   1.912   6.672 -0.7352 -1.5810 -1.0408
 2897SOL     OW20326   1.556   0.843   0.523 -0.2062  0.0103 -0.5629
 2897SOL    HW120327   1.544   0.918   0.581 -1.8726 -1.8589  1.5232
 2897SOL    HW220328   1.627   0.880   0.469  0.1928  0.6794  0.4194
 2898SOL     OW20329   1.199   3.882  14.867  0.1741 -0.1078  0.0555
 2898SOL    HW120330   1.245   3.869  14.949  5.2160  1.0493 -2.6100
 2898SOL    HW220331   1.254   3.949  14.827 -0.8779  1.4963  1.3134
 2899SOL     OW20332   4.221   2.445   4.906 -0.2586  0.6036  0.8066
 2899SOL    HW120333   4.238   2.430   4.999 -2.5236  1.4645  1.3525
 2899SOL    HW220334   4.155   2.513   4.905 -1.0815 -0.1999 -1.4612
 2900SOL     OW20335   1.324   2.075  14.886  0.8060  0.3817 -0.3191
 2900SOL    HW120336   1.336   2.011  14.815 -0.0437  1.2927 -1.2868
 2900SOL    HW220337   1.356   2.025  14.962 -0.5164 -0.9158 -0.5877
 2901SOL     OW20338   4.547   0.503  16.983 -0.2879  0.2046 -0.5006
 2901SOL    HW120339   4.602   0.545  17.048 -1.2420  0.6128  0.0458
 2901SOL    HW220340   4.593   0.534  16.905 -0.0739  1.1387 -0.0015
 2902SOL     OW20341   3.648   3.449   7.519 -0.1363 -0.4616 -0.0237
 2902SOL    HW120342   3.706   3.446   7.595 -2.2228 -1.1408  1.5340
 2902SOL    HW220343   3.567   3.478   7.560 -0.2245  0.6754 -0.9974
 2903SOL     OW20344   2.483   1.295   5.717 -0.1875  0.6317  0.2886
 2903SOL    HW120345   2.427   1.314   5.641  0.2869  0.1224 -0.1930
 2903SOL    HW220346   2.422   1.304   5.791  0.0035  0.5351  0.4555
 2904SOL     OW20347   2.495   4.495   0.031  0.5697  0.2282 -1.0530
 2904SOL    HW120348   2.508   4.404   0.006  0.7091  0.3833 -1.5447
 2904SOL    HW220349   2.421   4.512  17.732  0.4845 -0.9886 -1.2954
 2905SOL     OW20350   3.130   3.217   2.344  0.2304  0.3431 -0.2061
 2905SOL    HW120351   3.061   3.271   2.384 -0.8269 -0.3728 -1.0497
 2905SOL    HW220352   3.147   3.164   2.422  0.2546  0.0277 -0.4258
 2906SOL     OW20353   2.568   2.168   4.331 -0.2183  0.1056  0.0819
 2906SOL    HW120354   2.568   2.073   4.316  1.2636  0.0387  0.5485
 2906SOL    HW220355   2.485   2.185   4.374 -0.0301 -1.3815  1.0229
 2907SOL     OW20356   4.518   2.156  17.477  0.2398 -0.6050 -0.2878
 2907SOL    HW120357   4.467   2.113  17.408 -1.6886 -0.0992  0.8406
 2907SOL    HW220358   4.454   2.146  17.546  0.5795  1.1487  0.2778
 2908SOL     OW20359   3.935   2.172   3.252 -0.5013 -0.2713  0.4823
 2908SOL    HW120360   3.893   2.174   3.338  1.0870 -0.2847  1.2523
 2908SOL    HW220361   3.956   2.080   3.236 -1.8711 -0.4656 -0.1787
 2909SOL     OW20362   2.318   3.446   9.546  0.6283  0.4416  0.7261
 2909SOL    HW120363   2.328   3.364   9.497  1.7200 -0.1549  1.9365
 2909SOL    HW220364   2.296   3.490   9.464 -2.5000 -2.9112 -0.2936
 2910SOL     OW20365   4.478   2.971   2.961  0.1102  0.0611  0.4836
 2910SOL    HW120366   4.495   2.881   2.933  0.1597  0.0265  0.6248
 2910SOL    HW220367   4.486   3.009   2.874 -2.0251 -3.1916 -1.1265
 2911SOL     OW20368   2.435   2.753  11.559 -0.4892  0.3448  0.5196
 2911SOL    HW120369   2.497   2.777  11.490 -1.5526  0.0553 -0.5442
 2911SOL    HW220370   2.359   2.781  11.507  0.9247  2.9892 -0.1008
 2912SOL     OW20371   3.941   3.031   8.457 -0.1193 -0.5571  0.0252
 2912SOL    HW120372   3.888   3.097   8.503 -0.4607 -2.4365  2.3156
 2912SOL    HW220373   3.888   3.011   8.380 -1.9193  0.0679  1.0872
 2913SOL     OW20374   2.651   0.557   5.718  0.2881  0.3789  0.0262
 2913SOL    HW120375   2.720   0.583   5.656  1.2049  0.8487  1.2266
 2913SOL    HW220376   2.700   0.581   5.797 -2.0881 -1.9106  2.1457
 2914SOL     OW20377   0.324   0.030   7.486 -0.2681 -0.6588  1.1189
 2914SOL    HW120378   0.277   0.007   7.565  1.3221 -0.6003  2.0858
 2914SOL    HW220379   0.262   0.010   7.416 -0.0514  1.8430  0.2163
 2915SOL     OW20380   2.358   3.675   9.703  0.3629 -0.3044  0.0513
 2915SOL    HW120381   2.324   3.650   9.617  0.0791  0.5738 -0.0934
 2915SOL    HW220382   2.397   3.592   9.730 -0.8507 -0.3726  1.5630
 2916SOL     OW20383   0.844   2.806   8.646  0.2957 -0.2339  0.2356
 2916SOL    HW120384   0.811   2.779   8.560  0.3320  0.0343  0.1378
 2916SOL    HW220385   0.937   2.811   8.624  1.2295 -0.3688  4.2304
 2917SOL     OW20386   3.864   2.853   9.016 -0.2995 -0.1722 -0.0545
 2917SOL    HW120387   3.904   2.894   8.940  1.2577  0.0363  0.8715
 2917SOL    HW220388   3.895   2.907   9.088  0.6800 -0.1860 -0.4671
 2918SOL     OW20389   1.078   0.840   5.461 -0.2450  0.2680  0.1659
 2918SOL    HW120390   1.157   0.894   5.449  1.1198 -1.3634  1.8798
 2918SOL    HW220391   1.008   0.906   5.462 -0.0681  0.4650 -0.6184
 2919SOL     OW20392   1.079   3.337   7.348 -0.2257 -0.3792 -0.1325
 2919SOL    HW120393   1.055   3.254   7.306  0.8374 -1.4863  1.4483
 2919SOL    HW220394   1.117   3.295   7.425  0.5570 -2.6552 -1.7736
 2920SOL     OW20395   3.655   3.779   1.817  0.2021  0.1016 -0.0116
 2920SOL    HW120396   3.732   3.835   1.808  0.6079 -0.3795  0.4899
 2920SOL    HW220397   3.587   3.842   1.842  0.2685 -0.3669  1.3596
 2921SOL     OW20398   4.321   3.479  13.336 -0.9787 -0.1796 -0.1069
 2921SOL    HW120399   4.235   3.473  13.294 -0.6791 -0.9338 -0.6086
 2921SOL    HW220400   4.366   3.403  13.299  0.1197 -0.3996  1.6526
 2922SOL     OW20401   0.953   3.254   2.522  0.4295  0.4706  0.0044
 2922SOL    HW120402   0.956   3.311   2.445 -2.9273  0.5378 -0.0831
 2922SOL    HW220403   0.884   3.306   2.564 -0.3448 -0.4759 -0.0753
 2923SOL     OW20404   1.321   1.751  12.709  0.3855  0.1695 -0.5451
 2923SOL    HW120405   1.357   1.804  12.780 -1.0513  1.9496 -1.1620
 2923SOL    HW220406   1.231   1.784  12.715 -0.3094 -2.0094  1.2363
 2924SOL     OW20407   2.008   1.913  12.405 -0.9092 -0.0082  0.1414
 2924SOL    HW120408   1.985   1.835  12.455  0.4080 -0.5505 -0.1002
 2924SOL    HW220409   1.974   1.884  12.321  0.4316  2.0064 -1.1032
 2925SOL     OW20410   0.025   2.403   7.670  0.2746 -0.2827 -1.0047
 2925SOL    HW120411   4.725   2.353   7.598  0.7286 -0.5649 -1.0617
 2925SOL    HW220412   0.088   2.453   7.618 -0.0102  0.6596 -0.4521
 2926SOL     OW20413   1.440   4.003   4.714  0.5126  0.3115 -0.2628
 2926SOL    HW120414   1.518   3.973   4.760 -1.1081 -0.7207  1.8099
 2926SOL    HW220415   1.465   3.967   4.629  0.8453  0.3829 -0.1953
 2927SOL     OW20416   0.901   3.463   3.340 -0.0813 -0.8099  0.9589
 2927SOL    HW120417   0.866   3.384   3.299  1.5613 -0.1974 -1.6329
 2927SOL    HW220418   0.816   3.489   3.377 -0.0048 -2.8609  2.5637
 2928SOL     OW20419   4.655   3.724  15.440 -0.3786  0.0474 -0.4683
 2928SOL    HW120420   4.621   3.635  15.444 -1.7462  0.6577  1.6518
 2928SOL    HW220421   0.001   3.711  15.479 -0.6062  1.2303  0.4530
 2929SOL     OW20422   0.749   4.306   8.357 -0.0145  0.2858  0.2993
 2929SOL    HW120423   0.790   4.357   8.287  0.5922 -0.3514  0.1931
 2929SOL    HW220424   0.662   4.344   8.353 -0.3317 -0.4058  0.5398
 2930SOL     OW20425   3.297   2.962   6.190 -0.1840 -0.3659 -0.0389
 2930SOL    HW120426   3.239   2.888   6.207  0.3628 -0.8358 -0.2174
 2930SOL    HW220427   3.247   3.013   6.126 -0.5191  0.1528  0.6413
 2931SOL     OW20428   3.551   2.509   6.211 -0.4213  0.1554  0.0656
 2931SOL    HW120429   3.618   2.549   6.267  0.9248  0.5524 -1.8381
 2931SOL    HW220430   3.590   2.513   6.124  0.7337  0.8252  0.6252
 2932SOL     OW20431   2.296   2.698  12.445  0.3154  0.1485  0.2013
 2932SOL    HW120432   2.202   2.704  12.463  0.6774 -0.8200  2.3961
 2932SOL    HW220433   2.340   2.664  12.523  1.0131 -0.1693 -0.3310
 2933SOL     OW20434   3.805   3.786   4.828 -0.0699 -0.0515  0.3197
 2933SOL    HW120435   3.757   3.739   4.896  0.3953 -0.8643  0.0828
 2933SOL    HW220436   3.830   3.863   4.879 -0.4746  0.1434  0.2270
 2934SOL     OW20437   4.598   0.466   5.930  0.1007  0.2049  0.3134
 2934SOL    HW120438   4.620   0.491   6.020  2.2107  1.9840 -0.7155
 2934SOL    HW220439   4.634   0.529   5.868  1.2323  0.1297  0.8999
 2935SOL     OW20440   0.238   4.631   4.383  0.7625 -0.3871 -1.2365
 2935SOL    HW120441   0.202   4.584   4.458  2.0393  1.7960  0.7533
 2935SOL    HW220442   0.230   4.724   4.408 -0.8531 -0.6542 -0.7515
 2936SOL     OW20443   0.855   3.349   4.529  0.2287  0.6656 -0.8135
 2936SOL    HW120444   0.948   3.361   4.509  0.6295 -0.9503  0.0328
 2936SOL    HW220445   0.828   3.440   4.537  1.5346  0.7797  2.1201
 2937SOL     OW20446   4.673   2.355   5.017  0.0549  0.2990  0.0675
 2937SOL    HW120447   4.663   2.263   5.042 -1.6824  0.7319  0.9418
 2937SOL    HW220448   4.723   2.354   4.935 -1.1054  3.4137 -0.6989
 2938SOL     OW20449   4.544   0.787   9.996 -0.3106 -0.4957  0.1304
 2938SOL    HW120450   4.575   0.876   9.981  1.1352 -0.7166  1.7704
 2938SOL    HW220451   4.542   0.789  10.092  2.4241  1.6008  0.1518
 2939SOL     OW20452   0.595   2.095  10.888  1.2626  0.1086  0.2229
 2939SOL    HW120453   0.625   2.082  10.798 -2.6459 -0.2814 -1.0497
 2939SOL    HW220454   0.670   2.070  10.942  1.4305  0.1231 -0.0039
 2940SOL     OW20455   1.532   2.844   3.881 -0.4704  0.8821  0.2338
 2940SOL    HW120456   1.487   2.838   3.796  3.2161 -2.2572 -1.4928
 2940SOL    HW220457   1.606   2.784   3.869 -0.3297  0.7935  1.5978
 2941SOL     OW20458   1.714   4.246   0.820 -0.0508  0.4669 -0.2767
 2941SOL    HW120459   1.764   4.327   0.825 -0.6498  0.8375 -0.2225
 2941SOL    HW220460   1.768   4.200   0.884 -0.8622 -3.1295 -2.1690
 2942SOL     OW20461   4.153   2.387   2.764 -0.0961  0.1891 -0.0780
 2942SOL    HW120462   4.121   2.466   2.808 -0.3084 -1.1994  2.3073
 2942SOL    HW220463   4.196   2.348   2.841  0.9634  0.0088 -0.7703
 2943SOL     OW20464   3.837   1.007   1.718 -0.1213 -0.0295 -0.8893
 2943SOL    HW120465   3.819   0.916   1.691 -1.8991  0.5490 -1.6864
 2943SOL    HW220466   3.761   1.019   1.776 -0.7012 -1.2525 -1.3896
 2944SOL     OW20467   1.365   2.460   2.714 -0.2204 -0.0272 -0.0877
 2944SOL    HW120468   1.316   2.470   2.632  1.0962  1.3397 -0.7043
 2944SOL    HW220469   1.374   2.364   2.715 -2.2920 -0.2288 -0.1270
 2945SOL     OW20470   3.941   3.016   3.598  0.0022 -0.1139  0.4553
 2945SOL    HW120471   3.847   3.008   3.611  0.0797  0.0215  1.1005
 2945SOL    HW220472   3.962   3.105   3.628  0.7256  0.4380 -1.7127
 2946SOL     OW20473   3.745   0.718   5.097 -0.3289  0.7498  0.4319
 2946SOL    HW120474   3.835   0.715   5.065 -0.4025 -1.0662  0.3891
 2946SOL    HW220475   3.736   0.808   5.130  0.5896  1.1922 -0.5268
 2947SOL     OW20476   0.772   1.859   2.788  0.7902 -0.2238 -1.0200
 2947SOL    HW120477   0.799   1.951   2.792  1.0053 -0.2152 -2.7494
 2947SOL    HW220478   0.774   1.836   2.881  0.3214  0.7050 -0.7832
 2948SOL     OW20479   3.538   3.192   2.531  0.2279  0.3224 -0.0593
 2948SOL    HW120480   3.584   3.258   2.479  1.8422 -1.5682 -1.0208
 2948SOL    HW220481   3.569   3.114   2.485 -0.3957  0.5849 -0.9250
 2949SOL     OW20482   2.275   2.911   3.272  0.1759 -0.3763 -0.0001
 2949SOL    HW120483   2.303   2.940   3.185 -1.4529 -2.1039 -1.0758
 2949SOL    HW220484   2.334   2.959   3.330  1.9801  0.8070 -2.8213
 2950SOL     OW20485   0.671   2.419   8.433 -0.5653 -0.8135  0.0070
 2950SOL    HW120486   0.682   2.424   8.338 -0.9567 -1.3605 -0.0712
 2950SOL    HW220487   0.630   2.333   8.423 -0.5753 -0.8899  0.6800
 2951SOL     OW20488   1.561   1.978  10.920 -0.1609  0.0733  0.4724
 2951SOL    HW120489   1.524   2.066  10.935 -0.6018 -0.0464  0.0775
 2951SOL    HW220490   1.559   1.941  11.008  0.4643 -2.4229 -0.5746
 2952SOL     OW20491   4.443   2.864   1.170 -0.1734 -0.0327  0.5106
 2952SOL    HW120492   4.504   2.937   1.172 -0.0254 -0.1378 -0.0757
 2952SOL    HW220493   4.477   2.808   1.240 -0.3823 -1.1813 -0.3048
 2953SOL     OW20494   2.045   1.652   3.838 -0.4593 -0.4126 -0.6299
 2953SOL    HW120495   2.089   1.567   3.839  0.9228  0.3159  1.7869
 2953SOL    HW220496   1.973   1.636   3.777 -0.2305  3.0784 -1.7675
 2954SOL     OW20497   0.874   3.204  13.675 -0.4202 -0.2527 -0.1265
 2954SOL    HW120498   0.830   3.254  13.606 -1.4125  0.1938  0.8274
 2954SOL    HW220499   0.877   3.110  13.655 -1.5477 -0.2934 -0.1052
 2955SOL     OW20500   3.536   0.554   8.415  0.2417  0.8698 -0.3131
 2955SOL    HW120501   3.608   0.501   8.451 -0.7620 -0.6005 -0.4687
 2955SOL    HW220502   3.473   0.486   8.391  1.3008 -0.6857  1.2956
 2956SOL     OW20503   2.632   2.246   3.838  0.4939 -0.1664 -0.3299
 2956SOL    HW120504   2.687   2.201   3.902  0.3584 -0.7382 -0.6202
 2956SOL    HW220505   2.617   2.169   3.784 -3.3750 -0.1617  0.7066
 2957SOL     OW20506   3.085   1.364   3.298  0.2545  0.1036  0.0920
 2957SOL    HW120507   3.113   1.413   3.220 -1.0409  1.4794  0.4954
 2957SOL    HW220508   3.085   1.436   3.361  1.5631  1.1135 -1.0553
 2958SOL     OW20509   3.668   0.217   5.286 -0.2421 -0.2970 -0.1482
 2958SOL    HW120510   3.718   0.288   5.245  0.3904 -1.1557 -0.8516
 2958SOL    HW220511   3.579   0.226   5.252 -0.3554 -0.3009  0.1408
 2959SOL     OW20512   2.768   1.466   5.373 -0.2611 -0.0240 -0.3145
 2959SOL    HW120513   2.731   1.386   5.336  0.7133 -0.3483 -0.5908
 2959SOL    HW220514   2.840   1.426   5.422 -3.2694 -4.0162  0.8591
 2960SOL     OW20515   1.504   0.301  12.332  0.6098 -0.4380 -0.2927
 2960SOL    HW120516   1.422   0.286  12.380  0.1799  1.9475 -0.2670
 2960SOL    HW220517   1.521   0.212  12.301  1.0662  0.0249 -1.3698
 2961SOL     OW20518   2.407   0.308   0.709 -0.0519 -0.1738 -0.1375
 2961SOL    HW120519   2.325   0.262   0.691  0.3909 -1.3711  0.8710
 2961SOL    HW220520   2.379   0.374   0.772  3.2563  0.9041  0.2478
 2962SOL     OW20521   1.667   3.918  15.902  0.3684 -0.7140 -0.4541
 2962SOL    HW120522   1.687   3.899  15.811  3.1842  1.8349 -0.3627
 2962SOL    HW220523   1.747   3.959  15.935 -0.7450 -0.7004  2.2970
 2963SOL     OW20524   3.752   2.864   1.434  0.0958  0.0889  0.3950
 2963SOL    HW120525   3.677   2.911   1.396 -0.8997 -1.4156  0.4723
 2963SOL    HW220526   3.827   2.893   1.383 -0.4431 -1.5375 -1.3343
 2964SOL     OW20527   2.151   0.632   4.252  0.1022 -0.4390  0.4115
 2964SOL    HW120528   2.073   0.686   4.236  0.5650 -0.2598 -1.2804
 2964SOL    HW220529   2.171   0.655   4.342  2.9742  0.8498 -0.5682
 2965SOL     OW20530   0.301   3.044  11.982 -0.5745  1.1419 -0.0847
 2965SOL    HW120531   0.295   3.097  11.903 -2.2640 -0.4631 -1.0525
 2965SOL    HW220532   0.304   2.952  11.956 -3.0092  1.0037  0.0488
 2966SOL     OW20533   3.441   0.203   4.329  0.0922 -0.0401  0.0553
 2966SOL    HW120534   3.478   0.124   4.369  0.7015 -0.1402 -0.6984
 2966SOL    HW220535   3.397   0.173   4.249 -0.8923  1.6578 -0.0403
 2967SOL     OW20536   3.955   2.702   0.240  0.5028  0.4043  0.4501
 2967SOL    HW120537   4.027   2.737   0.293 -0.5171  2.6819  0.3574
 2967SOL    HW220538   3.987   2.732   0.155 -1.2804 -0.9556 -0.7046
 2968SOL     OW20539   2.348   2.437   8.045  0.0950 -0.0995 -0.8968
 2968SOL    HW120540   2.328   2.526   8.076  0.6016 -0.9134  1.7526
 2968SOL    HW220541   2.401   2.463   7.970  1.3283 -4.0064 -1.3626
 2969SOL     OW20542   1.801   4.204  15.646 -0.6037 -0.8133  0.2998
 2969SOL    HW120543   1.709   4.183  15.634 -0.0997 -2.2607 -1.0431
 2969SOL    HW220544   1.806   4.243  15.733  0.9728  1.8617 -0.9742
 2970SOL     OW20545   1.390   3.279  11.064  0.3339 -0.6758  0.2155
 2970SOL    HW120546   1.314   3.252  11.012 -0.3730  0.5016  0.6297
 2970SOL    HW220547   1.438   3.333  11.001 -2.3183  2.5814  1.0128
 2971SOL     OW20548   0.406   2.381   1.666 -0.0502 -0.2990  0.7348
 2971SOL    HW120549   0.364   2.323   1.730 -1.0396 -0.4579 -0.0556
 2971SOL    HW220550   0.380   2.467   1.701  2.6593  0.4872  0.7882
 2972SOL     OW20551   1.754   2.438  13.772 -0.0545  0.0125 -0.1816
 2972SOL    HW120552   1.746   2.474  13.861  0.4100 -0.4230  0.0424
 2972SOL    HW220553   1.676   2.384  13.760  0.9848 -1.5278 -0.0423
 2973SOL     OW20554   3.831   3.989   3.480  0.2629 -0.1969  0.7077
 2973SOL    HW120555   3.821   4.009   3.573 -1.2857 -1.3895  0.7864
 2973SOL    HW220556   3.926   4.000   3.474  0.5990 -2.3845  1.8349
 2974SOL     OW20557   1.113   0.852   4.023 -0.6558 -0.1570  0.5615
 2974SOL    HW120558   1.075   0.870   4.109 -0.8240 -0.2288  0.5042
 2974SOL    HW220559   1.059   0.777   3.996 -2.5547  1.3753  0.0832
 2975SOL     OW20560   1.889   1.335   2.028  0.3062  0.5300  0.6033
 2975SOL    HW120561   1.812   1.392   2.020  0.3029  0.5316  0.6467
 2975SOL    HW220562   1.895   1.330   2.124 -0.2870 -0.2058  0.6018
 2976SOL     OW20563   1.487   2.785  12.809 -1.0292  0.1724 -0.1737
 2976SOL    HW120564   1.399   2.748  12.818 -0.5898 -0.5100  1.2409
 2976SOL    HW220565   1.475   2.828  12.724  0.4424 -1.3851 -1.1799
 2977SOL     OW20566   3.040   0.625   9.058 -0.0162  0.0007  0.2926
 2977SOL    HW120567   3.034   0.549   9.000 -0.2523  1.1597 -1.2044
 2977SOL    HW220568   3.053   0.698   8.997  0.9034 -1.6116 -1.4109
 2978SOL     OW20569   0.969   3.949  10.050 -0.3829 -0.1532 -0.5247
 2978SOL    HW120570   1.000   3.990  10.131  0.6016  1.0348 -1.4903
 2978SOL    HW220571   0.889   3.913  10.088  0.1653 -0.4119  0.3822
 2979SOL     OW20572   3.930   2.240   5.562  0.1492 -0.2664  0.4506
 2979SOL    HW120573   3.967   2.281   5.640  0.9278  0.7513 -0.4495
 2979SOL    HW220574   3.986   2.163   5.554 -1.0775 -1.1186  0.2259
 2980SOL     OW20575   4.582   4.701  16.411  0.6173  0.1815  0.2874
 2980SOL    HW120576   4.546   0.042  16.378  0.5798 -0.0163 -0.1567
 2980SOL    HW220577   4.531   4.682  16.490  3.3824  0.1827  2.1132
 2981SOL     OW20578   4.173   2.487   7.866  0.2910 -0.3274 -0.1170
 2981SOL    HW120579   4.136   2.551   7.806  1.4458  1.2058  0.7890
 2981SOL    HW220580   4.210   2.424   7.804 -1.4134  1.5693 -3.0403
 2982SOL     OW20581   2.245   1.629  13.883  0.5133  0.0501  0.1374
 2982SOL    HW120582   2.178   1.599  13.821 -0.6257  1.0630  0.8857
 2982SOL    HW220583   2.320   1.594  13.835 -0.7502  0.8043 -2.3892
 2983SOL     OW20584   2.541   3.159  16.513 -1.0423  0.5730 -0.3611
 2983SOL    HW120585   2.492   3.219  16.569 -0.6303  0.5001  0.0793
 2983SOL    HW220586   2.522   3.179  16.421 -0.3840  0.6187 -0.4866
 2984SOL     OW20587   2.901   3.378   7.415 -0.9789 -0.6282  0.2285
 2984SOL    HW120588   2.913   3.438   7.342  2.6295 -0.1361  1.2239
 2984SOL    HW220589   2.814   3.399   7.448 -0.6865 -0.9544  1.2269
 2985SOL     OW20590   4.498   3.640   5.684  0.5788  0.1498  0.0408
 2985SOL    HW120591   4.491   3.727   5.724 -1.6085 -0.3486  0.7344
 2985SOL    HW220592   4.592   3.623   5.683  0.1686 -2.1480  1.9303
 2986SOL     OW20593   0.332   0.136   4.440  0.2839  0.2137 -0.0210
 2986SOL    HW120594   0.307   0.191   4.365  2.8954 -0.1768 -1.1922
 2986SOL    HW220595   0.425   0.140   4.417  0.4332  2.6584  0.9516
 2987SOL     OW20596   2.864   3.918   4.430  0.3399 -0.2199 -0.0320
 2987SOL    HW120597   2.918   3.936   4.508  1.6336 -3.0322 -0.2663
 2987SOL    HW220598   2.856   3.823   4.431 -1.0982 -0.0910  2.6080
 2988SOL     OW20599   0.017   2.192  10.475  0.0346 -0.2561 -0.1597
 2988SOL    HW120600   0.007   2.177  10.381  1.0816  1.7598 -0.5892
 2988SOL    HW220601   0.080   2.264  10.473  0.3117 -0.5004 -0.2016
 2989SOL     OW20602   1.793   2.050   0.142  0.2251 -0.2927 -0.2933
 2989SOL    HW120603   1.770   2.048   0.235 -0.9005  1.5219 -0.5320
 2989SOL    HW220604   1.748   1.970   0.114 -0.9647  0.5432 -0.7537
 2990SOL     OW20605   4.439   0.457   6.596 -0.6079 -0.4668  0.1255
 2990SOL    HW120606   4.424   0.550   6.608  2.0944 -0.0071 -0.0359
 2990SOL    HW220607   4.364   0.423   6.643  0.4145 -2.8195  0.0652
 2991SOL     OW20608   4.403   3.722   5.163 -0.7746  0.0914  0.2018
 2991SOL    HW120609   4.444   3.642   5.132 -0.1105  0.3672  0.3723
 2991SOL    HW220610   4.450   3.743   5.244 -1.1993  1.1448  0.1739
 2992SOL     OW20611   0.361   3.971   7.044  0.0620 -0.0984 -0.2884
 2992SOL    HW120612   0.365   3.992   6.951 -0.7960 -1.3900 -0.6286
 2992SOL    HW220613   0.272   3.997   7.069  0.1699  1.1241 -1.1616
 2993SOL     OW20614   2.757   3.254   3.187 -0.3174 -0.0438 -0.5612
 2993SOL    HW120615   2.780   3.173   3.142  1.2835 -0.8025  1.6200
 2993SOL    HW220616   2.843   3.273   3.224 -0.4010  1.5340 -1.1588
 2994SOL     OW20617   3.552   1.123   8.744  0.3722 -0.0374  0.2489
 2994SOL    HW120618   3.562   1.216   8.766  0.9875  0.2520 -1.2175
 2994SOL    HW220619   3.606   1.085   8.813 -0.5283 -0.6970  0.5767
 2995SOL     OW20620   4.093   1.252  16.326 -0.2669 -0.4276  0.1170
 2995SOL    HW120621   4.074   1.165  16.291 -0.5765  1.0417 -3.3921
 2995SOL    HW220622   4.067   1.317  16.260  1.1388  1.9881  1.9451
 2996SOL     OW20623   0.414   3.392   1.606 -0.0224 -0.0997 -0.9022
 2996SOL    HW120624   0.392   3.435   1.523 -0.8369  1.2770  0.0338
 2996SOL    HW220625   0.324   3.365   1.620 -0.0094  1.0606  1.4741
 2997SOL     OW20626   0.720   2.499   6.896 -0.2133  0.0473 -0.5336
 2997SOL    HW120627   0.654   2.430   6.887 -1.0839  0.6079  1.5211
 2997SOL    HW220628   0.770   2.481   6.817  0.5472  1.0316 -0.2731
 2998SOL     OW20629   1.932   4.241  16.977 -0.2483  0.6193  0.2337
 2998SOL    HW120630   1.964   4.195  17.054 -0.5618  0.5883  0.3472
 2998SOL    HW220631   1.894   4.321  17.014  0.5004  0.8638  0.4765
 2999SOL     OW20632   4.546   0.438   3.745  0.1789 -0.1834  0.2123
 2999SOL    HW120633   4.614   0.391   3.697 -0.0285  0.3059 -0.5588
 2999SOL    HW220634   4.558   0.532   3.736  2.5587 -0.3953  1.3184
 3000SOL     OW20635   0.332   1.743   0.717 -0.3299  0.3801 -0.0946
 3000SOL    HW120636   0.416   1.755   0.762 -1.3132  2.4944  1.1722
 3000SOL    HW220637   0.351   1.781   0.631 -0.4850  0.3552 -0.1391
 3001SOL     OW20638   3.460   1.624   2.247  0.1818 -0.4148 -0.0901
 3001SOL    HW120639   3.436   1.588   2.333 -0.1561 -0.5086 -0.2237
 3001SOL    HW220640   3.505   1.702   2.278  0.2190 -0.0686 -1.0287
 3002SOL     OW20641   1.826   4.397   4.846  0.5914  0.2730 -0.2777
 3002SOL    HW120642   1.736   4.431   4.843  1.2846  2.1987  0.9809
 3002SOL    HW220643   1.829   4.306   4.817 -0.5551  0.6980 -1.7814
 3003SOL     OW20644   2.087   3.438  16.359 -0.0560  0.1490 -0.0396
 3003SOL    HW120645   2.069   3.357  16.311  0.9048  1.0943 -1.9617
 3003SOL    HW220646   2.169   3.462  16.317  0.2285 -0.2876  0.2603
 3004SOL     OW20647   4.139   2.547   6.346  0.0693  0.3839  0.0624
 3004SOL    HW120648   4.128   2.639   6.372 -2.1010  0.8793 -2.6097
 3004SOL    HW220649   4.219   2.550   6.294  1.0839  0.0657  1.5826
 3005SOL     OW20650   2.648   0.398   8.645  0.2522  0.2866 -0.5201
 3005SOL    HW120651   2.691   0.356   8.571  1.4121 -0.2661  0.4469
 3005SOL    HW220652   2.624   0.315   8.686 -0.1103  0.1379 -1.0451
 3006SOL     OW20653   0.228   4.730   6.595 -0.0653 -0.1677  0.2786
 3006SOL    HW120654   0.303   4.690   6.551  0.1429  0.1773  0.3247
 3006SOL    HW220655   0.244   0.079   6.565 -1.3686  0.1897  0.6177
 3007SOL     OW20656   3.157   2.610  17.583 -0.1331  0.1691 -0.6419
 3007SOL    HW120657   3.231   2.557  17.556  0.0611  1.3186 -2.3656
 3007SOL    HW220658   3.191   2.647  17.664  0.4362  2.4980 -1.9599
 3008SOL     OW20659   2.058   3.238  16.136  0.1067 -0.5423  0.1240
 3008SOL    HW120660   2.102   3.262  16.054 -2.3485  2.6083 -0.2746
 3008SOL    HW220661   1.967   3.233  16.108  0.0516 -0.5010  0.2957
 3009SOL     OW20662   3.866   1.241   5.854 -0.8631  0.3416  0.3329
 3009SOL    HW120663   3.821   1.258   5.771 -1.7535  1.1356  0.9719
 3009SOL    HW220664   3.845   1.148   5.863 -2.0157  0.3868 -1.8133
 3010SOL     OW20665   4.078   4.730   7.076 -0.3600 -0.0634 -0.0150
 3010SOL    HW120666   3.999   4.712   7.128 -0.5403 -0.4271 -0.4183
 3010SOL    HW220667   4.133   0.018   7.150 -0.0897  1.8419 -0.9399
 3011SOL     OW20668   1.107   1.179   5.679  0.2354 -0.5628 -0.3259
 3011SOL    HW120669   1.138   1.112   5.740  0.7671 -1.2819 -1.3930
 3011SOL    HW220670   1.164   1.253   5.702 -1.0921  0.1149  0.8331
 3012SOL     OW20671   1.039   3.734   1.797  0.1043  0.5720 -0.4341
 3012SOL    HW120672   0.947   3.759   1.796 -0.4692 -1.5567 -0.0578
 3012SOL    HW220673   1.067   3.725   1.888 -0.5273 -0.4776 -0.3512
 3013SOL     OW20674   0.434   2.518   5.476  0.1432  0.0806  0.5414
 3013SOL    HW120675   0.520   2.522   5.518  0.5433 -0.7711 -0.2098
 3013SOL    HW220676   0.454   2.466   5.399  1.2322  1.1671  0.0998
 3014SOL     OW20677   3.018   1.351   5.428 -0.4959 -0.1147 -0.1461
 3014SOL    HW120678   3.007   1.298   5.508 -3.3400  1.4834  0.5175
 3014SOL    HW220679   3.014   1.281   5.363  0.8134  1.2961 -1.7292
 3015SOL     OW20680   2.931   2.522   5.184 -0.1143 -0.1227  0.7399
 3015SOL    HW120681   2.869   2.595   5.194 -1.4295 -0.9943 -1.0276
 3015SOL    HW220682   2.903   2.465   5.255 -0.0536 -0.5326  0.4317
 3016SOL     OW20683   3.397   0.867   4.389 -0.4643  0.0704 -0.7983
 3016SOL    HW120684   3.321   0.809   4.382 -1.7565  1.8920 -1.7463
 3016SOL    HW220685   3.445   0.818   4.456 -3.0713 -0.9928  0.2786
 3017SOL     OW20686   1.560   4.198   3.982  0.3461  0.1813 -0.1797
 3017SOL    HW120687   1.477   4.219   3.938  0.0462 -1.3431 -0.3522
 3017SOL    HW220688   1.572   4.276   4.036 -0.5965 -0.1051  0.4387
 3018SOL     OW20689   2.417   0.869   8.318  0.0071 -0.1886  0.4995
 3018SOL    HW120690   2.347   0.915   8.366 -0.9437 -0.3146 -0.7662
 3018SOL    HW220691   2.407   0.911   8.233 -2.9164 -0.8548  0.5155
 3019SOL     OW20692   1.505   3.231  16.764 -0.7567  0.0268 -0.0667
 3019SOL    HW120693   1.519   3.260  16.674 -1.8753  1.3357  0.1672
 3019SOL    HW220694   1.549   3.301  16.813 -1.0287  1.0569 -1.3035
 3020SOL     OW20695   4.330   3.857   1.678 -0.4292 -0.1159 -0.6060
 3020SOL    HW120696   4.283   3.830   1.598 -0.4735 -1.3568 -0.1560
 3020SOL    HW220697   4.280   3.928   1.719 -0.9621 -0.4329 -0.7053
 3021SOL     OW20698   0.487   1.656   9.718 -0.2593  0.2580  0.0642
 3021SOL    HW120699   0.421   1.687   9.655 -2.2122 -0.0207  1.9744
 3021SOL    HW220700   0.424   1.635   9.787  0.0910 -1.3731 -0.1191
 3022SOL     OW20701   4.449   2.724  12.921  0.0280 -0.3947 -0.5670
 3022SOL    HW120702   4.537   2.763  12.918  0.0939 -0.6855 -2.7050
 3022SOL    HW220703   4.482   2.669  12.992 -0.8619  0.6049  0.6010
 3023SOL     OW20704   1.850   0.060   8.190  0.5655  0.3317  0.5139
 3023SOL    HW120705   1.775   0.071   8.248  0.0344 -0.1170 -0.0812
 3023SOL    HW220706   1.870   4.707   8.205  2.4757  0.2711 -2.3678
 3024SOL     OW20707   4.215   3.246   4.581 -0.1644 -0.0116 -0.4686
 3024SOL    HW120708   4.180   3.176   4.525 -1.0994  0.4951 -0.5227
 3024SOL    HW220709   4.286   3.200   4.625  0.4479  1.7428  0.3628
 3025SOL     OW20710   1.774   0.283   1.848 -0.0042  0.0231 -0.6857
 3025SOL    HW120711   1.807   0.271   1.759  1.8772  1.0937 -0.1377
 3025SOL    HW220712   1.850   0.262   1.903  0.6392 -0.6098 -1.8076
 3026SOL     OW20713   2.530   2.464   6.451 -0.1700 -0.3054 -0.2852
 3026SOL    HW120714   2.543   2.523   6.376  1.0493  1.6929  1.5316
 3026SOL    HW220715   2.434   2.467   6.455 -0.0283  1.9582  1.5586
 3027SOL     OW20716   3.780   0.865   2.784 -0.3391 -0.0659 -0.1307
 3027SOL    HW120717   3.810   0.774   2.781  0.3789  0.1430  0.7772
 3027SOL    HW220718   3.695   0.855   2.740  1.0105 -2.0426 -2.3150
 3028SOL     OW20719   3.768   1.317  14.495 -0.3210 -0.1830 -0.3961
 3028SOL    HW120720   3.778   1.331  14.589 -2.9576 -1.9983  0.1501
 3028SOL    HW220721   3.843   1.262  14.472 -0.2248 -0.8713  1.5830
 3029SOL     OW20722   0.513   3.136   4.132 -0.8163  0.0132 -0.2212
 3029SOL    HW120723   0.562   3.193   4.191  1.4955  0.0644 -2.2001
 3029SOL    HW220724   0.468   3.089   4.202 -1.6156 -0.8146 -1.2781
 3030SOL     OW20725   2.395   0.682  15.158 -0.5505  0.2403 -0.3757
 3030SOL    HW120726   2.393   0.744  15.085  0.5794  1.4467  0.6087
 3030SOL    HW220727   2.480   0.639  15.147  0.3060  1.6375  0.7824
 3031SOL     OW20728   0.125   2.786   6.468 -0.0613  0.3692 -0.0713
 3031SOL    HW120729   0.183   2.783   6.392 -0.5575  0.0118 -0.4360
 3031SOL    HW220730   0.040   2.780   6.425 -0.3130 -0.7974  0.5806
 3032SOL     OW20731   0.844   4.650   6.311  1.0336  0.3092  0.5059
 3032SOL    HW120732   0.772   4.628   6.252  0.9600 -0.2345  0.7978
 3032SOL    HW220733   0.819   4.732   6.353 -1.2862  0.0254 -0.2980
 3033SOL     OW20734   1.233   1.578   6.313 -0.1852 -0.1163 -0.3266
 3033SOL    HW120735   1.225   1.539   6.225  1.5102 -1.5999  0.1754
 3033SOL    HW220736   1.322   1.611   6.303 -0.8238  1.2087 -1.5625
 3034SOL     OW20737   2.728   2.441   3.327 -0.7311 -0.1510  0.0800
 3034SOL    HW120738   2.645   2.431   3.372  0.6387 -1.4967  2.2723
 3034SOL    HW220739   2.781   2.423   3.405 -0.7984 -1.3795 -0.1663
 3035SOL     OW20740   4.636   1.783   2.693  0.1432 -0.2433  0.4953
 3035SOL    HW120741   4.591   1.760   2.612  1.5953 -2.8220  0.4045
 3035SOL    HW220742   4.671   1.699   2.724 -0.9971 -1.6983 -2.1258
 3036SOL     OW20743   0.215   1.178   4.814  0.4393 -0.1446 -0.0857
 3036SOL    HW120744   0.166   1.097   4.828  0.2599 -0.2673 -1.4963
 3036SOL    HW220745   0.164   1.226   4.750 -0.1455  0.9527  1.1962
 3037SOL     OW20746   2.519   1.751   9.017 -0.1877 -0.1591  0.4442
 3037SOL    HW120747   2.464   1.683   8.979 -3.7237  1.8566  1.9148
 3037SOL    HW220748   2.472   1.827   8.983  0.5954  0.7818  1.4675
 3038SOL     OW20749   4.349   4.133   0.033 -0.1402  0.2484  0.0273
 3038SOL    HW120750   4.254   4.141   0.021  0.0853 -0.0152 -1.9715
 3038SOL    HW220751   4.380   4.175  17.711 -1.3101 -0.5685 -0.8439
 3039SOL     OW20752   0.245   1.240   8.570 -0.0348 -0.7255 -0.0193
 3039SOL    HW120753   0.271   1.232   8.478  4.3696  0.1483  1.1421
 3039SOL    HW220754   0.308   1.192   8.624 -1.0183 -0.0655  1.7156
 3040SOL     OW20755   2.751   2.920  14.581 -0.1551  0.4145 -0.0957
 3040SOL    HW120756   2.716   3.009  14.580  0.6261  0.7089 -0.6774
 3040SOL    HW220757   2.821   2.921  14.517 -0.6936  0.8333 -0.6711
 3041SOL     OW20758   2.401   2.188   4.801  0.0260 -0.1377  0.0871
 3041SOL    HW120759   2.475   2.140   4.838 -1.4209 -3.8932 -1.9328
 3041SOL    HW220760   2.350   2.112   4.775 -1.3685 -0.3420  3.4330
 3042SOL     OW20761   4.536   3.594   1.995  0.8736  0.2074  0.0993
 3042SOL    HW120762   4.541   3.515   1.940 -2.4558 -0.9372  1.4428
 3042SOL    HW220763   4.603   3.652   1.959  0.7518 -0.2527 -0.8603
 3043SOL     OW20764   3.528   1.387   5.354  0.3408  0.5623  0.0299
 3043SOL    HW120765   3.573   1.303   5.343  0.8295  0.9541 -1.0106
 3043SOL    HW220766   3.438   1.363   5.333  0.0350 -0.2625  2.3479
 3044SOL     OW20767   4.190   1.933   3.079  0.0672 -0.3347 -0.0345
 3044SOL    HW120768   4.170   1.961   3.168 -1.4739  2.3077 -1.2119
 3044SOL    HW220769   4.131   1.859   3.064 -1.0458  0.6353 -0.4320
 3045SOL     OW20770   4.162   3.334   3.012  0.7426 -0.6035 -0.5474
 3045SOL    HW120771   4.135   3.419   3.047 -2.6835 -2.2535  0.9287
 3045SOL    HW220772   4.080   3.311   2.967  0.4669 -2.5453  0.9094
 3046SOL     OW20773   0.497   0.818   2.911 -0.6470 -0.1521  0.0261
 3046SOL    HW120774   0.550   0.896   2.897 -1.8536  0.7876  0.6896
 3046SOL    HW220775   0.497   0.816   3.007  0.5431 -0.5810  0.0133
 3047SOL     OW20776   4.039   1.739  16.350 -0.2818 -0.2283 -0.2315
 3047SOL    HW120777   4.000   1.749  16.437 -2.1313 -0.6134 -1.0131
 3047SOL    HW220778   3.971   1.716  16.286  0.0907 -2.3560  0.1173
 3048SOL     OW20779   2.709   0.463  17.557 -0.2069 -0.5039  0.2799
 3048SOL    HW120780   2.735   0.381  17.514 -1.3008 -0.5436 -0.2918
 3048SOL    HW220781   2.683   0.433  17.644 -0.6553  0.5148  0.4855
 3049SOL     OW20782   0.025   0.642   6.491 -0.3204 -0.1261  0.1535
 3049SOL    HW120783   4.738   0.637   6.583 -0.3113  0.2800  0.1783
 3049SOL    HW220784   0.112   0.602   6.492 -1.2283 -2.1371 -3.3657
 3050SOL     OW20785   0.259   2.219   1.854  0.2119 -0.2051  0.9104
 3050SOL    HW120786   0.250   2.298   1.907  0.2903  0.4081  0.0172
 3050SOL    HW220787   0.175   2.177   1.871  0.3684 -0.3140  1.3992
 3051SOL     OW20788   1.208   3.884   3.652 -0.0562 -0.2584 -0.3825
 3051SOL    HW120789   1.196   3.940   3.729  1.6294  0.4008 -0.5978
 3051SOL    HW220790   1.131   3.899   3.596 -1.1132  0.5719  1.2970
 3052SOL     OW20791   2.123   4.493   1.006  0.4468  0.5601  0.3049
 3052SOL    HW120792   2.182   4.537   0.945  1.6586 -4.6276 -2.3203
 3052SOL    HW220793   2.169   4.524   1.084 -0.5996  1.9947  0.3404
 3053SOL     OW20794   3.197   1.800  12.066  0.4123 -0.1279  0.4309
 3053SOL    HW120795   3.156   1.877  12.025 -0.6121 -1.3117 -0.7894
 3053SOL    HW220796   3.157   1.782  12.151  0.2850 -2.1323 -0.0581
 3054SOL     OW20797   3.981   4.119   4.821 -0.4971 -0.0545  0.1230
 3054SOL    HW120798   3.969   4.076   4.905  1.2534  0.7744  0.7975
 3054SOL    HW220799   4.007   4.045   4.766  1.0752  0.7687 -0.2592
 3055SOL     OW20800   4.133   1.138   8.616 -0.0751 -0.2764 -0.3870
 3055SOL    HW120801   4.165   1.218   8.574 -1.2313  0.3560 -0.0606
 3055SOL    HW220802   4.039   1.142   8.594 -0.4917 -4.7101  0.5999
 3056SOL     OW20803   1.067   4.179   7.766  0.6203  0.7857 -0.9544
 3056SOL    HW120804   1.110   4.118   7.826 -0.0690  1.2362  0.0045
 3056SOL    HW220805   1.115   4.153   7.688  0.8469  1.0836 -0.9131
 3057SOL     OW20806   4.593   3.415   8.604 -0.1892  0.3304 -0.1773
 3057SOL    HW120807   4.573   3.332   8.647  1.1382  0.3457  0.4808
 3057SOL    HW220808   4.577   3.484   8.669 -0.8423  1.8675 -1.9634
 3058SOL     OW20809   1.668   2.155   3.137 -0.6321 -0.3294 -0.1408
 3058SOL    HW120810   1.695   2.234   3.089 -0.8510 -2.4681 -3.7541
 3058SOL    HW220811   1.751   2.108   3.140 -0.2565  0.1716 -2.7737
 3059SOL     OW20812   2.451   0.393   2.556  0.3507 -0.4001  0.0373
 3059SOL    HW120813   2.531   0.397   2.608  0.2619 -0.2389  0.1613
 3059SOL    HW220814   2.438   0.299   2.563  0.9534 -0.3631  1.6968
 3060SOL     OW20815   2.924   3.984   3.376  0.6051  0.5129  0.0600
 3060SOL    HW120816   2.911   4.060   3.320 -1.4430  0.3607  0.3564
 3060SOL    HW220817   3.019   3.971   3.381  0.7727  0.6671 -2.9335
 3061SOL     OW20818   2.758   3.608   2.468 -0.2957  0.0287  0.0222
 3061SOL    HW120819   2.686   3.617   2.530 -0.8454  0.5602 -0.6903
 3061SOL    HW220820   2.753   3.695   2.429  0.9374 -0.2934 -0.8623
 3062SOL     OW20821   2.987   1.604   0.117  0.3646  0.0946 -0.3400
 3062SOL    HW120822   3.064   1.644   0.160 -1.1363  0.0542  2.4065
 3062SOL    HW220823   3.017   1.514   0.110 -0.1142 -0.2655  2.0781
 3063SOL     OW20824   2.489   2.455   3.519 -0.5510 -0.0799 -0.4106
 3063SOL    HW120825   2.423   2.517   3.551  0.0853  1.3297 -1.8112
 3063SOL    HW220826   2.436   2.387   3.478 -0.7642  0.1419 -0.5091
 3064SOL     OW20827   0.323   0.820   8.095  0.0310  0.6333 -0.0244
 3064SOL    HW120828   0.408   0.819   8.050 -0.0102 -0.8885 -0.0832
 3064SOL    HW220829   0.305   0.726   8.088 -0.8080  0.7721  0.3014
 3065SOL     OW20830   1.126   0.142   8.308 -0.2870 -0.3000  0.6072
 3065SOL    HW120831   1.116   0.170   8.399  0.7774  1.9936  0.0261
 3065SOL    HW220832   1.039   0.165   8.276 -0.5371 -0.7183  0.9837
 3066SOL     OW20833   1.972   3.886   3.490  0.4738 -0.1841 -0.7339
 3066SOL    HW120834   1.976   3.858   3.399 -2.2199  0.1669 -0.9684
 3066SOL    HW220835   1.880   3.913   3.483  0.0440 -1.5159 -0.1493
 3067SOL     OW20836   0.910   4.685   5.812  0.3031 -0.1451 -0.1783
 3067SOL    HW120837   0.926   0.007   5.741 -0.1683  0.8322  0.5731
 3067SOL    HW220838   0.977   4.616   5.806  1.2209  0.8319 -1.3256
 3068SOL     OW20839   3.467   0.648   5.114 -0.0489  0.2488 -0.5971
 3068SOL    HW120840   3.433   0.737   5.110  0.0094  0.3020  0.1364
 3068SOL    HW220841   3.559   0.662   5.094  0.2725 -0.9467  0.0686
 3069SOL     OW20842   0.284   4.308   4.388  0.1376  0.1832  0.2049
 3069SOL    HW120843   0.309   4.291   4.479 -0.4736  0.9804  0.5172
 3069SOL    HW220844   0.362   4.280   4.340  0.6494  0.9791  0.5674
 3070SOL     OW20845   0.174   3.213   6.870  0.0547  0.4811  0.6679
 3070SOL    HW120846   0.110   3.229   6.801 -0.2956 -1.6949  0.4823
 3070SOL    HW220847   0.241   3.279   6.856 -2.4960  2.8499 -0.5037
 3071SOL     OW20848   0.314   0.203  14.609  0.0945  0.4744 -0.3603
 3071SOL    HW120849   0.369   0.196  14.688 -1.8916 -0.0351  0.9759
 3071SOL    HW220850   0.344   0.127  14.560 -0.3792  0.7075 -1.0011
 3072SOL     OW20851   4.137   2.780   7.856 -0.5423 -0.0200  0.0065
 3072SOL    HW120852   4.229   2.801   7.870 -0.2988 -0.0767 -1.4517
 3072SOL    HW220853   4.114   2.832   7.779 -0.6691 -3.1219 -2.0596
 3073SOL     OW20854   4.510   0.799   4.537  0.1827  0.0716  0.0451
 3073SOL    HW120855   4.505   0.777   4.630 -0.5749 -0.9136 -0.2340
 3073SOL    HW220856   4.552   0.885   4.544  2.4924 -1.0483 -0.1135
 3074SOL     OW20857   0.185   1.696   2.487 -0.2118 -0.0142 -0.2212
 3074SOL    HW120858   0.256   1.752   2.516  0.7076 -0.3335 -1.8957
 3074SOL    HW220859   0.186   1.726   2.396  0.7022 -3.1089 -1.2149
 3075SOL     OW20860   0.845   2.018  11.020 -0.5192 -0.9594 -0.0893
 3075SOL    HW120861   0.866   2.009  11.113 -0.8595 -0.2380  0.0628
 3075SOL    HW220862   0.817   1.930  10.998 -0.3052 -1.3094  1.0547
 3076SOL     OW20863   1.695   0.351   8.096 -0.5700 -0.3718  0.6896
 3076SOL    HW120864   1.644   0.286   8.047  0.6371 -0.5724 -0.3230
 3076SOL    HW220865   1.657   0.345   8.183 -1.2502  0.6829  0.4755
 3077SOL     OW20866   4.187   1.999  15.194  0.3960 -0.0358 -0.1347
 3077SOL    HW120867   4.216   2.066  15.256  1.6624 -0.2509 -0.4954
 3077SOL    HW220868   4.266   1.944  15.197  0.2615 -0.2964 -1.2836
 3078SOL     OW20869   3.228   4.044   4.886  0.0269 -0.2368  0.0004
 3078SOL    HW120870   3.297   4.005   4.939 -1.0157 -0.6201  1.0722
 3078SOL    HW220871   3.224   4.131   4.927  0.9174 -0.3002  0.2230
 3079SOL     OW20872   3.817   1.731  11.924 -0.0987 -0.5618 -0.8886
 3079SOL    HW120873   3.750   1.714  11.990  2.1461 -2.6222  0.8804
 3079SOL    HW220874   3.894   1.678  11.946  0.8842  0.6340 -1.4831
 3080SOL     OW20875   1.739   1.372   8.434  0.1409  0.1402  0.7764
 3080SOL    HW120876   1.815   1.336   8.480 -0.0183 -0.5890  0.4622
 3080SOL    HW220877   1.669   1.357   8.498 -1.0441  0.7451 -0.3712
 3081SOL     OW20878   3.747   1.062   8.947  0.1221 -0.5586 -0.1599
 3081SOL    HW120879   3.801   1.141   8.949 -1.3721  0.4684 -0.9666
 3081SOL    HW220880   3.789   1.003   8.884  0.2343 -1.5757  0.8653
 3082SOL     OW20881   3.724   1.222  13.625  0.1225 -0.5214  0.2687
 3082SOL    HW120882   3.677   1.161  13.568 -1.1505  1.1879 -0.4842
 3082SOL    HW220883   3.721   1.168  13.704 -0.2885 -0.5466  0.2364
 3083SOL     OW20884   3.542   2.915  17.581 -0.0361 -0.5876  0.0956
 3083SOL    HW120885   3.477   2.978  17.549  1.4578  0.1550 -1.4578
 3083SOL    HW220886   3.613   2.915  17.516  0.4166 -2.0696  0.5859
 3084SOL     OW20887   0.160   4.492   6.071 -0.3404  0.4556 -0.3978
 3084SOL    HW120888   0.132   4.434   6.001  0.2418 -0.6375  0.2860
 3084SOL    HW220889   0.093   4.560   6.080 -1.1105 -0.5367  1.2383
 3085SOL     OW20890   1.244   1.639   1.948 -0.4862  0.4518  0.1396
 3085SOL    HW120891   1.202   1.667   1.866  4.2752  0.0216 -2.4205
 3085SOL    HW220892   1.336   1.655   1.930 -0.7992  0.5169 -1.4293
 3086SOL     OW20893   1.254   3.386  10.579 -0.1088  0.5427 -0.5208
 3086SOL    HW120894   1.317   3.422  10.641 -1.6778 -0.3244  1.5718
 3086SOL    HW220895   1.182   3.448  10.592 -1.0714 -0.3780 -1.4264
 3087SOL     OW20896   1.593   1.938   9.308  0.2248  0.0596 -0.7635
 3087SOL    HW120897   1.575   1.845   9.296 -2.0594  0.3110  0.8803
 3087SOL    HW220898   1.511   1.972   9.344  1.5982  2.1409  0.3909
 3088SOL     OW20899   1.632   0.439   7.743 -0.1331 -0.3448 -0.2913
 3088SOL    HW120900   1.536   0.442   7.739 -0.2615  0.6589  3.6554
 3088SOL    HW220901   1.643   0.352   7.705 -0.4996 -0.3039 -0.4904
 3089SOL     OW20902   1.142   4.199   2.496  0.0622 -0.1471 -0.0902
 3089SOL    HW120903   1.167   4.285   2.462 -0.6780  0.5887  1.2215
 3089SOL    HW220904   1.213   4.142   2.466  0.0713  0.6825 -1.6673
 3090SOL     OW20905   1.545   3.868   7.609  0.2985  0.3778  0.0975
 3090SOL    HW120906   1.629   3.841   7.573 -0.6431  1.2092 -2.6953
 3090SOL    HW220907   1.561   3.866   7.703 -2.7102 -2.7205  0.5507
 3091SOL     OW20908   1.977   3.383   4.634  0.4779  0.0259  0.2419
 3091SOL    HW120909   1.980   3.341   4.720  1.4344 -1.5826 -0.5640
 3091SOL    HW220910   1.899   3.340   4.599 -0.7565  0.5103  2.4946
 3092SOL     OW20911   2.670   2.509  15.638  0.3282 -0.0755 -0.3890
 3092SOL    HW120912   2.590   2.481  15.593  0.6656 -1.6006 -0.0256
 3092SOL    HW220913   2.721   2.551  15.569 -0.5386  0.5016 -0.6845
 3093SOL     OW20914   0.199   3.653   2.447  0.5932 -0.2453  0.4675
 3093SOL    HW120915   0.157   3.594   2.385  1.6355 -0.5395  0.0453
 3093SOL    HW220916   0.135   3.724   2.438  1.6175  0.5860 -0.2882
 3094SOL     OW20917   3.583   2.517   7.381  0.1413 -0.8631  0.1838
 3094SOL    HW120918   3.659   2.516   7.323 -1.3377 -0.2691 -1.7708
 3094SOL    HW220919   3.583   2.425   7.408 -0.2821  0.1121  3.5539
 3095SOL     OW20920   1.357   0.635   2.003 -0.1221 -0.2196 -0.5951
 3095SOL    HW120921   1.402   0.713   2.034 -0.5211 -1.2209  2.4543
 3095SOL    HW220922   1.332   0.663   1.914  1.7299 -1.3520 -1.4636
 3096SOL     OW20923   4.088   2.674   5.527  0.3526  0.6580 -0.4687
 3096SOL    HW120924   4.005   2.697   5.569  0.6496  0.9500 -0.0446
 3096SOL    HW220925   4.060   2.638   5.443 -1.0701  1.9906 -0.5755
 3097SOL     OW20926   3.142   4.040   9.061  0.0231 -0.0221  0.6521
 3097SOL    HW120927   3.219   4.025   9.116  0.6345 -1.7925 -0.6741
 3097SOL    HW220928   3.166   3.977   8.993  1.9139  0.9757  0.4045
 3098SOL     OW20929   1.443   1.985   7.608  0.2684 -0.4097 -0.0610
 3098SOL    HW120930   1.377   2.049   7.636 -1.0415 -0.6256 -2.6698
 3098SOL    HW220931   1.516   2.004   7.668  0.7065 -2.8590  0.1622
 3099SOL     OW20932   1.937   2.587   8.549  0.1229  0.3776 -0.1444
 3099SOL    HW120933   2.015   2.642   8.554  1.0646 -0.7450 -2.4069
 3099SOL    HW220934   1.960   2.518   8.612  0.8208 -0.6634 -1.5378
 3100SOL     OW20935   2.753   3.354   8.193  0.8525 -0.0888 -0.7503
 3100SOL    HW120936   2.687   3.347   8.125  2.4523  1.5567 -2.4740
 3100SOL    HW220937   2.840   3.362   8.154  1.4996 -0.8506  0.5250
 3101SOL     OW20938   2.402   3.420   9.003  0.1546  0.2744 -0.4918
 3101SOL    HW120939   2.325   3.365   9.017  0.5241 -1.2800 -4.5116
 3101SOL    HW220940   2.392   3.483   9.074  1.4026  1.5011 -1.4195
 3102SOL     OW20941   2.079   0.327   1.913  0.2665 -0.5073 -0.1809
 3102SOL    HW120942   2.131   0.344   1.992  4.0709 -1.0544 -2.5460
 3102SOL    HW220943   2.028   0.408   1.907  0.9232 -0.1763 -1.2701
 3103SOL     OW20944   1.120   3.099   6.330  0.1392 -0.7521 -0.3854
 3103SOL    HW120945   1.120   3.041   6.406  0.1473  0.3016  0.4199
 3103SOL    HW220946   1.036   3.088   6.287 -0.1170  0.3549 -0.1767
 3104SOL     OW20947   0.172   2.710   4.741  0.0637 -0.0568 -0.4817
 3104SOL    HW120948   0.084   2.746   4.753 -0.0677 -0.7654  0.6950
 3104SOL    HW220949   0.189   2.698   4.834 -0.9015  1.3881 -0.1196
 3105SOL     OW20950   3.710   4.366   8.059 -0.2195  0.0164  0.2977
 3105SOL    HW120951   3.760   4.439   8.096 -1.8132  0.4111  1.6940
 3105SOL    HW220952   3.621   4.379   8.092 -0.6603 -2.0445 -0.0888
 3106SOL     OW20953   3.640   3.831  16.784 -0.0536  0.3416  0.0942
 3106SOL    HW120954   3.671   3.755  16.734 -0.1074  0.4948 -0.1709
 3106SOL    HW220955   3.701   3.840  16.857 -0.8148 -1.7935  0.9812
 3107SOL     OW20956   1.802   3.032  16.435  0.0670 -0.4351 -0.3031
 3107SOL    HW120957   1.838   2.983  16.509 -0.5185 -1.0444 -0.4196
 3107SOL    HW220958   1.884   3.045  16.387  1.2859 -0.7856  1.7004
 3108SOL     OW20959   4.500   0.153  11.510  0.1737 -0.1551 -0.4281
 3108SOL    HW120960   4.525   0.184  11.423  1.1882 -2.1281 -0.8637
 3108SOL    HW220961   4.495   0.059  11.490 -3.1734 -0.3112  1.2544
 3109SOL     OW20962   0.826   0.867   9.043  0.0221 -0.0411 -0.3728
 3109SOL    HW120963   0.876   0.915   9.109  0.9655  0.6310 -1.5943
 3109SOL    HW220964   0.809   0.936   8.980 -0.0188  1.7989  1.6715
 3110SOL     OW20965   3.253   1.356  17.074 -1.0092 -0.4615 -0.1511
 3110SOL    HW120966   3.183   1.370  17.137 -0.1647 -1.1278  0.9336
 3110SOL    HW220967   3.217   1.415  17.008 -0.2377  0.4711  0.2623
 3111SOL     OW20968   4.007   4.518   8.010 -0.1739  0.6076  0.2108
 3111SOL    HW120969   4.098   4.504   8.039 -0.3546 -0.4804  0.2384
 3111SOL    HW220970   3.987   4.601   8.054 -0.6305  0.5866  0.0360
 3112SOL     OW20971   3.455   3.427   4.507 -0.5173 -0.1510  0.2164
 3112SOL    HW120972   3.426   3.336   4.515 -1.0369  0.0969  1.2389
 3112SOL    HW220973   3.550   3.417   4.500 -0.4486  0.8611 -0.3664
 3113SOL     OW20974   2.947   2.820   7.404  0.4024 -0.3116  0.1111
 3113SOL    HW120975   2.885   2.839   7.334 -1.2339  1.2461  1.9668
 3113SOL    HW220976   2.928   2.895   7.460  4.1345  0.6300  0.0996
 3114SOL     OW20977   4.737   2.796  10.669  0.7759 -0.2124 -0.1537
 3114SOL    HW120978   0.074   2.741  10.657 -0.0677 -1.3429 -0.4286
 3114SOL    HW220979   4.679   2.738  10.619  0.4319 -1.7841  2.1016
 3115SOL     OW20980   0.867   3.333   7.967 -0.9114 -0.9699  0.3967
 3115SOL    HW120981   0.895   3.334   7.875 -1.1063 -1.5369  0.3326
 3115SOL    HW220982   0.923   3.398   8.008 -0.1502 -2.2623  1.4123
 3116SOL     OW20983   1.895   0.027  10.634 -0.3751  0.5057  0.3639
 3116SOL    HW120984   1.975   4.721  10.658 -0.5057 -1.0481 -2.1555
 3116SOL    HW220985   1.886   0.072  10.718  1.7781  0.1416  0.7956
 3117SOL     OW20986   4.662   1.966  10.059 -0.2800 -0.0289  0.0863
 3117SOL    HW120987   4.730   1.968   9.992  0.3944  0.1574  0.7785
 3117SOL    HW220988   4.598   1.924  10.001  0.5196 -0.9028 -0.1565
 3118SOL     OW20989   2.148   0.841  14.721  0.3380 -0.3622  0.1079
 3118SOL    HW120990   2.123   0.931  14.697  0.1079 -0.2558  0.7503
 3118SOL    HW220991   2.177   0.848  14.812 -2.1520 -1.8366  1.0190
 3119SOL     OW20992   4.535   1.598   7.461 -0.3071 -0.1010 -0.0716
 3119SOL    HW120993   4.567   1.669   7.518  0.3022 -1.8009  1.6873
 3119SOL    HW220994   4.486   1.550   7.528 -1.6438  2.3434  0.7224
 3120SOL     OW20995   1.684   1.750   7.236 -0.0306 -0.1945  0.7668
 3120SOL    HW120996   1.777   1.761   7.259 -0.3756 -2.4281  3.3407
 3120SOL    HW220997   1.656   1.780   7.322 -2.1127  0.6252 -0.2015
 3121SOL     OW20998   3.421   4.313   5.256 -0.0507  0.1594  0.0032
 3121SOL    HW120999   3.371   4.305   5.338 -1.5959 -0.1233 -0.9718
 3121SOL    HW221000   3.450   4.224   5.239  0.1513 -0.0037  1.1637
 3122SOL     OW21001   1.023   1.578   6.481 -0.2714  0.2117  0.1964
 3122SOL    HW121002   0.955   1.609   6.421  0.3177 -1.2813 -1.2403
 3122SOL    HW221003   1.106   1.586   6.434  0.2480 -1.2872  0.8559
 3123SOL     OW21004   0.728   0.701   7.146  0.0273 -0.0956 -0.0864
 3123SOL    HW121005   0.635   0.683   7.133  0.7255 -1.3500 -3.3219
 3123SOL    HW221006   0.750   0.644   7.220 -1.5550 -0.8441 -0.1964
 3124SOL     OW21007   0.066   1.896   4.047 -0.5571  0.9129  0.2286
 3124SOL    HW121008   0.059   1.988   4.073 -1.9914  1.1279 -0.9190
 3124SOL    HW221009   4.717   1.868   4.070  0.6333 -1.2227  2.1862
 3125SOL     OW21010   3.062   2.874   4.313  0.3159  0.4642 -0.3058
 3125SOL    HW121011   3.121   2.949   4.303 -0.0641  0.8911  0.5472
 3125SOL    HW221012   2.973   2.908   4.321 -0.1050 -0.7671  0.2443
 3126SOL     OW21013   4.447   3.746   6.073  0.6874 -0.0268  0.5428
 3126SOL    HW121014   4.513   3.815   6.086  2.0439 -1.5218  1.5622
 3126SOL    HW221015   4.377   3.801   6.038 -0.8545 -2.0546  0.4790
 3127SOL     OW21016   2.234   1.546   8.701  0.2005 -0.3950 -1.2116
 3127SOL    HW121017   2.257   1.513   8.789 -2.6677  0.0683 -0.2805
 3127SOL    HW221018   2.297   1.617   8.693  0.7969 -1.0900 -2.6215
 3128SOL     OW21019   0.940   0.186   5.627  0.2055  0.4122  0.5367
 3128SOL    HW121020   0.849   0.216   5.620  0.4881  1.0574 -0.4463
 3128SOL    HW221021   0.980   0.256   5.574 -0.1074  0.0323 -0.2062
 3129SOL     OW21022   4.295   0.170   6.377  0.0589 -0.2156 -0.1472
 3129SOL    HW121023   4.235   0.133   6.312 -0.4142 -1.2546  0.8700
 3129SOL    HW221024   4.370   0.194   6.323 -0.0754 -2.0409 -1.1598
 3130SOL     OW21025   3.148   1.316   7.920 -0.6666 -0.0473 -0.2225
 3130SOL    HW121026   3.139   1.227   7.886 -1.0923 -0.3368  0.6368
 3130SOL    HW221027   3.201   1.361   7.854 -0.9076  1.4047  0.5632
 3131SOL     OW21028   0.196   3.611  15.284 -0.2353  0.1884 -0.6065
 3131SOL    HW121029   0.187   3.620  15.379 -1.7160  1.9624 -0.9169
 3131SOL    HW221030   0.283   3.570  15.282 -0.9019 -1.3711  1.8451
 3132SOL     OW21031   4.122   0.859   3.346 -0.3278 -0.2899  0.6591
 3132SOL    HW121032   4.181   0.908   3.289 -1.9896  0.7660 -0.1451
 3132SOL    HW221033   4.176   0.796   3.395 -1.1782 -0.6641  1.1101
 3133SOL     OW21034   1.744   3.878   6.781  0.2249 -0.3680 -0.7228
 3133SOL    HW121035   1.743   3.962   6.826  0.1410 -0.5697 -0.3454
 3133SOL    HW221036   1.652   3.854   6.770 -0.4392  1.1414  1.7699
 3134SOL     OW21037   4.419   1.599   1.577 -0.0404  0.0294  0.0862
 3134SOL    HW121038   4.509   1.596   1.610 -0.4290  0.2207  1.1763
 3134SOL    HW221039   4.376   1.596   1.663 -0.9864  0.2101 -0.3795
 3135SOL     OW21040   2.830   2.095   2.405  0.0483 -1.1261 -0.2322
 3135SOL    HW121041   2.891   2.080   2.332 -1.7266 -0.9251 -1.7477
 3135SOL    HW221042   2.774   2.161   2.364  2.0796  1.1070  0.5890
 3136SOL     OW21043   1.892   4.468   0.781  0.6447  0.1488 -0.6221
 3136SOL    HW121044   1.859   4.555   0.803  3.0944  1.3719 -1.8160
 3136SOL    HW221045   1.970   4.472   0.836  0.0467 -2.8458  0.4289
 3137SOL     OW21046   4.475   2.123   9.117 -0.1327  0.2367  0.6074
 3137SOL    HW121047   4.517   2.037   9.121  2.5043  1.6104  2.2275
 3137SOL    HW221048   4.539   2.171   9.170  0.4532 -0.7606  0.8143
 3138SOL     OW21049   4.621   0.280  14.710 -0.0648 -0.0902 -0.5449
 3138SOL    HW121050   4.687   0.295  14.642  0.2706  0.9018  0.0044
 3138SOL    HW221051   4.671   0.318  14.782  0.7425 -1.4590 -0.3822
 3139SOL     OW21052   1.259   4.217  13.769  0.2019 -0.5981  0.2148
 3139SOL    HW121053   1.268   4.193  13.862  0.1109  0.0245  0.3841
 3139SOL    HW221054   1.163   4.218  13.767  0.1869 -0.8637  0.6885
 3140SOL     OW21055   4.490   2.100  15.504 -0.2820 -0.6526 -0.0255
 3140SOL    HW121056   4.548   2.033  15.540  0.7871 -0.1141 -0.7371
 3140SOL    HW221057   4.548   2.154  15.450 -0.1990  1.3781  2.1449
 3141SOL     OW21058   3.924   4.127   0.560 -0.3068  0.0512 -0.4671
 3141SOL    HW121059   3.933   4.213   0.602  0.0809 -0.7365  1.0664
 3141SOL    HW221060   4.001   4.076   0.584 -0.0033  0.8030  0.1649
 3142SOL     OW21061   4.502   3.954  17.218  0.4772  0.0989 -0.0533
 3142SOL    HW121062   4.439   3.900  17.171 -2.1205 -0.1685  3.6903
 3142SOL    HW221063   4.541   3.893  17.280 -2.6362 -0.9196  0.9192
 3143SOL     OW21064   1.198   1.965   1.092  0.3529 -0.3805 -0.6212
 3143SOL    HW121065   1.173   2.020   1.018  0.4396 -0.7488 -0.9225
 3143SOL    HW221066   1.120   1.921   1.125 -1.9869  1.1419 -4.2176
 3144SOL     OW21067   4.451   3.784   7.491  0.3087  0.0325 -0.3050
 3144SOL    HW121068   4.429   3.827   7.409 -0.3566 -0.4225 -0.3583
 3144SOL    HW221069   4.367   3.774   7.535 -0.3441  0.0245 -1.5865
 3145SOL     OW21070   1.616   2.754  13.817  0.4476 -0.0477 -0.2816
 3145SOL    HW121071   1.630   2.714  13.731 -2.3643  2.4085 -1.8829
 3145SOL    HW221072   1.560   2.683  13.849 -0.6676  0.7083 -0.5424
 3146SOL     OW21073   0.940   1.480   7.948 -0.4148 -0.0216 -0.3686
 3146SOL    HW121074   0.966   1.523   7.866  1.9387 -1.1337 -0.1964
 3146SOL    HW221075   0.923   1.394   7.908 -3.3938 -0.5629  2.0408
 3147SOL     OW21076   2.661   2.848   5.916 -0.0545 -0.0869  0.1938
 3147SOL    HW121077   2.573   2.810   5.926  0.4001 -1.2558 -0.2783
 3147SOL    HW221078   2.704   2.775   5.873  1.1568 -1.2037  3.2849
 3148SOL     OW21079   1.843   0.483   2.355  0.4598 -0.0934  0.6027
 3148SOL    HW121080   1.873   0.529   2.434  2.7181  1.8821 -1.4265
 3148SOL    HW221081   1.852   0.559   2.298 -0.9964  1.6237  2.6663
 3149SOL     OW21082   4.312   3.469  16.978  0.2112 -0.2979  0.2105
 3149SOL    HW121083   4.227   3.501  16.947 -1.7459 -2.0593  3.7681
 3149SOL    HW221084   4.364   3.547  16.955 -0.0872 -0.8863 -2.4299
 3150SOL     OW21085   2.020   4.476   1.723  0.3556 -0.2741 -0.7912
 3150SOL    HW121086   2.002   4.382   1.718  0.5714 -0.2559 -1.9460
 3150SOL    HW221087   2.099   4.505   1.677 -0.5861  1.0724 -1.5459
 3151SOL     OW21088   1.736   3.941  12.064  0.4843 -0.8209 -0.4234
 3151SOL    HW121089   1.673   3.900  12.005  1.2362  1.1965 -2.6042
 3151SOL    HW221090   1.711   3.903  12.149  0.9983  0.4481  0.2956
 3152SOL     OW21091   2.232   1.208   8.811 -0.2982  0.1746  0.0815
 3152SOL    HW121092   2.196   1.263   8.881 -0.0137  2.3419 -1.4741
 3152SOL    HW221093   2.276   1.137   8.858  0.4439  0.8892  0.4498
 3153SOL     OW21094   0.263   2.535   2.880  0.7646  0.2262 -0.2253
 3153SOL    HW121095   0.229   2.449   2.856  0.8079  0.8394 -2.4473
 3153SOL    HW221096   0.328   2.548   2.811  3.1234 -1.6737  1.6299
 3154SOL     OW21097   0.025   1.526   2.570 -0.2772  0.2260 -0.3157
 3154SOL    HW121098   0.093   1.590   2.550 -1.2066  0.9368 -1.1803
 3154SOL    HW221099   4.691   1.572   2.532  0.3554  0.1364 -1.6425
 3155SOL     OW21100   2.103   2.041  17.593 -0.2810 -0.7235  0.5787
 3155SOL    HW121101   2.122   2.076  17.506 -0.6019 -0.5829  0.5627
 3155SOL    HW221102   2.096   2.128  17.632  1.8462 -0.6442  0.7977
 3156SOL     OW21103   0.034   0.150  13.295 -0.0047 -0.0109 -0.2744
 3156SOL    HW121104   0.081   0.158  13.212  2.2530 -0.3754  0.9804
 3156SOL    HW221105   0.061   0.225  13.348 -1.5354 -1.0638  1.9874
 3157SOL     OW21106   4.530   1.780   7.690  0.1552  0.1494 -0.1760
 3157SOL    HW121107   4.619   1.816   7.698  0.5339 -0.4326 -1.6833
 3157SOL    HW221108   4.530   1.715   7.761  0.4991 -0.2261 -0.5155
 3158SOL     OW21109   4.042   0.030  16.657  0.0807 -0.0729  0.3227
 3158SOL    HW121110   4.021   4.729  16.573  0.8914  1.8316 -0.8025
 3158SOL    HW221111   4.086   4.702  16.708  1.0099 -0.4591 -1.0132
 3159SOL     OW21112   3.973   2.522   1.697 -0.0475 -0.1049  0.2463
 3159SOL    HW121113   3.950   2.526   1.604  1.0699  0.6151 -0.0034
 3159SOL    HW221114   3.895   2.499   1.747 -0.2848  0.9733  0.3675
 3160SOL     OW21115   4.734   2.958   9.268  0.5965 -0.1925 -0.6976
 3160SOL    HW121116   4.699   2.941   9.180 -0.1116  0.6047 -0.5706
 3160SOL    HW221117   0.042   2.875   9.273  0.2122 -0.3832 -0.1236
 3161SOL     OW21118   0.501   3.767   3.902 -0.3170  0.0565  0.1583
 3161SOL    HW121119   0.465   3.720   3.827 -0.7359 -2.1525  1.7220
 3161SOL    HW221120   0.558   3.694   3.926 -0.7446  0.0871  1.2801
 3162SOL     OW21121   2.582   0.385   0.024  0.9588  0.4521  0.4685
 3162SOL    HW121122   2.526   0.335  17.723  1.3677  0.5862 -0.0364
 3162SOL    HW221123   2.596   0.321   0.093 -1.8549 -0.5711  0.0721
 3163SOL     OW21124   2.210   1.108  12.134 -0.0344 -0.2384 -0.0566
 3163SOL    HW121125   2.277   1.140  12.194  1.6880 -1.9354 -1.1060
 3163SOL    HW221126   2.256   1.041  12.084 -0.7029  0.4288 -1.5715
 3164SOL     OW21127   4.221   0.703   8.598  0.1955  0.3642  0.2205
 3164SOL    HW121128   4.233   0.796   8.614 -1.5213  0.6511 -0.2438
 3164SOL    HW221129   4.258   0.665   8.678 -0.2456  0.6734  0.5680
 3165SOL     OW21130   1.449   4.504  17.194 -0.2909  0.2650  0.6788
 3165SOL    HW121131   1.502   4.518  17.116 -1.5651 -0.5365 -0.3422
 3165SOL    HW221132   1.449   4.408  17.194 -0.3580  0.2716  1.9371
 3166SOL     OW21133   3.471   3.353   9.888 -0.1753 -0.1287 -0.1495
 3166SOL    HW121134   3.446   3.321   9.974 -1.1441  1.0421 -0.0009
 3166SOL    HW221135   3.442   3.279   9.834 -0.1883  1.7067 -2.6546
 3167SOL     OW21136   0.139   0.191   1.772 -0.4133  0.4835  0.1848
 3167SOL    HW121137   0.199   0.185   1.846  0.1904 -0.0542 -0.3447
 3167SOL    HW221138   0.166   0.276   1.735  3.4503 -1.6041 -1.7711
 3168SOL     OW21139   1.949   4.078   6.162  0.3695 -0.4691  0.0561
 3168SOL    HW121140   1.928   4.171   6.170 -0.2218 -0.3199 -3.0800
 3168SOL    HW221141   1.929   4.053   6.072 -1.6280  0.5109  0.2275
 3169SOL     OW21142   2.865   1.810  11.970  0.2391 -0.2430  0.2869
 3169SOL    HW121143   2.869   1.783  12.062 -1.5595  0.2282  0.5058
 3169SOL    HW221144   2.840   1.728  11.927  0.5407 -1.3838  2.2859
 3170SOL     OW21145   0.716   1.961  10.038 -0.2895 -0.6028 -0.0806
 3170SOL    HW121146   0.675   2.042  10.069  0.6533 -0.9497  2.0565
 3170SOL    HW221147   0.759   1.995   9.960 -0.6119  0.8336  0.3719
 3171SOL     OW21148   2.980   0.567  16.901  0.2500  0.1343  0.1553
 3171SOL    HW121149   2.925   0.645  16.902 -1.1998 -0.8909  0.8314
 3171SOL    HW221150   2.983   0.560  16.996  1.5568  0.4303  0.1356
 3172SOL     OW21151   2.748   4.322   2.209 -0.2454  0.2813  0.4033
 3172SOL    HW121152   2.686   4.253   2.232 -0.5271  0.0358 -1.1100
 3172SOL    HW221153   2.700   4.397   2.244 -0.8402  0.8782 -1.6713
 3173SOL     OW21154   2.090   4.313  14.946 -0.4634  0.0917  0.3325
 3173SOL    HW121155   2.038   4.246  14.902 -0.2359 -0.0117  0.2184
 3173SOL    HW221156   2.069   4.312  15.040 -2.9217  1.3549 -0.2196
 3174SOL     OW21157   1.452   1.027   2.844 -0.5858  0.2341 -0.3883
 3174SOL    HW121158   1.493   1.113   2.838 -1.8844  0.8073 -0.8030
 3174SOL    HW221159   1.381   1.042   2.783  1.5422 -0.8485 -3.1590
 3175SOL     OW21160   3.740   0.328   3.417 -0.6909 -0.0951  0.2616
 3175SOL    HW121161   3.660   0.367   3.383 -0.8801  0.7368  1.6655
 3175SOL    HW221162   3.804   0.368   3.358  0.1107  0.0001  1.1870
 3176SOL     OW21163   2.397   3.114  16.803  0.0031  0.4657  0.5928
 3176SOL    HW121164   2.402   3.196  16.753  1.7398 -0.2257 -0.3533
 3176SOL    HW221165   2.372   3.057  16.731 -1.1781  0.3307  1.1256
 3177SOL     OW21166   4.734   3.050  12.386 -0.1820 -0.0309 -0.2434
 3177SOL    HW121167   4.669   2.997  12.432  0.4058  0.7754  1.5203
 3177SOL    HW221168   4.693   3.137  12.387 -0.5197 -0.1786 -1.1455
 3178SOL     OW21169   0.104   2.392   8.941  0.4807  0.2463 -0.3037
 3178SOL    HW121170   0.080   2.322   8.879 -0.0592  0.4279 -0.2996
 3178SOL    HW221171   0.199   2.385   8.933  0.6247 -0.7139  2.4488
 3179SOL     OW21172   3.791   0.172   2.180 -0.3089  0.1470 -0.0281
 3179SOL    HW121173   3.839   0.196   2.259 -0.5071  0.8653 -0.1274
 3179SOL    HW221174   3.699   0.187   2.204 -0.4728 -0.8539 -0.0318
 3180SOL     OW21175   4.458   1.364   6.038 -0.0341 -0.3352  0.2328
 3180SOL    HW121176   4.519   1.379   6.110  0.9683 -0.5282 -0.5687
 3180SOL    HW221177   4.438   1.455   6.016  0.0157 -0.9102 -2.2720
 3181SOL     OW21178   3.967   0.337   3.256  0.7567 -0.0734 -0.0292
 3181SOL    HW121179   4.020   0.416   3.246  2.5419 -1.3744 -0.8777
 3181SOL    HW221180   4.034   0.276   3.287 -0.2578 -0.5986  1.1089
 3182SOL     OW21181   4.712   0.899   3.341 -0.3826  0.1621 -0.1040
 3182SOL    HW121182   4.693   0.814   3.301 -1.4828  1.1257 -1.6399
 3182SOL    HW221183   0.064   0.902   3.365 -0.6800  0.1801  1.0350
 3183SOL     OW21184   3.012   4.525  16.736  0.1000  0.3873 -0.2424
 3183SOL    HW121185   3.038   4.474  16.659  0.2784 -2.1827  1.5310
 3183SOL    HW221186   3.044   4.477  16.812  0.3579  1.1054  0.1070
 3184SOL     OW21187   4.420   0.747  16.592 -0.1992  0.9096  0.0306
 3184SOL    HW121188   4.362   0.803  16.644 -0.1159  3.0356 -2.1973
 3184SOL    HW221189   4.482   0.722  16.661  0.6703 -0.1332 -1.1396
 3185SOL     OW21190   0.277   2.256   3.503  0.2117 -0.5114  0.2555
 3185SOL    HW121191   0.314   2.333   3.547 -1.6521 -0.1961  1.2742
 3185SOL    HW221192   0.341   2.192   3.534  0.2920  0.3093  1.8191
 3186SOL     OW21193   1.330   3.123  16.380 -0.4758  0.2456 -0.1046
 3186SOL    HW121194   1.370   3.113  16.466 -1.1238  0.6075  0.2429
 3186SOL    HW221195   1.406   3.091  16.331 -1.0573  0.5536 -1.2093
 3187SOL     OW21196   1.749   0.839  11.625 -0.1260 -0.5747  0.1094
 3187SOL    HW121197   1.674   0.861  11.679 -1.0958 -1.4021 -0.9105
 3187SOL    HW221198   1.768   0.754  11.666 -2.5162 -0.5124  1.3323
 3188SOL     OW21199   1.765   4.261  17.301  0.7486  0.2859 -0.2347
 3188SOL    HW121200   1.690   4.229  17.251  2.0670 -2.3864 -0.4781
 3188SOL    HW221201   1.791   4.327  17.237 -0.8178  0.6417 -0.5044
 3189SOL     OW21202   2.944   1.069   5.894  0.4097  0.7853  0.3643
 3189SOL    HW121203   2.886   0.999   5.922  1.2958  0.2995  0.9628
 3189SOL    HW221204   2.963   1.114   5.976  1.2339  1.0414  0.0288
 3190SOL     OW21205   2.386   3.409   7.298  0.2190 -0.1053  0.1518
 3190SOL    HW121206   2.337   3.446   7.225 -0.4961  0.4744  0.9328
 3190SOL    HW221207   2.320   3.345   7.322  0.6860 -1.1360 -1.3194
 3191SOL     OW21208   4.271   0.151  12.622 -0.0241 -0.1924 -0.1628
 3191SOL    HW121209   4.288   0.244  12.606 -0.0253 -0.5729 -2.3699
 3191SOL    HW221210   4.327   0.144  12.699 -0.3345 -0.6965  0.0103
 3192SOL     OW21211   1.288   4.413  14.816 -0.5731  0.6630 -0.0422
 3192SOL    HW121212   1.335   4.371  14.744  0.0798 -0.6006  1.1297
 3192SOL    HW221213   1.318   4.503  14.805  1.5213  0.0463  0.6629
 3193SOL     OW21214   1.930   0.873   8.675 -0.2922  0.0620  0.0033
 3193SOL    HW121215   2.025   0.871   8.692  0.0826  0.9441 -1.9351
 3193SOL    HW221216   1.914   0.956   8.719 -1.3167 -0.7966  1.2402
 3194SOL     OW21217   2.500   3.269   6.865 -0.1258  0.2500  0.3328
 3194SOL    HW121218   2.580   3.233   6.826 -0.9298 -1.6913  0.4865
 3194SOL    HW221219   2.510   3.358   6.832  0.2226 -0.2338 -0.8885
 3195SOL     OW21220   4.317   1.312   4.613 -0.1310  0.4547 -0.0801
 3195SOL    HW121221   4.317   1.280   4.523 -0.6863  1.4786 -0.4380
 3195SOL    HW221222   4.354   1.398   4.598  1.0884  0.2811  1.8713
 3196SOL     OW21223   1.914   1.847   2.973  0.3199  0.4111  0.6112
 3196SOL    HW121224   2.006   1.835   2.953  0.1371  1.6812 -0.9816
 3196SOL    HW221225   1.877   1.759   2.977 -1.1457  0.9889  0.0409
 3197SOL     OW21226   0.240   1.569   7.404  0.0078  0.1270 -0.0976
 3197SOL    HW121227   0.257   1.660   7.379  2.5866 -0.2343  0.3028
 3197SOL    HW221228   0.226   1.589   7.497  1.8113 -0.3988  0.3000
 3198SOL     OW21229   4.667   3.215   4.966 -0.2041 -0.0003 -0.2633
 3198SOL    HW121230   4.704   3.273   4.899 -1.5479  0.9067 -0.2160
 3198SOL    HW221231   4.574   3.218   4.943  0.7677  2.9094 -4.0019
 3199SOL     OW21232   0.495   1.968   2.816  0.1468 -0.3440  0.1953
 3199SOL    HW121233   0.565   2.026   2.786  1.2871 -2.0071 -0.3897
 3199SOL    HW221234   0.554   1.895   2.832 -1.4168 -1.7073 -0.1910
 3200SOL     OW21235   4.450   0.706   2.308  0.4225  0.2551 -0.1149
 3200SOL    HW121236   4.545   0.702   2.295  0.3984  1.3268 -0.6657
 3200SOL    HW221237   4.418   0.639   2.248  2.4873  0.6964 -1.7163
 3201SOL     OW21238   0.514   1.966   6.443 -0.1720  0.4432 -0.0804
 3201SOL    HW121239   0.571   1.980   6.367 -0.7015 -0.3892 -0.6294
 3201SOL    HW221240   0.459   2.044   6.436 -1.8114 -0.5503  1.8112
 3202SOL     OW21241   2.261   1.103  10.730 -0.1633  0.4608  0.4573
 3202SOL    HW121242   2.208   1.032  10.693  1.0219 -0.4053  0.3932
 3202SOL    HW221243   2.325   1.128  10.663 -2.1055 -0.0089 -1.5526
 3203SOL     OW21244   3.761   3.368   9.850 -0.5041  0.4675 -0.0331
 3203SOL    HW121245   3.797   3.313   9.919 -3.2126 -0.1184  0.9119
 3203SOL    HW221246   3.672   3.386   9.878 -1.5373 -0.0391 -2.9418
 3204SOL     OW21247   4.511   3.823   8.374  0.5161  0.4173 -0.0246
 3204SOL    HW121248   4.575   3.888   8.403  0.3676 -0.2352  1.7732
 3204SOL    HW221249   4.552   3.747   8.415 -0.6551 -0.3144 -0.2258
 3205SOL     OW21250   0.878   4.200   3.234  0.4183  0.3325  0.6475
 3205SOL    HW121251   0.853   4.175   3.323 -0.6428  2.2010  0.8675
 3205SOL    HW221252   0.869   4.295   3.228 -1.5662  0.0097 -1.4426
 3206SOL     OW21253   2.846   3.442   2.018 -0.1074 -0.1877 -0.2893
 3206SOL    HW121254   2.825   3.535   2.028  2.0105  0.3443 -0.9176
 3206SOL    HW221255   2.941   3.430   2.020  0.3192  3.5075  1.8165
 3207SOL     OW21256   0.430   1.055   9.309 -0.4705 -0.2245  0.1506
 3207SOL    HW121257   0.404   1.084   9.397  2.8745  3.0927  0.0608
 3207SOL    HW221258   0.516   1.015   9.325 -0.3160  0.0280 -0.0380
 3208SOL     OW21259   3.776   2.639   7.693  0.4021  0.3187  0.2690
 3208SOL    HW121260   3.870   2.620   7.697  0.0963 -0.9792  1.6564
 3208SOL    HW221261   3.759   2.650   7.787  0.6494  2.1352  0.1064
 3209SOL     OW21262   3.792   2.146   6.508  0.5892 -0.1746 -0.0042
 3209SOL    HW121263   3.802   2.053   6.489  0.8355 -0.4666  1.5852
 3209SOL    HW221264   3.801   2.193   6.425 -1.2005 -1.2337 -0.8156
 3210SOL     OW21265   1.772   0.186   3.727 -0.0542  0.0580 -0.1541
 3210SOL    HW121266   1.820   0.108   3.698  1.2475  1.2473 -1.2394
 3210SOL    HW221267   1.842   0.248   3.743  0.2124 -0.2070 -0.2914
 3211SOL     OW21268   3.426   0.851   9.471 -0.2573 -0.0329  0.3240
 3211SOL    HW121269   3.354   0.881   9.415  1.5877  1.3000 -1.3506
 3211SOL    HW221270   3.462   0.928   9.516 -0.7179  0.1550  0.3700
 3212SOL     OW21271   2.853   1.899  14.123  0.3113  0.3562 -0.2862
 3212SOL    HW121272   2.935   1.911  14.076  1.5376 -1.7885  1.3088
 3212SOL    HW221273   2.861   1.831  14.190 -3.3367 -0.1681 -0.3644
 3213SOL     OW21274   3.430   3.210   9.146 -0.5469 -0.6516  1.0872
 3213SOL    HW121275   3.370   3.139   9.171 -1.9409  0.5378  1.1018
 3213SOL    HW221276   3.515   3.166   9.142 -0.0909  0.1423  2.2282
 3214SOL     OW21277   1.687   1.074   6.130  0.7327 -0.1084  0.5229
 3214SOL    HW121278   1.736   0.992   6.124 -0.2550 -0.7451  1.0971
 3214SOL    HW221279   1.691   1.083   6.226 -1.2878 -0.4676  0.6278
 3215SOL     OW21280   0.955   1.631   3.131  0.1851 -0.0847 -0.0923
 3215SOL    HW121281   0.995   1.615   3.216  1.0271 -1.6923 -0.7926
 3215SOL    HW221282   1.026   1.632   3.066 -1.0392 -2.4104 -1.4743
 3216SOL     OW21283   1.222   3.504   7.190 -0.8787 -0.2212 -0.5251
 3216SOL    HW121284   1.255   3.436   7.132  0.8386 -0.7179  1.0201
 3216SOL    HW221285   1.173   3.444   7.246  1.0383 -0.0935  1.3091
 3217SOL     OW21286   2.707   1.982   2.073 -0.1642 -0.4271  0.4563
 3217SOL    HW121287   2.782   1.981   2.132 -0.5795  0.0838  0.9896
 3217SOL    HW221288   2.739   2.051   2.014 -0.8131 -0.8215 -0.3511
 3218SOL     OW21289   2.387   1.245   2.164  0.8846  0.4884  0.5589
 3218SOL    HW121290   2.347   1.160   2.147  1.4328  0.6613 -1.6698
 3218SOL    HW221291   2.368   1.246   2.257 -0.5131  1.1240  0.2584
 3219SOL     OW21292   1.685   1.661   2.432  0.4168 -0.2913  0.2105
 3219SOL    HW121293   1.721   1.724   2.370 -1.5699 -1.0551 -1.7310
 3219SOL    HW221294   1.618   1.718   2.471 -0.9711 -0.3575 -2.0805
 3220SOL     OW21295   3.464   2.613   8.223 -0.1543 -0.4133  0.2558
 3220SOL    HW121296   3.402   2.612   8.150 -0.6160 -2.0587  0.6672
 3220SOL    HW221297   3.530   2.674   8.190  1.3825 -1.6919  0.9127
 3221SOL     OW21298   1.243   1.672   4.474  0.0424  0.1918 -0.0796
 3221SOL    HW121299   1.333   1.696   4.496  0.3572 -1.9573  0.9951
 3221SOL    HW221300   1.253   1.589   4.429 -0.8942 -0.6639  1.2661
 3222SOL     OW21301   4.504   0.937   4.008 -0.1942  0.0994 -0.6859
 3222SOL    HW121302   4.424   0.944   3.956 -0.8275 -1.0135  0.1406
 3222SOL    HW221303   4.473   0.992   4.079 -0.8553 -2.3710  0.9639
 3223SOL     OW21304   0.578   4.343   2.584  0.4497 -0.2425 -0.5642
 3223SOL    HW121305   0.644   4.380   2.642  0.3403 -0.7655 -0.1070
 3223SOL    HW221306   0.594   4.378   2.497  1.4630  2.4204  0.6994
 3224SOL     OW21307   4.716   0.852  15.726 -0.0825 -0.1860 -0.0338
 3224SOL    HW121308   0.046   0.892  15.777 -0.5156  0.6534 -0.1031
 3224SOL    HW221309   4.658   0.827  15.798 -0.2319 -1.8146 -0.7291
 3225SOL     OW21310   0.333   2.925  10.148  0.0031  0.2066  0.4664
 3225SOL    HW121311   0.362   2.852  10.093  1.6716  0.2955  1.2463
 3225SOL    HW221312   0.351   3.005  10.098 -1.1901  1.0999  1.4578
 3226SOL     OW21313   4.395   2.104   0.547 -0.6691 -0.3089  0.1580
 3226SOL    HW121314   4.353   2.182   0.582 -0.0133 -0.0317  0.3200
 3226SOL    HW221315   4.482   2.123   0.580 -1.0459 -2.1258  2.2111
 3227SOL     OW21316   4.035   1.618   6.527 -0.2234  0.2965  0.2303
 3227SOL    HW121317   4.116   1.595   6.481 -0.0260 -3.8520  2.5619
 3227SOL    HW221318   4.046   1.708   6.558 -1.5490  0.4645  0.2334
 3228SOL     OW21319   1.255   1.953  13.146 -0.3069 -0.2848 -0.6444
 3228SOL    HW121320   1.267   1.970  13.239 -1.1019  1.3053 -0.8328
 3228SOL    HW221321   1.219   1.864  13.148 -2.1600  0.4945  0.7499
 3229SOL     OW21322   2.639   0.448   3.987 -0.0082  0.4241 -0.5547
 3229SOL    HW121323   2.691   0.520   3.950  1.1073 -0.6654 -1.1272
 3229SOL    HW221324   2.616   0.400   3.907  0.5354  0.8097 -0.9376
 3230SOL     OW21325   2.038   4.148  16.737 -0.2965  0.1349 -0.0072
 3230SOL    HW121326   1.999   4.172  16.822  0.0438 -0.5620  0.3432
 3230SOL    HW221327   1.979   4.199  16.681 -0.2526  0.3456  0.1360
 3231SOL     OW21328   2.055   0.907   2.097  0.3959 -0.5786  0.3337
 3231SOL    HW121329   1.998   0.965   2.046 -2.4697 -2.6851  1.1097
 3231SOL    HW221330   2.024   0.818   2.081  3.3402 -1.8221  1.5622
 3232SOL     OW21331   1.078   0.598   8.168  0.1647  0.3733  0.2985
 3232SOL    HW121332   1.170   0.597   8.142  0.6448 -2.3482  2.0220
 3232SOL    HW221333   1.061   0.506   8.189  3.2085 -0.2485 -0.0392
 3233SOL     OW21334   1.204   1.377   3.690 -0.2388 -0.2026 -0.5194
 3233SOL    HW121335   1.118   1.390   3.729  0.3805 -0.1636  0.8066
 3233SOL    HW221336   1.194   1.298   3.637  0.0825 -0.2557 -0.5030
 3234SOL     OW21337   0.694   4.249   6.448  0.2176 -0.7420  0.2840
 3234SOL    HW121338   0.753   4.275   6.377  1.6039 -2.3505  0.8529
 3234SOL    HW221339   0.608   4.270   6.413  1.1292  0.5729 -1.1526
 3235SOL     OW21340   4.028   4.345   2.110 -0.2741  0.2137 -0.1424
 3235SOL    HW121341   3.986   4.285   2.171  0.8645  0.2341  0.6472
 3235SOL    HW221342   4.048   4.416   2.171  2.5061 -0.3904 -0.3783
 3236SOL     OW21343   3.906   0.003   4.994 -0.0051 -0.4077 -0.1668
 3236SOL    HW121344   3.964   4.732   4.918  2.0861 -0.9427  1.5275
 3236SOL    HW221345   3.831   0.040   4.947  0.4550  0.6507 -0.0716
 3237SOL     OW21346   2.197   3.962   2.866 -0.5752 -0.1564 -0.2704
 3237SOL    HW121347   2.117   4.008   2.890  0.3414  1.2389  0.0763
 3237SOL    HW221348   2.238   3.949   2.951  1.0036 -0.4847 -1.0609
 3238SOL     OW21349   4.459   3.235   3.845 -1.0384  0.0305  0.2727
 3238SOL    HW121350   4.387   3.172   3.856  0.0623 -1.2649  0.0833
 3238SOL    HW221351   4.410   3.313   3.820  0.5162  0.5697 -1.0645
 3239SOL     OW21352   4.285   4.354  16.089  0.0999  0.2303 -0.4639
 3239SOL    HW121353   4.247   4.426  16.138 -1.3673  0.8400 -2.4740
 3239SOL    HW221354   4.348   4.394  16.029  2.5927 -0.6040  1.5757
 3240SOL     OW21355   3.885   3.208   1.249  0.5700  0.2573 -0.1683
 3240SOL    HW121356   3.847   3.144   1.189  0.3652 -0.9436  1.2275
 3240SOL    HW221357   3.807   3.258   1.274  0.0558  0.5357 -2.2988
 3241SOL     OW21358   0.214   1.369   0.626 -0.3758 -0.6711 -0.9646
 3241SOL    HW121359   0.293   1.392   0.675 -1.2489  0.9433 -0.3034
 3241SOL    HW221360   0.200   1.438   0.561 -0.0302 -0.3461 -0.6942
 3242SOL     OW21361   3.234   2.635   5.898  0.1437 -0.6127  0.4394
 3242SOL    HW121362   3.256   2.590   5.980  1.8118  0.0534  0.3571
 3242SOL    HW221363   3.304   2.700   5.907  1.1026 -1.6366  0.4169
 3243SOL     OW21364   0.003   3.385   4.548 -0.4752  0.0107  0.0521
 3243SOL    HW121365   4.717   3.398   4.639 -0.3695  2.7337 -0.3126
 3243SOL    HW221366   4.680   3.444   4.507  0.4013  1.6743  1.1287
 3244SOL     OW21367   2.279   4.573  17.587  0.4610  0.2815  0.3806
 3244SOL    HW121368   2.306   4.622  17.510  0.9840  0.4164  0.6472
 3244SOL    HW221369   2.221   4.642  17.620 -0.2891 -0.3286  0.3188
 3245SOL     OW21370   1.496   0.161   9.276  0.1800  0.8098 -0.5530
 3245SOL    HW121371   1.431   0.227   9.255 -1.5358 -0.1323  1.7610
 3245SOL    HW221372   1.568   0.195   9.222  0.4524 -1.1373 -1.4360
 3246SOL     OW21373   4.125   0.881   0.687  0.2977 -0.3360  0.1266
 3246SOL    HW121374   4.043   0.901   0.642  1.7745  2.0437 -1.5266
 3246SOL    HW221375   4.102   0.845   0.773  0.5393 -0.6225  0.0712
 3247SOL     OW21376   2.673   2.972   6.379 -0.6542  0.0188 -0.0900
 3247SOL    HW121377   2.737   2.917   6.334  0.7990 -0.6206  2.7696
 3247SOL    HW221378   2.724   3.049   6.404  1.5682 -1.2497 -0.7574
 3248SOL     OW21379   0.959   4.361  16.549 -0.4798  0.0052 -0.5181
 3248SOL    HW121380   0.998   4.380  16.634 -0.9719  2.1724 -0.7904
 3248SOL    HW221381   0.868   4.353  16.579  0.1577  1.6228  1.8141
 3249SOL     OW21382   1.722   4.448   8.723  0.2480  0.5726  0.6214
 3249SOL    HW121383   1.670   4.397   8.661 -1.1720 -0.4794  2.6889
 3249SOL    HW221384   1.656   4.478   8.785 -0.4956 -0.4074  0.3001
 3250SOL     OW21385   3.543   3.525   2.675 -0.6795  0.2806  0.4085
 3250SOL    HW121386   3.610   3.587   2.646 -0.1071 -0.3229  0.4443
 3250SOL    HW221387   3.604   3.471   2.725 -0.6150 -0.8204 -0.8593
 3251SOL     OW21388   3.925   2.125   9.766 -0.1399  0.0583 -0.7640
 3251SOL    HW121389   3.919   2.220   9.752  1.2277  0.2237 -0.1913
 3251SOL    HW221390   4.013   2.106   9.797 -0.1560  1.4967  0.1636
 3252SOL     OW21391   1.410   3.795   9.903  0.4834  0.7372 -0.0134
 3252SOL    HW121392   1.453   3.753   9.828  1.0712  0.2986  0.5766
 3252SOL    HW221393   1.329   3.830   9.865  1.0082  0.6194 -1.2484
 3253SOL     OW21394   3.109   3.252   6.897  0.0255 -0.3437 -0.3472
 3253SOL    HW121395   3.043   3.184   6.911 -0.2499  0.1427  0.7316
 3253SOL    HW221396   3.086   3.303   6.975 -1.8942 -0.9601 -0.4907
 3254SOL     OW21397   1.878   3.011   8.061 -0.1090 -0.2226  0.5025
 3254SOL    HW121398   1.879   2.962   8.143 -1.1104 -1.0374  0.0306
 3254SOL    HW221399   1.798   3.063   8.055  0.1690  0.2418  0.8291
 3255SOL     OW21400   2.450   3.205  16.252 -0.0963  0.6639 -0.1495
 3255SOL    HW121401   2.447   3.289  16.208  3.5816  1.4205  0.9974
 3255SOL    HW221402   2.395   3.144  16.203  0.7898  1.0970 -1.6911
 3256SOL     OW21403   0.431   2.670  16.939  0.2360 -0.0186  0.1689
 3256SOL    HW121404   0.449   2.671  16.845  0.5430  0.6751  0.2323
 3256SOL    HW221405   0.348   2.624  16.937  0.3605 -0.3779  4.1665
 3257SOL     OW21406   4.417   1.408  17.730 -0.5030  0.3270 -0.0520
 3257SOL    HW121407   4.450   1.488   0.013 -3.4613  0.7165  1.5669
 3257SOL    HW221408   4.324   1.431  17.736 -0.3100  1.6887 -2.2790
 3258SOL     OW21409   2.173   1.070   4.452 -0.4491  0.2381 -0.6292
 3258SOL    HW121410   2.086   1.060   4.492 -0.0723  1.5599  0.5513
 3258SOL    HW221411   2.221   1.113   4.523 -1.2786 -0.8612  0.6113
 3259SOL     OW21412   4.690   2.558  10.274 -0.7948 -0.0581  0.4747
 3259SOL    HW121413   4.644   2.565  10.358 -1.2812  0.8931  0.1295
 3259SOL    HW221414   4.738   2.639  10.289  0.2015 -0.3642 -1.0974
 3260SOL     OW21415   4.581   3.396   1.130 -0.1410 -0.1883  0.1680
 3260SOL    HW121416   4.504   3.417   1.183  0.6413 -0.0870  1.2761
 3260SOL    HW221417   4.568   3.436   1.044 -0.6155  1.6439  1.0879
 3261SOL     OW21418   2.949   0.985   0.760 -0.4790  0.1209  0.1458
 3261SOL    HW121419   2.909   0.911   0.713 -1.8047  1.5287 -0.9286
 3261SOL    HW221420   2.954   0.958   0.852 -2.5633 -0.1204  0.1875
 3262SOL     OW21421   1.719   2.269   7.386  0.2638 -0.8525 -0.1794
 3262SOL    HW121422   1.707   2.225   7.470  1.6910 -0.3120  0.3139
 3262SOL    HW221423   1.740   2.193   7.331  2.0652  1.7341 -3.1008
 3263SOL     OW21424   2.705   2.985   8.166  0.2825  0.1655 -0.0409
 3263SOL    HW121425   2.677   2.919   8.102 -0.5777 -1.3528  1.8866
 3263SOL    HW221426   2.664   2.942   8.242  1.0342 -0.2117  0.1517
 3264SOL     OW21427   4.322   4.559   8.026 -0.3493 -0.1657 -0.0100
 3264SOL    HW121428   4.397   4.500   8.038  1.3138  1.9119 -0.3433
 3264SOL    HW221429   4.331   4.588   8.117  1.9468  0.3623 -0.4251
 3265SOL     OW21430   1.671   0.685  15.176 -0.4389  0.0426 -0.1988
 3265SOL    HW121431   1.592   0.704  15.227 -0.1594 -0.1640  0.3070
 3265SOL    HW221432   1.631   0.619  15.118  0.9422 -0.2646 -0.7866
 3266SOL     OW21433   1.067   2.693   8.507 -0.4293 -0.0600  0.0124
 3266SOL    HW121434   1.036   2.603   8.515 -1.4502  0.1332 -1.6742
 3266SOL    HW221435   1.058   2.692   8.411 -1.9603 -0.5620  0.1608
 3267SOL     OW21436   4.708   3.931   5.235 -0.0056  0.1449 -0.0428
 3267SOL    HW121437   4.647   3.991   5.191  0.0049  0.4961  0.4280
 3267SOL    HW221438   0.047   3.945   5.184  0.1354 -0.0726  0.1155
 3268SOL     OW21439   0.837   2.507   0.917  0.1478  0.0509  0.1170
 3268SOL    HW121440   0.780   2.510   0.841  2.1333 -1.1039 -1.4093
 3268SOL    HW221441   0.918   2.462   0.892 -0.4689 -0.9819 -0.0326
 3269SOL     OW21442   1.599   1.358   8.672 -0.0407  0.1235 -0.4979
 3269SOL    HW121443   1.640   1.444   8.684  0.7863 -0.7873  3.2492
 3269SOL    HW221444   1.650   1.299   8.728  0.0608 -0.1730 -0.9104
 3270SOL     OW21445   2.557   4.300   6.510  0.2439 -0.7514 -0.0445
 3270SOL    HW121446   2.581   4.264   6.424 -0.3187  0.8315 -0.8551
 3270SOL    HW221447   2.468   4.269   6.526  0.7165 -1.3626  1.3881
 3271SOL     OW21448   2.441   1.573   8.202  0.1001 -0.0697 -0.3587
 3271SOL    HW121449   2.439   1.560   8.297  0.8051 -0.5637 -0.4120
 3271SOL    HW221450   2.405   1.660   8.185  1.2868  0.3168 -0.9040
 3272SOL     OW21451   0.815   1.049   7.238 -0.1229 -1.3734  0.5784
 3272SOL    HW121452   0.759   1.066   7.314 -0.4101  0.3806 -0.0200
 3272SOL    HW221453   0.776   1.109   7.175  1.5292 -2.2259 -1.2509
 3273SOL     OW21454   0.143   4.166  13.200  0.2355 -0.2043 -0.0783
 3273SOL    HW121455   0.177   4.079  13.181  0.1691 -0.7430  2.3167
 3273SOL    HW221456   0.049   4.159  13.187  0.0929 -0.3599  1.0608
 3274SOL     OW21457   3.772   2.242   7.124  0.3608 -0.0535  0.5837
 3274SOL    HW121458   3.841   2.231   7.058 -1.2885 -1.5689 -0.8874
 3274SOL    HW221459   3.761   2.150   7.148 -3.1638 -0.1202 -1.2607
 3275SOL     OW21460   4.268   3.782   3.544  0.5156 -0.1626  0.4158
 3275SOL    HW121461   4.279   3.741   3.458 -1.4217  0.9243 -0.3259
 3275SOL    HW221462   4.355   3.762   3.580 -0.0516  0.9982  2.4455
 3276SOL     OW21463   2.041   2.722   1.797  0.4855  0.4790  0.8016
 3276SOL    HW121464   2.010   2.676   1.720  1.9118  0.3714  0.3014
 3276SOL    HW221465   2.109   2.663   1.829  0.7505  0.6204  0.5018
 3277SOL     OW21466   2.517   3.085   2.134 -0.1921 -0.7542 -0.2686
 3277SOL    HW121467   2.536   3.107   2.043 -0.0226  2.0434  0.4503
 3277SOL    HW221468   2.422   3.095   2.123  0.2480  2.2536 -1.3150
 3278SOL     OW21469   0.671   0.956   9.347  0.3082 -0.0720  0.4999
 3278SOL    HW121470   0.687   0.863   9.330  1.0524  0.0743  0.3716
 3278SOL    HW221471   0.764   0.979   9.356  0.7444 -2.0389  1.0591
 3279SOL     OW21472   3.418   4.347   3.484 -0.1153 -0.0050 -0.1309
 3279SOL    HW121473   3.341   4.298   3.455  0.2795 -0.0839 -1.0537
 3279SOL    HW221474   3.453   4.289   3.551 -0.6912  0.1251  0.2893
 3280SOL     OW21475   3.106   3.846   6.882 -0.6164 -0.3532 -0.1815
 3280SOL    HW121476   3.089   3.893   6.963  1.6887 -1.4382  0.9351
 3280SOL    HW221477   3.198   3.865   6.865 -0.1538 -0.8854  1.7608
 3281SOL     OW21478   1.420   3.879  16.292 -0.3201  0.5001 -0.2800
 3281SOL    HW121479   1.506   3.899  16.328 -0.0730 -0.8803 -0.0988
 3281SOL    HW221480   1.422   3.935  16.214  2.2916  1.3519  0.3989
 3282SOL     OW21481   3.262   4.151   3.079 -0.4983 -0.3999 -0.0164
 3282SOL    HW121482   3.174   4.113   3.074 -0.7740 -0.0820  2.5264
 3282SOL    HW221483   3.309   4.068   3.086  0.6515  0.0834 -2.0209
 3283SOL     OW21484   1.428   0.454  10.846 -0.6723 -0.2674 -0.1860
 3283SOL    HW121485   1.496   0.416  10.901  1.5651  1.4255 -1.7679
 3283SOL    HW221486   1.364   0.384  10.838  1.7365 -2.5035  0.2349
 3284SOL     OW21487   3.995   4.649   6.715 -0.3771  0.3378 -0.1130
 3284SOL    HW121488   4.026   4.732   6.679  0.0766  0.3568  0.3277
 3284SOL    HW221489   4.051   4.593   6.663 -0.4558  1.1515 -1.0712
 3285SOL     OW21490   0.696   1.774  11.024 -0.9734 -0.5803  0.0252
 3285SOL    HW121491   0.761   1.704  11.028  1.6050  1.8016  0.1818
 3285SOL    HW221492   0.640   1.748  11.096 -2.3393  1.0809 -0.4446
 3286SOL     OW21493   1.936   0.266  14.078 -0.1011 -0.4818 -0.5681
 3286SOL    HW121494   2.004   0.297  14.019  0.3293  1.5426  0.9634
 3286SOL    HW221495   1.999   0.221  14.134  0.2912 -0.6959 -1.1875
 3287SOL     OW21496   4.265   3.432   3.513  0.3080  0.0414  0.3963
 3287SOL    HW121497   4.297   3.492   3.446 -1.3390  0.3124 -0.1427
 3287SOL    HW221498   4.307   3.350   3.486  0.5383 -0.0311  0.9692
 3288SOL     OW21499   2.247   3.129   5.004  0.3646 -0.4001 -0.3179
 3288SOL    HW121500   2.321   3.189   4.997 -0.1301  0.2157 -0.2394
 3288SOL    HW221501   2.283   3.059   5.058 -0.3451 -0.8074 -0.3729
 3289SOL     OW21502   3.280   2.191   3.364 -0.7174 -0.3274 -0.3498
 3289SOL    HW121503   3.294   2.222   3.275  1.9171  0.2292  0.2589
 3289SOL    HW221504   3.355   2.135   3.382  0.7591  1.9743  0.6698
 3290SOL     OW21505   0.123   2.459   9.348  0.3528 -0.0169 -0.0753
 3290SOL    HW121506   0.097   2.469   9.439 -1.2345 -1.1715 -0.4035
 3290SOL    HW221507   0.203   2.407   9.354 -0.6059 -1.1494  2.8417
 3291SOL     OW21508   0.221   3.832   6.061  0.3672 -0.3992  0.0603
 3291SOL    HW121509   0.309   3.824   6.025  0.2608  1.3071 -0.5616
 3291SOL    HW221510   0.236   3.825   6.155 -0.5523 -1.8193  0.1035
 3292SOL     OW21511   1.661   2.556   6.358  0.4471 -0.1414 -0.0880
 3292SOL    HW121512   1.589   2.563   6.295 -0.6962 -1.8018  1.0457
 3292SOL    HW221513   1.624   2.483   6.408  1.5440 -1.4336 -1.1745
 3293SOL     OW21514   2.956   3.383   4.999  0.7039 -0.2805 -0.1426
 3293SOL    HW121515   3.047   3.372   4.972  0.6750 -1.4121  0.2460
 3293SOL    HW221516   2.927   3.466   4.960  3.1925  0.3276 -0.6492
 3294SOL     OW21517   0.164   3.636   8.465 -0.0040  0.1844 -0.2209
 3294SOL    HW121518   0.170   3.713   8.409 -0.1197  0.4869  0.1794
 3294SOL    HW221519   0.209   3.684   8.535  2.0920 -1.0288 -0.7475
 3295SOL     OW21520   0.578   4.443   0.566  0.0088 -0.1348  0.1345
 3295SOL    HW121521   0.629   4.511   0.524  0.2412 -0.4162 -0.0404
 3295SOL    HW221522   0.573   4.469   0.658  2.2040  1.3487 -0.1764
 3296SOL     OW21523   0.847   2.081   3.774  0.7582  0.2911 -0.2514
 3296SOL    HW121524   0.768   2.028   3.768  1.5526 -0.9076 -0.0117
 3296SOL    HW221525   0.835   2.144   3.703 -3.1941 -0.3849 -0.1742
 3297SOL     OW21526   4.518   2.279   6.707 -0.1994 -0.4863  0.1967
 3297SOL    HW121527   4.520   2.183   6.697 -0.8918 -0.2637 -2.0671
 3297SOL    HW221528   4.481   2.311   6.625  1.7067  2.8646  0.6719
 3298SOL     OW21529   2.416   2.638  11.939 -0.0510  0.8676 -0.0459
 3298SOL    HW121530   2.348   2.661  12.003 -1.7285 -2.8235 -0.5194
 3298SOL    HW221531   2.490   2.699  11.938  1.3422 -0.8576 -0.7194
 3299SOL     OW21532   3.158   3.043   1.753  0.3211  0.9041  0.1880
 3299SOL    HW121533   3.123   2.954   1.760  1.2998  0.4898 -0.2316
 3299SOL    HW221534   3.205   3.028   1.834 -0.2974 -1.3208  0.1479
 3300SOL     OW21535   3.185   1.511   3.513 -0.6393 -0.9787 -0.0980
 3300SOL    HW121536   3.256   1.470   3.562  2.2816  2.1704 -1.6207
 3300SOL    HW221537   3.121   1.527   3.583 -2.0305 -1.3777 -1.2791
 3301SOL     OW21538   2.848   1.816   3.174 -0.0358  0.2266 -0.3914
 3301SOL    HW121539   2.902   1.781   3.244  0.6733 -0.3421 -1.2269
 3301SOL    HW221540   2.783   1.865   3.224  0.3644 -0.4345  0.7737
 3302SOL     OW21541   2.687   0.951   4.722 -0.1715  0.3281 -0.1398
 3302SOL    HW121542   2.689   1.011   4.647 -0.4780 -0.6698 -0.9613
 3302SOL    HW221543   2.744   0.878   4.695  0.4009 -0.1661  2.4165
 3303SOL     OW21544   3.047   2.922   8.328  0.5744 -0.8918  0.8855
 3303SOL    HW121545   2.997   2.975   8.390 -1.6402 -3.2613  1.1258
 3303SOL    HW221546   3.131   2.917   8.374  0.5129  1.1389  1.2305
 3304SOL     OW21547   2.608   0.314   7.000  0.1215 -0.0235 -0.1248
 3304SOL    HW121548   2.540   0.366   6.957  0.9427 -1.0129 -2.6249
 3304SOL    HW221549   2.683   0.373   6.992  0.7160 -0.5290  1.6004
 3305SOL     OW21550   3.152   2.513   1.837 -0.3140 -0.6989  0.4846
 3305SOL    HW121551   3.235   2.527   1.792 -0.0752 -0.0009  1.1455
 3305SOL    HW221552   3.183   2.506   1.927 -0.6106  0.8359  0.7104
 3306SOL     OW21553   1.647   2.445   8.780  0.1153 -0.3576 -0.0176
 3306SOL    HW121554   1.605   2.364   8.810  0.3366 -0.4725 -0.0174
 3306SOL    HW221555   1.673   2.487   8.862 -2.0006  0.8007  0.0700
 3307SOL     OW21556   1.269   4.603   4.964  0.1556 -0.0206  0.4000
 3307SOL    HW121557   1.270   4.543   4.889 -1.6590  0.8367 -0.3072
 3307SOL    HW221558   1.295   4.548   5.038 -1.0847  1.0794  1.6357
 3308SOL     OW21559   1.387   1.842   5.377  0.1652  0.5721  0.4019
 3308SOL    HW121560   1.415   1.928   5.347 -0.8619  0.4985 -0.7715
 3308SOL    HW221561   1.317   1.871   5.437 -1.3965 -1.6612 -0.3140
 3309SOL     OW21562   0.622   3.560  16.832  0.3459  0.1049  0.2065
 3309SOL    HW121563   0.685   3.498  16.870  1.8386 -0.3725 -3.0082
 3309SOL    HW221564   0.656   3.555  16.742 -1.9623 -0.9202 -0.6250
 3310SOL     OW21565   3.568   1.452   7.080  0.1583  0.4255 -0.2380
 3310SOL    HW121566   3.627   1.527   7.087 -1.0891  1.4390 -0.7478
 3310SOL    HW221567   3.536   1.446   6.990  0.2639 -0.2335 -0.2347
 3311SOL     OW21568   4.598   2.379   3.152  0.1003 -0.0837  0.2129
 3311SOL    HW121569   4.577   2.423   3.070 -1.3084 -0.8170  0.1795
 3311SOL    HW221570   4.532   2.309   3.158  2.7899 -2.6832 -0.3831
 3312SOL     OW21571   1.513   0.956  10.323  0.1786  0.1776 -0.3586
 3312SOL    HW121572   1.553   0.928  10.405 -2.3648 -2.1013  0.0827
 3312SOL    HW221573   1.434   0.995  10.359 -0.3185  0.1297 -1.3813
 3313SOL     OW21574   3.877   4.539   2.464 -0.1924 -0.1334  0.2090
 3313SOL    HW121575   3.798   4.485   2.471 -0.3552  0.0566 -0.1414
 3313SOL    HW221576   3.864   4.563   2.372  0.3107  1.8750  0.6420
 3314SOL     OW21577   1.062   2.672   3.982 -0.3564  0.0012 -0.0282
 3314SOL    HW121578   1.071   2.634   4.070  1.3931  2.2485  0.7725
 3314SOL    HW221579   1.010   2.749   4.005 -0.1951 -0.0103  0.3876
 3315SOL     OW21580   0.063   3.210   9.019 -0.2367  0.3289  0.4926
 3315SOL    HW121581   0.113   3.206   9.100  1.7497 -0.9610 -0.8160
 3315SOL    HW221582   0.001   3.279   9.044  1.5483  1.8341  0.7379
 3316SOL     OW21583   3.536   4.469  15.396 -0.1247  0.7627  0.1568
 3316SOL    HW121584   3.631   4.480  15.389 -0.2996  1.1274 -1.5107
 3316SOL    HW221585   3.501   4.510  15.317 -0.9436 -2.0984 -0.9570
 3317SOL     OW21586   3.429   1.660  15.707  0.4103 -0.2223 -0.7670
 3317SOL    HW121587   3.412   1.567  15.724  1.3762 -0.4778 -1.1698
 3317SOL    HW221588   3.474   1.655  15.622  2.5810  0.3119  0.3699
 3318SOL     OW21589   1.651   2.355   4.034  0.1845 -0.8943 -0.2614
 3318SOL    HW121590   1.587   2.372   3.965  1.2260 -0.4559 -1.1210
 3318SOL    HW221591   1.726   2.358   3.975  0.2699  1.4227 -0.0370
 3319SOL     OW21592   3.392   1.345   0.034  0.3887  0.1201 -0.2416
 3319SOL    HW121593   3.415   1.337   0.126 -2.2052 -0.7818  0.3256
 3319SOL    HW221594   3.479   1.359  17.756  0.7230  0.7783  0.8116
 3320SOL     OW21595   0.482   0.203   4.126 -0.5020 -0.1090 -0.1973
 3320SOL    HW121596   0.539   0.219   4.201 -1.4944 -2.0177  0.9705
 3320SOL    HW221597   0.400   0.247   4.151 -1.7967 -3.4913  1.4552
 3321SOL     OW21598   1.570   1.638   3.101  0.0831  0.2969 -0.6389
 3321SOL    HW121599   1.494   1.668   3.151  0.4673  0.1723  0.0108
 3321SOL    HW221600   1.611   1.600   3.178 -0.7408 -0.8230 -0.7461
 3322SOL     OW21601   1.200   3.964   5.495 -0.0326  0.1960  0.6847
 3322SOL    HW121602   1.203   3.989   5.588 -0.4585 -1.0781  1.0362
 3322SOL    HW221603   1.153   3.881   5.487 -1.1099  1.0749 -2.0623
 3323SOL     OW21604   3.087   1.137   3.459  0.0474 -0.0205  0.1814
 3323SOL    HW121605   3.096   1.211   3.400 -2.5064  0.4271  0.3728
 3323SOL    HW221606   3.098   1.066   3.395 -0.8500 -0.2709  0.3114
 3324SOL     OW21607   0.266   2.153  15.499 -0.0162 -0.2326 -0.4499
 3324SOL    HW121608   0.319   2.134  15.576 -1.7015 -2.2564  0.1821
 3324SOL    HW221609   0.243   2.243  15.521  1.5427  0.8505 -3.2075
 3325SOL     OW21610   3.448   1.143   4.475  0.6520  0.7537 -0.1383
 3325SOL    HW121611   3.420   1.057   4.443 -1.1413  1.4906 -0.5660
 3325SOL    HW221612   3.533   1.151   4.433  0.4120  1.5547 -0.4838
 3326SOL     OW21613   2.513   4.282  15.357  0.4154 -0.6191  0.1861
 3326SOL    HW121614   2.430   4.244  15.386 -0.3270  0.5833 -0.4022
 3326SOL    HW221615   2.545   4.210  15.302  0.1605 -0.1321 -0.5912
 3327SOL     OW21616   4.523   1.725   4.867 -0.5555 -0.2140 -0.1029
 3327SOL    HW121617   4.504   1.816   4.845 -0.3632 -0.3481 -0.8081
 3327SOL    HW221618   4.562   1.738   4.954  0.1423 -0.3957 -0.3928
 3328SOL     OW21619   4.385   2.950   7.779 -0.1761 -0.0187  0.9596
 3328SOL    HW121620   4.396   3.023   7.719 -1.5132  1.3771  2.4104
 3328SOL    HW221621   4.439   2.977   7.853 -0.3818 -1.1352  1.5269
 3329SOL     OW21622   3.811   3.749   6.158 -0.0540  0.4107  0.3622
 3329SOL    HW121623   3.815   3.755   6.254 -1.4655 -0.0135  0.4436
 3329SOL    HW221624   3.866   3.672   6.143  0.1979  0.7063 -0.2310
 3330SOL     OW21625   0.707   4.618   1.298 -0.0111 -0.2881  0.1278
 3330SOL    HW121626   0.763   4.588   1.369 -0.3638  1.2964  1.0749
 3330SOL    HW221627   0.777   4.614   1.233 -0.3673  0.1794 -0.2803
 3331SOL     OW21628   2.823   3.796   5.579 -0.8188  0.7150 -0.2411
 3331SOL    HW121629   2.737   3.818   5.545 -2.1225  0.0655  2.6193
 3331SOL    HW221630   2.793   3.783   5.669 -1.2795  1.3984 -0.3019
 3332SOL     OW21631   2.852   0.347   1.301  0.3900 -0.1680  0.1534
 3332SOL    HW121632   2.835   0.295   1.379  1.2228 -1.4989 -0.5545
 3332SOL    HW221633   2.765   0.382   1.283  1.1821  1.6731 -0.0697
 3333SOL     OW21634   2.395   2.745   6.524  0.0101  0.6157  0.4256
 3333SOL    HW121635   2.318   2.705   6.564  1.4301 -3.5335 -1.0714
 3333SOL    HW221636   2.350   2.796   6.457  1.8110 -0.1791 -1.3667
 3334SOL     OW21637   4.175   2.702   4.596  0.3521  0.2980 -0.0668
 3334SOL    HW121638   4.147   2.624   4.549 -1.1143  1.6910 -1.4733
 3334SOL    HW221639   4.268   2.718   4.577  0.5978  0.2988  1.1227
 3335SOL     OW21640   1.841   4.513   6.830 -0.1099 -0.8804  0.3801
 3335SOL    HW121641   1.809   4.424   6.849 -1.8920 -0.5971 -1.2644
 3335SOL    HW221642   1.813   4.516   6.738 -1.9472 -0.2470  0.9478
 3336SOL     OW21643   0.679   0.704   3.333 -1.0082 -0.1405 -0.2865
 3336SOL    HW121644   0.652   0.629   3.280 -0.0359 -1.0316  0.4661
 3336SOL    HW221645   0.676   0.777   3.271 -0.5830  0.9623  0.9785
 3337SOL     OW21646   0.316   2.731   8.575  0.1659  0.4150  0.0746
 3337SOL    HW121647   0.257   2.806   8.583 -1.4426 -1.0234  1.8294
 3337SOL    HW221648   0.302   2.693   8.662  1.4914  0.1229  0.1627
 3338SOL     OW21649   3.757   4.564  12.934 -0.5510 -0.5487 -0.2971
 3338SOL    HW121650   3.847   4.576  12.905 -0.4175  0.0913  0.3779
 3338SOL    HW221651   3.748   4.636  12.997 -0.7520 -0.0853 -0.8486
 3339SOL     OW21652   4.544   1.729   5.614  0.0078 -0.7279  0.0522
 3339SOL    HW121653   4.458   1.713   5.653  0.3963 -2.7191  0.0797
 3339SOL    HW221654   4.520   1.801   5.556  0.0289 -0.0277  0.9222
 3340SOL     OW21655   1.644   3.449   3.966  0.5462 -0.2144  0.0501
 3340SOL    HW121656   1.573   3.453   4.030 -0.3203  0.8432 -0.9730
 3340SOL    HW221657   1.595   3.441   3.884 -0.8743  2.9031  0.6294
 3341SOL     OW21658   0.355   0.969   5.134 -0.1396  0.1224  0.0965
 3341SOL    HW121659   0.437   0.920   5.145  0.7097  1.6706  0.7532
 3341SOL    HW221660   0.323   0.929   5.053  0.1064  0.1298 -0.0043
 3342SOL     OW21661   3.742   0.545   7.937  0.1487  0.3976  0.1934
 3342SOL    HW121662   3.662   0.494   7.945  1.2654 -1.3809 -0.0560
 3342SOL    HW221663   3.722   0.626   7.890 -0.0880  1.4677  2.1212
 3343SOL     OW21664   0.928   3.265   4.182 -0.1796  0.2974  0.2833
 3343SOL    HW121665   0.839   3.243   4.212 -0.1359 -0.8992 -0.4782
 3343SOL    HW221666   0.891   3.318   4.111  0.2354 -1.2531 -1.0528
 3344SOL     OW21667   4.739   2.839  16.319 -0.0399 -0.2111 -0.3768
 3344SOL    HW121668   4.703   2.877  16.239 -0.6688  1.7221  0.8280
 3344SOL    HW221669   0.070   2.902  16.328  0.7099 -1.1529  0.3482
 3345SOL     OW21670   1.209   0.194   2.654  0.1313  0.7922  0.6509
 3345SOL    HW121671   1.250   0.122   2.701 -2.1651 -0.0636  1.3482
 3345SOL    HW221672   1.250   0.272   2.692 -0.6321  0.4474  2.1664
 3346SOL     OW21673   4.098   1.887   6.583  0.1251  0.4718  0.1180
 3346SOL    HW121674   4.075   1.978   6.600  0.0492  0.4652  0.0473
 3346SOL    HW221675   4.187   1.895   6.547  0.0009 -0.2860 -0.3507
 3347SOL     OW21676   3.219   3.825   8.745 -0.5189 -0.4325  0.4761
 3347SOL    HW121677   3.128   3.845   8.723  0.8058  0.7444 -3.8908
 3347SOL    HW221678   3.230   3.736   8.712  2.5048  0.2052 -0.1730
 3348SOL     OW21679   2.163   0.613  16.257 -0.1313  0.6223  0.2762
 3348SOL    HW121680   2.257   0.615  16.241 -0.5442  1.6001 -1.9398
 3348SOL    HW221681   2.151   0.519  16.274 -1.7746  0.7040 -0.4175
 3349SOL     OW21682   3.805   1.560  14.757 -0.0818  0.2876  0.4856
 3349SOL    HW121683   3.831   1.618  14.686 -0.0230 -0.3797 -0.0449
 3349SOL    HW221684   3.856   1.589  14.832  2.4524 -2.2169 -0.2649
 3350SOL     OW21685   4.384   4.471   7.308 -0.2434 -1.2008  0.4388
 3350SOL    HW121686   4.342   4.421   7.238  0.5088  2.0421 -2.3275
 3350SOL    HW221687   4.479   4.462   7.297 -0.3080 -1.5296  0.1763
 3351SOL     OW21688   3.497   3.138  13.703  0.5403  1.1263  0.2330
 3351SOL    HW121689   3.550   3.215  13.680 -1.2716  1.4185 -2.8854
 3351SOL    HW221690   3.409   3.175  13.691  1.0114  2.2724  0.2619
 3352SOL     OW21691   0.050   1.617   9.941 -0.0464 -0.0281 -0.5398
 3352SOL    HW121692   0.002   1.598  10.022 -1.2834  2.4639 -0.6708
 3352SOL    HW221693   0.033   1.711   9.932 -1.2829 -0.1995 -0.0374
 3353SOL     OW21694   0.020   1.719   1.958 -0.9925 -0.0275  0.3120
 3353SOL    HW121695   0.104   1.748   1.921 -1.3288 -0.1212 -0.5089
 3353SOL    HW221696   0.023   1.751   2.049 -0.1704 -1.6766  0.8551
 3354SOL     OW21697   1.468   0.472   9.791  0.0216 -0.4607  0.0033
 3354SOL    HW121698   1.466   0.422   9.710  3.8902  2.6807 -2.0141
 3354SOL    HW221699   1.509   0.406   9.847 -0.3519 -0.0901  0.7166
 3355SOL     OW21700   1.901   1.018  12.164  0.4503  0.2012  0.4927
 3355SOL    HW121701   1.936   0.938  12.203 -2.9002 -2.0639 -1.1355
 3355SOL    HW221702   1.978   1.052  12.117  0.9282  0.0570  1.1733
 3356SOL     OW21703   2.127   2.803   7.201 -0.2087 -0.0609  0.3663
 3356SOL    HW121704   2.068   2.857   7.149 -1.7883 -0.7210  1.4906
 3356SOL    HW221705   2.183   2.768   7.132 -0.9689  0.1072 -0.3357
 3357SOL     OW21706   1.912   2.548  12.075  0.0029  0.5637  0.0101
 3357SOL    HW121707   1.882   2.574  12.162  1.0142 -2.8243  1.3816
 3357SOL    HW221708   1.842   2.586  12.023 -1.4516 -0.2502  1.3847
 3358SOL     OW21709   2.130   0.079  17.163 -0.0616  0.0978 -0.1177
 3358SOL    HW121710   2.058   0.043  17.113  0.0497  1.1973 -1.0730
 3358SOL    HW221711   2.077   0.106  17.238  0.8608 -0.0045  0.5724
 3359SOL     OW21712   1.642   2.271   2.647 -0.2306  0.0248  0.2098
 3359SOL    HW121713   1.676   2.182   2.651 -1.7763 -0.5869 -0.2488
 3359SOL    HW221714   1.560   2.252   2.603 -0.5595 -0.1186  0.8824
 3360SOL     OW21715   0.306   2.766   5.495  0.2852 -0.3337 -0.0052
 3360SOL    HW121716   0.220   2.804   5.477  1.1662  2.4368  1.6099
 3360SOL    HW221717   0.281   2.674   5.500 -0.6133 -0.2037 -2.2169
 3361SOL     OW21718   2.438   0.831  13.548 -0.6155  0.0576  0.0451
 3361SOL    HW121719   2.404   0.750  13.510  2.5034 -1.1398 -0.2164
 3361SOL    HW221720   2.354   0.870  13.572  0.5064  1.5663  1.4929
 3362SOL     OW21721   3.198   3.349   4.862  0.8980 -0.2881 -0.0478
 3362SOL    HW121722   3.145   3.283   4.818  0.7092  0.3961 -0.8426
 3362SOL    HW221723   3.210   3.403   4.785 -1.4379  4.8395  3.1820
 3363SOL     OW21724   2.750   4.280  15.672 -0.3881  0.0473 -0.0982
 3363SOL    HW121725   2.735   4.337  15.596 -0.7648  2.5378  1.8073
 3363SOL    HW221726   2.801   4.214  15.627 -1.6996 -1.7339  1.0387
 3364SOL     OW21727   1.555   1.464   2.290 -0.3933 -0.0796 -0.3622
 3364SOL    HW121728   1.604   1.506   2.360 -0.5681  0.0288 -0.3065
 3364SOL    HW221729   1.477   1.429   2.333 -0.6264 -0.8148 -1.3680
 3365SOL     OW21730   1.401   1.235   4.239  0.1241  1.1439  0.4209
 3365SOL    HW121731   1.375   1.188   4.160  1.2669 -0.1745  0.8294
 3365SOL    HW221732   1.396   1.162   4.301  3.4923  1.3344  0.9204
 3366SOL     OW21733   1.354   3.859   6.789 -0.2019  0.5339 -0.0670
 3366SOL    HW121734   1.365   3.921   6.862  1.6037 -1.5998  1.4843
 3366SOL    HW221735   1.388   3.778   6.828  1.6300  0.3465 -2.0457
 3367SOL     OW21736   0.510   2.666   8.403 -0.0444  0.5465 -0.0384
 3367SOL    HW121737   0.522   2.578   8.438 -0.4136  0.1106 -0.9912
 3367SOL    HW221738   0.434   2.693   8.455  0.2365 -1.8492  1.5871
 3368SOL     OW21739   4.601   1.590  14.479  0.1559  1.0469 -0.2364
 3368SOL    HW121740   4.678   1.598  14.535  0.8437 -3.6028 -0.4566
 3368SOL    HW221741   4.649   1.613  14.399  0.7736  0.3212 -0.0751
 3369SOL     OW21742   1.867   2.668   3.557  0.0198  0.5008  0.0268
 3369SOL    HW121743   1.940   2.708   3.510  1.6510  0.4056  2.4937
 3369SOL    HW221744   1.894   2.577   3.572 -0.6113  0.1919 -0.6932
 3370SOL     OW21745   2.552   0.136   7.185 -0.3458 -0.8987  0.2890
 3370SOL    HW121746   2.488   0.101   7.124 -0.0124 -2.8165  1.0263
 3370SOL    HW221747   2.591   0.196   7.122 -1.1645  2.5617  3.0463
 3371SOL     OW21748   0.995   2.853   3.446  0.2428  0.1659  0.1345
 3371SOL    HW121749   0.999   2.889   3.535 -0.1981  0.1468  0.1604
 3371SOL    HW221750   0.903   2.871   3.426 -0.1597 -1.8311  0.1541
 3372SOL     OW21751   1.684   2.101  11.657 -0.2723  0.7915  0.0261
 3372SOL    HW121752   1.620   2.035  11.681  0.3868  0.3630  0.6044
 3372SOL    HW221753   1.686   2.152  11.739 -0.5718  0.2014  0.3960
 3373SOL     OW21754   4.667   1.690  10.166 -0.2810  0.1563 -0.4470
 3373SOL    HW121755   4.618   1.673  10.247 -0.9646  2.7124 -0.3153
 3373SOL    HW221756   4.645   1.780  10.142  2.1114  0.5847 -1.0134
 3374SOL     OW21757   2.350   4.587  15.739 -0.1340  0.1661  0.1267
 3374SOL    HW121758   2.372   4.666  15.691  0.8330 -0.3451 -0.2623
 3374SOL    HW221759   2.402   4.592  15.818 -1.2949 -1.3839  0.9935
 3375SOL     OW21760   1.488   2.684   2.081  0.3311  0.2752  0.3296
 3375SOL    HW121761   1.547   2.743   2.033  0.7596  0.6232  1.2936
 3375SOL    HW221762   1.515   2.709   2.169 -0.1563  2.7179 -0.2267
 3376SOL     OW21763   0.039   2.046   9.210  0.5865  0.0850  0.0744
 3376SOL    HW121764   0.011   2.137   9.217 -0.4997 -0.0613 -2.3134
 3376SOL    HW221765   0.129   2.055   9.241  0.1454 -1.1594  1.7310
 3377SOL     OW21766   4.124   2.548   3.936  0.0319 -0.1121 -0.1455
 3377SOL    HW121767   4.082   2.535   3.851 -2.4125 -1.3224  1.2682
 3377SOL    HW221768   4.207   2.501   3.928 -0.0227 -0.1329 -0.5838
 3378SOL     OW21769   2.102   2.650   6.777  0.0141 -0.1408  0.1340
 3378SOL    HW121770   2.047   2.572   6.783  0.0882 -0.0704  1.6962
 3378SOL    HW221771   2.148   2.654   6.861  1.2407  1.5985 -0.6384
 3379SOL     OW21772   2.439   1.018   8.968  0.3344 -0.2542  0.7507
 3379SOL    HW121773   2.379   0.986   9.035 -0.0260 -3.9157 -1.3561
 3379SOL    HW221774   2.474   0.940   8.926 -0.4479 -1.2134  1.8870
 3380SOL     OW21775   0.651   1.487   2.626 -0.5853 -0.2410  0.1516
 3380SOL    HW121776   0.626   1.579   2.625  1.3464  0.3041  2.4744
 3380SOL    HW221777   0.735   1.487   2.580  1.0968  2.0005  3.2047
 3381SOL     OW21778   0.963   2.184   8.192  0.2021  0.0527  0.1692
 3381SOL    HW121779   1.000   2.102   8.161 -0.6959 -0.1751 -0.2814
 3381SOL    HW221780   0.904   2.153   8.260 -1.3160 -0.2293 -1.2861
 3382SOL     OW21781   1.752   0.838  17.382  0.1312 -0.5052 -0.2185
 3382SOL    HW121782   1.831   0.857  17.432 -1.5863  1.5764  1.6887
 3382SOL    HW221783   1.695   0.821  17.457 -0.9913  3.2195 -0.2621
 3383SOL     OW21784   2.546   3.777   8.481 -0.2085  0.0576 -0.2376
 3383SOL    HW121785   2.452   3.786   8.492 -0.7576 -0.5379 -4.2772
 3383SOL    HW221786   2.578   3.867   8.484 -0.0333 -0.0437  0.9510
 3384SOL     OW21787   1.714   0.638   5.253 -0.3843 -0.4383 -0.5213
 3384SOL    HW121788   1.675   0.717   5.291 -0.7198 -0.8193 -0.0799
 3384SOL    HW221789   1.649   0.570   5.270 -1.1231  0.0948 -1.1825
 3385SOL     OW21790   1.035   3.899   0.542 -0.4309 -0.3373 -0.2060
 3385SOL    HW121791   1.047   3.985   0.581 -0.0169 -0.3389 -0.3331
 3385SOL    HW221792   1.068   3.917   0.454 -0.0504  1.9474  0.4038
 3386SOL     OW21793   0.238   1.089   4.299 -0.3157 -0.0781 -0.3995
 3386SOL    HW121794   0.260   1.007   4.254  1.7453  0.3354 -0.1183
 3386SOL    HW221795   0.325   1.128   4.308 -0.1652 -0.1515 -1.4622
 3387SOL     OW21796   0.039   1.333   7.943 -0.2671 -0.6245 -0.1277
 3387SOL    HW121797   0.038   1.251   7.992  2.7319 -1.2844 -1.1759
 3387SOL    HW221798   4.715   1.311   7.875 -1.3369  3.3313 -0.3834
 3388SOL     OW21799   3.149   1.128  14.110  0.0932  1.0281  0.3088
 3388SOL    HW121800   3.108   1.042  14.111  1.4231  0.4130  0.3817
 3388SOL    HW221801   3.117   1.152  14.023 -1.0707 -1.2048  0.1194
 3389SOL     OW21802   2.556   3.759  16.583  0.2223 -0.0202 -0.0075
 3389SOL    HW121803   2.540   3.825  16.650 -1.4827 -0.3182 -0.1282
 3389SOL    HW221804   2.478   3.704  16.586  0.8225 -0.8463  0.5406
 3390SOL     OW21805   2.793   4.210   3.149  0.2666 -0.8758 -0.2610
 3390SOL    HW121806   2.855   4.282   3.160 -1.0886  0.4796 -1.5366
 3390SOL    HW221807   2.745   4.232   3.229 -0.3422  1.6691 -1.3248
 3391SOL     OW21808   1.331   2.856  13.962 -0.1499  0.4815  0.3115
 3391SOL    HW121809   1.384   2.778  13.949  1.1761  1.4527 -0.1716
 3391SOL    HW221810   1.369   2.883  14.046  0.8398  0.3836 -0.1018
 3392SOL     OW21811   1.000   2.315   9.258  0.4671 -0.0571 -0.8140
 3392SOL    HW121812   1.082   2.266   9.263 -0.0472 -0.9521 -1.2503
 3392SOL    HW221813   1.034   2.392   9.213  1.1414  1.4292  2.2532
 3393SOL     OW21814   2.158   3.437   5.027  0.0701  0.9362  0.1375
 3393SOL    HW121815   2.130   3.351   4.995  1.3971  1.2155 -1.7800
 3393SOL    HW221816   2.240   3.420   5.074  0.4218  0.7953 -0.5298
 3394SOL     OW21817   3.769   2.651   6.348 -0.5121 -0.0207  0.3877
 3394SOL    HW121818   3.799   2.735   6.383 -1.0280  0.7565 -1.0510
 3394SOL    HW221819   3.784   2.602   6.429  0.1638 -2.1917 -1.0437
 3395SOL     OW21820   4.574   1.819  15.968 -0.7502 -0.5216  0.8387
 3395SOL    HW121821   4.618   1.882  15.911 -0.2810 -0.2134  1.5277
 3395SOL    HW221822   4.515   1.786  15.901  1.8025 -0.2650 -1.5623
 3396SOL     OW21823   4.562   4.326   9.384 -0.0390  0.5165  0.5266
 3396SOL    HW121824   4.557   4.250   9.326  0.7469  0.2085  0.8663
 3396SOL    HW221825   4.473   4.338   9.415  0.2830  1.8109  0.9559
 3397SOL     OW21826   0.778   3.772   6.925 -0.2656 -0.2936  0.2761
 3397SOL    HW121827   0.828   3.804   6.850 -1.2696  2.2975  0.7242
 3397SOL    HW221828   0.842   3.706   6.954  1.6585  0.9520 -1.1567
 3398SOL     OW21829   1.948   0.739  10.147  0.0295  0.5469 -0.2457
 3398SOL    HW121830   1.973   0.724  10.055 -1.3597 -0.4723 -0.4584
 3398SOL    HW221831   1.852   0.740  10.145  0.0618  0.7730 -1.9308
 3399SOL     OW21832   2.508   1.067   7.802  0.6078  0.4931  0.0324
 3399SOL    HW121833   2.515   1.083   7.708 -1.8381  1.5821  0.0427
 3399SOL    HW221834   2.436   1.121   7.832  0.6025  0.5403 -0.0664
 3400SOL     OW21835   1.946   2.050   2.430 -0.0533 -0.1733 -0.3603
 3400SOL    HW121836   1.965   2.123   2.489 -0.4096  0.4212 -0.9838
 3400SOL    HW221837   1.965   2.095   2.348 -0.3448  0.5542 -0.0333
 3401SOL     OW21838   3.200   2.916   2.182  0.4017  0.3968 -0.0368
 3401SOL    HW121839   3.201   2.859   2.259 -1.0489 -1.6463 -1.5129
 3401SOL    HW221840   3.125   2.974   2.196  0.4485  0.3084  0.5875
 3402SOL     OW21841   2.681   2.121   1.460  0.2238  0.4017  0.5405
 3402SOL    HW121842   2.593   2.151   1.485 -0.1191  0.0650 -0.2797
 3402SOL    HW221843   2.677   2.031   1.491  0.0263  0.6563  1.2564
 3403SOL     OW21844   2.849   0.012   3.333 -0.1069 -0.0457  0.5044
 3403SOL    HW121845   2.823   0.075   3.400 -1.6486 -1.1567  0.9474
 3403SOL    HW221846   2.944   0.022   3.344  0.0150  0.1812 -0.7584
 3404SOL     OW21847   0.406   0.547   7.802 -0.3007  1.1350 -0.1617
 3404SOL    HW121848   0.313   0.522   7.798  0.0003  0.7649 -4.9349
 3404SOL    HW221849   0.402   0.617   7.736 -2.0806  3.0821  2.0234
 3405SOL     OW21850   2.209   0.182   4.921  0.3842 -0.6195 -0.2197
 3405SOL    HW121851   2.131   0.128   4.938  0.0301 -0.2726 -0.7397
 3405SOL    HW221852   2.283   0.136   4.960 -0.3940 -0.0837  1.9063
 3406SOL     OW21853   4.154   4.217   6.866 -0.0387 -0.5817 -0.5007
 3406SOL    HW121854   4.100   4.204   6.944  1.2239  0.6740  0.5492
 3406SOL    HW221855   4.152   4.312   6.853  0.0966 -0.5501 -0.2807
 3407SOL     OW21856   4.683   3.015  17.368 -0.1595 -0.1793  0.1673
 3407SOL    HW121857   0.006   3.078  17.403 -0.6808  1.0766 -1.1200
 3407SOL    HW221858   4.739   2.965  17.309  1.2873 -0.5911  1.9036
 3408SOL     OW21859   0.654   4.575   5.798 -0.2182 -0.8544  0.0923
 3408SOL    HW121860   0.631   4.644   5.860 -1.1933 -1.6132  0.5954
 3408SOL    HW221861   0.749   4.583   5.792 -0.6729  3.2342 -1.4292
 3409SOL     OW21862   2.444   1.333   2.453 -0.2457  0.2832  0.4632
 3409SOL    HW121863   2.496   1.253   2.454 -2.1687 -0.9915 -4.2506
 3409SOL    HW221864   2.445   1.354   2.547  1.2529  2.1899  0.0237
 3410SOL     OW21865   1.801   0.482   2.954  0.3404  0.6076  0.2120
 3410SOL    HW121866   1.736   0.466   2.886  2.5289 -0.1604 -1.7030
 3410SOL    HW221867   1.773   0.567   2.987 -2.7955 -1.1040  2.0147
 3411SOL     OW21868   3.277   3.187   8.359  0.5388 -0.2048 -0.1058
 3411SOL    HW121869   3.234   3.150   8.436  1.2052  2.6360  1.6363
 3411SOL    HW221870   3.294   3.112   8.302  0.6555  0.6735 -1.2421
 3412SOL     OW21871   0.271   1.843   2.937 -0.2814  0.5471 -0.0797
 3412SOL    HW121872   0.335   1.901   2.895  0.4071 -0.4574 -0.4115
 3412SOL    HW221873   0.195   1.900   2.948 -0.5994  0.0704  0.2130
 3413SOL     OW21874   1.264   3.845   8.544  0.1696  0.1426  0.4737
 3413SOL    HW121875   1.178   3.847   8.502  0.1480 -0.6250  0.4773
 3413SOL    HW221876   1.236   3.832   8.635 -1.6928  0.4594 -0.0661
 3414SOL     OW21877   2.235   3.787  10.393  0.1449  0.3119  0.3272
 3414SOL    HW121878   2.204   3.877  10.380 -2.8472 -0.4808  2.2291
 3414SOL    HW221879   2.222   3.744  10.308  2.9344  1.2647 -0.6107
 3415SOL     OW21880   4.085   4.737   4.365  0.1082  0.3482  0.0882
 3415SOL    HW121881   4.061   0.089   4.359 -3.1353 -0.4264  1.0089
 3415SOL    HW221882   4.003   4.702   4.401 -0.3567  1.5792  0.2318
 3416SOL     OW21883   4.037   2.921  12.761  0.0593  0.3502  0.1942
 3416SOL    HW121884   4.084   2.842  12.738  1.9014  1.0834  1.4556
 3416SOL    HW221885   4.104   2.979  12.797  0.6629  0.9899 -1.9761
 3417SOL     OW21886   1.979   3.199   4.879 -0.0757  0.3457  0.4368
 3417SOL    HW121887   1.933   3.129   4.831  0.9918  0.5392 -0.8347
 3417SOL    HW221888   1.976   3.157   4.966 -1.9488 -0.4824 -0.0139
 3418SOL     OW21889   0.440   3.356   3.034  0.2598 -0.1436 -0.3816
 3418SOL    HW121890   0.414   3.309   3.113  1.4827 -1.4679 -0.7552
 3418SOL    HW221891   0.458   3.445   3.062 -2.0895  1.1327 -2.9136
 3419SOL     OW21892   3.215   3.473   3.068  0.2241 -0.4907 -0.1105
 3419SOL    HW121893   3.198   3.558   3.107 -0.8116 -0.0899 -1.4509
 3419SOL    HW221894   3.202   3.487   2.974 -3.2769 -1.1192  0.3065
 3420SOL     OW21895   3.261   1.042   7.860 -0.3551  0.1597 -0.5854
 3420SOL    HW121896   3.214   0.961   7.882 -0.7370  0.2304 -1.1209
 3420SOL    HW221897   3.219   1.074   7.780 -3.1062  1.1952  1.2663
 3421SOL     OW21898   0.750   1.815   5.259 -0.4392  0.2918 -0.2976
 3421SOL    HW121899   0.718   1.886   5.203  0.5058  0.7985 -0.1873
 3421SOL    HW221900   0.714   1.739   5.213 -0.1452 -0.4185  0.6425
 3422SOL     OW21901   0.407   3.562  12.219  0.1802 -0.5326  0.7106
 3422SOL    HW121902   0.481   3.542  12.277  0.9087  0.0221 -0.0426
 3422SOL    HW221903   0.429   3.648  12.184 -0.2030 -1.1419 -0.9850
 3423SOL     OW21904   3.101   0.535   8.311 -0.4802  0.8486  0.5646
 3423SOL    HW121905   3.072   0.459   8.362 -1.2801  0.0467 -1.1063
 3423SOL    HW221906   3.015   0.554   8.273 -0.1761  1.3080  0.1083
 3424SOL     OW21907   0.955   2.154   7.503  0.2950 -0.2032  0.6617
 3424SOL    HW121908   0.911   2.213   7.442 -1.7939 -0.6152  1.7636
 3424SOL    HW221909   0.884   2.098   7.535  0.1624 -0.2614  0.2710
 3425SOL     OW21910   4.263   0.794  17.086 -0.0912  0.1837  0.3116
 3425SOL    HW121911   4.317   0.775  17.163 -0.1644 -1.7307 -0.1242
 3425SOL    HW221912   4.215   0.712  17.081 -0.5133  0.3696  1.3877
 3426SOL     OW21913   1.349   2.673   2.910  0.1387  0.1490 -0.1270
 3426SOL    HW121914   1.361   2.615   2.835  2.8900  1.4794 -0.7203
 3426SOL    HW221915   1.297   2.614   2.965  1.0037  0.8841  1.4978
 3427SOL     OW21916   3.485   0.665   7.566 -0.2446 -0.1796  0.3218
 3427SOL    HW121917   3.420   0.735   7.553 -0.7496 -0.6899  0.0499
 3427SOL    HW221918   3.424   0.591   7.562 -0.2594 -0.2304  1.7659
 3428SOL     OW21919   1.423   0.031   0.658  0.0145  0.3171  0.8501
 3428SOL    HW121920   1.461   0.049   0.744  1.4654  1.3538 -0.0203
 3428SOL    HW221921   1.442   0.112   0.611  2.4037 -1.2829 -0.9127
 3429SOL     OW21922   0.781   1.003   8.517 -0.0352 -0.5143  0.2601
 3429SOL    HW121923   0.774   1.098   8.528  0.0416 -0.4766 -0.0164
 3429SOL    HW221924   0.728   0.995   8.438 -0.2473 -3.1527  0.6659
 3430SOL     OW21925   3.041   1.943   3.634  0.0820 -0.6234  0.4613
 3430SOL    HW121926   3.008   1.967   3.720  1.0273  0.2947  0.5712
 3430SOL    HW221927   3.125   1.988   3.632 -0.6062  0.6075 -1.9559
 3431SOL     OW21928   0.118   2.786   7.660  0.3825  0.7017  0.6745
 3431SOL    HW121929   0.055   2.729   7.704  1.4975 -3.1125 -2.6503
 3431SOL    HW221930   0.156   2.726   7.596  1.1861 -1.6360  3.3948
 3432SOL     OW21931   0.879   4.010   7.118 -0.0307 -0.3537 -0.4151
 3432SOL    HW121932   0.939   3.936   7.103  1.2389  0.3618  1.1755
 3432SOL    HW221933   0.884   4.043   7.028  0.8115  0.4014 -0.0934
 3433SOL     OW21934   3.248   1.372   7.112  0.3387 -0.8628  0.1830
 3433SOL    HW121935   3.293   1.366   7.028  0.1468  2.0234 -0.1518
 3433SOL    HW221936   3.191   1.447   7.092  1.8027 -0.4356 -2.3510
 3434SOL     OW21937   4.390   0.152   8.421 -0.6439 -0.2628 -0.3948
 3434SOL    HW121938   4.365   0.164   8.513  1.8698  0.0665  0.2569
 3434SOL    HW221939   4.427   0.238   8.400 -0.4797  0.0994  1.3021
 3435SOL     OW21940   3.090   2.978   3.420 -0.0566 -0.8587  0.2976
 3435SOL    HW121941   3.080   3.066   3.456 -1.3397 -1.2385  0.8584
 3435SOL    HW221942   3.017   2.976   3.358 -1.1964  1.2142  1.5800
 3436SOL     OW21943   0.015   1.138   8.689  0.6667  0.5083  0.1286
 3436SOL    HW121944   4.734   1.167   8.777  1.2991 -2.2635  1.2041
 3436SOL    HW221945   0.101   1.179   8.679  0.2913  1.0489 -0.9151
 3437SOL     OW21946   3.230   0.003  11.467 -0.6034  0.3303  0.4110
 3437SOL    HW121947   3.257   4.653  11.453 -2.7745 -0.1680 -0.5356
 3437SOL    HW221948   3.179   4.734  11.547  0.4522 -1.9409  0.8146
 3438SOL     OW21949   0.989   2.202   4.650  0.3983  0.2737 -0.2378
 3438SOL    HW121950   0.901   2.220   4.682 -0.7794 -4.3648 -0.9848
 3438SOL    HW221951   0.984   2.122   4.599 -1.3568  0.7158 -0.7470
 3439SOL     OW21952   4.457   0.654   3.957  0.1095 -0.2898 -0.0088
 3439SOL    HW121953   4.511   0.655   3.878  1.0977 -1.3620  0.6637
 3439SOL    HW221954   4.477   0.743   3.988 -1.8000  0.2813 -0.3921
 3440SOL     OW21955   2.403   2.291   3.029  0.1877 -0.3358 -0.2063
 3440SOL    HW121956   2.411   2.287   3.125 -0.8618 -0.0693 -0.1115
 3440SOL    HW221957   2.479   2.347   3.011 -1.2759  1.4832 -0.7116
 3441SOL     OW21958   1.456   4.076  16.080  0.5884  0.2507 -0.0090
 3441SOL    HW121959   1.427   4.126  16.004  0.0137 -0.2109 -0.0913
 3441SOL    HW221960   1.528   4.029  16.037  0.3786 -1.5821  1.6724
 3442SOL     OW21961   3.042   2.551   3.583  0.1332 -0.1819 -0.2037
 3442SOL    HW121962   3.032   2.638   3.544  0.1042 -1.0004 -1.9852
 3442SOL    HW221963   2.950   2.530   3.604  0.4412  0.0595  1.4210
 3443SOL     OW21964   3.139   1.381  12.039  0.4775 -0.1186 -0.5487
 3443SOL    HW121965   3.175   1.464  12.072  0.1026  0.0216 -0.4912
 3443SOL    HW221966   3.052   1.405  12.008 -0.1278  0.5852  1.7184
 3444SOL     OW21967   3.132   2.187   9.652  0.6961 -0.2191  0.3447
 3444SOL    HW121968   3.147   2.093   9.642 -2.5706 -0.8402  1.2677
 3444SOL    HW221969   3.222   2.220   9.656  0.6329 -0.2325  2.0412
 3445SOL     OW21970   1.939   2.019  10.128 -0.2053 -1.0825  0.4879
 3445SOL    HW121971   2.000   2.092  10.125 -0.3013 -1.0111  0.2372
 3445SOL    HW221972   1.886   2.031  10.207  0.1520 -0.4177  0.6203
 3446SOL     OW21973   0.227   4.310  16.018 -0.1626 -0.4449  0.4661
 3446SOL    HW121974   0.231   4.368  15.943  0.2931  0.3107  1.0842
 3446SOL    HW221975   0.305   4.338  16.065  0.9264  0.0324 -1.6517
 3447SOL     OW21976   1.056   1.259   4.538 -0.2501 -0.0319 -0.2378
 3447SOL    HW121977   1.132   1.218   4.581  0.2045  0.0527 -0.9611
 3447SOL    HW221978   1.083   1.247   4.447 -0.3615  1.8756 -0.5284
 3448SOL     OW21979   4.268   3.354  16.119 -0.6181 -0.1286  0.2765
 3448SOL    HW121980   4.224   3.396  16.045 -1.1116 -1.4563 -0.1852
 3448SOL    HW221981   4.247   3.264  16.092 -0.0944 -0.3202  0.4992
 3449SOL     OW21982   2.943   2.260   7.934 -0.1165  0.0742  0.2950
 3449SOL    HW121983   2.863   2.208   7.928 -0.4175  0.3869  1.4712
 3449SOL    HW221984   2.913   2.338   7.887 -0.2395 -0.6108 -0.7473
 3450SOL     OW21985   3.151   2.815   7.929  0.8168 -0.8265 -0.1839
 3450SOL    HW121986   3.099   2.894   7.947  1.6645 -0.5358  1.0110
 3450SOL    HW221987   3.238   2.854   7.925  0.1555  0.3168 -3.0849
 3451SOL     OW21988   1.436   2.258   1.969 -0.5340 -0.7520  0.4808
 3451SOL    HW121989   1.480   2.285   2.050  0.7203  2.0238 -1.1520
 3451SOL    HW221990   1.429   2.163   1.963 -1.0522 -0.7609  1.2497
 3452SOL     OW21991   2.308   1.338   3.406 -0.5933 -0.7823 -0.1243
 3452SOL    HW121992   2.234   1.314   3.351 -1.2734 -1.5441  1.1182
 3452SOL    HW221993   2.328   1.258   3.455 -1.5570 -1.7300 -1.3047
 3453SOL     OW21994   0.178   2.245  13.397 -0.2419 -0.3110  0.3085
 3453SOL    HW121995   0.158   2.153  13.415 -1.1402  0.0474  1.1238
 3453SOL    HW221996   0.138   2.291  13.470 -1.8219  1.7239 -1.8237
 3454SOL     OW21997   3.820   1.710   9.214  0.2705 -0.2963  0.4513
 3454SOL    HW121998   3.863   1.643   9.161  2.8568  0.1901  1.9238
 3454SOL    HW221999   3.768   1.756   9.147  0.9284 -0.0068  0.1285
 3455SOL     OW22000   3.214   2.028   2.111  0.1688  0.2079 -0.4588
 3455SOL    HW122001   3.261   1.958   2.065  1.5660  0.1970  1.0022
 3455SOL    HW222002   3.276   2.031   2.183  0.4818  2.6803 -0.8221
 3456SOL     OW22003   3.962   2.086  13.235  0.0148  0.3240  0.1601
 3456SOL    HW122004   3.991   2.074  13.325  0.8425 -0.3551 -0.2043
 3456SOL    HW222005   3.946   2.180  13.243 -1.2458  0.1722 -0.5120
 3457SOL     OW22006   2.464   3.591   0.073 -0.5374  0.2241 -0.3296
 3457SOL    HW122007   2.494   3.630   0.154  3.6121  0.5073 -1.9900
 3457SOL    HW222008   2.453   3.676   0.032  0.4436 -0.4099 -1.9108
 3458SOL     OW22009   1.578   0.599  14.610  0.3546  0.1029 -0.1666
 3458SOL    HW122010   1.625   0.569  14.532 -3.2759 -3.5451 -0.9384
 3458SOL    HW222011   1.586   0.694  14.600 -0.6075 -0.1535 -3.7102
 3459SOL     OW22012   3.101   1.232   6.045  0.1814  0.1747  0.3070
 3459SOL    HW122013   3.112   1.305   5.984  2.4157 -1.0159 -0.7033
 3459SOL    HW222014   3.188   1.222   6.084 -0.1277  0.8801  1.1799
 3460SOL     OW22015   1.622   4.173   2.897  0.3977 -0.3849 -0.0132
 3460SOL    HW122016   1.573   4.124   2.830  0.4977 -1.6003  0.8007
 3460SOL    HW222017   1.678   4.224   2.839 -0.6445  0.7077 -0.0802
 3461SOL     OW22018   1.874   3.494   2.730 -0.6690  1.0095 -0.7740
 3461SOL    HW122019   1.796   3.479   2.782  0.5573 -0.9561  0.4669
 3461SOL    HW222020   1.910   3.406   2.721 -1.2429  0.5322  1.6692
 3462SOL     OW22021   1.606   0.794   2.852  0.5820 -0.2980 -0.2550
 3462SOL    HW122022   1.651   0.786   2.768 -0.3316  0.4082 -0.8119
 3462SOL    HW222023   1.547   0.868   2.836  1.0362  0.1386  0.0687
 3463SOL     OW22024   1.044   2.752   7.745  0.5071 -0.3070  0.7956
 3463SOL    HW122025   1.023   2.797   7.662 -1.2978 -2.8092 -0.1015
 3463SOL    HW222026   0.974   2.782   7.804 -0.0570 -1.7951  0.8665
 3464SOL     OW22027   3.803   3.129   3.174  0.2642 -0.8708 -0.0573
 3464SOL    HW122028   3.894   3.126   3.204 -0.2231  0.3410  1.4867
 3464SOL    HW222029   3.778   3.220   3.161 -1.5281 -1.3756 -0.1907
 3465SOL     OW22030   0.334   1.536   5.720 -0.1492  0.1977  0.1295
 3465SOL    HW122031   0.413   1.525   5.773 -0.1690 -2.3204 -0.3835
 3465SOL    HW222032   0.303   1.446   5.720  1.5882 -0.4079  0.3495
 3466SOL     OW22033   1.131   0.609  10.389 -0.4808 -0.1093  0.5651
 3466SOL    HW122034   1.050   0.652  10.414 -0.8478  0.6840 -1.9724
 3466SOL    HW222035   1.145   0.656  10.306 -4.0719 -2.1103 -1.1516
 3467SOL     OW22036   2.138   0.916   7.487 -0.2923 -0.0489  0.3598
 3467SOL    HW122037   2.122   0.880   7.575 -0.7340  0.3775  0.4537
 3467SOL    HW222038   2.125   1.008   7.511  2.4297 -0.1996  2.5178
 3468SOL     OW22039   3.070   2.427  16.609  0.6102  0.0587  0.2002
 3468SOL    HW122040   3.158   2.405  16.579  0.2725  0.2359 -0.9312
 3468SOL    HW222041   3.028   2.452  16.527  0.1192 -0.3308  0.3243
 3469SOL     OW22042   4.517   4.514  16.198  0.0652 -0.3785  0.5079
 3469SOL    HW122043   4.527   4.574  16.271 -2.3639  1.3573 -0.5756
 3469SOL    HW222044   4.548   4.431  16.235  0.5975 -1.1495 -1.6878
 3470SOL     OW22045   3.086   0.251   1.185 -0.6977  0.4649 -0.8083
 3470SOL    HW122046   3.019   0.310   1.220  0.2584  0.1218  1.6538
 3470SOL    HW222047   3.082   0.183   1.252 -0.7820  2.0173  0.7810
 3471SOL     OW22048   2.203   0.165  15.586  0.8289 -0.1017 -0.4886
 3471SOL    HW122049   2.213   0.215  15.505 -0.1165  0.0410 -0.5121
 3471SOL    HW222050   2.295   0.148  15.606  1.4618  4.4374  0.4181
 3472SOL     OW22051   0.322   1.622   6.959  0.0439 -0.2583 -0.0104
 3472SOL    HW122052   0.414   1.596   6.964  0.4919  1.5371  1.1576
 3472SOL    HW222053   0.317   1.675   7.038  3.3887 -0.9745  0.6788
 3473SOL     OW22054   1.541   2.732  15.148 -0.2512 -0.1297  0.1814
 3473SOL    HW122055   1.635   2.746  15.139 -0.3230 -0.6019 -1.3950
 3473SOL    HW222056   1.545   2.649  15.195 -1.0998 -1.8432 -2.7720
 3474SOL     OW22057   1.663   3.421  10.500 -0.3130  0.3497  0.0557
 3474SOL    HW122058   1.744   3.420  10.550  0.2993 -1.2154 -0.9727
 3474SOL    HW222059   1.686   3.488  10.435  2.1299 -0.1075  0.4431
 3475SOL     OW22060   1.898   3.922   7.879  0.1652  0.4136  0.2701
 3475SOL    HW122061   1.821   3.960   7.921 -1.7875 -1.6018 -1.5140
 3475SOL    HW222062   1.966   3.988   7.890  2.5507 -1.7273 -1.5010
 3476SOL     OW22063   3.567   3.657   8.638 -0.9486 -0.1256  0.0269
 3476SOL    HW122064   3.637   3.717   8.612  1.2047 -3.0496 -0.8014
 3476SOL    HW222065   3.555   3.614   8.553 -2.3666 -1.3944  0.8721
 3477SOL     OW22066   2.554   0.472  16.108  0.8865 -0.6631 -0.2907
 3477SOL    HW122067   2.649   0.456  16.105  0.6443 -1.9085 -1.2548
 3477SOL    HW222068   2.531   0.425  16.028 -0.2252 -2.5162  1.1164
 3478SOL     OW22069   2.150   4.295  11.141  0.6704  0.2885 -0.2565
 3478SOL    HW122070   2.182   4.383  11.161  1.6898 -0.4037  1.1234
 3478SOL    HW222071   2.212   4.235  11.183 -1.1430 -0.1961  1.6791
 3479SOL     OW22072   2.198   2.703  10.985  0.2661  0.0418  0.4351
 3479SOL    HW122073   2.155   2.747  11.059 -1.0341 -1.4082  0.5436
 3479SOL    HW222074   2.273   2.658  11.024  1.3117  1.2279 -0.1916
 3480SOL     OW22075   3.473   1.959   9.280 -0.2693  0.7317 -0.1810
 3480SOL    HW122076   3.499   1.872   9.312  1.3195  0.3061 -2.6705
 3480SOL    HW222077   3.530   2.014   9.333  0.7643 -0.4154 -0.0977
 3481SOL     OW22078   4.185   1.069  11.553  0.2341  0.3105 -0.2135
 3481SOL    HW122079   4.181   1.159  11.585  1.1889  0.3109 -0.1160
 3481SOL    HW222080   4.102   1.046  11.510 -1.9845  3.6355  2.3398
 3482SOL     OW22081   3.067   4.453  15.320  0.2761 -0.1086 -0.4711
 3482SOL    HW122082   3.088   4.360  15.311  3.0917  0.5422 -0.6421
 3482SOL    HW222083   3.151   4.490  15.292 -1.3456  2.2578 -2.2370
 3483SOL     OW22084   2.896   3.745  11.829  0.4369 -0.3611 -0.5079
 3483SOL    HW122085   2.907   3.658  11.790  2.2453 -0.5561  0.4571
 3483SOL    HW222086   2.980   3.766  11.869 -0.7734  0.6155  1.4994
 3484SOL     OW22087   1.799   2.202  15.667 -0.6858  0.8097  0.1474
 3484SOL    HW122088   1.799   2.292  15.634 -2.0030  0.8828  0.3323
 3484SOL    HW222089   1.825   2.219  15.757 -1.8646 -1.6389  0.9445
 3485SOL     OW22090   2.143   0.677   7.664  0.1721 -0.0931 -0.1190
 3485SOL    HW122091   2.184   0.681   7.750  0.3485  0.3112 -0.2207
 3485SOL    HW222092   2.100   0.592   7.665  2.9892 -1.5071  0.4225
 3486SOL     OW22093   2.203   1.250   6.768 -0.2277 -0.3827  0.0001
 3486SOL    HW122094   2.158   1.187   6.711  0.1549  0.6132 -1.4002
 3486SOL    HW222095   2.219   1.208   6.853  1.1486  0.4289  0.1379
 3487SOL     OW22096   1.753   2.148   5.692 -0.6451 -0.2580 -0.1987
 3487SOL    HW122097   1.753   2.179   5.783 -1.6980 -1.6510  0.2746
 3487SOL    HW222098   1.660   2.140   5.669 -0.9749 -1.1797  1.4032
 3488SOL     OW22099   3.212   2.758   9.403 -0.5414 -0.0270 -0.2952
 3488SOL    HW122100   3.224   2.743   9.309  0.4495 -0.9262 -0.0263
 3488SOL    HW222101   3.149   2.688   9.419  0.5835 -0.9064  0.2914
 3489SOL     OW22102   2.706   1.219   6.082  0.3651  0.2667  0.0145
 3489SOL    HW122103   2.682   1.296   6.133 -0.5971  2.0950 -3.1596
 3489SOL    HW222104   2.727   1.265   6.001 -0.0239  0.5177  0.0579
 3490SOL     OW22105   4.600   1.234   7.758 -0.2850 -0.9987  0.0101
 3490SOL    HW122106   4.570   1.260   7.671 -0.2572  0.1495  0.3351
 3490SOL    HW222107   4.554   1.153   7.776 -0.1399 -1.1740 -0.4060
 3491SOL     OW22108   2.635   0.727   6.731 -0.2060 -0.1014 -0.5872
 3491SOL    HW122109   2.680   0.720   6.647 -1.5485  2.5187 -1.5212
 3491SOL    HW222110   2.657   0.817   6.754 -0.0134 -0.7121  1.6200
 3492SOL     OW22111   4.076   1.195   4.694 -0.2423 -0.5016  0.2163
 3492SOL    HW122112   4.121   1.124   4.741  1.4646  0.3537 -0.1651
 3492SOL    HW222113   4.126   1.207   4.614 -1.0600 -0.1093 -0.2401
 3493SOL     OW22114   0.504   3.307   8.248 -0.4770  0.5321 -0.2076
 3493SOL    HW122115   0.529   3.288   8.158  0.5056  0.3128  0.1092
 3493SOL    HW222116   0.587   3.340   8.282 -1.8061  1.5554  2.0551
 3494SOL     OW22117   0.579   0.728   5.300  0.7012 -0.0093  0.0172
 3494SOL    HW122118   0.607   0.698   5.387 -1.7695  1.7808  1.4426
 3494SOL    HW222119   0.607   0.820   5.302 -0.4753  0.3805 -1.6057
 3495SOL     OW22120   4.536   4.205   8.878 -1.2495 -0.2361 -0.2970
 3495SOL    HW122121   4.608   4.198   8.941  0.0927 -3.4818 -2.1396
 3495SOL    HW222122   4.470   4.219   8.946 -0.6449 -1.1621  0.4791
 3496SOL     OW22123   4.250   1.022   2.179 -0.0231  0.3170  0.4594
 3496SOL    HW122124   4.244   1.029   2.274  0.7779  0.9536  0.4624
 3496SOL    HW222125   4.218   1.106   2.147  0.6676  0.9721  1.4926
 3497SOL     OW22126   3.603   0.040   3.751  0.6344 -0.3558  0.6015
 3497SOL    HW122127   3.641   0.122   3.783  2.8672 -0.6663 -1.2353
 3497SOL    HW222128   3.584   0.078   3.666 -0.1609 -0.2317  0.8333
 3498SOL     OW22129   0.422   3.160   9.973  0.5023 -0.2644 -0.1601
 3498SOL    HW122130   0.460   3.245   9.994 -0.5321  0.5644 -1.6418
 3498SOL    HW222131   0.431   3.159   9.878 -1.2357 -3.8497 -0.2962
 3499SOL     OW22132   0.572   4.350  15.680 -0.7391  0.2120  0.3701
 3499SOL    HW122133   0.497   4.292  15.691  1.4282 -2.4999  0.9254
 3499SOL    HW222134   0.555   4.379  15.590  1.5267  0.1510 -0.0713
 3500SOL     OW22135   0.475   2.917  16.916 -0.0335 -0.2340 -0.2104
 3500SOL    HW122136   0.434   2.969  16.985  0.2162  0.3898 -0.5311
 3500SOL    HW222137   0.455   2.831  16.952 -1.6949 -0.4565 -1.6624
 3501SOL     OW22138   3.093   0.513  17.533 -0.0443 -0.2851 -0.0210
 3501SOL    HW122139   3.111   0.430  17.490 -1.0426 -1.7705  2.4179
 3501SOL    HW222140   3.158   0.510  17.604  0.3870 -2.4032 -0.5106
 3502SOL     OW22141   4.570   4.023   8.074  0.0149  0.6063  0.1284
 3502SOL    HW122142   4.525   3.951   8.116 -1.8137  1.6423 -0.0655
 3502SOL    HW222143   4.496   4.080   8.051  1.0895  1.4237 -1.3441
 3503SOL     OW22144   4.341   3.580   3.315 -0.3148  0.2491  0.2008
 3503SOL    HW122145   4.396   3.539   3.248  1.6606  1.8021  0.8801
 3503SOL    HW222146   4.301   3.655   3.270  0.0723  0.9369  1.0087
 3504SOL     OW22147   3.769   4.231   9.188  0.0060  0.2196  0.1162
 3504SOL    HW122148   3.780   4.269   9.276  0.0958  1.4947 -0.4411
 3504SOL    HW222149   3.843   4.263   9.136 -1.2889 -0.3860 -2.0600
 3505SOL     OW22150   3.085   4.441   0.953 -0.2428 -0.0477  0.4202
 3505SOL    HW122151   3.081   4.346   0.967  1.3719 -0.1753  0.0055
 3505SOL    HW222152   3.154   4.436   0.887  0.0694 -2.0457  0.8989
 3506SOL     OW22153   3.317   1.621  10.547 -0.2139 -0.4794 -0.2918
 3506SOL    HW122154   3.261   1.662  10.612  1.2789  0.2573  0.5217
 3506SOL    HW222155   3.305   1.526  10.556  1.1583 -0.5432  0.7896
 3507SOL     OW22156   1.478   4.309   7.517 -0.1395  0.2148  0.2863
 3507SOL    HW122157   1.534   4.328   7.592  0.2406 -0.7918  0.2577
 3507SOL    HW222158   1.398   4.348   7.551 -1.5326 -1.4242 -1.0665
 3508SOL     OW22159   0.713   2.027   8.701 -0.0185 -0.4968  0.2403
 3508SOL    HW122160   0.797   2.002   8.739  0.9180 -0.5189 -1.8465
 3508SOL    HW222161   0.703   1.945   8.652  0.8988 -1.1133  1.0871
 3509SOL     OW22162   3.358   0.211   5.379 -0.4779 -0.2098 -0.2397
 3509SOL    HW122163   3.307   0.225   5.299 -2.8527 -0.4090  1.2191
 3509SOL    HW222164   3.387   0.300   5.401 -4.6450  1.1904 -0.3249
 3510SOL     OW22165   1.398   4.078   7.799 -0.2401  0.3062  0.8209
 3510SOL    HW122166   1.328   4.065   7.735  0.9290  1.8320 -0.7632
 3510SOL    HW222167   1.434   3.990   7.802  0.6942  0.7025  1.4752
 3511SOL     OW22168   0.635   4.723   8.836  0.5039  0.5599 -0.1584
 3511SOL    HW122169   0.584   4.643   8.851  0.2277  0.9320  0.9151
 3511SOL    HW222170   0.631   4.737   8.742 -1.0505 -0.9793 -0.3113
 3512SOL     OW22171   2.687   3.452  17.757 -0.2833 -0.3164 -0.1690
 3512SOL    HW122172   2.611   3.486   0.045 -0.1722  0.4412 -0.5473
 3512SOL    HW222173   2.678   3.357  17.753 -1.5492 -0.0904 -2.5909
 3513SOL     OW22174   2.050   1.999   5.813 -0.0406  0.1680 -0.6243
 3513SOL    HW122175   2.131   1.969   5.773 -0.5185 -2.7557  0.5740
 3513SOL    HW222176   2.060   2.094   5.804 -0.3086  0.2871  0.2652
 3514SOL     OW22177   1.163   4.657   7.926 -0.3318 -0.3461 -0.4894
 3514SOL    HW122178   1.175   4.640   8.020 -0.6911 -4.2332 -1.1884
 3514SOL    HW222179   1.109   4.580   7.913 -1.3014  0.6081 -2.1299
 3515SOL     OW22180   0.864   4.459   4.452  0.1036 -0.1001  0.0240
 3515SOL    HW122181   0.812   4.419   4.522 -0.7692 -0.9539 -1.1088
 3515SOL    HW222182   0.829   4.409   4.377 -1.4438  0.9226  0.0611
 3516SOL     OW22183   2.158   3.087  15.457 -0.4420 -0.2637  0.0697
 3516SOL    HW122184   2.217   3.054  15.390 -0.0212 -0.3369  0.4724
 3516SOL    HW222185   2.163   3.180  15.435 -0.0484 -0.4733 -0.7048
 3517SOL     OW22186   3.775   0.980   7.389  0.7719 -0.2007 -0.0912
 3517SOL    HW122187   3.783   0.910   7.455  1.9493  0.4780  0.5034
 3517SOL    HW222188   3.744   0.930   7.315  0.9389 -0.7258  0.1930
 3518SOL     OW22189   3.732   4.234   8.378  0.3597  0.6255 -0.0862
 3518SOL    HW122190   3.781   4.232   8.460 -0.2234  0.2680  0.2484
 3518SOL    HW222191   3.812   4.238   8.325  1.3525 -0.7625  1.3307
 3519SOL     OW22192   3.162   0.611   3.353 -0.0017  0.8138 -0.0451
 3519SOL    HW122193   3.218   0.686   3.333  0.3773  0.3521 -0.6994
 3519SOL    HW222194   3.078   0.636   3.315 -0.2463 -1.2639 -0.8758
 3520SOL     OW22195   3.947   3.582   5.065  0.1674 -0.1743  0.5441
 3520SOL    HW122196   3.970   3.632   4.987 -1.5008 -0.8230 -0.3383
 3520SOL    HW222197   3.852   3.590   5.064  0.1181 -1.1537 -1.4492
 3521SOL     OW22198   4.271   3.124  12.477 -0.1393 -0.2576  0.1107
 3521SOL    HW122199   4.272   3.189  12.547  2.6173 -0.8412  0.5968
 3521SOL    HW222200   4.199   3.153  12.421  0.3311  1.2024  0.2791
 3522SOL     OW22201   3.641   1.121   5.309 -0.6079  0.0672  0.4521
 3522SOL    HW122202   3.549   1.108   5.285 -0.2859 -1.1414 -0.1086
 3522SOL    HW222203   3.656   1.038   5.353  0.7382  0.1720  0.1968
 3523SOL     OW22204   3.469   0.487   0.963 -0.6119 -0.1272  0.4495
 3523SOL    HW122205   3.555   0.446   0.960  0.0832  1.4335 -0.5770
 3523SOL    HW222206   3.412   0.412   0.980 -0.5833 -0.5624 -1.3762
 3524SOL     OW22207   3.493   0.070   7.045 -0.3781 -0.0564  0.0252
 3524SOL    HW122208   3.552   0.138   7.010 -1.0258  0.7643  0.5330
 3524SOL    HW222209   3.444   0.050   6.965 -1.6647  1.1524  0.5170
 3525SOL     OW22210   0.644   0.626   5.537  0.1178 -0.2488 -0.1481
 3525SOL    HW122211   0.558   0.647   5.575 -0.5964 -0.9161 -1.3988
 3525SOL    HW222212   0.685   0.594   5.617 -0.5159 -1.7461 -0.4373
 3526SOL     OW22213   3.948   4.016   9.256  0.2198 -0.7769  0.4937
 3526SOL    HW122214   3.914   3.958   9.325 -1.0628  0.9059  1.2646
 3526SOL    HW222215   3.873   4.075   9.259  0.2623 -0.7856  1.9055
 3527SOL     OW22216   2.066   2.384   5.148 -0.1779 -0.6755  0.0982
 3527SOL    HW122217   2.041   2.366   5.238  3.1320  0.2866  1.1980
 3527SOL    HW222218   1.978   2.408   5.121  0.2793  0.0318 -0.7820
 3528SOL     OW22219   3.801   3.797   8.571 -0.1365  0.3808 -0.3868
 3528SOL    HW122220   3.802   3.891   8.587 -2.2298  0.2869  0.2279
 3528SOL    HW222221   3.871   3.790   8.506 -2.9500  0.7915 -3.4250
 3529SOL     OW22222   3.065   1.233   0.724 -0.2317  0.2025 -0.0704
 3529SOL    HW122223   3.051   1.138   0.714 -2.0166  0.3765  0.8167
 3529SOL    HW222224   3.074   1.257   0.632  0.4055 -1.1267 -0.3577
 3530SOL     OW22225   2.103   3.774   8.243 -0.1521  0.2110  0.7756
 3530SOL    HW122226   2.111   3.709   8.313  1.1433  0.3200  0.7268
 3530SOL    HW222227   2.067   3.724   8.170  0.7767  0.1112  0.3913
 3531SOL     OW22228   0.439   4.243  14.388  0.5784 -0.2358 -0.2934
 3531SOL    HW122229   0.377   4.198  14.445 -0.2896  0.9704 -0.2759
 3531SOL    HW222230   0.513   4.184  14.380  0.5430 -0.1921 -0.9899
 3532SOL     OW22231   4.271   2.857   5.549  0.1633  0.0286 -0.3992
 3532SOL    HW122232   4.246   2.923   5.615  1.6923  0.2296 -0.0121
 3532SOL    HW222233   4.198   2.795   5.541  0.3580 -0.2410 -0.0896
 3533SOL     OW22234   4.392   4.615  12.282 -0.1464  0.2529  0.1897
 3533SOL    HW122235   4.328   4.556  12.242 -1.0316  0.5015  1.2481
 3533SOL    HW222236   4.362   4.607  12.372  1.0299 -1.4107  0.4186
 3534SOL     OW22237   2.153   2.716   0.123 -0.6356 -0.6131  0.1629
 3534SOL    HW122238   2.213   2.759   0.183 -1.3725  0.8339 -0.1303
 3534SOL    HW222239   2.116   2.788   0.072  1.8383  2.0969  2.2480
 3535SOL     OW22240   1.083   4.446  16.766  0.6324  0.5069 -0.1629
 3535SOL    HW122241   1.177   4.449  16.785  0.8726 -2.4793 -0.9463
 3535SOL    HW222242   1.045   4.533  16.776  0.2022  0.2205  0.7170
 3536SOL     OW22243   3.515   0.021   4.525 -0.4065  0.2443  0.0597
 3536SOL    HW122244   3.476   0.082   4.588 -3.4919 -1.6531 -0.0116
 3536SOL    HW222245   3.490   4.674   4.558  1.7158 -0.9943 -1.6296
 3537SOL     OW22246   2.622   3.777   5.777  0.1214 -0.2066  0.3527
 3537SOL    HW122247   2.566   3.710   5.739  0.0053 -0.0907  0.3204
 3537SOL    HW222248   2.596   3.764   5.868 -2.7587 -0.5084 -0.5102
 3538SOL     OW22249   1.181   3.976  16.931 -0.9918 -0.1128  0.0894
 3538SOL    HW122250   1.130   3.954  16.853 -0.8517  0.6855 -0.2271
 3538SOL    HW222251   1.123   3.958  17.005 -2.2765 -0.9946 -1.1355
 3539SOL     OW22252   1.529   4.501  17.473  1.2976 -0.6984 -0.4967
 3539SOL    HW122253   1.510   4.505  17.379 -1.4010  2.2469  0.1536
 3539SOL    HW222254   1.452   4.469  17.519  0.2009 -0.7520 -2.3905
 3540SOL     OW22255   0.506   2.171   7.716  0.0252  0.0323 -0.0435
 3540SOL    HW122256   0.534   2.194   7.627  1.4283  2.3486  0.9715
 3540SOL    HW222257   0.416   2.201   7.719 -0.4541 -1.6113  1.6770
 3541SOL     OW22258   4.571   0.871   6.814  0.3783 -0.6056 -0.5189
 3541SOL    HW122259   4.626   0.949   6.821  0.0864 -0.3327 -1.2443
 3541SOL    HW222260   4.495   0.907   6.861  1.0225  0.1394 -0.0599
 3542SOL     OW22261   3.265   2.783  13.730 -0.0046 -0.1201 -0.5296
 3542SOL    HW122262   3.194   2.830  13.775  0.5942 -0.4517  0.7470
 3542SOL    HW222263   3.208   2.710  13.706  0.2851  0.1935 -2.2121
 3543SOL     OW22264   4.356   0.311  16.745 -0.4283 -0.9421 -0.0836
 3543SOL    HW122265   4.446   0.283  16.733 -0.1386 -0.7430  1.5606
 3543SOL    HW222266   4.344   0.379  16.680 -0.3079  0.6939  1.5941
 3544SOL     OW22267   0.501   4.616  16.571 -0.3017 -0.3392 -0.4287
 3544SOL    HW122268   0.423   4.658  16.536 -0.2477 -0.3564 -0.5729
 3544SOL    HW222269   0.564   4.688  16.578 -2.0069  1.1218 -0.1698
 3545SOL     OW22270   1.552   3.807  12.239 -0.0857 -0.0628 -0.1758
 3545SOL    HW122271   1.492   3.743  12.200  1.4217 -3.0543  2.4212
 3545SOL    HW222272   1.508   3.840  12.317 -0.1785  1.3972 -0.8462
 3546SOL     OW22273   3.417   4.684   3.922  0.2467  0.0291 -0.4732
 3546SOL    HW122274   3.350   4.658   3.858  1.2169 -0.3946 -1.3215
 3546SOL    HW222275   3.475   4.716   3.853  1.0160  1.4458  0.8251
 3547SOL     OW22276   2.341   1.897   8.123 -0.3556  0.9316  0.4028
 3547SOL    HW122277   2.258   1.944   8.113  0.3753  2.3977  1.3727
 3547SOL    HW222278   2.401   1.942   8.065 -1.4515 -0.1721 -1.6143
 3548SOL     OW22279   4.511   2.786   3.537  0.2824  0.2513 -0.2870
 3548SOL    HW122280   4.471   2.849   3.477  2.1739  0.7122 -1.0929
 3548SOL    HW222281   4.531   2.713   3.477 -0.5889  0.2506 -0.5755
 3549SOL     OW22282   4.268   2.603   3.136 -0.4798  0.0344  0.3930
 3549SOL    HW122283   4.220   2.610   3.218 -3.8449 -0.8122 -1.4878
 3549SOL    HW222284   4.298   2.691   3.116 -0.7013  0.7472  3.1871
 3550SOL     OW22285   4.341   2.436  15.790 -0.3956 -0.6152  0.7251
 3550SOL    HW122286   4.412   2.445  15.854 -0.0929  0.2833  0.2611
 3550SOL    HW222287   4.375   2.491  15.719 -0.4209  1.5878  2.4352
 3551SOL     OW22288   3.803   0.749  17.116  0.7205 -0.6900  0.1230
 3551SOL    HW122289   3.830   0.837  17.140 -1.4528  0.0528 -0.1278
 3551SOL    HW222290   3.849   0.689  17.175  1.8099 -1.2851 -1.3269
 3552SOL     OW22291   3.999   1.099   6.919 -0.1546 -0.5153 -0.4142
 3552SOL    HW122292   3.927   1.162   6.922 -1.1019 -1.5771 -0.9490
 3552SOL    HW222293   3.962   1.026   6.869 -0.9478  0.7094 -1.6418
 3553SOL     OW22294   3.252   2.917  14.414  0.0921  0.0249  0.1285
 3553SOL    HW122295   3.270   2.971  14.337 -0.6868 -1.2853 -0.9592
 3553SOL    HW222296   3.284   2.969  14.488 -1.6191 -0.1312  0.9840
 3554SOL     OW22297   0.014   2.697   2.198 -0.1897  0.4131 -0.5712
 3554SOL    HW122298   4.676   2.726   2.152 -1.2517 -1.2002  0.2359
 3554SOL    HW222299   0.042   2.621   2.146 -0.2427  0.1418 -0.2068
 3555SOL     OW22300   1.408   1.381   0.753  0.1917  0.3223  0.1744
 3555SOL    HW122301   1.315   1.402   0.764  0.2541  1.5234 -1.6596
 3555SOL    HW222302   1.414   1.323   0.829  1.1523  0.7747  0.4488
 3556SOL     OW22303   4.514   0.615   7.344 -0.6930  0.1955  0.1168
 3556SOL    HW122304   4.595   0.586   7.386  0.9540  1.7379 -1.9973
 3556SOL    HW222305   4.542   0.704   7.327 -0.2549 -0.1031 -0.7454
 3557SOL     OW22306   3.609   3.550   5.340  0.8522  0.2676 -0.5303
 3557SOL    HW122307   3.540   3.490   5.370 -1.5548  3.0388 -0.4545
 3557SOL    HW222308   3.553   3.628   5.330  0.0173 -0.1968  0.5897
 3558SOL     OW22309   1.700   3.898   3.491  0.4038  0.3645 -0.2493
 3558SOL    HW122310   1.664   3.809   3.483 -1.9246  1.3680 -0.7940
 3558SOL    HW222311   1.665   3.928   3.575 -1.5363  0.8694 -1.2371
 3559SOL     OW22312   2.690   3.571   7.480  0.2581  0.2889  0.2279
 3559SOL    HW122313   2.637   3.644   7.512 -1.8523 -0.8168 -0.7369
 3559SOL    HW222314   2.692   3.592   7.387 -0.0248 -1.6328 -0.2290
 3560SOL     OW22315   3.005   0.300   6.289  0.3551 -0.0938  0.3664
 3560SOL    HW122316   2.938   0.235   6.312  0.0766 -0.7768 -2.4402
 3560SOL    HW222317   3.049   0.319   6.372  0.5892 -1.5034  0.5584
 3561SOL     OW22318   4.210   3.779   3.208  0.2908 -0.0009  0.2636
 3561SOL    HW122319   4.196   3.857   3.262 -0.7362 -0.1227  0.1750
 3561SOL    HW222320   4.244   3.818   3.128  2.1066 -0.8192  0.6471
 3562SOL     OW22321   2.913   3.949   8.439  0.4164 -0.0632 -0.1395
 3562SOL    HW122322   2.982   3.908   8.388  1.3204  1.4288 -0.1121
 3562SOL    HW222323   2.891   3.887   8.508  2.1696  0.1599  0.6110
 3563SOL     OW22324   2.172   0.132  12.237 -0.3250 -0.2383  0.0998
 3563SOL    HW122325   2.244   0.076  12.264 -2.2352 -2.2489  1.0639
 3563SOL    HW222326   2.102   0.071  12.213 -0.4088 -0.8441  1.9051
 3564SOL     OW22327   1.693   4.060   5.382  0.6149  0.5985 -0.2470
 3564SOL    HW122328   1.679   4.135   5.324  0.2268 -0.3107 -1.3484
 3564SOL    HW222329   1.727   3.993   5.322 -1.0105  0.5015 -1.0873
 3565SOL     OW22330   2.381   3.062   8.060 -0.0204  0.6929  0.0594
 3565SOL    HW122331   2.289   3.085   8.049 -0.2799 -1.4173 -2.2547
 3565SOL    HW222332   2.406   3.024   7.976  3.1374  2.4208  0.2157
 3566SOL     OW22333   1.961   4.605   9.182 -0.2532  0.3301  0.1845
 3566SOL    HW122334   2.009   4.557   9.250 -0.3596 -0.9091 -0.6031
 3566SOL    HW222335   1.880   4.554   9.175  0.8996 -1.3608 -0.9347
 3567SOL     OW22336   0.812   3.473   5.309 -0.3442 -0.2851 -0.1381
 3567SOL    HW122337   0.838   3.470   5.217 -3.2904  2.2276 -1.0819
 3567SOL    HW222338   0.732   3.526   5.297 -0.0995  0.3061  0.9080
 3568SOL     OW22339   4.252   1.580  16.354  0.1630  0.0351  0.1239
 3568SOL    HW122340   4.185   1.648  16.354  2.7672  2.6197 -1.8718
 3568SOL    HW222341   4.200   1.501  16.343 -1.5865  0.9000  2.2781
 3569SOL     OW22342   2.617   3.581   7.860 -0.4175 -0.1560  0.1111
 3569SOL    HW122343   2.616   3.496   7.816  0.9039 -0.7048  1.1248
 3569SOL    HW222344   2.556   3.627   7.803 -0.5052  0.8087  0.9876
 3570SOL     OW22345   2.011   3.093   3.522 -0.4954 -0.2120  0.6930
 3570SOL    HW122346   2.098   3.132   3.532 -0.2063 -0.3067 -1.3502
 3570SOL    HW222347   1.988   3.148   3.446 -0.3882 -0.3476  0.5635
 3571SOL     OW22348   2.969   4.611  17.048 -0.0177 -0.6224 -0.4198
 3571SOL    HW122349   3.048   4.664  17.035 -0.7274 -0.0760 -2.5498
 3571SOL    HW222350   3.006   4.529  17.017  1.5105  0.1722 -0.6747
 3572SOL     OW22351   2.200   3.651   0.347 -0.2406  0.1837  0.0100
 3572SOL    HW122352   2.202   3.556   0.341 -1.9849  0.1457  0.0250
 3572SOL    HW222353   2.294   3.666   0.337 -0.0275 -1.3516 -0.3151
 3573SOL     OW22354   1.260   3.505   9.365 -0.3490 -0.6300  0.0566
 3573SOL    HW122355   1.298   3.424   9.330  1.6948  0.0516  0.7406
 3573SOL    HW222356   1.237   3.476   9.453 -0.8664 -0.4968 -0.0334
 3574SOL     OW22357   0.220   2.754   3.244  0.4466 -0.0738  0.4672
 3574SOL    HW122358   0.315   2.745   3.239  0.5375  0.6958  0.7345
 3574SOL    HW222359   0.239   2.832   3.297  0.2097  0.8648 -0.8434
 3575SOL     OW22360   0.070   1.206  16.039 -0.2686 -0.0706 -0.0640
 3575SOL    HW122361   0.135   1.154  15.993 -0.8543  0.5233 -1.5759
 3575SOL    HW222362   4.732   1.154  16.016  1.9399 -3.5152  0.2725
 3576SOL     OW22363   1.594   3.610   4.976 -0.7170  0.5582  0.0040
 3576SOL    HW122364   1.670   3.580   5.026 -0.2904  1.8488  0.1136
 3576SOL    HW222365   1.526   3.549   5.003 -0.3943 -0.0739 -0.6068
 3577SOL     OW22366   1.897   4.027  17.217  0.1134 -0.2254 -0.0931
 3577SOL    HW122367   1.861   4.104  17.261 -1.1569 -1.3781  0.8934
 3577SOL    HW222368   1.990   4.050  17.213  0.0013  0.0721 -1.0599
 3578SOL     OW22369   2.353   2.106   9.323 -0.3668  0.1874 -0.0096
 3578SOL    HW122370   2.403   2.025   9.330 -1.9363 -0.7759 -0.0136
 3578SOL    HW222371   2.302   2.098   9.403 -0.2795  1.0531  0.1379
 3579SOL     OW22372   2.890   0.190   8.926  0.2521 -0.0804  0.0832
 3579SOL    HW122373   2.814   0.135   8.948  0.9786 -0.0815  2.5764
 3579SOL    HW222374   2.909   0.228   9.012  0.5045 -2.1081  0.9245
 3580SOL     OW22375   0.136   2.838  13.471 -0.2287 -0.2290 -0.5543
 3580SOL    HW122376   0.079   2.902  13.428 -0.4084 -0.7465 -1.0844
 3580SOL    HW222377   0.192   2.808  13.399  2.4547  3.0289  0.1652
 3581SOL     OW22378   0.759   2.974   4.065  0.6703 -0.5888 -0.4272
 3581SOL    HW122379   0.764   2.879   4.059 -2.4876 -0.7240 -1.1492
 3581SOL    HW222380   0.702   2.968   4.142  1.2186  0.6678  0.0832
 3582SOL     OW22381   2.087   2.494  10.870 -0.0202  0.2356 -0.0780
 3582SOL    HW122382   2.116   2.566  10.927  0.8741  1.1260 -1.6494
 3582SOL    HW222383   2.005   2.467  10.911  0.0913 -0.7603 -0.5225
 3583SOL     OW22384   0.148   0.244   4.882  0.3429  0.2688  0.1342
 3583SOL    HW122385   0.214   0.312   4.895  0.6518  0.1269 -0.6450
 3583SOL    HW222386   0.106   0.246   4.968 -1.7230  2.2582 -0.9341
 3584SOL     OW22387   3.945   2.782   7.062 -0.1019 -0.0401  0.4911
 3584SOL    HW122388   3.953   2.744   6.974  1.4480 -1.7008  1.3613
 3584SOL    HW222389   3.969   2.872   7.038  0.8137 -0.7229 -1.1433
 3585SOL     OW22390   0.791   2.244   3.539  0.1416  0.5199  0.2631
 3585SOL    HW122391   0.709   2.289   3.559 -0.4122 -1.0248  1.4794
 3585SOL    HW222392   0.856   2.311   3.561  1.6975 -0.5593 -1.0383
 3586SOL     OW22393   1.207   1.388   7.791 -0.3833  0.3167 -0.4643
 3586SOL    HW122394   1.136   1.327   7.772  1.3512 -2.3251  1.4674
 3586SOL    HW222395   1.166   1.474   7.778  0.9476  0.9197 -0.6920
 3587SOL     OW22396   0.192   3.689   3.454  0.5575  0.2649  0.4091
 3587SOL    HW122397   0.133   3.764   3.448  1.6248  1.0780  0.0982
 3587SOL    HW222398   0.131   3.618   3.435  2.2779 -0.7944 -1.0676
 3588SOL     OW22399   0.548   1.981   5.829 -0.1493  0.2327 -0.6801
 3588SOL    HW122400   0.601   2.058   5.849 -2.5633  2.0472 -1.2499
 3588SOL    HW222401   0.621   1.931   5.794  0.5851  0.7809  0.0751
 3589SOL     OW22402   1.282   3.633   3.752 -0.1474 -0.1507  0.4319
 3589SOL    HW122403   1.217   3.583   3.703 -1.8811  0.1174  2.4304
 3589SOL    HW222404   1.269   3.721   3.716  0.5943 -1.0286 -1.9388
 3590SOL     OW22405   0.285   0.218   2.000 -0.4412 -0.0584 -0.0123
 3590SOL    HW122406   0.210   0.195   2.055  0.2004 -3.4996 -0.6066
 3590SOL    HW222407   0.356   0.217   2.063 -0.6180 -2.5714  0.1605
 3591SOL     OW22408   3.550   2.671   4.453 -0.0815  0.1019 -0.1106
 3591SOL    HW122409   3.538   2.602   4.518 -0.2521 -0.1489 -0.4072
 3591SOL    HW222410   3.537   2.741   4.517  1.0815  1.1944 -1.0673
 3592SOL     OW22411   0.081   0.496   7.446  0.3185 -0.4671  0.1764
 3592SOL    HW122412   0.158   0.441   7.454  1.3897  0.8623 -0.9992
 3592SOL    HW222413   0.102   0.535   7.361  1.3601  0.2454  0.7583
 3593SOL     OW22414   2.510   3.061   4.762  0.3950  0.8046 -1.0925
 3593SOL    HW122415   2.562   3.128   4.717  0.2640  1.2162 -0.6294
 3593SOL    HW222416   2.477   3.012   4.687  3.5417 -1.7399 -0.8229
 3594SOL     OW22417   2.487   1.997  14.783 -0.5899 -0.1588  0.0366
 3594SOL    HW122418   2.539   2.041  14.716  2.2198 -3.6770 -0.1063
 3594SOL    HW222419   2.518   1.906  14.782  1.2151  0.4672 -1.9421
 3595SOL     OW22420   0.842   1.863  13.093  0.4576 -0.1890 -0.0088
 3595SOL    HW122421   0.899   1.851  13.017 -1.0356 -0.3376 -1.0851
 3595SOL    HW222422   0.875   1.789  13.144 -1.9721  0.1090  1.9754
 3596SOL     OW22423   4.207   2.846   6.600  0.3758  0.0541 -0.4297
 3596SOL    HW122424   4.154   2.907   6.652  0.5430 -0.7342  0.6735
 3596SOL    HW222425   4.219   2.887   6.515 -0.9094  1.2044 -0.0628
 3597SOL     OW22426   2.613   1.740   6.355  0.1019 -0.4946 -0.8348
 3597SOL    HW122427   2.527   1.769   6.324 -0.0161  0.4405  0.3523
 3597SOL    HW222428   2.628   1.802   6.426  0.7845 -1.7221  0.0765
 3598SOL     OW22429   1.142   1.832   4.240  0.1096 -0.4016  0.6621
 3598SOL    HW122430   1.069   1.804   4.186  0.3716 -1.4427  0.8393
 3598SOL    HW222431   1.160   1.761   4.302  1.0092 -0.2029  0.6271
 3599SOL     OW22432   4.219   1.474   3.537 -0.1531  0.3204 -0.5582
 3599SOL    HW122433   4.234   1.403   3.475 -0.3698 -0.1538 -0.0649
 3599SOL    HW222434   4.299   1.483   3.589 -1.9774  0.3090  2.2532
 3600SOL     OW22435   1.821   0.124   0.222  0.0029  0.2481  0.0543
 3600SOL    HW122436   1.830   0.200   0.165  0.8413 -1.0870 -1.6140
 3600SOL    HW222437   1.809   0.051   0.161  0.5728  0.2054 -0.0076
 3601SOL     OW22438   3.486   1.636   6.308  0.1551 -0.2380 -0.5545
 3601SOL    HW122439   3.566   1.599   6.346 -0.5453 -2.0196 -0.8110
 3601SOL    HW222440   3.485   1.719   6.355 -1.5416  0.2328 -1.4413
 3602SOL     OW22441   2.510   1.184  13.412 -0.3171 -0.1737  0.2466
 3602SOL    HW122442   2.439   1.158  13.471 -0.3907 -1.9951 -0.6477
 3602SOL    HW222443   2.552   1.102  13.387  0.6880 -0.3502  2.4715
 3603SOL     OW22444   3.252   0.715   2.713  0.3147 -0.4884 -0.2975
 3603SOL    HW122445   3.326   0.667   2.677  0.0741 -0.5265 -0.7333
 3603SOL    HW222446   3.296   0.788   2.758 -2.0872 -0.3203  1.7680
 3604SOL     OW22447   3.658   1.358   8.498  0.0291  0.2326  0.0372
 3604SOL    HW122448   3.636   1.420   8.428 -0.6098  1.5079  1.3663
 3604SOL    HW222449   3.570   1.322   8.515  0.1511  0.0589  0.2940
 3605SOL     OW22450   2.403   2.485  11.621  0.3890 -0.0126  0.5059
 3605SOL    HW122451   2.405   2.435  11.703  1.9747 -0.9775 -0.1223
 3605SOL    HW222452   2.422   2.571  11.659  1.1492  0.1671 -0.2855
 3606SOL     OW22453   1.963   4.328   9.864  0.1503  0.1540 -0.0479
 3606SOL    HW122454   1.977   4.269   9.938  0.9748 -1.1481 -1.2295
 3606SOL    HW222455   1.953   4.403   9.923  1.0797  1.1185 -1.1004
 3607SOL     OW22456   3.545   1.312   4.667 -0.3631  0.2608 -0.3119
 3607SOL    HW122457   3.634   1.326   4.635 -0.2412  3.2333  1.3451
 3607SOL    HW222458   3.510   1.264   4.592  2.7894 -0.8966 -1.0560
 3608SOL     OW22459   2.171   1.059  15.088  0.1333  0.2510 -0.1951
 3608SOL    HW122460   2.202   1.065  15.178 -0.6025 -2.3728  0.2390
 3608SOL    HW222461   2.079   1.079  15.100  0.2680  0.9895 -0.3905
 3609SOL     OW22462   2.592   3.525   6.774 -0.4030 -0.1971 -0.2605
 3609SOL    HW122463   2.588   3.561   6.686  1.8234 -0.6480 -0.5403
 3609SOL    HW222464   2.688   3.526   6.775 -0.4110  0.8635 -0.4297
 3610SOL     OW22465   0.168   3.745   9.371 -0.0722  0.3302  0.4973
 3610SOL    HW122466   0.131   3.724   9.285  2.6777 -1.1105 -0.3179
 3610SOL    HW222467   0.090   3.788   9.406 -0.6928  0.9558 -1.6726
 3611SOL     OW22468   1.269   1.630  14.833 -0.3294  0.3309  0.5580
 3611SOL    HW122469   1.363   1.635  14.817 -0.3164  0.7726  0.7835
 3611SOL    HW222470   1.242   1.713  14.795 -1.5237 -1.6490 -3.0103
 3612SOL     OW22471   1.490   0.069  13.154 -0.4429  0.3330  0.1669
 3612SOL    HW122472   1.464   4.720  13.176  0.5622 -0.0777 -0.3067
 3612SOL    HW222473   1.573   0.074  13.202 -1.1112  0.9892  1.2653
 3613SOL     OW22474   2.906   1.695   5.510 -0.1662  0.4405 -0.0328
 3613SOL    HW122475   2.819   1.712   5.475 -0.5998 -1.8468 -0.0928
 3613SOL    HW222476   2.944   1.642   5.439  0.2920  0.8721 -0.1091
 3614SOL     OW22477   1.074   1.156   6.946  0.1188  0.6874  0.3478
 3614SOL    HW122478   1.034   1.223   7.001  0.0989  1.1954 -0.2887
 3614SOL    HW222479   1.132   1.204   6.887  1.9554  0.5706  2.0779
 3615SOL     OW22480   2.637   2.005  11.185 -0.6413 -0.8115  0.0952
 3615SOL    HW122481   2.593   2.063  11.247 -1.5806  0.1242 -1.4364
 3615SOL    HW222482   2.696   2.069  11.144  0.1618 -0.5541  1.6545
 3616SOL     OW22483   0.029   4.402   7.807  0.0162  0.0295  0.0207
 3616SOL    HW122484   4.687   4.449   7.791 -1.0575 -1.8425  0.0752
 3616SOL    HW222485   0.017   4.392   7.902  0.3823 -1.0189 -0.0438
 3617SOL     OW22486   2.811   1.391  16.109  0.0955  0.2664  0.2908
 3617SOL    HW122487   2.758   1.312  16.122 -0.7162  0.0192 -4.5776
 3617SOL    HW222488   2.859   1.391  16.192  2.2611 -0.0994 -0.9606
 3618SOL     OW22489   2.319   2.721   1.587 -0.7069  0.0722 -0.6515
 3618SOL    HW122490   2.250   2.707   1.522 -0.7082 -0.9772 -0.4199
 3618SOL    HW222491   2.329   2.636   1.630 -1.4877  0.1047 -0.4173
 3619SOL     OW22492   2.127   1.802   1.847 -0.2313  0.1385  0.0785
 3619SOL    HW122493   2.083   1.812   1.931 -1.3021  1.1430 -0.6202
 3619SOL    HW222494   2.201   1.746   1.872 -1.4212 -1.2078  0.5811
 3620SOL     OW22495   3.454   1.336   7.583 -0.0660 -0.6425  0.4058
 3620SOL    HW122496   3.487   1.285   7.509  1.1712  1.9195 -0.7977
 3620SOL    HW222497   3.439   1.416   7.532  1.0821 -1.3070 -0.9905
 3621SOL     OW22498   4.056   1.972   5.634 -0.0472  0.6120 -0.0212
 3621SOL    HW122499   4.010   2.018   5.705  1.5231  0.9929  0.7617
 3621SOL    HW222500   3.987   1.914   5.604 -0.7659  0.8686  1.1498
 3622SOL     OW22501   1.091   1.220   6.391 -0.4456 -0.5397  0.1167
 3622SOL    HW122502   1.000   1.247   6.399 -0.3162  0.1903 -0.8217
 3622SOL    HW222503   1.105   1.168   6.470  2.9864  0.3169  0.0791
 3623SOL     OW22504   0.630   3.201   8.941 -0.3327  0.5565  0.4615
 3623SOL    HW122505   0.722   3.194   8.969  0.9941  2.9738 -3.2932
 3623SOL    HW222506   0.597   3.187   9.030 -1.3143  1.2721  0.2109
 3624SOL     OW22507   4.290   3.695   6.568  0.6156 -0.1579 -0.7158
 3624SOL    HW122508   4.367   3.650   6.600  1.1386  2.5230  1.7815
 3624SOL    HW222509   4.287   3.670   6.475 -0.1541 -0.1566 -0.6964
 3625SOL     OW22510   2.747   3.837  15.500  0.1126 -0.0230 -0.0353
 3625SOL    HW122511   2.795   3.786  15.436 -2.3657 -0.4420 -1.5658
 3625SOL    HW222512   2.655   3.812  15.491  0.5645 -1.1270 -1.5386
 3626SOL     OW22513   2.697   3.947  14.467  0.7244 -0.4319 -0.1500
 3626SOL    HW122514   2.769   3.991  14.421  2.4176 -2.3073  0.6865
 3626SOL    HW222515   2.698   4.010  14.539 -1.1908 -0.7029  0.1112
 3627SOL     OW22516   2.370   0.063   4.392 -0.4959  0.1546 -0.5571
 3627SOL    HW122517   2.345   0.153   4.414 -1.3093 -0.4313  0.9049
 3627SOL    HW222518   2.369   0.028   4.481 -0.7617  1.2001 -0.1457
 3628SOL     OW22519   3.522   2.951  13.889 -0.4265 -0.4214 -0.7678
 3628SOL    HW122520   3.563   2.876  13.846  2.9258 -0.4369  2.4579
 3628SOL    HW222521   3.517   3.015  13.818  1.2267 -0.2332 -0.7035
 3629SOL     OW22522   2.958   3.665  16.007  0.1925  0.6543  0.4733
 3629SOL    HW122523   3.023   3.704  16.065  1.0277  2.0037 -1.3563
 3629SOL    HW222524   2.914   3.742  15.971  4.0078  1.7996 -1.7315
 3630SOL     OW22525   2.206   0.474   3.926  0.3135 -0.1360  0.1426
 3630SOL    HW122526   2.278   0.420   3.895 -0.2336 -1.5557  1.3294
 3630SOL    HW222527   2.213   0.458   4.020 -0.7816 -1.7663 -0.0594
 3631SOL     OW22528   0.238   2.789  15.526  0.2256  0.1316 -0.4096
 3631SOL    HW122529   0.262   2.856  15.462 -2.3819 -0.2716 -1.8227
 3631SOL    HW222530   0.153   2.762  15.492  1.0629 -0.1611 -2.3101
 3632SOL     OW22531   4.069   1.293   7.226 -0.1945  0.2631 -0.1710
 3632SOL    HW122532   4.057   1.337   7.311 -0.6515  1.3781 -0.8090
 3632SOL    HW222533   3.983   1.252   7.228  0.1445 -0.4090  0.5442
 3633SOL     OW22534   2.230   4.632   3.754 -0.2426  0.1170 -0.6420
 3633SOL    HW122535   2.252   4.711   3.803 -0.4477 -0.1211 -0.1603
 3633SOL    HW222536   2.286   4.627   3.677  0.6708 -1.9043  0.1545
 3634SOL     OW22537   3.296   4.598   2.418  0.2903  0.0822 -0.4648
 3634SOL    HW122538   3.215   4.558   2.387  0.2976 -2.0838  2.2805
 3634SOL    HW222539   3.363   4.559   2.362 -0.0265  1.4252 -1.7823
 3635SOL     OW22540   2.099   2.872   3.880  0.8006  0.6632 -0.7025
 3635SOL    HW122541   2.049   2.869   3.961 -0.8348  0.9934 -1.7114
 3635SOL    HW222542   2.110   2.966   3.873 -0.4228  0.8917  0.5404
 3636SOL     OW22543   2.867   2.459   3.078  0.0625  0.3752 -0.3961
 3636SOL    HW122544   2.841   2.449   3.170 -0.1811 -1.0633 -0.6237
 3636SOL    HW222545   2.926   2.384   3.071 -1.5248 -1.1872  2.5827
 3637SOL     OW22546   0.798   0.600   7.952 -0.2872  0.4625  0.1275
 3637SOL    HW122547   0.887   0.620   7.923 -0.6743  0.9336 -0.7398
 3637SOL    HW222548   0.812   0.511   7.985 -2.5766  0.9164  2.3046
 3638SOL     OW22549   4.494   0.081   6.963  0.0740 -0.3743 -0.3003
 3638SOL    HW122550   4.418   0.137   6.945  0.5002 -0.7043 -2.9807
 3638SOL    HW222551   4.498   0.009   6.901 -1.9877 -1.2804  0.5848
 3639SOL     OW22552   2.118   4.489   9.686 -0.4236  0.0897  0.7471
 3639SOL    HW122553   2.099   4.404   9.727 -2.5311 -0.3743 -1.1940
 3639SOL    HW222554   2.129   4.547   9.762 -1.0606 -2.3264  2.7101
 3640SOL     OW22555   2.826   1.714  11.291  0.6436  0.0768 -0.7047
 3640SOL    HW122556   2.832   1.790  11.233  1.9635 -0.8905 -1.8339
 3640SOL    HW222557   2.776   1.751  11.364 -1.2519  0.4760 -2.1803
 3641SOL     OW22558   3.684   1.257   2.270 -0.2383 -0.1694  0.1264
 3641SOL    HW122559   3.719   1.194   2.207  0.5169 -0.5446  0.9355
 3641SOL    HW222560   3.589   1.247   2.260  0.1066 -3.1095 -0.0587
 3642SOL     OW22561   2.136   3.262   8.307  0.5171  0.6939 -0.2352
 3642SOL    HW122562   2.172   3.182   8.345  1.3212  1.1404 -0.0542
 3642SOL    HW222563   2.111   3.223   8.223 -2.2027  1.7883  0.0650
 3643SOL     OW22564   4.534   3.512  12.301 -0.4054 -0.0120  0.1817
 3643SOL    HW122565   4.586   3.466  12.367  0.4347 -0.7631 -1.0061
 3643SOL    HW222566   4.596   3.581  12.278 -1.7701  1.0187 -0.3662
 3644SOL     OW22567   2.414   3.780  13.338 -0.0222 -0.0423 -0.5419
 3644SOL    HW122568   2.324   3.783  13.306  0.9401  0.6399 -3.2444
 3644SOL    HW222569   2.453   3.757  13.253  0.3274  1.6362 -0.8414
 3645SOL     OW22570   4.515   0.581   0.506  0.5922  0.5316  0.8019
 3645SOL    HW122571   4.493   0.674   0.496  2.0582  0.9784  1.7168
 3645SOL    HW222572   4.430   0.538   0.510  0.1127  1.2969 -1.5852
 3646SOL     OW22573   1.728   3.309   1.489 -0.6528 -0.4213  0.5162
 3646SOL    HW122574   1.709   3.275   1.576 -1.5357 -2.0932 -0.3172
 3646SOL    HW222575   1.646   3.356   1.475  0.3560  0.7226 -1.4855
 3647SOL     OW22576   1.170   4.075   2.753 -0.0285  0.3709  0.0819
 3647SOL    HW122577   1.262   4.100   2.766  0.6224 -2.5083  1.0086
 3647SOL    HW222578   1.163   4.133   2.677  1.5787 -0.3343 -0.6079
 3648SOL     OW22579   0.803   1.034   1.552 -0.1394  0.0994  0.6318
 3648SOL    HW122580   0.717   1.033   1.510  1.2700  0.8938 -2.3464
 3648SOL    HW222581   0.864   1.029   1.477 -0.3231 -1.7034  0.5998
 3649SOL     OW22582   1.418   2.285   3.188  0.5655 -0.1603  0.1271
 3649SOL    HW122583   1.492   2.229   3.163  1.0986  1.3281 -1.6705
 3649SOL    HW222584   1.414   2.267   3.282  2.3487  0.6292  0.3539
 3650SOL     OW22585   1.538   1.124   3.882 -0.0158 -0.2474 -0.6438
 3650SOL    HW122586   1.462   1.094   3.932 -1.0237  1.4363 -1.1694
 3650SOL    HW222587   1.546   1.214   3.914 -1.1998  0.8335 -3.4006
 3651SOL     OW22588   2.681   1.131   0.929 -0.0673  0.1457 -0.2190
 3651SOL    HW122589   2.707   1.057   0.984 -0.9766 -0.3944 -0.5131
 3651SOL    HW222590   2.660   1.086   0.847 -1.3946 -2.1010  1.3384
 3652SOL     OW22591   1.391   2.786   3.161  0.2964  0.3726 -0.1323
 3652SOL    HW122592   1.379   2.733   3.082 -0.2310  0.6836 -0.2593
 3652SOL    HW222593   1.312   2.760   3.207  1.6487 -0.8892  1.4568
 3653SOL     OW22594   0.692   3.282   4.952  0.8644  0.1662 -0.8256
 3653SOL    HW122595   0.653   3.369   4.956 -0.2416 -0.3312 -0.9166
 3653SOL    HW222596   0.664   3.235   4.873  0.3001 -1.1084  0.1373
 3654SOL     OW22597   2.488   0.512   4.597 -0.1658 -0.4271  0.0747
 3654SOL    HW122598   2.581   0.510   4.618  0.0139  3.3000 -0.3279
 3654SOL    HW222599   2.445   0.494   4.680  1.2804  3.0730  1.5952
 3655SOL     OW22600   4.028   0.346   2.074  0.1187 -0.0961  0.2348
 3655SOL    HW122601   4.009   0.326   1.982  0.2731  0.5430  0.0659
 3655SOL    HW222602   4.082   0.271   2.099  0.4919  0.1589  0.1851
 3656SOL     OW22603   3.404   1.875  15.856  0.2554 -0.1505 -0.1781
 3656SOL    HW122604   3.411   1.800  15.797 -1.8415 -0.5231  0.0578
 3656SOL    HW222605   3.319   1.911  15.829  1.5706  2.3668 -0.9332
 3657SOL     OW22606   1.056   1.279  14.985  0.2928 -0.3791 -0.1469
 3657SOL    HW122607   1.109   1.346  15.027  1.4475  0.0135 -2.2548
 3657SOL    HW222608   1.070   1.217  15.057 -0.4810  0.2802  0.5705
 3658SOL     OW22609   1.034   2.873   7.493  0.0557 -0.6707 -0.9237
 3658SOL    HW122610   1.060   2.827   7.414  1.3151 -0.2928 -0.7296
 3658SOL    HW222611   1.012   2.954   7.448  1.6484 -0.1293 -0.7347
 3659SOL     OW22612   1.518   4.173  15.502 -0.1133  0.0451  0.3220
 3659SOL    HW122613   1.523   4.196  15.410 -0.6856  3.1929  1.0835
 3659SOL    HW222614   1.523   4.261  15.537 -0.8915  0.8564 -1.6165
 3660SOL     OW22615   0.276   4.092   2.527  0.0939  0.0274  0.4882
 3660SOL    HW122616   0.270   4.142   2.608  0.8174  1.3044 -0.2392
 3660SOL    HW222617   0.207   4.026   2.538 -0.0458  0.2229  0.7673
 3661SOL     OW22618   1.408   0.417   6.251  0.5368 -0.6286  0.2923
 3661SOL    HW122619   1.397   0.488   6.314 -0.5577  1.1020 -1.8859
 3661SOL    HW222620   1.462   0.354   6.300  0.3327  0.1836  1.5728
 3662SOL     OW22621   2.686   1.368   2.881  0.5722 -0.0686 -1.0325
 3662SOL    HW122622   2.716   1.277   2.872  1.1043  0.0400 -0.3838
 3662SOL    HW222623   2.677   1.374   2.976 -1.0139  1.2365 -1.2629
 3663SOL     OW22624   0.048   3.829   0.208 -0.1579  0.2970 -0.0334
 3663SOL    HW122625   0.096   3.912   0.204 -0.7310  0.6740  1.0312
 3663SOL    HW222626   4.702   3.866   0.189  0.8037  1.8586 -1.4360
 3664SOL     OW22627   4.280   0.517   8.818 -0.4308  0.3111 -0.6363
 3664SOL    HW122628   4.279   0.422   8.809 -1.7290  0.2212  0.5442
 3664SOL    HW222629   4.277   0.519   8.913  1.5104 -1.7006 -0.5325
 3665SOL     OW22630   1.313   2.127  10.709  0.0635 -0.4667 -0.6800
 3665SOL    HW122631   1.369   2.170  10.773  2.0593 -1.3396 -1.8281
 3665SOL    HW222632   1.240   2.185  10.689 -0.0841  0.0083  1.2786
 3666SOL     OW22633   0.524   4.007  11.277  0.7509  0.2109  0.2351
 3666SOL    HW122634   0.571   4.034  11.355 -1.5561 -1.6448  2.2867
 3666SOL    HW222635   0.593   4.017  11.212  0.9191 -1.2537  0.1980
 3667SOL     OW22636   1.661   3.604   6.294 -0.7061  0.8261  0.0086
 3667SOL    HW122637   1.677   3.515   6.263  0.1177  0.6371  0.9884
 3667SOL    HW222638   1.701   3.604   6.381 -1.4817 -0.5848  0.3519
 3668SOL     OW22639   3.369   2.718   3.865 -0.0635 -0.2177 -0.2918
 3668SOL    HW122640   3.318   2.773   3.805 -0.4855  2.4113  2.4519
 3668SOL    HW222641   3.383   2.778   3.938 -0.7091  0.3652 -0.6430
 3669SOL     OW22642   0.759   4.383   2.012  0.1431 -0.0791  0.0253
 3669SOL    HW122643   0.751   4.302   1.963 -0.1549  0.5498 -0.9752
 3669SOL    HW222644   0.683   4.380   2.070 -0.5979  0.7970 -0.9108
 3670SOL     OW22645   1.380   3.537   4.050  0.4751  0.1910  0.4066
 3670SOL    HW122646   1.378   3.621   4.005 -2.3498 -0.2110 -0.2514
 3670SOL    HW222647   1.306   3.480   4.030  1.3369 -0.2387 -1.5350
 3671SOL     OW22648   1.871   1.712   2.689 -0.2625 -0.1986  0.3326
 3671SOL    HW122649   1.794   1.763   2.716 -0.3949  0.5179 -1.4346
 3671SOL    HW222650   1.854   1.651   2.762 -2.9446  2.5944  2.0582
 3672SOL     OW22651   0.049   3.088   5.892 -0.0252  0.4671 -0.2314
 3672SOL    HW122652   0.053   3.013   5.833 -1.3351  0.5468 -0.4141
 3672SOL    HW222653   0.142   3.106   5.879  0.0822  1.5969  2.0481
 3673SOL     OW22654   1.249   1.208   1.981  0.2607  0.2232 -0.1211
 3673SOL    HW122655   1.225   1.294   2.014  1.6239  0.1690  0.9824
 3673SOL    HW222656   1.308   1.230   1.909 -1.3566  0.7982 -1.2664
 3674SOL     OW22657   4.502   2.078   4.119 -0.3590 -0.1730  0.3402
 3674SOL    HW122658   4.537   2.132   4.049  0.8898 -1.4259 -0.0023
 3674SOL    HW222659   4.408   2.076   4.103 -0.0165  0.3317 -1.6547
 3675SOL     OW22660   0.562   1.639   8.219  0.3798  0.1885 -0.4105
 3675SOL    HW122661   0.544   1.616   8.128 -0.1458 -0.0818 -0.2392
 3675SOL    HW222662   0.474   1.624   8.256  0.2614  0.2685 -0.6596
 3676SOL     OW22663   2.774   3.529   6.246 -0.1673 -0.6843  0.3121
 3676SOL    HW122664   2.683   3.523   6.276  0.5134  2.3017  2.9213
 3676SOL    HW222665   2.806   3.521   6.336  0.7607 -1.2145 -0.0698
 3677SOL     OW22666   0.823   3.132   2.797  0.3832  0.0080 -0.0587
 3677SOL    HW122667   0.820   3.226   2.776 -0.4234 -0.0028 -0.0158
 3677SOL    HW222668   0.806   3.089   2.713  0.3866 -1.7262  0.8334
 3678SOL     OW22669   4.424   4.326  11.545 -0.2339 -0.3369  0.8149
 3678SOL    HW122670   4.406   4.250  11.490  2.8756 -1.3167  1.1450
 3678SOL    HW222671   4.357   4.308  11.610 -0.1167 -3.9620 -0.0594
 3679SOL     OW22672   1.908   0.315   6.414  0.5705  0.4764 -0.1434
 3679SOL    HW122673   1.995   0.351   6.398 -0.7063  2.8512 -1.6922
 3679SOL    HW222674   1.910   0.230   6.371  1.1198 -0.7797  2.3782
 3680SOL     OW22675   2.925   3.686   7.602  0.4114 -0.2921  0.1677
 3680SOL    HW122676   2.891   3.763   7.649 -0.7730  1.5698 -3.7376
 3680SOL    HW222677   2.851   3.632   7.573 -0.3595  1.5905 -1.4256
 3681SOL     OW22678   4.349   3.117  13.524  0.3763  0.1347 -0.6283
 3681SOL    HW122679   4.302   3.034  13.528 -1.4794  1.1458 -2.0013
 3681SOL    HW222680   4.289   3.174  13.572  2.4341  0.7828  1.1842
 3682SOL     OW22681   4.717   0.335   2.477 -0.3167 -0.1097  0.0028
 3682SOL    HW122682   4.649   0.401   2.489 -0.1247 -0.0242  0.6223
 3682SOL    HW222683   4.737   0.310   2.567  2.0356 -1.6239 -0.9413
 3683SOL     OW22684   3.593   0.954   6.705  0.4489 -0.6746 -0.0230
 3683SOL    HW122685   3.645   1.034   6.691 -0.0075 -0.2716  0.5777
 3683SOL    HW222686   3.582   0.952   6.800 -0.6812 -0.6243 -0.1579
 3684SOL     OW22687   0.889   0.722  10.442  0.0693  0.5457 -0.4159
 3684SOL    HW122688   0.803   0.755  10.420 -0.8570 -1.5300  0.0737
 3684SOL    HW222689   0.937   0.804  10.450  0.5962 -0.0514  2.6711
 3685SOL     OW22690   4.093   3.311  10.803  0.2489  0.1953  0.1982
 3685SOL    HW122691   4.030   3.380  10.820 -2.6713 -2.2784 -0.5609
 3685SOL    HW222692   4.154   3.309  10.877 -1.5082  0.1054  1.6360
 3686SOL     OW22693   0.928   0.406  14.242 -0.3852 -0.1544 -0.3536
 3686SOL    HW122694   0.863   0.378  14.306 -1.0266  1.5460 -0.2635
 3686SOL    HW222695   1.005   0.377  14.290 -0.1083  0.2256 -0.5639
 3687SOL     OW22696   3.045   4.082   1.842 -0.3489 -0.1130  0.5201
 3687SOL    HW122697   3.009   4.116   1.924  1.9431  1.7466  0.7707
 3687SOL    HW222698   2.978   4.117   1.784 -0.2663  1.7198  1.5363
 3688SOL     OW22699   2.021   1.744   4.094  0.6213  0.0531  0.1664
 3688SOL    HW122700   2.039   1.713   4.005  0.7678 -2.4573  1.0567
 3688SOL    HW222701   1.927   1.757   4.079  0.4061 -1.0347  0.5426
 3689SOL     OW22702   2.362   0.603  13.409  0.4744 -0.2325 -0.0337
 3689SOL    HW122703   2.422   0.567  13.344 -0.1662  0.2276 -0.8855
 3689SOL    HW222704   2.281   0.597  13.358  0.2319 -0.2962  0.3522
 3690SOL     OW22705   0.729   3.187   8.658 -0.0375 -0.6924  0.3265
 3690SOL    HW122706   0.665   3.146   8.601  0.8217 -2.1355  0.4068
 3690SOL    HW222707   0.674   3.215   8.731 -0.2138  0.5684 -0.2884
 3691SOL     OW22708   0.358   2.663   0.067  0.1402 -0.3511 -0.2661
 3691SOL    HW122709   0.427   2.597   0.063  0.8649  0.6457 -3.6871
 3691SOL    HW222710   0.404   2.743   0.040 -0.4406 -0.1157 -0.5481
 3692SOL     OW22711   0.750   1.670   6.633  0.0875 -0.9477 -0.0437
 3692SOL    HW122712   0.776   1.762   6.645 -0.7793 -0.7046 -0.0452
 3692SOL    HW222713   0.824   1.633   6.681  1.5724  1.7036 -0.2609
 3693SOL     OW22714   1.014   3.235   2.173  0.2062  0.3098  0.2354
 3693SOL    HW122715   0.960   3.310   2.148  1.0510  0.5846 -0.7699
 3693SOL    HW222716   1.089   3.280   2.211 -0.3099 -0.5608  2.2758
 3694SOL     OW22717   1.570   4.488   7.298  0.7235 -0.2732  0.0084
 3694SOL    HW122718   1.539   4.441   7.376 -1.1933  0.9570 -0.0211
 3694SOL    HW222719   1.664   4.486   7.314  0.6019  1.1309  0.9010
 3695SOL     OW22720   2.855   2.514  14.697 -0.2375 -0.2956  0.1797
 3695SOL    HW122721   2.828   2.460  14.771  0.9696 -1.3118 -0.1088
 3695SOL    HW222722   2.816   2.464  14.626  2.2727 -1.9983 -0.0132
 3696SOL     OW22723   1.933   2.470   8.316  0.4240 -0.7884 -0.2910
 3696SOL    HW122724   1.956   2.384   8.351  0.4759  0.2173  2.1362
 3696SOL    HW222725   1.905   2.514   8.397 -0.1613  0.1932 -1.0229
 3697SOL     OW22726   2.432   3.908  12.882  0.5447  0.1936  0.3620
 3697SOL    HW122727   2.523   3.914  12.851 -0.5499 -0.4144 -2.9441
 3697SOL    HW222728   2.448   3.870  12.968 -1.3418 -1.7747 -0.1612
 3698SOL     OW22729   4.499   3.042   2.702 -0.2591 -0.3521 -0.7334
 3698SOL    HW122730   4.440   3.093   2.646 -1.6394 -2.1828 -0.9065
 3698SOL    HW222731   4.492   2.954   2.667 -3.0157 -1.0317  1.5754
 3699SOL     OW22732   3.243   3.592   2.362  0.4848  0.3105  0.1422
 3699SOL    HW122733   3.261   3.532   2.435  0.8391  0.2823  0.0309
 3699SOL    HW222734   3.335   3.615   2.345  0.7030 -1.0728 -0.5185
 3700SOL     OW22735   2.972   0.843  13.111 -0.4903 -0.1820 -0.5503
 3700SOL    HW122736   2.995   0.752  13.090 -1.1993 -0.1982 -1.2535
 3700SOL    HW222737   3.041   0.861  13.175 -0.1093 -3.8370  0.0897
 3701SOL     OW22738   1.236   3.391   2.497 -0.4385 -0.1058  0.1150
 3701SOL    HW122739   1.274   3.350   2.419 -1.8937 -0.1750 -0.5532
 3701SOL    HW222740   1.173   3.450   2.455  0.2300  1.1486  0.8768
 3702SOL     OW22741   2.935   1.323   2.364 -0.1956  0.3818  0.0189
 3702SOL    HW122742   2.909   1.236   2.394  1.4696 -0.5036 -1.0964
 3702SOL    HW222743   2.915   1.372   2.445  0.1407  2.8873 -1.4094
 3703SOL     OW22744   3.193   1.523   5.328 -0.0293  0.4438  0.4906
 3703SOL    HW122745   3.210   1.488   5.240  1.2923  1.8579  0.1837
 3703SOL    HW222746   3.128   1.460   5.360 -1.5829  1.9686  0.3356
 3704SOL     OW22747   3.848   0.893   8.764  0.0579 -0.3402  0.0257
 3704SOL    HW122748   3.938   0.920   8.747 -0.8488  1.9031 -1.2549
 3704SOL    HW222749   3.811   0.874   8.678  1.0572 -0.9949 -0.2598
 3705SOL     OW22750   2.184   2.825   2.990  0.2816  0.0787  0.2550
 3705SOL    HW122751   2.264   2.775   2.976  0.5804  0.1382  1.7642
 3705SOL    HW222752   2.118   2.755   2.999  0.3966 -0.2744 -1.6537
 3706SOL     OW22753   3.016   0.114  11.348 -0.1596  0.3782  0.5354
 3706SOL    HW122754   3.046   0.107  11.258  0.1447  0.4272  0.6333
 3706SOL    HW222755   3.093   0.087  11.399 -1.2358  1.6438  2.8502
 3707SOL     OW22756   0.494   3.592  10.470 -0.0589 -0.4181 -0.1419
 3707SOL    HW122757   0.502   3.498  10.453  0.7898 -0.2650 -0.6031
 3707SOL    HW222758   0.530   3.633  10.392 -0.1111 -2.8891 -1.4704
 3708SOL     OW22759   3.412   4.495  17.254  0.0660 -0.3422 -0.1617
 3708SOL    HW122760   3.351   4.536  17.194 -0.2743 -0.5695  0.0285
 3708SOL    HW222761   3.477   4.564  17.270  0.4009 -0.8816  0.8389
 3709SOL     OW22762   3.916   2.256   4.343 -0.0056 -0.1185 -0.1306
 3709SOL    HW122763   3.851   2.207   4.393  1.4944 -2.9527 -0.9168
 3709SOL    HW222764   3.989   2.194   4.352  0.7492  0.6781 -0.6937
 3710SOL     OW22765   1.484   2.383  17.538  0.1681  0.0328 -0.0409
 3710SOL    HW122766   1.412   2.404  17.596 -0.2463  1.1807 -0.9770
 3710SOL    HW222767   1.531   2.321  17.595 -1.0024  0.1254  1.0182
 3711SOL     OW22768   2.232   3.623   4.823 -0.3982 -0.6741 -0.2399
 3711SOL    HW122769   2.304   3.660   4.873 -3.4489  1.0173  2.8753
 3711SOL    HW222770   2.191   3.568   4.890 -0.3513  1.6059  1.6721
 3712SOL     OW22771   2.627   0.966  17.732 -0.3999 -0.2636  0.1800
 3712SOL    HW122772   2.587   0.967  17.645  0.5730  2.1252 -0.2374
 3712SOL    HW222773   2.721   0.967  17.714 -0.5474 -0.8083 -0.6285
 3713SOL     OW22774   3.684   1.327   6.341  0.3475  0.5831 -0.5496
 3713SOL    HW122775   3.753   1.394   6.348 -1.8048  2.5656  1.3653
 3713SOL    HW222776   3.679   1.298   6.432  0.2767  2.3542  0.0216
 3714SOL     OW22777   3.265   0.317   0.993  0.3830 -0.3133 -0.0251
 3714SOL    HW122778   3.222   0.291   1.074 -0.6310 -1.3866 -0.9077
 3714SOL    HW222779   3.190   0.321   0.934  0.7630 -0.2814 -0.5065
 3715SOL     OW22780   3.203   1.216   1.825 -0.0425  0.1393 -0.4673
 3715SOL    HW122781   3.124   1.252   1.784 -0.9085 -0.8291  0.3427
 3715SOL    HW222782   3.228   1.144   1.767 -1.0707 -0.5197 -0.0904
 3716SOL     OW22783   1.506   2.678   5.829 -0.1692 -0.5674  0.5412
 3716SOL    HW122784   1.477   2.593   5.862  0.4628 -1.6453 -1.6562
 3716SOL    HW222785   1.447   2.730   5.883  1.8763  0.3611  1.8838
 3717SOL     OW22786   2.916   1.122  10.783 -0.0268  0.1322 -0.0837
 3717SOL    HW122787   2.834   1.145  10.740 -1.4091  2.0017  3.5839
 3717SOL    HW222788   2.902   1.031  10.810 -0.9491  0.3890  0.2645
 3718SOL     OW22789   0.507   4.332  16.810 -0.1761  0.0688  0.2292
 3718SOL    HW122790   0.422   4.369  16.785 -0.0034  0.7465  0.6452
 3718SOL    HW222791   0.487   4.287  16.892  0.8900  1.0853  1.0320
 3719SOL     OW22792   2.021   0.462   2.774  0.7659 -0.3710  0.1970
 3719SOL    HW122793   1.966   0.466   2.852  1.2096 -1.6085  0.5691
 3719SOL    HW222794   2.097   0.510   2.807 -1.6554  2.4773  1.6757
 3720SOL     OW22795   2.010   2.260   0.420  0.1550  0.4448  0.0218
 3720SOL    HW122796   1.930   2.211   0.437  1.1147 -0.0564  3.0120
 3720SOL    HW222797   2.034   2.222   0.335  1.7478  1.4599  0.0075
 3721SOL     OW22798   0.062   2.609   9.097  0.2362  0.5072 -0.1922
 3721SOL    HW122799   0.047   2.556   9.176 -3.5569 -1.7827 -2.4412
 3721SOL    HW222800   0.083   2.546   9.029  0.3817  0.7313 -0.3529
 3722SOL     OW22801   4.507   3.360  11.474 -0.2627 -0.5892 -0.3940
 3722SOL    HW122802   4.510   3.265  11.459 -0.0525 -0.6258 -0.1182
 3722SOL    HW222803   4.474   3.352  11.564  0.6482  0.0802 -0.0018
 3723SOL     OW22804   3.950   3.892  15.164  0.5880  0.9844 -0.4910
 3723SOL    HW122805   3.971   3.846  15.245  0.1545  0.2136 -0.8123
 3723SOL    HW222806   3.862   3.926  15.184 -0.5875 -1.2674 -1.9161
 3724SOL     OW22807   4.076   2.115   7.649 -0.0212 -0.3639  0.8180
 3724SOL    HW122808   4.025   2.140   7.572  0.5443 -0.5018  0.3961
 3724SOL    HW222809   4.121   2.035   7.623 -0.7684 -0.4921 -0.0415
 3725SOL     OW22810   0.326   2.030  15.938  0.5603  0.0878 -0.2592
 3725SOL    HW122811   0.364   2.088  15.873  1.8010 -1.4701 -0.8919
 3725SOL    HW222812   0.407   1.986  15.963 -0.5113 -0.0484  3.0855
 3726SOL     OW22813   3.264   1.135   2.776 -0.2755  0.2127  0.0540
 3726SOL    HW122814   3.187   1.086   2.745 -0.5672  0.9189 -0.3295
 3726SOL    HW222815   3.266   1.209   2.716 -1.6526  1.0963  1.1004
 3727SOL     OW22816   3.502   1.264   1.361 -0.4278 -0.1740 -0.3520
 3727SOL    HW122817   3.546   1.195   1.411  0.0397 -0.5945 -1.3312
 3727SOL    HW222818   3.568   1.331   1.373 -1.2901  0.9154 -1.7144
 3728SOL     OW22819   2.506   3.669  13.069 -0.1453  0.2505 -0.1931
 3728SOL    HW122820   2.578   3.621  13.109 -2.1266 -2.6568 -0.1095
 3728SOL    HW222821   2.475   3.596  13.016  0.3073 -0.1649  0.1249
 3729SOL     OW22822   1.586   2.612  13.557 -0.1636  0.4840 -0.3218
 3729SOL    HW122823   1.616   2.609  13.466  1.5384 -0.6062  0.2786
 3729SOL    HW222824   1.600   2.520  13.582  0.5813 -0.0537 -2.7270
 3730SOL     OW22825   0.440   0.547   2.842 -0.1464  0.2598  0.1795
 3730SOL    HW122826   0.440   0.639   2.866  0.5902  0.0338  1.0532
 3730SOL    HW222827   0.531   0.533   2.813  0.9188  3.2414  2.0883
 3731SOL     OW22828   0.834   3.565  15.207 -0.1789 -0.5348 -0.5310
 3731SOL    HW122829   0.828   3.539  15.115 -0.8766 -1.7207 -0.1476
 3731SOL    HW222830   0.744   3.570  15.238  0.0442  3.0808 -0.4720
 3732SOL     OW22831   0.277   0.018  16.512  0.1790  0.1681 -0.4843
 3732SOL    HW122832   0.300   0.111  16.508 -1.8032  0.7118  0.3829
 3732SOL    HW222833   0.242   4.737  16.425  0.6273  0.0192 -0.6247
 3733SOL     OW22834   2.520   2.755   3.899  0.3467  0.0714  0.1750
 3733SOL    HW122835   2.452   2.777   3.963 -0.0762 -2.4859  0.6091
 3733SOL    HW222836   2.469   2.742   3.820  2.3367 -1.1326 -0.9186
 3734SOL     OW22837   1.827   0.697   5.576 -0.9142 -0.1643  0.1042
 3734SOL    HW122838   1.919   0.680   5.599 -0.1330  2.5093 -0.9485
 3734SOL    HW222839   1.840   0.734   5.489 -0.8200 -1.1735 -0.3102
 3735SOL     OW22840   0.236   1.075   8.054  0.2502 -0.6907  0.7161
 3735SOL    HW122841   0.166   1.071   7.989  1.5156 -1.3987 -0.5946
 3735SOL    HW222842   0.243   0.984   8.082  0.7831 -0.8843 -0.0468
 3736SOL     OW22843   3.770   3.883  15.606 -0.4478 -0.0592  0.2193
 3736SOL    HW122844   3.843   3.885  15.668  1.6531 -0.9353 -2.2272
 3736SOL    HW222845   3.804   3.811  15.554 -0.6619 -0.5969  0.8271
 3737SOL     OW22846   1.508   0.290  11.209  0.6840  0.2518 -0.2826
 3737SOL    HW122847   1.533   0.288  11.116  2.2376 -1.7904  0.1819
 3737SOL    HW222848   1.552   0.371  11.237 -1.0798  0.8185  0.8501
 3738SOL     OW22849   2.670   0.032   5.753 -0.2906 -0.3600  0.3216
 3738SOL    HW122850   2.696   4.695   5.701  0.3813  1.1463 -1.5724
 3738SOL    HW222851   2.590   4.735   5.790  2.0642 -1.6451  4.0822
 3739SOL     OW22852   4.167   0.761   9.318 -0.4464  0.1315 -0.6107
 3739SOL    HW122853   4.078   0.749   9.285 -0.1666 -2.1848 -0.5073
 3739SOL    HW222854   4.202   0.835   9.269  2.2158 -2.0885 -2.0245
 3740SOL     OW22855   2.203   1.634  17.166  0.2949  0.4554 -0.0486
 3740SOL    HW122856   2.243   1.718  17.146  2.2870 -0.0427  1.8779
 3740SOL    HW222857   2.111   1.653  17.186  0.3393  0.5698  0.0477
 3741SOL     OW22858   1.491   3.937  12.495 -0.7486 -0.3125 -0.1276
 3741SOL    HW122859   1.455   4.024  12.512 -4.1069 -1.4976 -1.1802
 3741SOL    HW222860   1.573   3.933  12.544  0.8931  0.1649 -2.8195
 3742SOL     OW22861   0.951   1.052  11.375  0.3758  0.6275  0.1466
 3742SOL    HW122862   0.982   1.059  11.465  2.9133  2.9408 -0.8991
 3742SOL    HW222863   0.915   0.964  11.383  1.6919  0.0452 -0.4174
 3743SOL     OW22864   4.120   4.520   7.563 -0.0480 -0.1385  0.7923
 3743SOL    HW122865   4.184   4.451   7.579 -0.4786 -0.7826 -0.2426
 3743SOL    HW222866   4.051   4.494   7.623 -1.3700 -2.8188 -1.8736
 3744SOL     OW22867   2.854   3.000   1.856  0.1429  0.2684 -0.1641
 3744SOL    HW122868   2.770   2.970   1.823 -0.3327  0.6048  0.7464
 3744SOL    HW222869   2.922   2.950   1.810  1.3756 -1.0050  3.0652
 3745SOL     OW22870   3.070   3.312  15.754  0.2152  0.1032 -0.4299
 3745SOL    HW122871   3.126   3.383  15.785 -1.4405  0.2211  2.3700
 3745SOL    HW222872   3.122   3.235  15.776  0.2165  0.0090 -0.7639
 3746SOL     OW22873   3.777   2.421   1.861  0.6257  0.6701 -0.3498
 3746SOL    HW122874   3.732   2.344   1.896  1.8333  0.5788  1.0098
 3746SOL    HW222875   3.723   2.491   1.900  0.4634  1.6493 -2.3655
 3747SOL     OW22876   1.912   1.469   5.132 -0.2137 -0.0993  0.3658
 3747SOL    HW122877   1.934   1.425   5.214  2.0468 -0.7869 -0.6339
 3747SOL    HW222878   1.822   1.439   5.115 -0.7188  1.0026  1.0445
 3748SOL     OW22879   0.814   3.389   7.308 -0.9755 -0.0020  0.3015
 3748SOL    HW122880   0.794   3.314   7.252 -2.0035  0.3541  0.1813
 3748SOL    HW222881   0.905   3.381   7.336 -0.7003  1.5270 -0.1794
 3749SOL     OW22882   2.553   4.595   4.460 -0.4766 -0.1045  0.6596
 3749SOL    HW122883   2.637   4.638   4.446 -0.0366 -1.1984 -0.1069
 3749SOL    HW222884   2.489   4.661   4.433  0.2691  1.5489  2.9632
 3750SOL     OW22885   2.336   2.425   1.761 -0.5554 -0.3592  1.0107
 3750SOL    HW122886   2.426   2.395   1.748 -0.7423 -0.5383  0.1018
 3750SOL    HW222887   2.292   2.340   1.766 -0.9153 -0.1466  1.4763
 3751SOL     OW22888   3.310   0.144  13.830 -0.5736 -0.3458  0.1260
 3751SOL    HW122889   3.230   0.194  13.816 -1.1793 -1.2269  0.4813
 3751SOL    HW222890   3.380   0.205  13.806 -0.7648  0.1640  0.8658
 3752SOL     OW22891   2.964   0.453   7.676 -0.1254 -0.1259 -0.4715
 3752SOL    HW122892   2.897   0.385   7.675  0.1768 -0.4384  0.9261
 3752SOL    HW222893   3.012   0.432   7.756  1.0383  0.9288 -0.8786
 3753SOL     OW22894   1.411   0.532   4.120 -0.2007 -0.0733  0.2137
 3753SOL    HW122895   1.325   0.547   4.081 -1.0817 -1.7379  1.5225
 3753SOL    HW222896   1.478   0.570   4.063 -0.2344  0.3147  0.4309
 3754SOL     OW22897   1.704   0.444   2.681  0.0812 -0.0116 -0.5114
 3754SOL    HW122898   1.615   0.456   2.647  0.5855 -1.3049 -2.2719
 3754SOL    HW222899   1.748   0.509   2.627 -0.7438  1.0768  0.1102
 3755SOL     OW22900   4.571   3.398   1.821  0.5199 -0.2371 -0.3358
 3755SOL    HW122901   4.661   3.421   1.798  0.5669  0.3764  0.4856
 3755SOL    HW222902   4.569   3.302   1.817  0.1872 -0.2133 -0.7820
 3756SOL     OW22903   3.734   1.720   1.562 -0.3646 -0.3691 -0.1220
 3756SOL    HW122904   3.817   1.756   1.592 -0.1076  0.6200 -2.0166
 3756SOL    HW222905   3.692   1.804   1.547  0.2758 -0.1119 -0.4873
 3757SOL     OW22906   1.828   2.755   2.133 -0.1773 -0.5864 -0.2435
 3757SOL    HW122907   1.781   2.763   2.216 -1.9379  0.9928 -1.4003
 3757SOL    HW222908   1.795   2.828   2.081 -0.4677  0.1033  0.8905
 3758SOL     OW22909   1.391   2.554  14.958  0.2436  0.1827  0.7289
 3758SOL    HW122910   1.464   2.588  14.906  0.3255 -0.7732  0.2147
 3758SOL    HW222911   1.319   2.617  14.954  0.1630 -0.0036 -0.9511
 3759SOL     OW22912   1.723   1.908  12.723 -0.0826 -0.3518  0.5519
 3759SOL    HW122913   1.737   1.826  12.771 -0.8766 -1.6498 -1.4242
 3759SOL    HW222914   1.646   1.948  12.764 -0.9170 -1.0460 -0.3291
 3760SOL     OW22915   4.205   0.951   4.788  0.7312  0.0589  0.1501
 3760SOL    HW122916   4.256   0.994   4.857  0.2405 -0.2170  0.6858
 3760SOL    HW222917   4.235   0.862   4.805  1.6614  0.0935 -1.3474
 3761SOL     OW22918   0.131   0.783   8.746 -0.2150  0.0726  0.6854
 3761SOL    HW122919   0.110   0.734   8.666  0.7301  3.0505 -1.3981
 3761SOL    HW222920   0.187   0.853   8.712  1.4334 -0.9950  1.2291
 3762SOL     OW22921   4.310   3.610   8.910 -0.6414  0.0875  0.2226
 3762SOL    HW122922   4.370   3.644   8.977 -0.9056 -0.0155  0.5092
 3762SOL    HW222923   4.346   3.522   8.907 -1.5366 -0.3473  1.9034
 3763SOL     OW22924   2.537   2.718   9.804  0.2962  0.0040  0.2340
 3763SOL    HW122925   2.629   2.743   9.810  0.2097  0.4360 -0.2367
 3763SOL    HW222926   2.522   2.752   9.716  1.5330  0.2509  0.1176
 3764SOL     OW22927   4.671   3.990   4.670  0.0042 -0.1625 -0.0427
 3764SOL    HW122928   4.624   3.972   4.751  0.0781  0.9853  0.2587
 3764SOL    HW222929   4.603   4.035   4.621  0.9173  1.3715  0.0742
 3765SOL     OW22930   2.419   0.694  17.572 -0.5011 -0.2135  0.0652
 3765SOL    HW122931   2.444   0.620  17.628 -0.3172 -1.1253 -1.2235
 3765SOL    HW222932   2.399   0.648  17.490 -2.5357 -0.5559  0.7549
 3766SOL     OW22933   0.007   3.541   2.273 -0.6480 -0.1846  0.4057
 3766SOL    HW122934   4.706   3.463   2.236  0.7933 -0.3804 -0.7894
 3766SOL    HW222935   4.696   3.611   2.233  0.0205 -0.6142 -1.1855
 3767SOL     OW22936   4.365   2.590   9.960 -0.2077 -0.1693 -0.1397
 3767SOL    HW122937   4.363   2.495   9.949  1.4379  0.0559 -2.3755
 3767SOL    HW222938   4.445   2.609  10.009 -0.5711  1.3246 -0.1128
 3768SOL     OW22939   1.572   2.540   5.357  0.1805  0.5968  0.1550
 3768SOL    HW122940   1.580   2.484   5.434 -0.2926 -0.9336 -0.8996
 3768SOL    HW222941   1.485   2.577   5.368 -0.4695 -0.4577 -1.4162
 3769SOL     OW22942   4.400   0.826   3.582  0.4336 -0.0770 -0.0223
 3769SOL    HW122943   4.356   0.743   3.565  1.4189 -0.7047  0.5116
 3769SOL    HW222944   4.430   0.847   3.494 -0.3296 -0.3651 -0.3453
 3770SOL     OW22945   3.621   1.393   6.092 -0.2628 -0.2359  0.5395
 3770SOL    HW122946   3.604   1.408   6.185  1.9959  0.2046  0.8927
 3770SOL    HW222947   3.598   1.300   6.091 -0.6579 -0.1571  1.5351
 3771SOL     OW22948   2.238   1.014   8.075  0.0381  0.4613 -0.1038
 3771SOL    HW122949   2.153   0.968   8.074 -0.0300  0.5980 -0.7013
 3771SOL    HW222950   2.222   1.094   8.125  0.6668 -1.2980  2.9471
 3772SOL     OW22951   2.432   0.831   2.714 -0.2112 -0.3478 -0.2789
 3772SOL    HW122952   2.370   0.851   2.784 -2.4541  0.2973 -2.4242
 3772SOL    HW222953   2.498   0.774   2.753  0.1065  0.5776  0.5632
 3773SOL     OW22954   4.609   2.604   0.038 -0.0212  0.0007  0.3939
 3773SOL    HW122955   4.698   2.603   0.074  0.1086  0.3711  0.0796
 3773SOL    HW222956   4.596   2.699   0.037 -1.7220 -0.2493 -0.6629
 3774SOL     OW22957   0.732   3.587  11.070 -0.5641  0.6652 -0.5044
 3774SOL    HW122958   0.750   3.645  10.996  0.4823 -0.0959 -0.8348
 3774SOL    HW222959   0.676   3.640  11.127 -0.5832 -1.2169  1.2151
 3775SOL     OW22960   2.708   2.607   1.232  0.2653 -0.4717  0.3691
 3775SOL    HW122961   2.672   2.521   1.212 -2.3416  0.3355  1.6960
 3775SOL    HW222962   2.657   2.636   1.307 -0.3998  0.6540 -0.5201
 3776SOL     OW22963   4.399   3.726  16.811 -0.0185  0.3419  0.2475
 3776SOL    HW122964   4.327   3.764  16.760  1.2230  2.1396 -0.1645
 3776SOL    HW222965   4.365   3.739  16.899  2.8474  3.4968  0.8567
 3777SOL     OW22966   4.727   1.060   9.437 -0.3712  0.7181 -0.2780
 3777SOL    HW122967   4.677   0.979   9.430  0.7880 -0.0873  0.7913
 3777SOL    HW222968   4.669   1.123   9.396 -2.7254 -2.0373 -1.1172
 3778SOL     OW22969   0.422   2.521   3.093 -0.3172 -0.4510 -0.1624
 3778SOL    HW122970   0.438   2.606   3.134 -1.8789  0.0142 -0.4845
 3778SOL    HW222971   0.357   2.539   3.025 -0.5534  3.1411  1.0323
 3779SOL     OW22972   2.499   4.657   6.674 -0.0730  0.1105  0.3269
 3779SOL    HW122973   2.489   4.616   6.588 -4.1355 -1.8648  1.7594
 3779SOL    HW222974   2.525   4.581   6.727  0.8328 -2.2131 -3.4577
 3780SOL     OW22975   3.403   2.215   8.967 -0.6150 -0.2118  0.0713
 3780SOL    HW122976   3.368   2.214   8.878 -0.6616 -0.0177  0.0881
 3780SOL    HW222977   3.440   2.127   8.969 -0.1001 -0.0017 -0.2309
 3781SOL     OW22978   3.626   4.663   2.425  0.0565  0.0479 -0.3880
 3781SOL    HW122979   3.563   4.591   2.421  0.0987  0.0170 -0.4929
 3781SOL    HW222980   3.686   4.640   2.354  0.9141 -3.4389  1.4967
 3782SOL     OW22981   1.465   2.346   9.217  0.6739 -0.1551  0.1466
 3782SOL    HW122982   1.530   2.412   9.242 -0.4851  0.7654  0.7368
 3782SOL    HW222983   1.513   2.304   9.145 -1.1318  1.3815 -1.9773
 3783SOL     OW22984   2.519   0.193   1.306  0.6421 -0.1133  0.1320
 3783SOL    HW122985   2.441   0.169   1.257  0.0915 -1.5259  1.6809
 3783SOL    HW222986   2.553   0.265   1.253 -2.1432  0.2598 -1.1026
 3784SOL     OW22987   2.500   3.310   8.756  1.0581  0.1601  0.2026
 3784SOL    HW122988   2.465   3.339   8.840  0.9321 -2.0799  0.9220
 3784SOL    HW222989   2.419   3.285   8.712  0.7704 -0.5407  1.1464
 3785SOL     OW22990   2.751   2.377   5.625 -0.3949  0.0127  0.2434
 3785SOL    HW122991   2.754   2.282   5.635 -2.1389 -0.2949 -2.0203
 3785SOL    HW222992   2.813   2.389   5.552 -2.5562 -2.3988 -1.9894
 3786SOL     OW22993   3.296   2.964  13.296  0.5690  0.0475 -0.0368
 3786SOL    HW122994   3.257   2.890  13.248 -0.3492  0.3824  0.1886
 3786SOL    HW222995   3.298   2.931  13.386  0.4640 -0.0107 -0.0546
 3787SOL     OW22996   3.387   3.155   3.028 -0.1089  0.0122  0.0393
 3787SOL    HW122997   3.403   3.066   3.058  0.5670  0.1506  0.1048
 3787SOL    HW222998   3.415   3.155   2.937  0.2578 -1.4262  0.1564
 3788SOL     OW22999   4.580   4.121   3.002 -0.0520 -0.6474 -0.0122
 3788SOL    HW123000   4.513   4.172   2.956  3.9737  3.4586 -1.3856
 3788SOL    HW223001   4.660   4.173   2.988  1.0836 -2.6896 -1.1007
 3789SOL     OW23002   0.942   0.877   4.252 -0.5277  0.3014 -0.0556
 3789SOL    HW123003   0.892   0.795   4.254  0.2001 -0.1043  1.2348
 3789SOL    HW223004   0.966   0.885   4.344  1.2299  0.3224 -0.5257
 3790SOL     OW23005   1.194   2.364   7.930  0.4543 -0.1153 -0.9388
 3790SOL    HW123006   1.277   2.366   7.978  0.4745 -0.0080 -0.9790
 3790SOL    HW223007   1.218   2.392   7.841 -0.0395  2.2303 -0.3105
 3791SOL     OW23008   1.790   2.937   9.895 -0.1544  0.4275  0.0644
 3791SOL    HW123009   1.717   2.965   9.840  1.6209  2.0284 -1.4521
 3791SOL    HW223010   1.869   2.956   9.844  0.2299 -0.7595  0.2085
 3792SOL     OW23011   2.813   2.344   5.348  0.0369  0.4563  0.1926
 3792SOL    HW123012   2.818   2.251   5.324 -1.1462  0.6007 -0.6589
 3792SOL    HW223013   2.718   2.352   5.351 -0.1844 -1.1586 -2.1824
 3793SOL     OW23014   0.350   2.645   2.052 -0.5182 -0.2207 -0.1868
 3793SOL    HW123015   0.417   2.582   2.027 -1.2439 -0.4724 -1.4611
 3793SOL    HW223016   0.403   2.724   2.066 -1.7328  0.2729  1.6705
 3794SOL     OW23017   0.692   1.910   0.485  0.1331 -0.0548  0.3854
 3794SOL    HW123018   0.707   1.951   0.400 -0.7628  1.8779  1.1693
 3794SOL    HW223019   0.643   1.979   0.529  1.1566  0.9493 -0.0617
 3795SOL     OW23020   3.963   3.108   7.785 -0.0090 -0.3890  0.2367
 3795SOL    HW123021   3.972   3.187   7.731 -1.2998 -0.0395  0.5409
 3795SOL    HW223022   3.983   3.044   7.716  0.1718 -0.6158  0.5013
 3796SOL     OW23023   3.481   3.828   9.711  0.5807  0.2001  0.0306
 3796SOL    HW123024   3.535   3.858   9.785 -0.3055 -0.8934  1.1258
 3796SOL    HW223025   3.502   3.735   9.708  1.0847  0.3715 -1.7951
 3797SOL     OW23026   1.568   2.813   9.971  0.1053  0.0513 -0.4076
 3797SOL    HW123027   1.650   2.862   9.977 -0.6030  0.9724  1.7252
 3797SOL    HW223028   1.580   2.745   9.904  2.3805 -1.5299  1.5808
 3798SOL     OW23029   0.404   2.487   3.592 -0.2292  0.9657 -0.4264
 3798SOL    HW123030   0.490   2.503   3.552 -0.9204  0.8734 -1.9185
 3798SOL    HW223031   0.377   2.573   3.624 -0.0594  0.4608  1.1061
 3799SOL     OW23032   1.568   3.664   3.749  0.3513  0.5076 -0.1446
 3799SOL    HW123033   1.578   3.669   3.654 -1.7181 -1.3549 -0.4500
 3799SOL    HW223034   1.498   3.601   3.764 -0.6362  1.7405  0.4966
 3800SOL     OW23035   1.732   0.269   0.951 -0.3596  0.3543  0.0444
 3800SOL    HW123036   1.748   0.304   1.039 -2.2103 -2.0197  1.3441
 3800SOL    HW223037   1.677   0.333   0.908  0.4521  1.3026  0.4174
 3801SOL     OW23038   2.708   0.954  13.142  0.0599  0.5285  0.6399
 3801SOL    HW123039   2.802   0.941  13.157  0.3651  0.1104 -1.7446
 3801SOL    HW223040   2.676   0.873  13.183  0.8769  0.4503  1.1258
 3802SOL     OW23041   3.022   1.389   8.845  0.4010  0.7728  0.1776
 3802SOL    HW123042   3.003   1.359   8.934 -3.5360  0.8061 -0.6489
 3802SOL    HW223043   3.036   1.310   8.793  0.5205  2.5186 -2.4445
 3803SOL     OW23044   4.337   0.349  16.041 -0.7146  0.0434 -0.2851
 3803SOL    HW123045   4.375   0.357  15.954 -0.8549  0.3258 -0.3202
 3803SOL    HW223046   4.392   0.279  16.076  0.8105  0.7393 -1.3236
 3804SOL     OW23047   4.625   1.836  15.487  0.0206 -0.1581  0.3535
 3804SOL    HW123048   4.684   1.866  15.556 -0.4557 -0.8088  1.0386
 3804SOL    HW223049   4.594   1.751  15.517  3.0876 -0.6671  2.0251
 3805SOL     OW23050   0.257   0.177  15.921 -0.2755  0.3114  0.7425
 3805SOL    HW123051   0.347   0.153  15.898 -0.5261 -1.1849  1.3362
 3805SOL    HW223052   0.203   0.099  15.925 -0.6328  0.6304  2.3737
 3806SOL     OW23053   2.800   4.153   1.720 -0.1257 -0.4511 -0.1231
 3806SOL    HW123054   2.750   4.148   1.801 -1.5009  0.2373 -0.9337
 3806SOL    HW223055   2.778   4.235   1.676  1.2635 -0.2757 -0.4934
 3807SOL     OW23056   2.621   0.918   6.387 -0.4838 -0.9470 -0.5720
 3807SOL    HW123057   2.598   0.833   6.424  1.1930 -0.7525  0.9332
 3807SOL    HW223058   2.714   0.917   6.412 -0.3134  1.7028 -1.0797
 3808SOL     OW23059   1.535   3.793   8.626 -0.2019 -0.1317 -1.0075
 3808SOL    HW123060   1.512   3.854   8.696 -0.5067 -2.1149  0.6259
 3808SOL    HW223061   1.443   3.773   8.610 -1.5454  4.9050  0.2349
 3809SOL     OW23062   2.360   1.701   2.560 -0.4885 -0.3944 -0.3365
 3809SOL    HW123063   2.291   1.758   2.593  0.5117  0.7886 -0.2927
 3809SOL    HW223064   2.438   1.754   2.574 -1.2197 -0.0035  2.2050
 3810SOL     OW23065   2.917   4.233  11.838  0.3348  0.2582 -0.1535
 3810SOL    HW123066   2.941   4.154  11.790 -1.1079 -0.0250 -0.4079
 3810SOL    HW223067   2.947   4.215  11.927  2.5930  0.2090 -0.9304
 3811SOL     OW23068   2.568   4.061   8.308  0.3139 -0.1145  0.0901
 3811SOL    HW123069   2.631   4.047   8.237 -0.4233 -2.5169 -0.1003
 3811SOL    HW223070   2.491   4.026   8.262  1.1183  1.6430 -2.6300
 3812SOL     OW23071   1.729   4.116   6.929  0.1621 -0.4597  0.2548
 3812SOL    HW123072   1.693   4.203   6.945  0.7691 -0.1396 -0.1190
 3812SOL    HW223073   1.784   4.091   7.003 -0.5607 -0.3110  0.8452
 3813SOL     OW23074   2.063   4.726  11.972 -0.4295  0.0515 -0.0390
 3813SOL    HW123075   2.029   4.639  11.949 -1.6058  0.2304  1.0723
 3813SOL    HW223076   2.004   0.018  12.040 -0.6643 -0.7157  0.1147
 3814SOL     OW23077   2.808   4.034   4.188 -0.0676  0.2433  0.1333
 3814SOL    HW123078   2.891   4.000   4.154 -0.4873 -0.4633 -0.1793
 3814SOL    HW223079   2.807   3.997   4.276  1.3083 -0.5193 -0.1753
 3815SOL     OW23080   3.131   0.787  17.486 -0.6466  0.0382 -0.1202
 3815SOL    HW123081   3.052   0.835  17.511 -2.0053 -1.5492 -1.3886
 3815SOL    HW223082   3.094   0.699  17.497  0.8937 -0.6633 -0.6716
 3816SOL     OW23083   0.585   1.199   5.195  0.2865  0.1298  0.6151
 3816SOL    HW123084   0.623   1.286   5.186 -0.2208  0.1596 -1.1333
 3816SOL    HW223085   0.492   1.217   5.208 -0.2201 -1.1084 -1.2455
 3817SOL     OW23086   1.984   1.313   0.095  0.8065  0.1588  0.5903
 3817SOL    HW123087   1.983   1.405   0.070 -4.1162  0.6812  2.6236
 3817SOL    HW223088   2.077   1.292   0.099  0.3404 -1.6844  2.0793
 3818SOL     OW23089   4.542   1.819   4.140  0.2639 -0.1811 -0.0652
 3818SOL    HW123090   4.552   1.794   4.232 -0.1460  0.1855  0.0789
 3818SOL    HW223091   4.524   1.912   4.150  2.2910  0.3123 -0.8616
 3819SOL     OW23092   2.118   3.524   8.408 -0.4503 -0.3040  0.5222
 3819SOL    HW123093   2.188   3.508   8.471  0.1399  0.1979 -0.0024
 3819SOL    HW223094   2.109   3.438   8.365 -3.4190  0.8185 -1.1081
 3820SOL     OW23095   1.941   0.561   1.891  0.3066 -0.0267  0.1070
 3820SOL    HW123096   1.867   0.530   1.942 -2.0705  2.2386 -1.9833
 3820SOL    HW223097   1.950   0.654   1.914 -2.8418  0.5300 -0.9134
 3821SOL     OW23098   1.920   1.788  12.159 -0.3726 -0.1572  0.8892
 3821SOL    HW123099   1.850   1.799  12.095 -0.7729  1.6150  1.6068
 3821SOL    HW223100   1.909   1.698  12.189 -1.9198  0.0443  0.9341
 3822SOL     OW23101   0.707   1.215   7.783  0.4342  0.5778 -0.4951
 3822SOL    HW123102   0.756   1.194   7.862 -0.5029 -0.5659 -0.2219
 3822SOL    HW223103   0.624   1.250   7.816 -0.7879 -1.1454 -1.7309
 3823SOL     OW23104   0.295   1.612  15.840  0.0714  0.6705 -0.3600
 3823SOL    HW123105   0.247   1.530  15.828  1.2535  0.2384 -2.0839
 3823SOL    HW223106   0.380   1.573  15.864 -0.2393 -0.0537 -0.4231
 3824SOL     OW23107   3.933   0.003   8.129  0.0588 -0.1280 -0.7156
 3824SOL    HW123108   3.956   0.086   8.088  0.9858  0.2831  0.6148
 3824SOL    HW223109   3.965   0.012   8.219  1.2578  1.1729 -1.2804
 3825SOL     OW23110   2.872   4.273   5.772  0.0316 -0.1281  0.3061
 3825SOL    HW123111   2.834   4.222   5.700  0.5980 -1.2775  0.8335
 3825SOL    HW223112   2.951   4.222   5.788  0.9809  0.9937 -0.7835
 3826SOL     OW23113   3.693   1.727  10.636 -0.3635 -0.0401  0.5806
 3826SOL    HW123114   3.626   1.793  10.656  0.6398  1.3545 -0.5946
 3826SOL    HW223115   3.702   1.699  10.727  1.0184 -1.2497  0.0500
 3827SOL     OW23116   2.780   2.240   4.520  0.3568  0.2091 -0.0711
 3827SOL    HW123117   2.725   2.235   4.442  0.8802  1.2762 -0.5153
 3827SOL    HW223118   2.730   2.209   4.596  1.4779  1.0266  1.0069
 3828SOL     OW23119   4.541   0.987   0.377 -0.1547  0.3807  0.0768
 3828SOL    HW123120   4.596   0.969   0.454  3.0462  0.9759 -2.0834
 3828SOL    HW223121   4.462   0.941   0.404  1.1489 -3.1105 -2.1141
 3829SOL     OW23122   4.166   3.052   5.002  0.7281 -0.0388  0.5732
 3829SOL    HW123123   4.088   3.103   4.980  1.0002  0.9334  1.8637
 3829SOL    HW223124   4.160   2.970   4.953 -0.4233  1.0285 -1.0607
 3830SOL     OW23125   0.423   0.938   6.857 -0.2711 -0.2452 -0.1590
 3830SOL    HW123126   0.516   0.956   6.869 -0.7710  0.6348  2.4237
 3830SOL    HW223127   0.424   0.851   6.897  1.5606 -0.1192  0.0494
 3831SOL     OW23128   0.291   2.621   4.134  0.1079 -0.1025 -0.1621
 3831SOL    HW123129   0.237   2.634   4.056  1.2526 -1.6125 -1.2173
 3831SOL    HW223130   0.271   2.701   4.182  2.8103 -0.9166  2.2941
 3832SOL     OW23131   4.572   0.992   0.927  0.6774 -0.3184 -0.4652
 3832SOL    HW123132   4.622   0.928   0.977 -0.4942 -1.1745 -0.3834
 3832SOL    HW223133   4.485   0.951   0.929  0.6833 -0.2369  2.0436
 3833SOL     OW23134   0.777   0.751   3.624 -0.0508 -0.0672  0.3462
 3833SOL    HW123135   0.828   0.710   3.554 -2.1040  0.3464 -1.3688
 3833SOL    HW223136   0.749   0.679   3.681  1.3510  0.6043  1.9016
 3834SOL     OW23137   3.294   4.687   2.696 -0.4221 -0.2089  0.1569
 3834SOL    HW123138   3.348   0.023   2.673 -2.3988  1.0657 -0.2987
 3834SOL    HW223139   3.281   4.650   2.608 -0.3142 -0.5335  0.2766
 3835SOL     OW23140   2.203   3.844   8.542 -0.3916  0.2283 -0.4278
 3835SOL    HW123141   2.172   3.753   8.543 -1.0392  0.4484 -1.5490
 3835SOL    HW223142   2.150   3.864   8.619 -0.1987  0.9480 -0.4847
 3836SOL     OW23143   2.550   2.917   8.392  0.3492  0.2480 -0.6173
 3836SOL    HW123144   2.505   2.886   8.470 -0.3711 -1.5532 -1.7662
 3836SOL    HW223145   2.488   2.888   8.326  2.8026 -3.3387 -1.3287
 3837SOL     OW23146   0.978   1.703  15.632 -0.2420 -0.1989 -0.0191
 3837SOL    HW123147   1.049   1.709  15.568  0.8629 -0.6501  1.1630
 3837SOL    HW223148   0.977   1.795  15.660 -1.2126 -0.2831  0.2046
 3838SOL     OW23149   0.004   4.675   6.795  0.4590 -0.1323  0.2912
 3838SOL    HW123150   0.064   4.654   6.723  0.2682 -0.4242  0.2218
 3838SOL    HW223151   4.721   4.583   6.806  0.7220 -0.3806 -1.3103
 3839SOL     OW23152   0.478   0.780   9.040 -0.0695 -0.1601 -0.2504
 3839SOL    HW123153   0.567   0.782   9.075  0.8898  0.6850 -2.6629
 3839SOL    HW223154   0.506   0.827   8.961  0.7202 -2.2853 -1.2298
 3840SOL     OW23155   2.716   0.160  16.398 -0.0317  0.4119  0.2945
 3840SOL    HW123156   2.808   0.167  16.372 -0.1516 -1.8014 -0.8163
 3840SOL    HW223157   2.710   0.197  16.485  0.7192 -0.2847  0.6468
 3841SOL     OW23158   2.050   2.166   7.397 -0.3045 -0.5795 -0.0793
 3841SOL    HW123159   2.026   2.231   7.462  1.3109 -0.2003  0.1448
 3841SOL    HW223160   1.977   2.158   7.336 -0.3032 -0.1004 -0.1440
 3842SOL     OW23161   3.088   3.978   7.974  0.3033  0.2823 -0.3155
 3842SOL    HW123162   2.997   3.947   7.966  0.1944  0.8079 -1.1936
 3842SOL    HW223163   3.100   4.001   8.066  1.5936 -1.2036 -0.1325
 3843SOL     OW23164   3.115   4.615   9.281 -0.3320  0.1839 -0.7628
 3843SOL    HW123165   3.122   4.633   9.187  0.4077  0.4069 -0.6625
 3843SOL    HW223166   3.203   4.636   9.312 -0.3304 -1.4763  0.3568
 3844SOL     OW23167   3.872   0.763   8.107  0.2379  0.0119  0.1734
 3844SOL    HW123168   3.897   0.671   8.100  1.9132  0.5225 -0.6539
 3844SOL    HW223169   3.803   0.769   8.040  1.4664 -0.8096 -1.1767
 3845SOL     OW23170   4.106   0.967   9.091  0.2691  0.5792  0.2744
 3845SOL    HW123171   4.064   1.034   9.145  2.5565  1.9706  0.3578
 3845SOL    HW223172   4.124   1.028   9.019  0.5494 -1.9335 -1.7846
 3846SOL     OW23173   1.747   0.334   5.480  0.2796  0.0769 -0.0240
 3846SOL    HW123174   1.805   0.405   5.454 -2.3836  2.7985  1.3779
 3846SOL    HW223175   1.711   0.375   5.559  1.1578  0.4607  0.1704
 3847SOL     OW23176   4.018   4.706   4.728 -0.3915  0.2839  0.1660
 3847SOL    HW123177   4.104   4.734   4.698  0.3791 -2.1343  0.1246
 3847SOL    HW223178   4.006   4.639   4.662  3.4378 -0.8493  0.6089
 3848SOL     OW23179   4.071   2.553   2.949 -0.5098 -0.4732  0.2994
 3848SOL    HW123180   3.992   2.539   3.000  0.3336 -2.1610  1.1587
 3848SOL    HW223181   4.122   2.599   3.015  1.3091 -1.0790 -0.6520
 3849SOL     OW23182   4.607   1.730  10.421 -0.4929 -0.3005  0.3213
 3849SOL    HW123183   4.650   1.767  10.499 -1.8921  0.3579  0.7824
 3849SOL    HW223184   4.526   1.780  10.418 -0.0048  0.5891  1.8023
 3850SOL     OW23185   4.419   1.246   8.276 -0.1818  0.9171  0.0485
 3850SOL    HW123186   4.330   1.211   8.278  0.6230 -1.0785  0.2851
 3850SOL    HW223187   4.456   1.185   8.213  0.6810  1.4248  0.0748
 3851SOL     OW23188   3.967   1.039  13.148 -0.4250 -0.2706 -0.3120
 3851SOL    HW123189   3.963   0.966  13.086  2.0376 -0.0494 -0.7268
 3851SOL    HW223190   3.884   1.085  13.132 -0.7954 -0.1242  2.0574
 3852SOL     OW23191   4.649   2.936   3.993  0.3021 -0.2199 -0.1781
 3852SOL    HW123192   4.688   3.021   3.972 -0.9153  0.2413 -0.5819
 3852SOL    HW223193   4.612   2.899   3.913 -0.3164  0.8277 -0.3705
 3853SOL     OW23194   4.201   1.159   3.093 -0.5466  0.3649 -0.1566
 3853SOL    HW123195   4.262   1.203   3.033 -0.4734 -0.9870 -1.0674
 3853SOL    HW223196   4.161   1.088   3.044 -0.4159 -0.0029  0.2719
 3854SOL     OW23197   3.983   4.643  12.862 -0.3063 -0.3455 -0.2395
 3854SOL    HW123198   4.052   4.702  12.894 -0.0330 -1.0579  0.4780
 3854SOL    HW223199   3.935   4.687  12.792  1.7109  1.6425 -0.3844
 3855SOL     OW23200   2.819   4.350   5.363  0.1487  0.3306  0.5925
 3855SOL    HW123201   2.850   4.367   5.273 -2.4062  0.0590 -0.3427
 3855SOL    HW223202   2.902   4.318   5.399  0.3313 -1.2459 -1.2329
 3856SOL     OW23203   0.114   1.586   6.641 -0.0331 -0.2416 -0.3397
 3856SOL    HW123204   0.147   1.497   6.630  1.5970  0.4578 -1.0882
 3856SOL    HW223205   0.123   1.600   6.735  1.5287 -0.6627 -0.4218
 3857SOL     OW23206   1.095   2.843   1.475  0.1358 -0.1661 -0.2206
 3857SOL    HW123207   1.114   2.927   1.433  2.3880 -0.2911  0.5753
 3857SOL    HW223208   1.180   2.822   1.513 -0.5663 -0.1826  1.3251
 3858SOL     OW23209   4.005   0.036   2.911  0.4569  0.0256  0.4405
 3858SOL    HW123210   4.015   0.009   2.819 -1.0509 -0.8070  0.5326
 3858SOL    HW223211   3.954   4.702   2.943  0.5211 -0.6722 -1.0635
 3859SOL     OW23212   3.364   3.405   3.720  0.2780 -0.1777  0.1924
 3859SOL    HW123213   3.385   3.458   3.643  0.7653 -1.6656 -0.6980
 3859SOL    HW223214   3.295   3.460   3.756  0.6163  0.3878 -0.0272
 3860SOL     OW23215   1.303   2.459   7.167 -0.0313  0.1566 -0.0806
 3860SOL    HW123216   1.268   2.535   7.214 -0.8143 -0.7875  0.8557
 3860SOL    HW223217   1.395   2.462   7.194  0.4109  2.8712 -1.8486
 3861SOL     OW23218   0.634   2.698  15.428 -0.2113  0.2421 -0.1064
 3861SOL    HW123219   0.696   2.658  15.489 -1.7633 -3.4204 -0.9665
 3861SOL    HW223220   0.677   2.748  15.360 -0.5738 -0.7703 -1.0750
 3862SOL     OW23221   4.257   0.327  12.326 -0.5016 -0.1648  0.1063
 3862SOL    HW123222   4.316   0.252  12.340  2.0812  1.5878 -1.3877
 3862SOL    HW223223   4.267   0.382  12.404 -1.1124  0.9946 -0.6308
 3863SOL     OW23224   1.444   1.953   4.239 -0.2026  0.5093 -0.1233
 3863SOL    HW123225   1.422   1.861   4.221  0.3883 -0.3416  3.5514
 3863SOL    HW223226   1.411   1.949   4.329 -1.6790  1.5875 -0.6133
 3864SOL     OW23227   1.046   3.510   8.625  0.1644  0.0953  0.0045
 3864SOL    HW123228   1.125   3.525   8.677 -1.4427  0.4927  2.3693
 3864SOL    HW223229   1.002   3.448   8.684  0.0508 -0.1706 -0.3651
 3865SOL     OW23230   3.771   4.299  12.918 -0.5251  0.1294  0.0033
 3865SOL    HW123231   3.763   4.383  12.963  0.0733 -0.1117  0.5584
 3865SOL    HW223232   3.688   4.262  12.951  1.4872 -2.1810  2.5049
 3866SOL     OW23233   0.061   4.452  16.399 -0.4780  0.1056 -0.6359
 3866SOL    HW123234   0.128   4.519  16.385 -0.0509 -0.3207 -0.5928
 3866SOL    HW223235   0.029   4.484  16.484  1.8397  2.3207 -0.6121
 3867SOL     OW23236   3.539   0.904   7.036 -0.1637  0.1063  0.0685
 3867SOL    HW123237   3.632   0.923   7.048 -0.4703  2.2704 -1.1133
 3867SOL    HW223238   3.512   0.848   7.108  0.2923  0.5436  0.5817
 3868SOL     OW23239   1.682   1.030   7.382  0.3411 -0.1390  0.1111
 3868SOL    HW123240   1.752   0.967   7.397  0.2683 -0.6842 -1.7925
 3868SOL    HW223241   1.708   1.075   7.301 -3.5590  0.0340 -1.0869
 3869SOL     OW23242   0.856   3.678   7.187 -0.2597 -0.2137  0.2510
 3869SOL    HW123243   0.875   3.597   7.235 -1.7570 -0.4188  0.4861
 3869SOL    HW223244   0.760   3.673   7.185 -0.3125  0.7460  0.4921
 3870SOL     OW23245   3.847   2.714   6.073 -0.2227 -0.0632  0.2842
 3870SOL    HW123246   3.789   2.789   6.055  0.6900  0.6048  0.1038
 3870SOL    HW223247   3.804   2.687   6.154  0.5377 -2.2785 -0.0545
 3871SOL     OW23248   2.476   3.866   4.554 -0.6368  0.5875  0.6898
 3871SOL    HW123249   2.391   3.859   4.512 -0.3681  0.1096  0.2274
 3871SOL    HW223250   2.517   3.929   4.496  0.6290 -1.3381 -0.5285
 3872SOL     OW23251   3.277   4.502   7.124 -0.1821  0.1572 -0.3701
 3872SOL    HW123252   3.334   4.426   7.113 -2.3080 -1.5590  0.5407
 3872SOL    HW223253   3.223   4.486   7.047  2.3968  0.8215 -2.3255
 3873SOL     OW23254   2.036   4.518   5.494  0.8621 -0.0525 -0.8808
 3873SOL    HW123255   2.096   4.562   5.433  2.7705 -0.9698  0.3464
 3873SOL    HW223256   1.952   4.522   5.448 -0.7926  1.2248  2.2601
 3874SOL     OW23257   4.084   1.537   5.254 -0.8063  0.0834  0.4150
 3874SOL    HW123258   4.048   1.619   5.221  0.0013  1.0598  1.9786
 3874SOL    HW223259   4.006   1.498   5.294 -0.0985 -0.2774  1.4567
 3875SOL     OW23260   4.496   2.300   2.184 -0.1795  0.3655 -0.4258
 3875SOL    HW123261   4.404   2.325   2.175 -0.7290 -1.4992  0.0843
 3875SOL    HW223262   4.530   2.382   2.219  1.4206 -1.2267  1.6864
 3876SOL     OW23263   2.676   4.205   5.962 -0.7804 -0.1301 -0.5501
 3876SOL    HW123264   2.654   4.133   5.903 -1.3116  0.8406 -1.5205
 3876SOL    HW223265   2.744   4.250   5.912 -1.2497  0.4852 -0.6371
 3877SOL     OW23266   1.095   1.879   9.660 -0.4435 -0.3385 -0.2941
 3877SOL    HW123267   1.163   1.947   9.667  0.3377 -0.9409 -2.0382
 3877SOL    HW223268   1.154   1.811   9.627  1.7424  0.1232  2.7162
 3878SOL     OW23269   2.564   0.559   5.367 -0.1216 -0.0775  0.0871
 3878SOL    HW123270   2.586   0.468   5.385 -0.3071  0.3093  2.2029
 3878SOL    HW223271   2.580   0.561   5.272 -0.3170  4.0191  0.1372
 3879SOL     OW23272   2.408   0.657   2.494  0.0113  0.4149 -1.0060
 3879SOL    HW123273   2.442   0.576   2.531  0.8391  1.5762  0.7632
 3879SOL    HW223274   2.412   0.707   2.575  2.7219 -1.1380 -0.2050
 3880SOL     OW23275   2.299   4.639  12.054  0.3621 -0.1171 -0.0547
 3880SOL    HW123276   2.282   4.641  12.148 -0.9306  0.3170 -0.3040
 3880SOL    HW223277   2.208   4.644  12.026  0.2856  1.6972  0.4613
 3881SOL     OW23278   1.910   3.049  14.540 -0.3536 -0.3884  0.1034
 3881SOL    HW123279   1.831   3.040  14.487 -1.3030  3.3725  0.8786
 3881SOL    HW223280   1.963   3.104  14.482  1.9259 -2.2086  0.4704
 3882SOL     OW23281   2.145   4.354  17.498 -0.4694  0.7253 -0.3277
 3882SOL    HW123282   2.201   4.424  17.532  2.6390 -2.0158  0.1766
 3882SOL    HW223283   2.056   4.383  17.520 -0.4210  1.0374 -0.5372
 3883SOL     OW23284   3.311   3.941   7.757  0.0037 -0.5070 -0.4079
 3883SOL    HW123285   3.284   3.871   7.697  0.4126 -1.0166  0.0053
 3883SOL    HW223286   3.261   3.911   7.833 -0.9543  1.1931 -0.3645
 3884SOL     OW23287   1.368   1.958   4.530  0.2587 -0.6193  0.0767
 3884SOL    HW123288   1.430   2.030   4.544  0.9912 -1.2867  0.2522
 3884SOL    HW223289   1.428   1.884   4.538 -2.0083 -2.3869  0.7934
 3885SOL     OW23290   3.199   1.673   5.803  0.0398 -0.0820 -0.2991
 3885SOL    HW123291   3.275   1.691   5.748  2.2623 -0.4459  2.6878
 3885SOL    HW223292   3.217   1.730   5.878  2.0063  0.6874 -1.3516
 3886SOL     OW23293   1.570   1.819  11.698  0.5946 -0.0721 -0.0356
 3886SOL    HW123294   1.628   1.813  11.621  0.1406 -1.3689 -0.2739
 3886SOL    HW223295   1.518   1.739  11.691  0.0413  0.1837  1.1442
 3887SOL     OW23296   0.096   4.344   5.003 -0.6666  0.4736  0.0506
 3887SOL    HW123297   0.170   4.330   4.944 -0.6310  0.2270  0.1543
 3887SOL    HW223298   0.018   4.321   4.952 -0.8401 -2.8632  1.7957
 3888SOL     OW23299   3.571   2.987  14.170 -0.1524  0.6841 -0.7220
 3888SOL    HW123300   3.652   2.938  14.188 -1.4713 -0.7541  1.2177
 3888SOL    HW223301   3.569   2.996  14.075  1.7620  1.2829 -0.7156
 3889SOL     OW23302   4.494   2.758   2.108  0.6203  0.2208  0.0942
 3889SOL    HW123303   4.431   2.687   2.120 -0.2780  0.9673 -0.2143
 3889SOL    HW223304   4.444   2.829   2.069  0.7120  0.2594  0.0472
 3890SOL     OW23305   0.520   0.125   6.290 -0.2006  0.6228  0.4076
 3890SOL    HW123306   0.462   0.193   6.324 -2.4430 -1.1275  0.0468
 3890SOL    HW223307   0.601   0.177   6.285 -0.8071  1.5853  0.4875
 3891SOL     OW23308   3.967   2.975   4.349 -0.3434  0.5295 -0.1411
 3891SOL    HW123309   4.051   2.990   4.392 -1.2079  2.3004  0.9504
 3891SOL    HW223310   3.948   2.882   4.355 -2.4697  0.7895 -2.6797
 3892SOL     OW23311   2.471   2.258   8.928  0.3422  0.3686 -0.1115
 3892SOL    HW123312   2.474   2.251   9.023 -1.5198 -0.4948 -0.1302
 3892SOL    HW223313   2.555   2.214   8.915 -0.4993 -1.5733  1.0019
 3893SOL     OW23314   0.211   2.766   8.223  0.2853  0.4552 -0.2704
 3893SOL    HW123315   0.209   2.784   8.317 -0.4700 -1.4652  0.0891
 3893SOL    HW223316   0.290   2.807   8.191 -0.5608  1.4367 -1.0773
 3894SOL     OW23317   2.784   0.782   7.028  0.3581  0.1107 -0.2350
 3894SOL    HW123318   2.840   0.842   6.979  1.2996 -1.0574 -0.5773
 3894SOL    HW223319   2.854   0.733   7.070  0.1249 -1.8521 -2.1780
 3895SOL     OW23320   1.377   3.819   4.010  0.0585  0.4178 -0.5937
 3895SOL    HW123321   1.431   3.833   3.932  0.1305 -0.6428 -0.7363
 3895SOL    HW223322   1.439   3.860   4.070  1.0852 -1.0476 -0.6332
 3896SOL     OW23323   1.465   0.952   2.385  0.4136 -0.3407 -0.3077
 3896SOL    HW123324   1.427   1.029   2.345  1.1865  0.8807  1.2979
 3896SOL    HW223325   1.554   0.988   2.394  0.0855  0.6311 -1.0475
 3897SOL     OW23326   0.907   3.703   3.771 -0.0299 -0.6799  0.1288
 3897SOL    HW123327   0.964   3.659   3.708 -0.6599  0.2916 -1.1274
 3897SOL    HW223328   0.974   3.718   3.837  1.6732 -1.9886 -1.3024
 3898SOL     OW23329   0.124   0.664  11.725  0.5842 -0.0216  0.2260
 3898SOL    HW123330   0.185   0.712  11.781  1.7533 -0.0353 -1.0378
 3898SOL    HW223331   0.043   0.660  11.776  0.4380 -1.1526 -0.1157
 3899SOL     OW23332   2.419   1.786   8.647  0.0264 -0.0074  0.3760
 3899SOL    HW123333   2.437   1.864   8.700 -0.6587 -0.4638  1.2756
 3899SOL    HW223334   2.428   1.813   8.555  2.0591  1.3722  0.9602
 3900SOL     OW23335   4.113   0.431   7.128 -0.3639 -0.5579  0.4901
 3900SOL    HW123336   4.201   0.462   7.148 -0.6228 -0.8498  2.1118
 3900SOL    HW223337   4.147   0.363   7.071 -0.5595  1.5468 -2.1609
 3901SOL     OW23338   3.711   2.457   3.651  0.0164 -0.1557 -0.1445
 3901SOL    HW123339   3.724   2.534   3.707 -0.1255 -0.1167 -0.1666
 3901SOL    HW223340   3.769   2.393   3.694 -0.4692 -1.8001 -1.9562
 3902SOL     OW23341   3.020   2.327  17.535  0.2031 -0.4948 -0.1672
 3902SOL    HW123342   3.053   2.408  17.496 -0.3021 -0.1057  0.2063
 3902SOL    HW223343   2.974   2.369  17.608  0.9990  0.0365  0.0338
 3903SOL     OW23344   1.302   3.256   5.996  0.0052  0.1842  0.1001
 3903SOL    HW123345   1.365   3.220   5.933  0.2802  1.6769 -0.4770
 3903SOL    HW223346   1.350   3.312   6.057 -0.4985 -0.0055  0.6670
 3904SOL     OW23347   4.572   0.376   2.070  0.1070  0.4740  0.1127
 3904SOL    HW123348   4.640   0.436   2.099 -1.5048  2.3701 -0.0168
 3904SOL    HW223349   4.558   0.415   1.984  2.9577 -1.9774 -1.4676
 3905SOL     OW23350   2.912   0.336   5.033 -0.1232 -0.3167 -0.3763
 3905SOL    HW123351   2.951   0.421   5.011  0.9006 -0.4242  0.9834
 3905SOL    HW223352   2.946   0.279   4.964  1.3124 -1.1563  1.0260
 3906SOL     OW23353   0.359   3.067   4.339 -0.3372  0.1064  0.2454
 3906SOL    HW123354   0.388   3.074   4.430 -1.1005 -0.4893  0.5373
 3906SOL    HW223355   0.267   3.091   4.349 -0.5073 -1.3924  2.3284
 3907SOL     OW23356   0.535   0.398   6.330  0.0704  0.0485 -0.6429
 3907SOL    HW123357   0.616   0.403   6.382 -1.4767  0.5528  1.7293
 3907SOL    HW223358   0.566   0.386   6.240 -0.2254 -1.3720 -0.5536
 3908SOL     OW23359   1.205   3.989   4.853  0.0510 -0.0316  0.2615
 3908SOL    HW123360   1.210   3.918   4.917 -2.1834 -2.0397 -1.7627
 3908SOL    HW223361   1.284   3.977   4.801  0.8441 -0.0692  1.4741
 3909SOL     OW23362   2.163   2.591   8.191 -0.2347  0.3028  0.1634
 3909SOL    HW123363   2.073   2.577   8.221 -0.8605  0.9016 -1.4142
 3909SOL    HW223364   2.134   2.591   8.100  1.1789 -3.0208 -0.3075
 3910SOL     OW23365   0.996   3.043   1.941  0.0563 -0.1278  0.1326
 3910SOL    HW123366   1.054   3.069   1.869 -1.9021  3.5684 -0.0969
 3910SOL    HW223367   0.998   3.119   1.999  0.6693 -0.0230 -0.0239
 3911SOL     OW23368   0.619   0.313   3.456  0.3054 -0.2748  0.4275
 3911SOL    HW123369   0.554   0.302   3.525  0.5042 -1.3221  0.4488
 3911SOL    HW223370   0.573   0.340   3.376  2.3906  2.0312  0.0051
 3912SOL     OW23371   3.753   1.788  10.366 -0.1553  0.2377  0.0858
 3912SOL    HW123372   3.748   1.794  10.461  1.5769 -1.4382  0.3059
 3912SOL    HW223373   3.820   1.855  10.352  0.2198 -0.3053 -0.7423
 3913SOL     OW23374   2.477   3.993   3.339 -0.0310 -0.2725  0.4414
 3913SOL    HW123375   2.540   4.020   3.406 -0.7357  0.1175  0.9526
 3913SOL    HW223376   2.526   3.915   3.314 -0.6242  0.1845 -2.2151
 3914SOL     OW23377   2.441   3.724   2.401  0.4959  0.1541  0.2999
 3914SOL    HW123378   2.446   3.644   2.453 -0.5233  0.2676  0.5680
 3914SOL    HW223379   2.374   3.760   2.459  2.7731  4.3185  0.3656
 3915SOL     OW23380   0.954   1.321   9.545  0.1148  0.0690 -0.3322
 3915SOL    HW123381   0.952   1.385   9.616  3.5972 -0.9836  0.7324
 3915SOL    HW223382   1.003   1.252   9.589  1.1625  2.1459  1.7766
 3916SOL     OW23383   3.891   3.898   5.450 -0.2999  0.7369 -0.2835
 3916SOL    HW123384   3.812   3.906   5.396 -1.7007 -1.4913  1.4297
 3916SOL    HW223385   3.959   3.854   5.398 -1.2156 -0.8285 -0.1512
 3917SOL     OW23386   3.829   2.180   0.434  0.1062  0.0959  0.0793
 3917SOL    HW123387   3.776   2.256   0.459 -0.8818 -0.3736 -0.5876
 3917SOL    HW223388   3.834   2.197   0.340  2.5017  2.2020  0.5996
 3918SOL     OW23389   2.353   4.489   1.173 -0.6231 -0.2140 -1.0417
 3918SOL    HW123390   2.427   4.523   1.123 -0.6410  1.2919 -0.0592
 3918SOL    HW223391   2.400   4.476   1.256 -1.7231 -2.7395 -0.8072
 3919SOL     OW23392   1.304   1.448   4.346 -0.6567 -0.5211 -0.2974
 3919SOL    HW123393   1.290   1.400   4.427 -0.2595  2.7177  1.6929
 3919SOL    HW223394   1.354   1.385   4.294  0.8776  2.0249 -1.9511
 3920SOL     OW23395   0.192   1.607   9.375 -0.0129 -0.1507  0.2064
 3920SOL    HW123396   0.271   1.568   9.338  0.2279  0.5438 -0.0219
 3920SOL    HW223397   0.129   1.535   9.370 -0.4374  0.2037  0.4582
 3921SOL     OW23398   2.090   4.408   2.928  0.6602 -0.0750  0.0616
 3921SOL    HW123399   2.138   4.423   2.847 -3.2328  3.4814 -1.5778
 3921SOL    HW223400   2.102   4.492   2.972  2.5039 -0.2994  0.0089
 3922SOL     OW23401   2.272   3.022  12.121  0.4021  0.0164  0.0421
 3922SOL    HW123402   2.284   2.927  12.127 -0.3471 -0.1176 -0.7971
 3922SOL    HW223403   2.272   3.052  12.212  2.1715  0.8101 -0.2080
 3923SOL     OW23404   1.490   1.190   6.857  0.7681 -0.1496 -0.7735
 3923SOL    HW123405   1.435   1.156   6.787  0.7393  0.4101 -1.0272
 3923SOL    HW223406   1.518   1.272   6.817  2.7409  0.0234  0.9798
 3924SOL     OW23407   3.096   1.872   7.243 -0.3818 -0.2309 -0.1003
 3924SOL    HW123408   3.162   1.834   7.300 -0.5250 -1.9751 -1.1216
 3924SOL    HW223409   3.080   1.950   7.297  1.1050  0.7624 -1.1132
 3925SOL     OW23410   4.573   1.346   9.960 -0.0277 -0.4496  0.1368
 3925SOL    HW123411   4.588   1.251   9.961  1.5449 -0.2615 -3.4680
 3925SOL    HW223412   4.626   1.376   9.886 -1.0859 -4.5080 -2.2884
 3926SOL     OW23413   4.012   2.665   6.839 -0.0660  0.5316  0.2414
 3926SOL    HW123414   4.085   2.606   6.820 -0.4488  0.6786 -1.6642
 3926SOL    HW223415   3.981   2.696   6.754  2.5352  1.6031 -0.3075
 3927SOL     OW23416   4.331   0.529   8.417 -0.1537  0.2584  0.2203
 3927SOL    HW123417   4.417   0.488   8.425 -1.4518 -2.5029  0.1324
 3927SOL    HW223418   4.308   0.569   8.500  2.0648  0.7991  0.5776
 3928SOL     OW23419   1.760   1.551   7.649 -0.0516  0.7073 -0.0730
 3928SOL    HW123420   1.765   1.588   7.737 -1.9252  0.0013  0.3295
 3928SOL    HW223421   1.672   1.513   7.654 -0.2676  1.2655  0.2990
 3929SOL     OW23422   0.176   2.849   2.785 -0.1181 -0.2323  0.1155
 3929SOL    HW123423   0.197   2.775   2.728  0.1684  1.6082 -2.1484
 3929SOL    HW223424   0.126   2.804   2.853 -1.4893 -1.6751 -1.8495
 3930SOL     OW23425   2.799   3.321   2.682  0.3898 -0.0162 -0.4267
 3930SOL    HW123426   2.816   3.229   2.663  1.8191  0.7457 -2.8450
 3930SOL    HW223427   2.836   3.356   2.601  0.5378  1.0215  0.0961
 3931SOL     OW23428   1.889   2.113   4.061 -0.3441 -0.5719  0.2386
 3931SOL    HW123429   1.832   2.077   4.129  0.6828  0.0643  1.4324
 3931SOL    HW223430   1.960   2.050   4.076  0.7761  0.4625 -0.7704
 3932SOL     OW23431   1.323   3.002   6.170 -0.1680  0.0240  0.3875
 3932SOL    HW123432   1.246   3.036   6.215 -0.2787  0.0733  0.1566
 3932SOL    HW223433   1.330   3.077   6.111  0.7998 -0.2778  0.1063
 3933SOL     OW23434   2.377   0.258   6.408  0.2105 -0.1779  0.8464
 3933SOL    HW123435   2.453   0.249   6.350 -1.4888  0.1608 -1.4744
 3933SOL    HW223436   2.335   0.342   6.390  0.7291  0.1394  1.1072
 3934SOL     OW23437   3.532   0.280  15.658  0.3077 -0.0436 -0.4405
 3934SOL    HW123438   3.616   0.325  15.670  1.1221 -1.8488  0.6853
 3934SOL    HW223439   3.518   0.234  15.741 -0.2270  1.9352  0.5782
 3935SOL     OW23440   2.477   0.031   7.413 -0.4945 -0.0689  0.3965
 3935SOL    HW123441   2.504   0.073   7.331 -0.5769  1.4459  1.1306
 3935SOL    HW223442   2.425   0.106   7.442 -1.8458  0.4355 -3.3646
 3936SOL     OW23443   0.783   3.080   2.225 -0.1422  1.0247  0.1718
 3936SOL    HW123444   0.857   3.141   2.221  0.7202 -0.0175  0.1650
 3936SOL    HW223445   0.827   3.004   2.264 -1.6966  0.0623  0.0629
 3937SOL     OW23446   1.829   0.958   7.119  0.1774 -0.1539 -0.0821
 3937SOL    HW123447   1.889   0.944   7.192  3.2342  2.9927 -2.0057
 3937SOL    HW223448   1.802   0.870   7.092  0.7383  0.1067 -1.4795
 3938SOL     OW23449   1.992   2.978   9.729  0.1117 -0.5676  0.5422
 3938SOL    HW123450   2.018   3.066   9.702  1.2644 -0.8263  0.8275
 3938SOL    HW223451   2.075   2.931   9.728  1.0539  1.1165  0.1895
 3939SOL     OW23452   0.288   1.448   7.901  0.4437 -0.3897  0.2128
 3939SOL    HW123453   0.200   1.418   7.923  0.7506 -1.5376 -0.1636
 3939SOL    HW223454   0.329   1.368   7.869  0.0919 -0.6773  0.4909
 3940SOL     OW23455   2.035   2.186  10.355  0.3477  0.4097 -0.4980
 3940SOL    HW123456   2.026   2.235  10.437 -0.5043 -0.5424 -0.0128
 3940SOL    HW223457   1.969   2.116  10.361  0.4603  0.4060  0.8649
 3941SOL     OW23458   0.816   1.675   6.358  0.4447  0.3644  0.4698
 3941SOL    HW123459   0.738   1.706   6.312 -0.0146  0.6360  1.4308
 3941SOL    HW223460   0.781   1.656   6.445  0.5255  2.7342  0.9946
 3942SOL     OW23461   0.840   3.847   2.718  0.5400  0.0946  0.0178
 3942SOL    HW123462   0.915   3.856   2.777  1.1988  1.8042 -1.0929
 3942SOL    HW223463   0.758   3.846   2.768  0.9846  1.3076  0.7632
 3943SOL     OW23464   3.641   2.502   9.348 -0.0160 -0.2684  0.1409
 3943SOL    HW123465   3.696   2.576   9.321  1.7467 -1.9958 -1.0134
 3943SOL    HW223466   3.672   2.454   9.271 -2.6251  1.1192 -1.7914
 3944SOL     OW23467   0.230   4.046   3.383  0.7451  0.1409 -0.0875
 3944SOL    HW123468   0.275   4.011   3.306  1.4484  0.3393  0.2352
 3944SOL    HW223469   0.263   4.135   3.391 -2.3480  1.2208  0.4851
 3945SOL     OW23470   1.354   4.665   4.179  0.3020 -0.3308 -0.1568
 3945SOL    HW123471   1.331   0.017   4.180 -1.0895 -0.7051  1.3253
 3945SOL    HW223472   1.448   4.678   4.164  0.6153 -1.4179  0.8831
 3946SOL     OW23473   2.752   0.190   6.670  0.0428 -0.1006  0.4776
 3946SOL    HW123474   2.711   0.148   6.745  0.0604  0.1893  0.6505
 3946SOL    HW223475   2.832   0.233   6.700 -1.6699  2.9949  0.5997
 3947SOL     OW23476   4.242   1.149  16.069 -0.2554  0.0568 -0.4315
 3947SOL    HW123477   4.222   1.082  16.134 -1.6993 -1.0449 -2.0008
 3947SOL    HW223478   4.311   1.198  16.114  1.0270 -3.5009  1.4795
 3948SOL     OW23479   0.246   4.160  16.815 -0.4653  0.2078 -0.0088
 3948SOL    HW123480   0.236   4.210  16.734 -3.5307  2.7491  1.9366
 3948SOL    HW223481   0.190   4.205  16.878  0.6559  0.1431  1.0258
 3949SOL     OW23482   2.393   4.093  16.592  0.2138  0.6317  0.0078
 3949SOL    HW123483   2.403   4.027  16.660  1.3103  1.4518  0.6330
 3949SOL    HW223484   2.477   4.105  16.548  0.6260  0.0658  0.6375
 3950SOL     OW23485   2.279   4.288  14.742  0.0036 -0.0639  0.6277
 3950SOL    HW123486   2.309   4.252  14.826  0.2178 -0.0516  0.5560
 3950SOL    HW223487   2.183   4.286  14.749  0.0689 -2.8734  0.8325
 3951SOL     OW23488   0.195   1.318   4.045 -0.4198  0.0769  0.4424
 3951SOL    HW123489   0.208   1.371   3.966  1.9327  0.4812  1.0754
 3951SOL    HW223490   0.278   1.271   4.037 -0.1873  0.5358  0.1225
 3952SOL     OW23491   0.142   1.342   1.257 -0.5146  0.6146 -0.7227
 3952SOL    HW123492   0.055   1.325   1.220 -0.6494 -0.2335  0.0022
 3952SOL    HW223493   0.152   1.284   1.332  0.0076  4.2391  2.0167
 3953SOL     OW23494   1.618   4.168   2.025  0.1877 -0.6254 -0.0120
 3953SOL    HW123495   1.650   4.189   2.112 -0.1010 -1.5065  0.3012
 3953SOL    HW223496   1.602   4.074   2.027  0.2945 -0.6189  1.1559
 3954SOL     OW23497   1.757   0.082   7.813  0.1279  0.2614 -0.2494
 3954SOL    HW123498   1.794   4.734   7.811  0.8471  0.6387 -3.2865
 3954SOL    HW223499   1.820   0.135   7.863 -0.4644  1.7124 -1.0616
 3955SOL     OW23500   2.066   2.561   3.091  0.3885  0.5780  0.1413
 3955SOL    HW123501   2.131   2.565   3.161 -1.8814  1.5057  2.1738
 3955SOL    HW223502   1.990   2.597   3.137  2.0207  1.0895  2.4201
 3956SOL     OW23503   1.421   0.044   6.109 -0.0266  0.7253  0.3582
 3956SOL    HW123504   1.448   4.714   6.051 -0.1088 -0.1069  1.3342
 3956SOL    HW223505   1.432   0.122   6.054 -1.4109  0.1029 -0.7838
 3957SOL     OW23506   2.848   2.201   8.487  0.5810  0.4678 -0.5602
 3957SOL    HW123507   2.866   2.118   8.444  1.8516 -0.0590  0.9748
 3957SOL    HW223508   2.939   2.227   8.501  0.2550  0.2619  2.0177
 3958SOL     OW23509   2.100   1.489   4.125  0.5580 -0.1887 -0.5739
 3958SOL    HW123510   2.020   1.436   4.122 -1.1170  2.2921  0.5166
 3958SOL    HW223511   2.075   1.580   4.135 -2.7751 -1.2148  0.5349
 3959SOL     OW23512   0.912   2.255   4.362 -0.6502  0.0356 -0.2077
 3959SOL    HW123513   0.955   2.291   4.440 -2.4128 -1.1726  1.3044
 3959SOL    HW223514   0.976   2.197   4.320  0.0082  0.2322  0.5294
 3960SOL     OW23515   3.046   0.573   2.055  0.1439  0.3610  0.0321
 3960SOL    HW123516   2.987   0.554   1.982  0.0537  1.4946 -0.1888
 3960SOL    HW223517   3.005   0.649   2.095  1.1366  1.6711 -1.4660
 3961SOL     OW23518   2.003   1.398   5.672  0.4749  0.2989  0.2120
 3961SOL    HW123519   1.970   1.374   5.585  1.8217 -0.3695 -0.1165
 3961SOL    HW223520   1.966   1.484   5.692  0.1336 -0.0991  1.2989
 3962SOL     OW23521   3.116   1.960  10.000 -0.2725 -0.5200  0.7159
 3962SOL    HW123522   3.137   1.938   9.909 -0.0681  2.0925  0.1427
 3962SOL    HW223523   3.187   1.914  10.045 -1.5968 -1.1405  2.1616
 3963SOL     OW23524   0.653   0.676   6.348  0.0243  0.9624 -0.3471
 3963SOL    HW123525   0.564   0.711   6.344 -0.7630 -0.8762  0.9145
 3963SOL    HW223526   0.638   0.590   6.387 -0.8017  2.2014  2.0348
 3964SOL     OW23527   2.782   1.927   6.058  0.2885 -0.7208 -0.4326
 3964SOL    HW123528   2.715   1.880   6.007 -1.2391 -1.9881  2.7487
 3964SOL    HW223529   2.736   1.952   6.138 -1.4798 -1.9235 -1.0923
 3965SOL     OW23530   2.469   4.026   9.839  0.1092  0.6767  0.0372
 3965SOL    HW123531   2.518   4.105   9.814  0.5944  0.1106 -0.8132
 3965SOL    HW223532   2.397   4.069   9.885 -1.2316 -1.6551  0.1429
 3966SOL     OW23533   1.735   2.423   4.488  0.4153 -0.1233  0.1120
 3966SOL    HW123534   1.785   2.491   4.533  2.3499 -1.1851 -0.4496
 3966SOL    HW223535   1.738   2.454   4.397 -1.6989 -2.0516 -0.6313
 3967SOL     OW23536   2.341   4.364   3.758 -0.4327  0.3897  0.9935
 3967SOL    HW123537   2.341   4.435   3.822 -1.7021  1.0044  0.3183
 3967SOL    HW223538   2.377   4.292   3.809 -1.0836 -0.1818  0.6463
 3968SOL     OW23539   3.956   3.099  10.676 -0.0121  0.2317  0.0173
 3968SOL    HW123540   3.921   3.034  10.736 -2.3150  1.4943  0.0374
 3968SOL    HW223541   4.017   3.145  10.733  0.8151 -1.5801  0.5966
 3969SOL     OW23542   3.344   0.787   4.749  0.1843  0.1136 -0.4769
 3969SOL    HW123543   3.379   0.782   4.660  0.2091 -1.3715 -0.3859
 3969SOL    HW223544   3.258   0.749   4.731 -1.1103  2.0335  1.5918
 3970SOL     OW23545   1.346   4.236   5.323  0.4578 -0.1162  0.6472
 3970SOL    HW123546   1.406   4.163   5.307  0.6175 -0.2845  2.0607
 3970SOL    HW223547   1.270   4.199   5.369  0.0761  1.8383  1.6026
 3971SOL     OW23548   4.369   1.452   9.561 -0.4482 -0.2564  0.3374
 3971SOL    HW123549   4.411   1.373   9.527  3.3992  1.2497  1.6258
 3971SOL    HW223550   4.318   1.404   9.626  2.3475  0.5170  3.1232
 3972SOL     OW23551   3.337   3.692  16.456 -0.1258  0.0585 -0.2491
 3972SOL    HW123552   3.425   3.657  16.452 -0.8515 -1.6593 -1.0599
 3972SOL    HW223553   3.268   3.627  16.444 -0.9008  1.1238 -1.6179
 3973SOL     OW23554   1.445   2.285  14.137 -0.4343  0.1421  0.6301
 3973SOL    HW123555   1.351   2.274  14.151 -0.2514  0.5819  2.2060
 3973SOL    HW223556   1.457   2.376  14.110 -1.1334 -0.3217 -1.1954
 3974SOL     OW23557   3.349   3.951  15.590  0.1295  0.1077  0.0652
 3974SOL    HW123558   3.273   3.968  15.646  0.6985  0.2754  0.7793
 3974SOL    HW223559   3.421   3.942  15.652  2.5140  0.9525 -2.6200
 3975SOL     OW23560   4.407   1.629   5.982 -0.1657  0.2468 -0.0115
 3975SOL    HW123561   4.328   1.649   5.931 -0.0666  0.3172 -0.1390
 3975SOL    HW223562   4.470   1.682   5.931  0.6724 -1.5629 -0.8552
 3976SOL     OW23563   1.272   1.681   9.545  0.0729 -0.1751 -0.0937
 3976SOL    HW123564   1.329   1.644   9.613  1.3473  0.4785 -0.8051
 3976SOL    HW223565   1.233   1.601   9.510 -1.6701  0.2734  0.8466
 3977SOL     OW23566   0.587   2.059   2.490 -0.4066 -0.2376  0.6580
 3977SOL    HW123567   0.580   1.998   2.416  0.8296  2.1961 -1.4768
 3977SOL    HW223568   0.614   2.143   2.453  1.1617 -1.1121 -0.1863
 3978SOL     OW23569   0.961   2.982   3.685 -0.2566  0.9812  0.8877
 3978SOL    HW123570   0.989   3.074   3.689  3.9336 -0.3159  1.5436
 3978SOL    HW223571   0.866   2.993   3.684 -0.4163 -0.7563 -1.3751
 3979SOL     OW23572   0.971   3.826   2.340  0.7094  0.1113  0.0379
 3979SOL    HW123573   0.891   3.860   2.379  0.0805  0.0165 -1.1558
 3979SOL    HW223574   0.982   3.862   2.252  0.3721  0.2767  0.0648
 3980SOL     OW23575   3.988   2.970   9.574  0.1718 -0.2582  0.2102
 3980SOL    HW123576   3.969   3.027   9.500  1.2446  1.4942  1.3002
 3980SOL    HW223577   3.930   2.897   9.552  1.2092 -2.0365  3.3484
 3981SOL     OW23578   3.781   3.637   9.415  0.6212 -0.1376  0.2172
 3981SOL    HW123579   3.750   3.722   9.448 -0.6876 -0.1715 -0.9215
 3981SOL    HW223580   3.721   3.578   9.460 -0.0651 -0.5308 -1.2222
 3982SOL     OW23581   4.407   1.240   0.284 -0.0021  0.1520  0.2440
 3982SOL    HW123582   4.424   1.334   0.287 -0.6360  0.2602  0.4449
 3982SOL    HW223583   4.478   1.216   0.343 -1.6052  0.1567  2.1899
 3983SOL     OW23584   3.585   1.737   9.358  0.1422 -0.1258  0.2802
 3983SOL    HW123585   3.538   1.662   9.324  1.6846 -0.9556 -0.0365
 3983SOL    HW223586   3.669   1.729   9.312 -0.5581 -0.1229 -0.9790
 3984SOL     OW23587   3.918   4.545  13.619  0.5023 -0.0458  0.0137
 3984SOL    HW123588   3.868   4.482  13.568  1.7388 -0.2188 -0.9769
 3984SOL    HW223589   3.946   4.611  13.556  1.1169 -0.7916 -0.4911
 3985SOL     OW23590   2.993   2.599   8.541 -0.1656 -0.8111  0.3030
 3985SOL    HW123591   2.953   2.685   8.556 -0.7301 -0.8599 -0.8425
 3985SOL    HW223592   3.085   2.607   8.565  0.6397  0.5158 -3.1441
 3986SOL     OW23593   0.958   2.460   8.512  0.5436 -0.2036 -0.6312
 3986SOL    HW123594   0.863   2.453   8.497  0.7943 -0.6542 -1.9839
 3986SOL    HW223595   0.990   2.374   8.487  0.7011 -0.2149 -0.3943
 3987SOL     OW23596   0.978   1.514   2.261  0.0410  0.0762  0.1938
 3987SOL    HW123597   1.064   1.501   2.222 -0.1664 -0.3679 -0.1197
 3987SOL    HW223598   0.933   1.584   2.213  1.1385 -0.2028 -1.2424
 3988SOL     OW23599   0.403   3.105   9.709  0.7368 -0.6117  0.6468
 3988SOL    HW123600   0.354   3.023   9.708 -0.3863  0.1007 -1.6311
 3988SOL    HW223601   0.352   3.153   9.644 -0.0836 -2.5067 -0.1106
 3989SOL     OW23602   1.206   2.846   1.824  0.7551  0.5336 -0.1635
 3989SOL    HW123603   1.249   2.808   1.747  0.0068 -1.9715  0.6564
 3989SOL    HW223604   1.179   2.932   1.791  1.5240  0.5817 -0.6904
 3990SOL     OW23605   2.715   1.830   1.475  0.4857 -0.1936  0.7560
 3990SOL    HW123606   2.758   1.827   1.560  0.8664  1.0409  0.5988
 3990SOL    HW223607   2.627   1.799   1.498  0.3113  0.2895  0.7319
 3991SOL     OW23608   3.499   2.424   2.809 -0.0702  0.1847 -0.4100
 3991SOL    HW123609   3.543   2.463   2.733 -1.3412 -2.1749 -2.3262
 3991SOL    HW223610   3.471   2.498   2.864  0.4838  0.1060 -0.0172
 3992SOL     OW23611   0.622   2.024  13.061 -0.1423 -0.2673 -0.0029
 3992SOL    HW123612   0.663   2.087  13.120  1.4688  0.9048 -2.3900
 3992SOL    HW223613   0.671   1.947  13.090  0.7883  0.0582 -0.7339
 3993SOL     OW23614   2.581   3.065   3.933 -0.1938 -0.1148 -0.3732
 3993SOL    HW123615   2.603   3.011   4.009  0.6225 -0.6802 -1.0212
 3993SOL    HW223616   2.672   3.094   3.921 -0.3183  0.0702 -0.8933
 3994SOL     OW23617   0.775   2.797   5.490  0.1984 -0.0835  0.2957
 3994SOL    HW123618   0.811   2.709   5.477  0.7446  0.3248 -0.9596
 3994SOL    HW223619   0.721   2.821   5.415  0.8158  0.1808 -0.0688
 3995SOL     OW23620   4.545   3.411   2.558 -0.4521  0.0534 -0.1595
 3995SOL    HW123621   4.588   3.424   2.642  1.2122  0.5229 -1.0825
 3995SOL    HW223622   4.581   3.328   2.527  2.5050  1.4928 -0.5608
 3996SOL     OW23623   3.693   2.678   3.863  0.4323  0.5072 -0.3196
 3996SOL    HW123624   3.602   2.650   3.874  1.2217 -1.3489  1.3305
 3996SOL    HW223625   3.706   2.711   3.952  1.1962 -1.4162  0.2703
 3997SOL     OW23626   1.629   0.662  16.629 -0.3144 -0.0196  0.2872
 3997SOL    HW123627   1.571   0.586  16.635  2.2848 -1.9623  1.3755
 3997SOL    HW223628   1.564   0.729  16.609 -0.0705  0.2231  0.3081
 3998SOL     OW23629   1.743   2.957   1.012 -0.3566  0.1921 -0.2707
 3998SOL    HW123630   1.818   2.977   1.068  0.4536 -0.5653 -1.1083
 3998SOL    HW223631   1.665   2.994   1.055 -0.4821  1.9236 -1.9882
 3999SOL     OW23632   0.862   4.276   2.776  0.4615 -0.1303  0.1769
 3999SOL    HW123633   0.892   4.185   2.778  1.9536  0.3715  0.7948
 3999SOL    HW223634   0.805   4.279   2.853  2.9291  1.4428  1.9478
 4000SOL     OW23635   2.783   2.791   5.479  0.3477 -0.6932  0.2728
 4000SOL    HW123636   2.845   2.721   5.498 -0.2195 -1.4436 -0.6601
 4000SOL    HW223637   2.847   2.859   5.456 -0.1903 -0.3043 -0.0792
 4001SOL     OW23638   4.649   4.171   6.921  0.4186  0.3559 -0.0299
 4001SOL    HW123639   4.579   4.105   6.912 -1.3041  2.1306  0.3788
 4001SOL    HW223640   4.606   4.256   6.916  1.2931  0.9991  3.6273
 4002SOL     OW23641   1.938   3.324  14.676  0.3290  0.7151  0.1683
 4002SOL    HW123642   1.996   3.363  14.610  1.0623  0.6269  0.7607
 4002SOL    HW223643   2.009   3.279  14.722 -0.2668 -1.0785 -0.6830
 4003SOL     OW23644   0.996   3.311   6.783 -0.2004 -0.3774 -0.0735
 4003SOL    HW123645   1.039   3.347   6.706 -0.8024  1.4171  0.4280
 4003SOL    HW223646   0.966   3.387   6.832  0.4570 -0.1873  0.0267
 4004SOL     OW23647   0.605   3.719   1.570 -0.5473  0.4455  0.3093
 4004SOL    HW123648   0.650   3.661   1.509 -0.9351  1.3564 -0.8476
 4004SOL    HW223649   0.680   3.768   1.605 -1.5252  0.9913  1.5975
 4005SOL     OW23650   1.685   0.532   8.631  0.1784 -0.0958 -0.2550
 4005SOL    HW123651   1.594   0.526   8.603  0.2021  0.0551 -0.3655
 4005SOL    HW223652   1.714   0.588   8.558 -0.5019  1.3686  0.6056
 4006SOL     OW23653   2.863   2.378   4.955 -0.7636  0.1969  0.0205
 4006SOL    HW123654   2.846   2.434   4.879 -1.9825  0.6155  0.5907
 4006SOL    HW223655   2.884   2.434   5.030 -0.3553  1.4062 -0.9970
 4007SOL     OW23656   3.624   1.847   2.323 -0.2451 -0.1344 -0.6496
 4007SOL    HW123657   3.635   1.915   2.255 -1.2917  1.7324  1.0456
 4007SOL    HW223658   3.709   1.805   2.319 -0.8759 -1.3992 -0.9509
 4008SOL     OW23659   2.811   0.867   8.347  0.3605 -0.4963  0.0804
 4008SOL    HW123660   2.739   0.894   8.290 -0.4282  3.3257  2.8268
 4008SOL    HW223661   2.762   0.811   8.407  0.7152 -1.7678 -0.8393
 4009SOL     OW23662   4.539   0.207   5.915 -0.1017  0.7883 -0.0698
 4009SOL    HW123663   4.552   0.185   5.823 -1.4082 -0.5799  0.0698
 4009SOL    HW223664   4.550   0.302   5.912 -0.4370  0.7672 -1.8775
 4010SOL     OW23665   2.536   0.867   7.091  0.1467 -0.6042  0.2500
 4010SOL    HW123666   2.521   0.927   7.018  1.8153 -0.0092  0.4017
 4010SOL    HW223667   2.627   0.844   7.073 -0.0872 -1.4561  0.1784
 4011SOL     OW23668   0.778   1.691  13.715 -0.4364  0.4397  0.0918
 4011SOL    HW123669   0.852   1.634  13.733 -1.3006 -0.5278  0.5589
 4011SOL    HW223670   0.772   1.678  13.620 -1.5774 -1.4325  0.4259
 4012SOL     OW23671   2.752   2.770   4.565 -0.1799 -0.3207  0.1223
 4012SOL    HW123672   2.747   2.830   4.639 -0.3547 -0.0019 -0.1449
 4012SOL    HW223673   2.658   2.751   4.561 -0.3227  0.3136  0.5910
 4013SOL     OW23674   3.634   1.548   5.861  0.5252  0.2401  0.0852
 4013SOL    HW123675   3.571   1.532   5.791  0.6608  0.2298 -0.0329
 4013SOL    HW223676   3.621   1.478   5.925  0.1293 -1.9365 -2.4001
 4014SOL     OW23677   2.235   2.513   3.642 -0.1018 -0.1311 -0.0734
 4014SOL    HW123678   2.147   2.478   3.627 -1.1572  1.9176  1.4114
 4014SOL    HW223679   2.266   2.436   3.690 -0.3554 -0.7939 -0.9827
 4015SOL     OW23680   0.145   4.739  11.951 -0.1926 -0.0764  1.0095
 4015SOL    HW123681   0.209   0.063  11.983  0.3276 -0.2110  0.2362
 4015SOL    HW223682   0.166   0.010  11.858 -0.0990 -0.1899  1.0176
 4016SOL     OW23683   0.667   2.653   2.953 -0.0720  0.1450  0.1671
 4016SOL    HW123684   0.631   2.567   2.974  0.1740  0.6502  2.5526
 4016SOL    HW223685   0.715   2.686   3.028 -1.1419  0.0233  0.9128
 4017SOL     OW23686   2.415   3.676   8.902  0.2073  0.0548 -0.1497
 4017SOL    HW123687   2.504   3.711   8.890 -1.1924  3.1573 -1.3690
 4017SOL    HW223688   2.422   3.585   8.932 -1.1752  0.2018  0.5795
 4018SOL     OW23689   1.906   0.901   7.369  0.4420  0.0281 -0.3691
 4018SOL    HW123690   1.998   0.899   7.393  0.2646 -3.4945  0.0604
 4018SOL    HW223691   1.892   0.807   7.384  0.7720  0.0348 -0.0136
 4019SOL     OW23692   4.422   0.124   1.756 -0.2160 -0.2401 -0.5225
 4019SOL    HW123693   4.499   0.079   1.721  0.5456 -1.0541  2.2362
 4019SOL    HW223694   4.383   0.145   1.671  1.1402  0.3906 -0.9772
 4020SOL     OW23695   3.366   3.746  14.965  0.1322 -0.3457 -0.1687
 4020SOL    HW123696   3.413   3.825  14.936 -0.0045 -0.5714 -0.9983
 4020SOL    HW223697   3.314   3.719  14.890  0.6094 -2.1040  0.1371
 4021SOL     OW23698   3.158   1.226   8.434  0.2094 -0.1096  0.2454
 4021SOL    HW123699   3.084   1.218   8.373  1.5965 -0.7216 -1.3682
 4021SOL    HW223700   3.227   1.253   8.373 -2.3167  2.0894 -1.6611
 4022SOL     OW23701   2.079   0.982   0.173 -0.0086  0.1267  0.1609
 4022SOL    HW123702   2.133   0.912   0.135  0.1086  0.2491  0.1026
 4022SOL    HW223703   2.021   1.011   0.103 -0.0314  0.7702  0.4513
 4023SOL     OW23704   2.097   0.195   6.630  0.4580  0.5448 -0.5119
 4023SOL    HW123705   2.056   0.226   6.549  1.0213 -0.1371 -1.0595
 4023SOL    HW223706   2.148   0.268   6.665  2.3636 -0.8517 -0.3677
 4024SOL     OW23707   0.507   0.780   3.721 -0.5239 -0.4674  0.2403
 4024SOL    HW123708   0.483   0.717   3.653  1.2634  0.2253 -1.0298
 4024SOL    HW223709   0.579   0.739   3.767  0.1782 -1.8727 -2.1374
 4025SOL     OW23710   0.684   0.102   5.250 -0.1784  0.2777 -0.1439
 4025SOL    HW123711   0.763   0.157   5.246 -1.3087  2.0181  1.7940
 4025SOL    HW223712   0.626   0.125   5.177 -2.1489 -1.3652  0.9037
 4026SOL     OW23713   0.517   0.933   8.835  0.2158  0.0827  0.3610
 4026SOL    HW123714   0.567   1.002   8.879  0.7370 -0.9219  1.3902
 4026SOL    HW223715   0.431   0.973   8.837  0.5274  0.7057  2.1562
 4027SOL     OW23716   0.919   2.176   5.210  0.5289 -0.3996 -0.2664
 4027SOL    HW123717   1.014   2.184   5.198  1.2487 -2.0530  4.3782
 4027SOL    HW223718   0.882   2.242   5.151  1.8881 -0.8800 -1.6458
 4028SOL     OW23719   3.613   0.578   6.184 -0.0197  0.4051 -0.1084
 4028SOL    HW123720   3.675   0.533   6.127 -1.0697 -2.2993  0.9238
 4028SOL    HW223721   3.587   0.505   6.240 -2.1259 -0.0866 -1.7227
 4029SOL     OW23722   0.441   0.098   0.815  0.1785  0.2105 -0.0967
 4029SOL    HW123723   0.359   0.145   0.823  0.0624 -0.6274  3.6176
 4029SOL    HW223724   0.418   0.013   0.853 -1.3866 -0.4745 -2.5745
 4030SOL     OW23725   3.869   3.706   7.261 -0.1971 -0.4281  0.3235
 4030SOL    HW123726   3.903   3.792   7.237  1.9398 -1.1790  0.6711
 4030SOL    HW223727   3.798   3.734   7.318 -1.4847 -1.7227 -0.6428
 4031SOL     OW23728   0.727   1.705  15.873 -0.1351  0.5382 -0.1934
 4031SOL    HW123729   0.773   1.693  15.790  2.4095 -0.3280  1.3442
 4031SOL    HW223730   0.656   1.642  15.874  1.6040 -1.3376  2.0462
 4032SOL     OW23731   1.246   0.053   6.695  0.2679 -0.2599  0.5941
 4032SOL    HW123732   1.323   0.088   6.650 -1.4138  2.4807 -0.1409
 4032SOL    HW223733   1.205   4.740   6.627  0.0446  2.2732 -1.2716
 4033SOL     OW23734   4.397   1.379  12.843  0.3814 -0.4570  0.4447
 4033SOL    HW123735   4.402   1.345  12.933  1.8525 -0.2463  0.4362
 4033SOL    HW223736   4.330   1.324  12.802  0.1671  0.4622 -0.4308
 4034SOL     OW23737   4.140   0.512  13.870 -0.3414 -0.3535  0.7417
 4034SOL    HW123738   4.110   0.496  13.781 -0.6128  1.7107  0.4462
 4034SOL    HW223739   4.136   0.421  13.900 -0.9344  0.0528  1.9032
 4035SOL     OW23740   2.382   2.394   6.976 -0.0211 -0.0171 -0.4314
 4035SOL    HW123741   2.304   2.371   6.926  0.1630  2.4912 -1.8555
 4035SOL    HW223742   2.352   2.363   7.061 -1.3291  1.4949 -0.3442
 4036SOL     OW23743   1.400   1.276   8.514 -0.7025  0.0346 -0.4472
 4036SOL    HW123744   1.465   1.306   8.578 -0.7103 -1.3411  0.2146
 4036SOL    HW223745   1.433   1.189   8.492  0.2774  0.3402 -0.2107
 4037SOL     OW23746   3.761   1.226   7.046 -0.0318  0.1173 -0.4939
 4037SOL    HW123747   3.681   1.262   7.007  0.1774  0.9522 -0.1666
 4037SOL    HW223748   3.752   1.239   7.141 -0.9668  0.2755 -0.6051
 4038SOL     OW23749   2.306   2.812  16.358 -0.1403  0.4348  0.6012
 4038SOL    HW123750   2.353   2.759  16.293  1.1323 -0.1092  1.9892
 4038SOL    HW223751   2.238   2.855  16.306 -1.7824 -2.0407  0.6508
 4039SOL     OW23752   0.016   4.176   8.250  0.1429 -0.5054  0.2290
 4039SOL    HW123753   4.682   4.138   8.203  1.5916 -1.3823 -1.3429
 4039SOL    HW223754   0.088   4.163   8.188  0.3825  0.2385  0.3538
 4040SOL     OW23755   3.924   0.343   4.970 -0.1488 -0.0752 -0.1068
 4040SOL    HW123756   3.840   0.299   4.960 -0.7773  0.9478  0.7085
 4040SOL    HW223757   3.905   0.409   4.903  0.5739  1.6169  1.3466
 4041SOL     OW23758   4.174   3.789   5.054  0.0692  0.2661  0.1047
 4041SOL    HW123759   4.194   3.877   5.024  1.0233 -0.3770 -1.1295
 4041SOL    HW223760   4.262   3.760   5.077  0.2133  0.6840  0.0775
 4042SOL     OW23761   3.319   1.601   0.157  0.0212  0.1667 -0.9246
 4042SOL    HW123762   3.413   1.612   0.175  0.2656 -0.5469 -1.7511
 4042SOL    HW223763   3.326   1.523   0.102  2.3504 -0.4358  0.2212
 4043SOL     OW23764   0.669   2.592  14.344 -0.3020 -0.1978  0.3049
 4043SOL    HW123765   0.607   2.661  14.365 -0.9405 -0.6591 -0.0527
 4043SOL    HW223766   0.756   2.625  14.367  0.7424 -1.9067 -1.2000
 4044SOL     OW23767   0.183   1.511   4.248 -0.2227  0.3321  0.5888
 4044SOL    HW123768   0.176   1.443   4.181  0.1841  0.4785  0.3987
 4044SOL    HW223769   0.248   1.470   4.306  0.2180 -2.7997 -2.0835
 4045SOL     OW23770   1.767   4.145   8.585  0.7846 -0.2791  0.1944
 4045SOL    HW123771   1.818   4.091   8.646  0.2823 -1.3030 -0.2896
 4045SOL    HW223772   1.828   4.216   8.567  0.5430 -0.7794 -2.5970
 4046SOL     OW23773   0.053   2.028   2.937 -0.2775  0.1394  0.4388
 4046SOL    HW123774   0.006   1.999   3.015  2.7683 -0.8405  1.9069
 4046SOL    HW223775   4.719   2.032   2.876 -0.7362 -2.3520  0.8233
 4047SOL     OW23776   1.077   0.975   3.755 -0.4087 -0.2154 -0.0728
 4047SOL    HW123777   1.097   0.942   3.843  2.5251  1.4609 -0.1081
 4047SOL    HW223778   0.983   0.962   3.745 -0.9014  3.2902  0.1702
 4048SOL     OW23779   1.514   2.780  13.320  0.2067 -0.3091 -0.1205
 4048SOL    HW123780   1.488   2.868  13.347 -1.7856 -0.2441 -2.1754
 4048SOL    HW223781   1.456   2.729  13.377  1.0263  2.0930  2.8059
 4049SOL     OW23782   0.549   1.207  14.079  0.3778 -0.2094  0.4468
 4049SOL    HW123783   0.517   1.159  14.002 -0.4697 -0.9154  1.2385
 4049SOL    HW223784   0.586   1.287  14.043  0.8856  0.3827  2.2806
 4050SOL     OW23785   1.389   4.483   3.115 -0.1019  0.2407  0.0435
 4050SOL    HW123786   1.435   4.403   3.143  1.7242  1.4758  0.5732
 4050SOL    HW223787   1.364   4.456   3.027  0.5440  0.1604 -0.1171
 4051SOL     OW23788   2.101   1.500   8.245 -0.1015 -0.0622 -0.1193
 4051SOL    HW123789   2.006   1.504   8.241 -0.0016  1.2842 -1.1612
 4051SOL    HW223790   2.125   1.516   8.154  0.1098 -0.8713 -0.2050
 4052SOL     OW23791   1.620   1.555   6.382 -0.0841 -0.3094  0.5185
 4052SOL    HW123792   1.658   1.469   6.366  0.4397  0.0068  0.0786
 4052SOL    HW223793   1.622   1.597   6.296 -0.6317  1.0167  1.1535
 4053SOL     OW23794   3.414   0.745   0.895  0.0923  0.1587  0.4540
 4053SOL    HW123795   3.440   0.663   0.938  0.6517  0.2305  0.2560
 4053SOL    HW223796   3.491   0.797   0.919  0.5567 -0.1848 -0.2894
 4054SOL     OW23797   1.336   2.491  15.225  0.0267 -0.9904  0.3886
 4054SOL    HW123798   1.350   2.508  15.132 -0.2167  2.5515  1.0037
 4054SOL    HW223799   1.428   2.486  15.253 -0.1408 -2.9072  0.6617
 4055SOL     OW23800   2.362   2.367   2.308  0.1830 -0.0110 -0.1722
 4055SOL    HW123801   2.285   2.347   2.255  2.0985 -2.0373 -2.2086
 4055SOL    HW223802   2.387   2.455   2.278 -0.7683  0.5802  0.7539
 4056SOL     OW23803   1.785   3.100   8.472 -0.1137  0.1222  0.0986
 4056SOL    HW123804   1.757   3.172   8.416 -0.8039  1.7734  2.5364
 4056SOL    HW223805   1.730   3.128   8.546  1.6586  0.2970  1.3585
 4057SOL     OW23806   2.666   4.419   6.128  0.1434 -0.3082 -0.2300
 4057SOL    HW123807   2.679   4.333   6.089  0.5528  0.2473 -1.3120
 4057SOL    HW223808   2.738   4.419   6.191  0.4185  0.6412 -0.5428
 4058SOL     OW23809   1.989   0.805  12.287  0.7397 -0.3176  0.1961
 4058SOL    HW123810   1.948   0.770  12.366 -0.8779 -1.7142 -1.2694
 4058SOL    HW223811   1.979   0.727  12.231  0.2721 -1.8443  2.4212
 4059SOL     OW23812   0.697   1.732  14.046  0.3625  0.3087  0.4222
 4059SOL    HW123813   0.674   1.766  14.133 -2.3556  0.7300 -0.4416
 4059SOL    HW223814   0.779   1.686  14.061  0.6793  0.6664 -0.2495
 4060SOL     OW23815   0.236   2.471   4.473 -0.8092 -0.2218 -0.0472
 4060SOL    HW123816   0.224   2.560   4.508 -1.5482 -0.1100 -0.5820
 4060SOL    HW223817   0.292   2.488   4.397 -1.1136 -1.3656 -0.5198
 4061SOL     OW23818   3.321   3.057   2.011  0.4514  0.2663  0.5077
 4061SOL    HW123819   3.395   3.003   1.983  1.7862  0.8341  2.8803
 4061SOL    HW223820   3.266   2.999   2.064 -0.1247  0.6894  0.3716
 4062SOL     OW23821   1.442   1.074   9.228  0.2869 -0.2340 -0.5610
 4062SOL    HW123822   1.481   1.000   9.182  2.0698  1.1384 -1.2874
 4062SOL    HW223823   1.495   1.072   9.307  0.6293 -1.0475 -0.8110
 4063SOL     OW23824   3.068   2.664   7.574 -0.2150 -0.3312  0.4130
 4063SOL    HW123825   3.158   2.661   7.543  0.3463  2.0494  1.7649
 4063SOL    HW223826   3.027   2.692   7.492  0.4155  1.5996  0.7349
 4064SOL     OW23827   2.620   4.064  16.428 -0.4157  0.6949  0.0949
 4064SOL    HW123828   2.598   4.098  16.342  0.3121  1.4967  0.2302
 4064SOL    HW223829   2.597   3.972  16.413 -2.3779  1.3250 -0.6876
 4065SOL     OW23830   1.121   0.648   4.665  0.0149 -0.6211 -0.1879
 4065SOL    HW123831   1.060   0.714   4.631 -0.8968 -1.8147 -0.8976
 4065SOL    HW223832   1.088   0.627   4.753  2.9352  0.2938  1.1426
 4066SOL     OW23833   1.100   0.332   8.556 -0.0319 -0.0203  0.4470
 4066SOL    HW123834   1.021   0.386   8.555 -0.4290 -0.5727  1.8001
 4066SOL    HW223835   1.059   0.261   8.605 -0.8247 -0.1706 -0.4227
 4067SOL     OW23836   0.927   1.720   4.124  0.0823 -0.2118 -0.0050
 4067SOL    HW123837   0.921   1.625   4.131 -0.7034 -0.0815  1.1407
 4067SOL    HW223838   0.837   1.751   4.129  0.0418 -0.7339  2.3020
 4068SOL     OW23839   1.127   0.296   6.431  0.1649 -0.2200 -0.0844
 4068SOL    HW123840   1.196   0.276   6.494  1.3686  0.0892 -1.2958
 4068SOL    HW223841   1.050   0.302   6.488 -0.1247 -1.5288 -0.3577
 4069SOL     OW23842   4.187   3.933  12.861 -0.2584  0.1869  0.3540
 4069SOL    HW123843   4.221   3.858  12.812  3.0453  2.0000 -0.1524
 4069SOL    HW223844   4.187   3.898  12.950 -1.1237  0.8931  0.6259
 4070SOL     OW23845   2.425   3.558   9.260 -0.1092 -0.3003  0.7445
 4070SOL    HW123846   2.394   3.599   9.341 -0.9855  2.4694 -1.0117
 4070SOL    HW223847   2.512   3.598   9.260  0.6490 -1.9145  0.9560
 4071SOL     OW23848   4.245   2.094   3.998  0.4667 -0.5235 -0.2098
 4071SOL    HW123849   4.187   2.141   3.938 -0.2109 -0.0363  0.8342
 4071SOL    HW223850   4.305   2.054   3.935  0.6817  0.1780 -0.4557
 4072SOL     OW23851   3.182   0.888   1.036  0.2048 -0.5489 -0.5100
 4072SOL    HW123852   3.238   0.833   1.092  0.9225  0.8810  0.1901
 4072SOL    HW223853   3.138   0.825   0.979  0.8909  0.5784 -2.2700
 4073SOL     OW23854   2.079   0.378   5.545  0.4539 -1.1474 -0.0267
 4073SOL    HW123855   2.164   0.423   5.541 -0.7002  1.2657  2.2011
 4073SOL    HW223856   2.028   0.424   5.478  1.6767 -0.2136 -0.3305
 4074SOL     OW23857   1.758   0.057  13.955  0.4483  0.3015 -0.2542
 4074SOL    HW123858   1.782   0.144  13.985  0.7044  0.8653 -2.0896
 4074SOL    HW223859   1.845   0.017  13.960  0.3441 -0.1675 -2.1063
 4075SOL     OW23860   1.684   3.307   2.203  0.0734 -0.5214 -0.0759
 4075SOL    HW123861   1.744   3.319   2.277 -1.1974  1.0934  0.7227
 4075SOL    HW223862   1.677   3.401   2.183 -1.9396 -0.5392  0.5589
 4076SOL     OW23863   1.587   3.020   3.532  0.0156  0.5777 -0.7838
 4076SOL    HW123864   1.661   3.059   3.580  0.5313 -1.2424 -0.0824
 4076SOL    HW223865   1.548   3.093   3.485 -0.6394  0.6288 -0.1702
 4077SOL     OW23866   2.614   0.201  17.020 -0.1808 -0.3629  0.2986
 4077SOL    HW123867   2.534   0.175  16.975 -1.3476  1.5669  1.2524
 4077SOL    HW223868   2.645   0.117  17.055  0.0004 -0.4869 -0.1611
 4078SOL     OW23869   0.030   2.003  15.666  0.2129  0.0034  1.0032
 4078SOL    HW123870   0.106   1.946  15.676 -0.0984 -0.7151 -0.7507
 4078SOL    HW223871   0.071   2.085  15.636  0.0682 -0.0431  0.6792
 4079SOL     OW23872   2.455   4.029   4.228  0.2947  0.5565 -0.3660
 4079SOL    HW123873   2.527   4.079   4.191  3.0558 -2.4268  0.9529
 4079SOL    HW223874   2.397   4.105   4.228 -1.7411 -0.9999  0.3624
 4080SOL     OW23875   2.368   3.733  12.018  0.3228 -0.6539  0.0918
 4080SOL    HW123876   2.409   3.728  11.931 -0.5579  1.3678 -0.4420
 4080SOL    HW223877   2.398   3.816  12.055  0.0935 -0.3396 -0.4234
 4081SOL     OW23878   2.962   3.255   5.314  0.5107 -0.5310 -0.0955
 4081SOL    HW123879   2.961   3.338   5.268  1.6923 -0.8247 -0.6390
 4081SOL    HW223880   2.872   3.240   5.344  0.3916  1.9974  0.7737
 4082SOL     OW23881   4.550   0.384   5.208 -0.3140  0.7136 -0.0182
 4082SOL    HW123882   4.468   0.427   5.183  0.9689  1.8743 -2.2646
 4082SOL    HW223883   4.535   0.344   5.293  0.4967  1.1165  0.3189
 4083SOL     OW23884   0.249   3.648   5.753  0.2499  0.3221 -0.3449
 4083SOL    HW123885   0.242   3.572   5.810 -2.1807  0.2190 -0.7759
 4083SOL    HW223886   0.275   3.610   5.669 -1.0264  1.0340 -1.0647
 4084SOL     OW23887   2.987   0.180   7.346 -0.3978 -0.1421  0.3886
 4084SOL    HW123888   2.898   0.157   7.322 -0.2089  0.7654 -1.1616
 4084SOL    HW223889   3.009   0.101   7.395 -1.0913  0.0523  1.0104
 4085SOL     OW23890   4.404   1.015   8.150 -0.1630  0.0504  0.0539
 4085SOL    HW123891   4.375   0.946   8.209  0.9750  1.0470  1.7729
 4085SOL    HW223892   4.347   1.004   8.074  1.5394  0.2220 -1.2425
 4086SOL     OW23893   0.103   4.096   7.119 -0.1660  0.0499 -0.2215
 4086SOL    HW123894   0.049   4.040   7.175 -0.7933  0.1661 -0.7166
 4086SOL    HW223895   0.039   4.119   7.052 -2.8294 -0.7166  2.0925
 4087SOL     OW23896   4.034   2.513   7.634 -0.3268 -0.1036  0.1232
 4087SOL    HW123897   3.957   2.472   7.594  1.1622  2.6342 -5.4042
 4087SOL    HW223898   4.091   2.517   7.558 -0.9854  3.1743 -0.1783
 4088SOL     OW23899   1.697   0.692   0.814 -0.3220  0.1921  0.3013
 4088SOL    HW123900   1.602   0.679   0.814 -0.6707  2.8039 -1.5499
 4088SOL    HW223901   1.716   0.675   0.722 -0.5544 -0.8618  0.4490
 4089SOL     OW23902   4.686   2.198   1.202  0.4736 -0.1896  0.2768
 4089SOL    HW123903   0.030   2.239   1.183 -0.0292  0.6569 -0.1636
 4089SOL    HW223904   4.635   2.243   1.134 -0.5140  0.6088  1.5593
 4090SOL     OW23905   3.541   1.615  11.181  0.1045  0.1466  0.6052
 4090SOL    HW123906   3.577   1.584  11.264 -1.7519  2.2662  2.2152
 4090SOL    HW223907   3.458   1.567  11.182  0.7456 -0.9567  1.0273
 4091SOL     OW23908   1.345   4.216   2.174  0.3289 -0.5007  0.2740
 4091SOL    HW123909   1.396   4.291   2.204  0.2172 -1.1002  1.9192
 4091SOL    HW223910   1.373   4.146   2.232 -1.2447 -0.0604  1.5553
 4092SOL     OW23911   2.378   4.506   5.610 -0.5469  0.1927  0.8237
 4092SOL    HW123912   2.347   4.581   5.662 -2.2501 -0.9969  1.5019
 4092SOL    HW223913   2.385   4.434   5.673  1.3824 -1.6692 -1.5253
 4093SOL     OW23914   0.611   2.425   4.456  0.1415  0.0783  0.2981
 4093SOL    HW123915   0.582   2.431   4.365 -1.1184 -0.8182  0.6319
 4093SOL    HW223916   0.705   2.424   4.438 -0.2830  3.0940 -2.1156
 4094SOL     OW23917   2.460   4.016   8.605  0.1141  0.0398 -0.1919
 4094SOL    HW123918   2.378   3.969   8.620  1.1046 -2.0268 -1.3111
 4094SOL    HW223919   2.451   4.057   8.519  0.6856  1.5744  0.4811
 4095SOL     OW23920   3.983   2.391   6.514 -0.3608  0.1945 -0.6426
 4095SOL    HW123921   3.926   2.448   6.566 -0.2968  1.2542 -1.7264
 4095SOL    HW223922   4.044   2.457   6.482  0.4496 -0.1448  0.2153
 4096SOL     OW23923   0.567   0.831  11.073  0.0471 -0.2661  0.8506
 4096SOL    HW123924   0.656   0.838  11.108 -0.2928  0.2704  1.5950
 4096SOL    HW223925   0.523   0.809  11.156 -1.8806  0.6374  0.0722
 4097SOL     OW23926   0.224   1.960   8.181 -0.1951  0.8119 -0.2748
 4097SOL    HW123927   0.183   1.901   8.118  1.0554  1.1917 -1.4318
 4097SOL    HW223928   0.263   1.897   8.242 -0.4818 -0.7498 -1.6995
 4098SOL     OW23929   4.008   1.715   3.073 -0.0440 -0.0415 -0.6365
 4098SOL    HW123930   3.954   1.703   2.995  0.8460  0.1937 -1.2925
 4098SOL    HW223931   4.060   1.635   3.078  0.0216  0.0066 -0.5573
 4099SOL     OW23932   2.865   2.335   6.115  0.4154 -0.3102  0.5357
 4099SOL    HW123933   2.892   2.337   6.207 -1.0897  1.4831  0.9330
 4099SOL    HW223934   2.865   2.429   6.094 -0.6610 -0.9488 -2.4250
 4100SOL     OW23935   1.804   3.812   8.787 -0.6347 -0.2833 -0.7555
 4100SOL    HW123936   1.849   3.766   8.715  0.3758 -0.2062 -0.1673
 4100SOL    HW223937   1.848   3.768   8.859 -0.3547  2.0197  0.4565
 4101SOL     OW23938   2.943   4.582   5.115  0.1565  0.3755  0.3272
 4101SOL    HW123939   3.038   4.592   5.119  0.3461 -0.7615 -1.6590
 4101SOL    HW223940   2.914   4.630   5.193 -1.1372 -1.9430  1.2611
 4102SOL     OW23941   0.320   0.436   2.446 -0.4540  0.3249 -0.7961
 4102SOL    HW123942   0.308   0.385   2.366  0.9711 -0.4437 -0.5267
 4102SOL    HW223943   0.377   0.500   2.404  2.6366 -1.9191 -0.0670
 4103SOL     OW23944   3.056   2.152   9.226 -0.8166 -0.8658  0.3919
 4103SOL    HW123945   2.968   2.117   9.211 -1.9556  2.1111  0.0621
 4103SOL    HW223946   3.094   2.067   9.248 -0.2084 -0.6926 -0.0012
 4104SOL     OW23947   4.242   0.165   5.430  0.1450 -0.5791  0.1498
 4104SOL    HW123948   4.289   0.247   5.420 -0.4013 -0.1734  0.9791
 4104SOL    HW223949   4.292   0.106   5.372  0.3221  1.3650 -1.6770
 4105SOL     OW23950   1.192   2.234   7.098  0.0477  0.0530 -0.0187
 4105SOL    HW123951   1.219   2.191   7.179  1.2670  1.0278  0.0941
 4105SOL    HW223952   1.240   2.317   7.105 -1.5490  1.1420 -2.0527
 4106SOL     OW23953   3.246   1.095   7.278 -1.0707 -0.3047  0.5143
 4106SOL    HW123954   3.240   1.128   7.189  2.6754 -1.1158 -0.0492
 4106SOL    HW223955   3.168   1.040   7.279 -1.5078  0.3019 -1.0128
 4107SOL     OW23956   3.267   3.675  12.147  0.2115 -0.4426  0.1329
 4107SOL    HW123957   3.336   3.733  12.178 -0.4851  0.5476 -0.1498
 4107SOL    HW223958   3.320   3.596  12.146 -0.5363 -0.9371 -0.2302
 4108SOL     OW23959   2.499   0.017   0.089 -0.9926 -0.1454  0.1168
 4108SOL    HW123960   2.529   4.667   0.085  0.9728  0.4917  0.5509
 4108SOL    HW223961   2.510   0.053   0.002 -0.0497 -2.3323 -0.6589
 4109SOL     OW23962   4.645   4.463   7.519 -0.5287  0.3100  0.1656
 4109SOL    HW123963   4.623   4.370   7.528  0.2004  0.2146  0.9921
 4109SOL    HW223964   4.578   4.500   7.576 -0.5880  2.9793 -1.6495
 4110SOL     OW23965   3.474   2.736  12.045 -0.3259 -0.6249  0.7974
 4110SOL    HW123966   3.410   2.700  12.108 -0.3233  0.6619  1.5398
 4110SOL    HW223967   3.421   2.786  11.983  0.6605 -0.2377  0.2835
 4111SOL     OW23968   1.897   4.235  16.544 -0.2681 -0.1604  0.2779
 4111SOL    HW123969   1.934   4.242  16.456 -1.1215 -2.1901 -0.2417
 4111SOL    HW223970   1.861   4.324  16.554 -2.2618 -0.6878 -1.9524
 4112SOL     OW23971   0.806   1.985   0.261  0.0143 -0.3767  0.0279
 4112SOL    HW123972   0.816   1.890   0.249  1.1017  0.1965 -3.4128
 4112SOL    HW223973   0.878   2.001   0.321 -0.9327 -0.7264  1.2710
 4113SOL     OW23974   3.299   1.475   7.757 -0.1066  0.2111  0.5960
 4113SOL    HW123975   3.335   1.407   7.700 -2.5061 -0.9105  0.4275
 4113SOL    HW223976   3.375   1.532   7.771  0.1640  0.3718 -1.5883
 4114SOL     OW23977   3.197   0.854   6.558 -0.9480  0.1621 -0.1895
 4114SOL    HW123978   3.232   0.904   6.484 -0.3321 -1.9563 -1.3609
 4114SOL    HW223979   3.274   0.801   6.580 -1.0469 -0.4471 -1.2847
 4115SOL     OW23980   3.399   3.830  16.078  0.0871  0.6147  0.1599
 4115SOL    HW123981   3.477   3.878  16.107 -1.4921  3.2484  0.0119
 4115SOL    HW223982   3.334   3.895  16.105  1.7260  0.9496  3.3694
 4116SOL     OW23983   2.855   4.437   4.330  0.0010  0.1086 -1.0530
 4116SOL    HW123984   2.824   4.369   4.390  2.6215  0.7817  1.0796
 4116SOL    HW223985   2.769   4.448   4.289 -0.8177 -1.8585  0.0954
 4117SOL     OW23986   4.414   1.522   0.880  0.4066  0.3124 -0.2269
 4117SOL    HW123987   4.459   1.439   0.898 -2.6178 -1.4376 -0.7596
 4117SOL    HW223988   4.484   1.585   0.898  1.4367 -0.9244  0.1267
 4118SOL     OW23989   4.645   4.569  12.215 -0.0789 -0.0034  0.5146
 4118SOL    HW123990   4.676   4.565  12.306 -0.1536  2.4998  0.6539
 4118SOL    HW223991   4.549   4.565  12.223 -0.1632  0.1691 -0.4690
 4119SOL     OW23992   1.238   3.790   2.342  0.1001 -0.1391  0.3358
 4119SOL    HW123993   1.287   3.829   2.415  1.8041 -1.1335 -0.2708
 4119SOL    HW223994   1.153   3.788   2.385 -0.1445 -2.7212 -0.2619
 4120SOL     OW23995   1.710   0.600   4.488 -0.3880 -0.0110  0.5763
 4120SOL    HW123996   1.785   0.607   4.547  0.1994  0.9023 -0.2753
 4120SOL    HW223997   1.707   0.507   4.466 -0.0107  0.0990  0.0617
 4121SOL     OW23998   3.844   0.918   6.058 -0.0255 -0.3215  0.2140
 4121SOL    HW123999   3.764   0.876   6.027  0.0153 -1.1770  1.2570
 4121SOL    HW224000   3.809   1.004   6.082 -2.1244 -0.8302 -0.9921
 4122SOL     OW24001   2.894   2.008   7.000 -0.0283  0.6987  0.0217
 4122SOL    HW124002   2.906   1.913   6.993 -1.6125  0.4246  1.0036
 4122SOL    HW224003   2.847   2.011   7.083 -0.0632 -0.4705  0.0433
 4123SOL     OW24004   4.003   2.267   1.930 -0.5902  0.4744  0.0065
 4123SOL    HW124005   4.007   2.312   2.015  0.3678 -0.1571  0.2826
 4123SOL    HW224006   3.958   2.328   1.871 -0.6389 -0.6922 -1.1468
 4124SOL     OW24007   3.471   2.884   1.819  0.1625 -0.1992  0.1574
 4124SOL    HW124008   3.471   2.932   1.736 -0.1642 -1.8648 -0.8059
 4124SOL    HW224009   3.487   2.794   1.788  3.1120 -0.0260  1.1881
 4125SOL     OW24010   3.889   1.237  16.842  0.2592 -0.3617 -0.1589
 4125SOL    HW124011   3.983   1.235  16.863  0.1295 -1.4477  0.2948
 4125SOL    HW224012   3.861   1.174  16.909  3.5022 -1.1024  0.5150
 4126SOL     OW24013   0.231   4.290   2.338  0.1892 -0.4844  0.6542
 4126SOL    HW124014   0.250   4.379   2.368 -2.0591 -0.0191  0.6989
 4126SOL    HW224015   0.254   4.243   2.418  0.8466  0.8034  1.2118
 4127SOL     OW24016   4.222   1.231   0.956 -0.1131  0.1881 -0.5796
 4127SOL    HW124017   4.201   1.302   0.896 -0.3670 -1.5646 -2.5456
 4127SOL    HW224018   4.179   1.265   1.035  0.7988 -0.3646  0.1617
 4128SOL     OW24019   2.949   4.647   2.622 -0.1274  0.5558  0.2021
 4128SOL    HW124020   2.918   4.649   2.532  0.4448  0.0864 -0.0019
 4128SOL    HW224021   3.002   4.727   2.621 -1.4765  1.4280 -1.2128
 4129SOL     OW24022   3.508   2.969  15.975  0.7300  0.0415  0.0629
 4129SOL    HW124023   3.451   2.896  15.949  1.4807 -1.3444  2.3798
 4129SOL    HW224024   3.596   2.938  15.956  1.2803  0.6776  1.6448
 4130SOL     OW24025   0.896   0.048   7.619  0.5834  0.2199 -0.4808
 4130SOL    HW124026   0.807   0.052   7.583 -0.0917  2.1836  1.4075
 4130SOL    HW224027   0.889   0.084   7.707 -0.1888  0.7990 -0.7788
 4131SOL     OW24028   1.869   3.623  10.477  0.3270  0.1581 -0.1262
 4131SOL    HW124029   1.916   3.684  10.419 -0.9588  1.2096 -0.0540
 4131SOL    HW224030   1.945   3.573  10.507 -0.2062 -1.3475 -1.2941
 4132SOL     OW24031   2.689   3.114  10.798 -0.4438 -0.1400 -0.5348
 4132SOL    HW124032   2.695   3.026  10.837  1.3843 -0.5275 -1.7086
 4132SOL    HW224033   2.716   3.091  10.709 -3.0124 -0.1243 -1.3231
 4133SOL     OW24034   1.978   0.364  16.147  0.0656 -0.0227  0.0415
 4133SOL    HW124035   1.919   0.429  16.187 -0.5599 -0.9399  0.6053
 4133SOL    HW224036   2.052   0.349  16.206  1.7425  0.6205 -1.8894
 4134SOL     OW24037   2.838   2.687   3.318  0.1560 -0.1815  0.0501
 4134SOL    HW124038   2.802   2.600   3.333  2.7971 -1.8328 -2.9777
 4134SOL    HW224039   2.859   2.685   3.224  1.6070  0.7627  0.3403
 4135SOL     OW24040   3.541   0.280   5.909  0.1100  0.3098  0.2039
 4135SOL    HW124041   3.494   0.264   5.827  2.7042  1.1879 -1.4315
 4135SOL    HW224042   3.463   0.264   5.963 -2.0510 -0.8858 -3.2750
 4136SOL     OW24043   4.312   4.189   7.527  0.0274 -0.4315 -0.2372
 4136SOL    HW124044   4.321   4.127   7.600  1.2514 -1.8417 -1.5848
 4136SOL    HW224045   4.310   4.279   7.560 -0.2774  0.1728 -1.9153
 4137SOL     OW24046   0.312   4.446   0.583  0.7834 -0.3745  0.5779
 4137SOL    HW124047   0.308   4.537   0.553  0.3161 -0.4316  0.4672
 4137SOL    HW224048   0.402   4.421   0.560  1.2218  0.5365  1.2969
 4138SOL     OW24049   1.711   2.924  16.715 -0.1986  0.1401 -0.0003
 4138SOL    HW124050   1.709   2.902  16.808  0.5800 -1.5938 -0.3938
 4138SOL    HW224051   1.802   2.951  16.701  0.2537 -2.0138 -1.1289
 4139SOL     OW24052   2.291   1.234   7.884  0.6488 -0.1791 -0.1638
 4139SOL    HW124053   2.218   1.177   7.907  0.2613 -0.0516 -1.0740
 4139SOL    HW224054   2.262   1.316   7.924  1.5483  1.1240 -2.1884
 4140SOL     OW24055   3.066   4.088   5.814 -0.7706 -0.0896 -0.3888
 4140SOL    HW124056   3.152   4.055   5.788 -0.7870 -0.4061 -0.0419
 4140SOL    HW224057   3.012   4.009   5.818  0.1757 -0.6892  0.5775
 4141SOL     OW24058   3.770   1.966   3.601  0.0881  0.4514 -0.2695
 4141SOL    HW124059   3.860   1.965   3.634 -0.0399  5.7955  0.0914
 4141SOL    HW224060   3.771   2.048   3.552  1.9451 -0.7363 -2.2308
 4142SOL     OW24061   3.227   3.852   9.341 -0.0726 -0.0415 -0.2731
 4142SOL    HW124062   3.147   3.853   9.393 -1.1802 -0.0485 -1.9887
 4142SOL    HW224063   3.261   3.765   9.361  1.1289  0.2247 -1.2124
 4143SOL     OW24064   0.904   3.250  15.204 -0.2857 -0.7611  0.0860
 4143SOL    HW124065   0.983   3.228  15.253 -0.5635  0.4949  1.0971
 4143SOL    HW224066   0.929   3.328  15.156  1.8375 -0.9968  0.7968
 4144SOL     OW24067   2.016   1.983   2.134  0.6173 -0.3983 -0.5620
 4144SOL    HW124068   2.024   2.049   2.065 -0.1868  0.1397 -0.1388
 4144SOL    HW224069   2.107   1.970   2.159 -0.2641 -1.0277  2.3218
 4145SOL     OW24070   3.617   1.778   3.479  0.2654 -0.3070 -0.2248
 4145SOL    HW124071   3.552   1.812   3.417  1.2585  2.7628  0.4083
 4145SOL    HW224072   3.670   1.849   3.514 -1.3433  0.5821  0.4142
 4146SOL     OW24073   0.292   3.821   4.061  0.3802 -0.0480  0.2968
 4146SOL    HW124074   0.362   3.808   3.997 -3.3270  1.3162 -4.0405
 4146SOL    HW224075   0.217   3.831   4.002  0.2623  0.2403  0.4944
 4147SOL     OW24076   3.915   1.478   6.939 -0.7236  0.9082  0.1549
 4147SOL    HW124077   3.855   1.436   7.001  0.1568 -1.4288 -0.5729
 4147SOL    HW224078   3.985   1.496   7.002 -1.5268  1.3345  0.9326
 4148SOL     OW24079   4.096   0.505   6.352  0.4005 -0.3401  0.3857
 4148SOL    HW124080   4.189   0.485   6.363  0.7922  0.2879 -1.7347
 4148SOL    HW224081   4.099   0.589   6.305  1.8506 -0.8431 -0.4108
 4149SOL     OW24082   1.170   1.506   5.507 -0.1824  0.0969 -0.1665
 4149SOL    HW124083   1.246   1.527   5.453 -0.6091  1.4382 -0.2392
 4149SOL    HW224084   1.133   1.594   5.515 -1.3809 -0.5215  1.0317
 4150SOL     OW24085   4.500   0.029   3.365  1.0827  0.8301  0.4112
 4150SOL    HW124086   4.539   0.095   3.308 -0.5911  0.3627 -1.3088
 4150SOL    HW224087   4.443   4.719   3.305 -0.4477  1.3406  1.4354
 4151SOL     OW24088   3.234   2.983   7.003  0.0573  0.2212  0.2221
 4151SOL    HW124089   3.234   3.032   7.086  1.8540  1.1640 -0.3399
 4151SOL    HW224090   3.233   3.054   6.939 -0.0277 -1.8733 -2.0723
 4152SOL     OW24091   0.399   1.735   3.176 -0.1331 -0.8856  0.2205
 4152SOL    HW124092   0.361   1.770   3.096 -1.4310 -1.9578  0.3631
 4152SOL    HW224093   0.430   1.807   3.231  0.6934 -1.3200  0.3344
 4153SOL     OW24094   1.566   4.013  11.807 -0.5652 -0.0434  0.6247
 4153SOL    HW124095   1.490   3.956  11.807  0.2027 -1.0561 -0.8584
 4153SOL    HW224096   1.542   4.082  11.869 -0.4946  1.2708 -0.8181
 4154SOL     OW24097   4.536   1.628   7.918 -0.0177  0.0486 -0.2262
 4154SOL    HW124098   4.482   1.658   7.991 -0.6811 -3.0548  0.5878
 4154SOL    HW224099   4.508   1.536   7.919 -3.5778  1.1643  0.5828
 4155SOL     OW24100   1.750   3.479   8.017  0.0447 -0.0201 -0.1632
 4155SOL    HW124101   1.829   3.488   8.069  0.5429 -1.2191 -0.7156
 4155SOL    HW224102   1.711   3.398   8.049 -0.2443  0.5486  0.9316
 4156SOL     OW24103   1.826   1.831   5.416 -0.1262  0.0464  0.3553
 4156SOL    HW124104   1.827   1.916   5.372  0.0904 -0.9683 -1.6062
 4156SOL    HW224105   1.883   1.794   5.348  2.6512  1.3828  1.9249
 4157SOL     OW24106   2.275   3.299   3.214 -0.2740  0.1070  0.8808
 4157SOL    HW124107   2.347   3.288   3.275 -0.8797  0.2338  1.6234
 4157SOL    HW224108   2.296   3.230   3.151 -0.6236 -0.0684  0.9524
 4158SOL     OW24109   2.371   3.299   3.848 -0.8234 -0.3331 -0.2919
 4158SOL    HW124110   2.334   3.384   3.825 -3.0070 -0.3772  3.0710
 4158SOL    HW224111   2.464   3.320   3.839 -0.8713 -1.5869 -3.5134
 4159SOL     OW24112   3.850   0.610   6.539 -0.1260  0.1372 -0.1124
 4159SOL    HW124113   3.805   0.691   6.516 -0.2018 -0.4750 -2.0989
 4159SOL    HW224114   3.936   0.652   6.542 -0.0601 -0.1632  1.7746
 4160SOL     OW24115   3.235   2.906   8.527  1.2555  0.3890 -0.0559
 4160SOL    HW124116   3.209   2.943   8.612 -2.0116  1.4924 -1.5343
 4160SOL    HW224117   3.326   2.889   8.549  0.4856 -1.5504  1.6086
 4161SOL     OW24118   4.447   3.158   7.596 -0.1019 -0.4410 -0.6903
 4161SOL    HW124119   4.483   3.217   7.662  1.0268 -0.6305 -1.1337
 4161SOL    HW224120   4.524   3.121   7.552  0.7869  0.2973  0.2577
 4162SOL     OW24121   0.461   2.956   8.235 -0.1375  0.4536  0.4396
 4162SOL    HW124122   0.488   3.021   8.300 -0.1537  1.0703 -0.1707
 4162SOL    HW224123   0.450   3.002   8.151 -2.2132  3.2011  2.1781
 4163SOL     OW24124   1.935   0.213   1.613 -0.6232 -0.0830 -0.0017
 4163SOL    HW124125   2.002   0.222   1.680 -1.1613  1.4249  0.3265
 4163SOL    HW224126   1.919   0.119   1.610  1.3864 -0.4331 -0.0021
 4164SOL     OW24127   1.962   4.357   8.815 -0.3881 -0.3069 -0.2541
 4164SOL    HW124128   1.892   4.415   8.785  0.5540  0.5886 -0.6788
 4164SOL    HW224129   1.917   4.302   8.880  0.0546 -1.8013 -1.2017
 4165SOL     OW24130   1.628   2.323  13.326  0.2468 -0.6731  0.2319
 4165SOL    HW124131   1.534   2.338  13.319  0.2539 -1.2881 -1.0736
 4165SOL    HW224132   1.635   2.326  13.422  1.4692 -3.5680  0.2283
 4166SOL     OW24133   4.540   4.058   9.264  0.3284  0.9073  0.3709
 4166SOL    HW124134   4.567   4.004   9.339 -1.1510 -0.1233  0.1624
 4166SOL    HW224135   4.445   4.058   9.266  0.2921  0.4023 -1.9502
 4167SOL     OW24136   4.465   0.344   5.473  0.4554  0.2371 -0.3718
 4167SOL    HW124137   4.497   0.300   5.552 -0.5606  2.6442  1.3690
 4167SOL    HW224138   4.442   0.430   5.506 -0.8921 -0.7407  1.1982
 4168SOL     OW24139   3.856   4.228   7.900 -0.0764  0.2591  0.0911
 4168SOL    HW124140   3.803   4.280   7.961  0.1972  0.8304 -0.1550
 4168SOL    HW224141   3.871   4.141   7.937 -0.8667 -0.5016 -1.3525
 4169SOL     OW24142   4.101   3.709  17.145 -0.2938 -0.0297  0.2382
 4169SOL    HW124143   4.058   3.785  17.185 -0.0163  0.5447 -0.5574
 4169SOL    HW224144   4.029   3.681  17.088 -1.7566  1.2360  1.4564
 4170SOL     OW24145   2.944   1.279  14.405 -0.3070  0.4474  0.4199
 4170SOL    HW124146   2.959   1.188  14.430 -0.8871  0.5061  0.9891
 4170SOL    HW224147   2.848   1.277  14.408 -0.2930  0.6315  1.0232
 4171SOL     OW24148   1.128   4.497   4.507  0.5798 -0.4410 -0.5628
 4171SOL    HW124149   1.053   4.448   4.475 -0.7084  0.2699  1.3343
 4171SOL    HW224150   1.101   4.587   4.489 -0.3701 -0.6726 -0.2995
 4172SOL     OW24151   0.113   3.308   6.074  0.1141 -0.3396  0.2585
 4172SOL    HW124152   0.084   3.217   6.069 -0.7720 -0.0172 -0.5699
 4172SOL    HW224153   0.077   3.335   6.159 -0.8644  0.8779 -0.5358
 4173SOL     OW24154   1.811   4.032   5.022 -0.3508  0.1508  0.0717
 4173SOL    HW124155   1.803   4.008   4.929  1.1337  0.7891 -0.2277
 4173SOL    HW224156   1.721   4.037   5.052  0.4856 -0.5072  2.6778
 4174SOL     OW24157   2.747   0.489   4.681 -0.0159  0.0700 -0.2071
 4174SOL    HW124158   2.834   0.486   4.641 -0.3135  0.2739 -0.8759
 4174SOL    HW224159   2.739   0.398   4.710 -0.6507 -0.3634 -1.7257
 4175SOL     OW24160   0.015   1.231   8.298  0.4207  0.3086 -0.4906
 4175SOL    HW124161   0.001   1.197   8.210  2.9650  0.9712 -1.1407
 4175SOL    HW224162   0.110   1.230   8.309  0.2488 -0.7897  0.9707
 4176SOL     OW24163   3.310   1.682   4.921  0.3069  0.5789  0.1867
 4176SOL    HW124164   3.398   1.668   4.956 -0.7070  1.8902  3.2723
 4176SOL    HW224165   3.332   1.655   4.832  0.1239  0.0577  0.3016
 4177SOL     OW24166   0.928   1.029   1.327 -0.0103  0.0479 -0.7319
 4177SOL    HW124167   0.926   1.110   1.275  1.5487  1.1427  0.9111
 4177SOL    HW224168   0.965   0.966   1.267 -1.4583 -2.7370  1.2897
 4178SOL     OW24169   0.024   2.075   1.872  0.4358 -0.3028  0.1061
 4178SOL    HW124170   4.695   2.087   1.938  0.2569 -2.6189  0.3352
 4178SOL    HW224171   4.725   2.081   1.785  2.4805 -0.5936 -0.8226
 4179SOL     OW24172   0.522   0.627   8.485 -0.1132 -0.5385  0.6977
 4179SOL    HW124173   0.484   0.678   8.414  2.0849 -0.1813 -0.2300
 4179SOL    HW224174   0.592   0.682   8.522  0.5198  0.0512 -1.4046
 4180SOL     OW24175   3.101   2.284   2.147 -0.5387 -0.5659  0.7612
 4180SOL    HW124176   3.101   2.190   2.133 -0.0352 -0.6885  1.5822
 4180SOL    HW224177   3.159   2.288   2.223  1.0564  0.9123 -0.5224
 4181SOL     OW24178   3.880   3.617   4.609  0.3573 -0.4923  0.0503
 4181SOL    HW124179   3.847   3.679   4.673 -1.3761 -0.1232 -1.1760
 4181SOL    HW224180   3.973   3.636   4.597  0.2813  0.5588  1.1433
 4182SOL     OW24181   0.023   2.136   4.756  0.6081 -0.2394 -0.0722
 4182SOL    HW124182   0.078   2.212   4.734 -1.4575  0.6182 -2.3426
 4182SOL    HW224183   0.050   2.081   4.683 -1.7013  0.3569 -1.3585
 4183SOL     OW24184   4.000   1.291  15.656 -0.0470  0.4324  0.2880
 4183SOL    HW124185   3.967   1.202  15.645  0.3177  0.4426 -0.8923
 4183SOL    HW224186   4.037   1.301  15.569  2.5215  4.2264  1.7940
 4184SOL     OW24187   1.756   0.591  17.054 -0.0648  0.3123 -0.4000
 4184SOL    HW124188   1.688   0.658  17.045 -0.0786  0.6499  2.2748
 4184SOL    HW224189   1.822   0.617  16.989 -1.5899 -1.1607 -2.5323
 4185SOL     OW24190   1.955   0.108   5.285 -0.3396 -0.3536  0.6942
 4185SOL    HW124191   2.012   0.179   5.256 -0.6154  0.3151  1.7793
 4185SOL    HW224192   1.873   0.156   5.283 -1.7033 -2.7640 -1.0045
 4186SOL     OW24193   2.946   1.506   5.133  0.4686  0.2686  0.1875
 4186SOL    HW124194   2.995   1.425   5.145  0.6432  0.4920  1.0120
 4186SOL    HW224195   2.892   1.520   5.212 -1.4420  0.4370 -1.1491
 4187SOL     OW24196   1.685   4.723   8.653 -0.0559  0.3371  0.0624
 4187SOL    HW124197   1.753   0.002   8.717  0.0227  0.9845 -0.2102
 4187SOL    HW224198   1.612   4.715   8.714  1.2202  1.6235  1.7624
 4188SOL     OW24199   0.512   2.197   8.388 -0.0740 -0.0548  0.6005
 4188SOL    HW124200   0.514   2.132   8.318  1.4680  0.1891  0.4239
 4188SOL    HW224201   0.421   2.219   8.366  0.1395  1.1985  0.9407
 4189SOL     OW24202   4.300   4.242  11.197 -0.3837 -0.5624 -0.1229
 4189SOL    HW124203   4.366   4.244  11.127 -0.3272 -0.9882 -0.0807
 4189SOL    HW224204   4.216   4.243  11.151 -1.1697  0.6976  1.3519
 4190SOL     OW24205   4.038   2.510   2.384 -0.1107 -0.0104  0.7002
 4190SOL    HW124206   4.049   2.429   2.434  1.7967 -1.8641 -2.7157
 4190SOL    HW224207   3.976   2.475   2.319 -0.0816 -0.7849  1.0846
 4191SOL     OW24208   2.582   4.581  15.913  0.5124 -0.7572  0.3775
 4191SOL    HW124209   2.647   4.611  15.976 -0.2235  2.9717 -0.6351
 4191SOL    HW224210   2.634   4.573  15.834 -0.4098 -3.4448  0.0141
 4192SOL     OW24211   4.045   1.186  17.131  0.2489  0.2515 -0.1771
 4192SOL    HW124212   4.112   1.207  17.196  3.0510 -1.4041 -2.4873
 4192SOL    HW224213   4.011   1.269  17.098  1.4590  0.8305  0.0205
 4193SOL     OW24214   3.201   3.413   8.176 -0.5433 -0.1785 -0.1184
 4193SOL    HW124215   3.220   3.497   8.216 -2.7455 -0.9926  2.6166
 4193SOL    HW224216   3.239   3.348   8.236 -0.0191 -0.7773 -1.0956
 4194SOL     OW24217   3.910   2.654   8.687 -0.2474  0.3849 -0.7866
 4194SOL    HW124218   3.961   2.735   8.690  0.5302 -0.1153 -0.6669
 4194SOL    HW224219   3.817   2.677   8.678 -0.7749 -1.1895  0.6245
 4195SOL     OW24220   1.709   0.323   9.099  0.4143  0.2785  0.1255
 4195SOL    HW124221   1.623   0.317   9.058  0.7072  3.7345 -1.0609
 4195SOL    HW224222   1.746   0.396   9.049  0.5048 -0.7865 -1.3319
 4196SOL     OW24223   1.022   2.130   5.456 -0.1058  0.0639  0.0315
 4196SOL    HW124224   0.945   2.081   5.485  2.3896 -2.7176  2.0102
 4196SOL    HW224225   0.994   2.148   5.367  3.0342 -1.4321 -1.2394
 4197SOL     OW24226   1.453   3.940  13.846 -0.5511 -0.1198 -0.2251
 4197SOL    HW124227   1.522   3.939  13.780  1.0787  0.7634  1.4654
 4197SOL    HW224228   1.398   4.005  13.801 -0.8744 -0.4069 -0.2447
 4198SOL     OW24229   3.055   3.745   1.521  0.5258 -0.0704  0.2489
 4198SOL    HW124230   3.095   3.673   1.569  0.7912  0.4004  0.7386
 4198SOL    HW224231   3.099   3.731   1.437  2.5963  0.8436  1.1581
 4199SOL     OW24232   3.726   2.187   6.215  0.2556  0.0261  0.3636
 4199SOL    HW124233   3.735   2.237   6.134 -0.3525 -1.2932 -0.5076
 4199SOL    HW224234   3.752   2.103   6.178 -1.6958 -0.3765 -0.0609
 4200SOL     OW24235   2.534   0.288   9.472 -0.2124 -0.4036  0.0969
 4200SOL    HW124236   2.542   0.261   9.564 -0.9524 -1.1342 -0.0505
 4200SOL    HW224237   2.464   0.229   9.443  0.0522 -0.0161 -1.3304
 4201SOL     OW24238   2.897   1.978  10.168  0.3784  0.3290 -0.4255
 4201SOL    HW124239   2.945   1.945  10.092  0.6711  1.5731 -0.7789
 4201SOL    HW224240   2.822   2.005  10.115 -0.2745  0.7497  0.7154
 4202SOL     OW24241   2.022   1.203   9.402 -0.0385 -0.0360  0.1796
 4202SOL    HW124242   2.098   1.223   9.348 -0.0149 -1.1163 -0.1933
 4202SOL    HW224243   2.072   1.174   9.478 -0.3333 -0.3937  0.2392
 4203SOL     OW24244   3.075   1.978  11.890 -0.0524 -0.0911  0.0322
 4203SOL    HW124245   3.001   1.918  11.904 -0.5518  0.6136  0.4499
 4203SOL    HW224246   3.025   2.053  11.856  1.3300  0.2400 -1.2437
 4204SOL     OW24247   2.464   3.961   4.873  0.5686 -0.1490  0.1473
 4204SOL    HW124248   2.540   4.019   4.866  0.0166  0.4214 -1.1448
 4204SOL    HW224249   2.451   3.947   4.779  1.3709 -1.4918  0.2351
 4205SOL     OW24250   2.491   2.788   9.548 -0.2969 -0.0787  0.2764
 4205SOL    HW124251   2.542   2.847   9.493 -0.3254  0.0318  0.3695
 4205SOL    HW224252   2.521   2.707   9.507  1.1324  0.9379 -0.7025
 4206SOL     OW24253   0.463   2.326  15.086  0.7839 -0.3484 -0.0065
 4206SOL    HW124254   0.457   2.398  15.149  0.4887 -0.7304  0.4039
 4206SOL    HW224255   0.441   2.253  15.144  1.0761 -0.4026  0.0363
 4207SOL     OW24256   1.517   2.287  14.832 -0.2666 -0.3052 -0.1327
 4207SOL    HW124257   1.457   2.213  14.846 -0.3196 -0.3494 -0.5999
 4207SOL    HW224258   1.582   2.251  14.772 -0.9954  0.4809 -1.3890
 4208SOL     OW24259   0.631   2.993   1.791 -0.3318 -0.0255  0.1717
 4208SOL    HW124260   0.615   3.035   1.875  1.5381 -2.7009  1.8490
 4208SOL    HW224261   0.700   3.048   1.753  0.1088 -0.6228  0.1112
 4209SOL     OW24262   4.493   3.138   4.441  0.1235  0.4006  0.3300
 4209SOL    HW124263   4.514   3.073   4.374 -0.3476  1.5318 -0.9158
 4209SOL    HW224264   4.554   3.113   4.510  0.0109 -1.3708 -0.1864
 4210SOL     OW24265   1.533   0.850   8.814 -0.1547  0.1155  0.2366
 4210SOL    HW124266   1.574   0.861   8.728  2.2650 -2.0573  1.1207
 4210SOL    HW224267   1.480   0.773   8.793  0.3500  0.2097 -1.4356
 4211SOL     OW24268   2.063   3.681   1.236  1.0936 -0.2934  0.5877
 4211SOL    HW124269   2.096   3.620   1.170  1.9678 -0.3610  1.0755
 4211SOL    HW224270   2.118   3.754   1.206 -0.7824  1.5482  1.6681
 4212SOL     OW24271   4.552   2.262  11.916  0.6769  0.1848  0.2778
 4212SOL    HW124272   4.578   2.226  12.001  3.7448 -0.3893 -0.9203
 4212SOL    HW224273   4.489   2.332  11.934  0.2894  0.2925 -1.4556
 4213SOL     OW24274   3.540   0.045   0.356 -0.5345  1.1412  0.2494
 4213SOL    HW124275   3.579   4.699   0.369 -2.1082  0.4962  0.6342
 4213SOL    HW224276   3.598   0.084   0.422 -0.2319  0.8663  0.1430
 4214SOL     OW24277   4.529   1.620  12.794 -0.3391 -0.2205  1.0635
 4214SOL    HW124278   4.597   1.589  12.735  0.4452 -1.2315  2.5082
 4214SOL    HW224279   4.478   1.539  12.801  0.3300 -0.6475  0.9439
 4215SOL     OW24280   0.903   4.622   8.615 -0.5541  0.3751 -0.7352
 4215SOL    HW124281   0.932   4.552   8.556  1.1077  0.1964  0.3060
 4215SOL    HW224282   0.810   4.605   8.603 -0.8717  2.1169 -0.6583
 4216SOL     OW24283   1.354   0.762  13.003  0.2355  0.3584  0.1831
 4216SOL    HW124284   1.331   0.854  13.018  1.5789  0.8237 -0.6559
 4216SOL    HW224285   1.352   0.732  13.094 -0.5002  1.5674  0.5659
 4217SOL     OW24286   3.944   0.304   8.438 -0.7942 -0.3863  0.4542
 4217SOL    HW124287   4.017   0.295   8.376 -0.8449  0.3623  0.2840
 4217SOL    HW224288   4.003   0.349   8.499  1.2294 -1.1409 -0.9703
 4218SOL     OW24289   0.449   1.530   5.032 -0.2731 -0.2595  0.1291
 4218SOL    HW124290   0.456   1.481   4.950 -1.9144 -2.5312  1.3544
 4218SOL    HW224291   0.538   1.565   5.032 -0.6448  0.6596  1.2415
 4219SOL     OW24292   3.898   3.421   1.969  0.0859 -0.2489  0.9910
 4219SOL    HW124293   3.954   3.367   1.914  0.7578 -0.9881  2.3944
 4219SOL    HW224294   3.827   3.444   1.909  1.4181  2.1974  0.3903
 4220SOL     OW24295   1.834   4.303   1.565 -0.8406  0.6026  0.3720
 4220SOL    HW124296   1.915   4.256   1.546 -0.6849  0.2850  1.7756
 4220SOL    HW224297   1.849   4.376   1.506 -0.1114 -0.9142 -1.3290
 4221SOL     OW24298   3.383   3.383   5.352  0.4670 -0.1450  0.0615
 4221SOL    HW124299   3.359   3.315   5.414 -0.2181  1.3530  1.4526
 4221SOL    HW224300   3.301   3.432   5.354  0.0945 -0.7820  0.0862
 4222SOL     OW24301   1.841   2.963   6.391  0.2981  0.6582  0.1546
 4222SOL    HW124302   1.772   2.911   6.350 -1.2055  0.5866  2.7658
 4222SOL    HW224303   1.870   2.908   6.464  1.7281  1.2036  0.0087
 4223SOL     OW24304   1.975   4.085  14.854 -0.1757 -0.8108  0.1013
 4223SOL    HW124305   1.887   4.052  14.869  0.3774 -2.5133 -0.3187
 4223SOL    HW224306   2.008   4.015  14.796 -0.3085 -0.9846  0.2349
 4224SOL     OW24307   3.410   2.198   8.410  0.4210 -0.0250 -0.2115
 4224SOL    HW124308   3.468   2.272   8.391  0.6441 -0.2373 -0.3584
 4224SOL    HW224309   3.455   2.118   8.383  1.1016  0.7015 -1.2405
 4225SOL     OW24310   4.527   3.457   5.126  0.1720  0.1956  0.1618
 4225SOL    HW124311   4.477   3.396   5.072 -1.3240 -0.6397  2.4950
 4225SOL    HW224312   4.491   3.441   5.213  1.8301 -0.0492  0.8073
 4226SOL     OW24313   1.466   1.679   6.696 -0.5327 -0.2844 -0.5816
 4226SOL    HW124314   1.458   1.731   6.776 -0.6287  0.2463 -0.9331
 4226SOL    HW224315   1.380   1.638   6.685 -0.5568 -0.7308  1.4066
 4227SOL     OW24316   4.177   4.086   1.795 -0.0300 -0.3616 -0.3663
 4227SOL    HW124317   4.218   4.096   1.881 -1.7663 -3.4404  0.8232
 4227SOL    HW224318   4.102   4.142   1.815 -0.4092 -0.6424 -1.0175
 4228SOL     OW24319   1.970   0.674  16.857  0.1505  0.1672  0.8500
 4228SOL    HW124320   2.065   0.659  16.861 -0.1634 -1.5809  1.6830
 4228SOL    HW224321   1.950   0.669  16.763 -0.3532  1.2767  0.9032
 4229SOL     OW24322   2.219   3.985   3.531 -0.2369  0.0127  0.0488
 4229SOL    HW124323   2.187   4.067   3.493  0.0045  0.3824  0.6436
 4229SOL    HW224324   2.146   3.923   3.524 -1.0087  0.9590 -0.2866
 4230SOL     OW24325   1.033   2.462   7.367  0.4123 -0.1346  0.0415
 4230SOL    HW124326   1.009   2.369   7.373  0.0393 -0.0060  0.4940
 4230SOL    HW224327   1.041   2.481   7.460 -0.7372 -1.1561  0.3538
 4231SOL     OW24328   4.710   3.861   8.744  0.0686  0.0993  0.0972
 4231SOL    HW124329   4.676   3.948   8.765  1.7719  0.7247  0.2102
 4231SOL    HW224330   4.719   3.859   8.649 -0.8126 -0.1525  0.0152
 4232SOL     OW24331   1.820   0.461   9.977 -0.1299 -0.2850 -0.0809
 4232SOL    HW124332   1.725   0.469   9.981 -0.2039 -2.0249  2.0613
 4232SOL    HW224333   1.833   0.472   9.883 -0.4974 -0.8704 -0.1989
 4233SOL     OW24334   2.620   4.200   4.098  0.2511 -0.1584 -0.0293
 4233SOL    HW124335   2.660   4.286   4.106  0.0603 -0.0751  0.0087
 4233SOL    HW224336   2.690   4.140   4.125 -1.4527 -1.4239  1.6268
 4234SOL     OW24337   3.501   0.343  13.040 -0.0330  0.5423  0.2694
 4234SOL    HW124338   3.521   0.269  12.983 -0.6719  1.0225 -0.5822
 4234SOL    HW224339   3.523   0.312  13.128 -1.6305  2.7683  1.4469
 4235SOL     OW24340   3.024   4.012   3.036  0.4342 -0.0720  0.3110
 4235SOL    HW124341   2.944   4.048   3.074  1.2417 -0.0109  1.9217
 4235SOL    HW224342   2.996   3.923   3.017 -0.9641  0.9292 -2.3490
 4236SOL     OW24343   3.634   2.638   8.721 -0.3002 -0.0419 -0.5964
 4236SOL    HW124344   3.578   2.640   8.643 -2.8399  1.4412  1.2438
 4236SOL    HW224345   3.619   2.552   8.759 -0.6203  0.2553 -0.0460
 4237SOL     OW24346   0.938   0.602   6.369 -0.3684  0.1845 -0.1504
 4237SOL    HW124347   0.867   0.574   6.427 -0.4925  0.7693 -0.0290
 4237SOL    HW224348   0.929   0.695   6.349 -0.7903  0.2069  0.1549
 4238SOL     OW24349   3.400   0.979   1.363  0.4549  0.7863 -0.4917
 4238SOL    HW124350   3.418   0.931   1.282  0.1706 -0.0311 -0.0803
 4238SOL    HW224351   3.304   0.984   1.367  0.4658  0.8114 -0.2311
 4239SOL     OW24352   2.850   0.263   7.909 -0.0839 -0.2772  0.4330
 4239SOL    HW124353   2.888   0.220   7.832  1.0032 -1.7679  1.7870
 4239SOL    HW224354   2.889   0.212   7.980  0.5894 -0.0167  0.2498
 4240SOL     OW24355   0.188   1.423  10.841  0.2127 -0.0294 -0.2380
 4240SOL    HW124356   0.252   1.393  10.906  0.8357  1.8705  0.0141
 4240SOL    HW224357   0.102   1.434  10.881 -0.0734 -1.6144 -0.3833
 4241SOL     OW24358   2.921   4.180   2.058 -0.0639 -0.3267  1.1187
 4241SOL    HW124359   2.861   4.247   2.091  1.8522  1.7940  0.2492
 4241SOL    HW224360   2.987   4.183   2.128 -0.0663 -0.1731  1.1132
 4242SOL     OW24361   1.711   3.957  12.623 -1.0750 -0.6465  0.3519
 4242SOL    HW124362   1.715   3.982  12.715 -0.2125 -0.4669  0.2627
 4242SOL    HW224363   1.802   3.930  12.622  0.1805  3.5595  0.5395
 4243SOL     OW24364   2.280   0.028   1.531 -0.0891  0.2004 -1.1251
 4243SOL    HW124365   2.213   0.084   1.570 -0.2722  0.9409 -2.5004
 4243SOL    HW224366   2.359   0.082   1.539  1.8962 -3.0362  1.2369
 4244SOL     OW24367   1.939   3.404   7.615  0.4788 -0.2200 -0.1440
 4244SOL    HW124368   2.020   3.418   7.663 -0.7057  1.7403  1.2706
 4244SOL    HW224369   1.952   3.450   7.533  2.2636 -0.2638  0.1156
 4245SOL     OW24370   3.624   1.337   3.198  0.7941  0.2256 -0.0094
 4245SOL    HW124371   3.648   1.429   3.197  1.8565 -0.0444  0.0507
 4245SOL    HW224372   3.561   1.328   3.270 -0.2453 -0.7548 -1.0377
 4246SOL     OW24373   3.710   1.670   9.667 -0.8528 -0.3669  0.4188
 4246SOL    HW124374   3.708   1.762   9.640 -0.7004 -0.6939 -0.7067
 4246SOL    HW224375   3.778   1.642   9.606 -0.6425 -0.8911  0.8929
 4247SOL     OW24376   4.384   2.342   2.593  0.2174 -0.6638  0.1845
 4247SOL    HW124377   4.315   2.351   2.659 -1.0048  0.5493 -1.2601
 4247SOL    HW224378   4.409   2.251   2.605 -0.9967 -1.0076  0.0729
 4248SOL     OW24379   2.613   2.426   6.852 -0.2906 -0.4702  0.4802
 4248SOL    HW124380   2.634   2.333   6.844 -1.6376 -0.6862 -0.5290
 4248SOL    HW224381   2.523   2.421   6.885 -0.7195  0.0221 -0.5896
 4249SOL     OW24382   0.963   4.740   6.759 -0.0800  0.1326 -0.8350
 4249SOL    HW124383   0.946   0.042   6.844  0.3807 -1.5613  0.1103
 4249SOL    HW224384   1.058   4.731   6.751  0.0360  1.8919 -1.3262
 4250SOL     OW24385   1.188   4.638   0.765 -0.1455 -0.1019  0.7236
 4250SOL    HW124386   1.195   4.709   0.829 -0.5208  0.8281 -0.2683
 4250SOL    HW224387   1.269   4.650   0.715  0.0768 -1.8226  0.6691
 4251SOL     OW24388   0.679   4.050   3.438 -0.1871 -0.5909  0.1395
 4251SOL    HW124389   0.670   4.005   3.522  1.9030 -0.5653  0.3638
 4251SOL    HW224390   0.635   3.982   3.387 -1.5630 -0.4033  1.0557
 4252SOL     OW24391   0.313   4.594  15.425  0.0599 -0.2880 -0.5015
 4252SOL    HW124392   0.244   4.604  15.360  0.4304 -0.0362 -0.8564
 4252SOL    HW224393   0.262   4.567  15.501  0.8419 -0.7219 -0.1320
 4253SOL     OW24394   3.506   1.818  12.319  0.1407  0.0928 -0.2529
 4253SOL    HW124395   3.542   1.778  12.399  0.9812 -1.9608 -1.6665
 4253SOL    HW224396   3.479   1.906  12.345  1.4717  0.8494 -1.4393
 4254SOL     OW24397   1.917   2.843  12.137  0.7274 -0.2584  0.2235
 4254SOL    HW124398   1.969   2.838  12.057  1.0173 -2.3217  0.5250
 4254SOL    HW224399   1.938   2.930  12.169  0.9747 -0.2137 -0.0657
 4255SOL     OW24400   3.372   1.037   5.865 -0.5219  0.7715  0.1311
 4255SOL    HW124401   3.346   0.991   5.785  0.6954 -0.2146  0.3053
 4255SOL    HW224402   3.365   1.128   5.836  1.1788  0.6945 -0.5590
 4256SOL     OW24403   1.033   3.757   5.489  0.0249  0.2683 -0.0185
 4256SOL    HW124404   1.010   3.694   5.556  1.1167  1.9441  1.9494
 4256SOL    HW224405   1.067   3.693   5.427  0.7536  0.5994  0.0398
 4257SOL     OW24406   4.210   1.371   8.482  0.0163 -0.3304  0.1300
 4257SOL    HW124407   4.156   1.389   8.404 -1.6227  1.2509  1.6195
 4257SOL    HW224408   4.272   1.444   8.482 -0.0072 -0.3062 -0.5556
 4258SOL     OW24409   4.130   2.703  10.032 -0.0266 -0.6307 -0.1877
 4258SOL    HW124410   4.205   2.652  10.002 -0.5086 -1.1328 -0.5388
 4258SOL    HW224411   4.150   2.788   9.991 -3.1568 -0.1033 -0.6628
 4259SOL     OW24412   0.149   3.670   2.841 -0.2893 -0.2865  0.2753
 4259SOL    HW124413   0.164   3.623   2.923  0.6339 -2.1664 -0.9539
 4259SOL    HW224414   0.075   3.726   2.864  0.2768  0.7465 -0.4003
 4260SOL     OW24415   3.682   3.657   4.276 -0.4730  0.2773  0.3614
 4260SOL    HW124416   3.775   3.656   4.298 -0.4830  1.7189  0.4820
 4260SOL    HW224417   3.683   3.603   4.197 -2.5433 -0.1648  0.6401
 4261SOL     OW24418   2.725   3.697   6.585 -0.1710 -0.2870 -0.3933
 4261SOL    HW124419   2.707   3.779   6.631  1.4363  0.5918 -1.3477
 4261SOL    HW224420   2.684   3.716   6.501 -3.1705 -1.0092  0.9134
 4262SOL     OW24421   1.194   3.114   2.719 -0.3567  0.4538 -0.4058
 4262SOL    HW124422   1.159   3.188   2.669  1.4187  0.7839 -1.1655
 4262SOL    HW224423   1.166   3.142   2.806  1.3283 -0.3203  0.3805
 4263SOL     OW24424   0.339   1.165  17.388 -0.0682 -0.2473  0.5915
 4263SOL    HW124425   0.427   1.202  17.390 -0.0311 -0.2880 -0.2686
 4263SOL    HW224426   0.331   1.154  17.293 -0.2745  0.6487  0.5007
 4264SOL     OW24427   3.544   4.452   6.273  0.1568  0.1003  0.2187
 4264SOL    HW124428   3.574   4.361   6.273 -1.2063 -0.3581  1.2007
 4264SOL    HW224429   3.620   4.498   6.309  0.1144  0.9966 -0.8194
 4265SOL     OW24430   4.698   0.062   3.746 -0.6531 -0.2845 -0.0301
 4265SOL    HW124431   4.725   0.067   3.837  0.1961 -0.6247 -0.2595
 4265SOL    HW224432   0.024   4.737   3.723 -0.9075 -0.4147 -0.4043
 4266SOL     OW24433   4.664   0.237  11.277  0.5181  0.2013  0.0898
 4266SOL    HW124434   4.717   0.163  11.246 -0.3141  0.1966 -1.3141
 4266SOL    HW224435   4.612   0.246  11.197  0.8683  1.8029  0.0492
 4267SOL     OW24436   0.953   3.815   7.792  0.4681 -0.1430  0.1228
 4267SOL    HW124437   0.893   3.883   7.762 -1.2501 -1.4224  0.6538
 4267SOL    HW224438   1.029   3.862   7.829  0.5042  1.6597 -2.2559
 4268SOL     OW24439   1.139   2.939  12.740 -0.4384 -0.1601 -0.8055
 4268SOL    HW124440   1.214   2.973  12.691 -1.2349  3.1830  0.2501
 4268SOL    HW224441   1.070   3.000  12.714 -0.2837 -0.3349 -1.6113
 4269SOL     OW24442   3.531   0.826   2.002 -0.2005 -0.6192  0.2733
 4269SOL    HW124443   3.485   0.764   1.945 -1.6168 -1.6431  2.5387
 4269SOL    HW224444   3.597   0.769   2.040  0.1677 -1.0006 -0.9458
 4270SOL     OW24445   3.567   3.753   6.667 -0.0434 -0.2027 -0.0532
 4270SOL    HW124446   3.659   3.769   6.687  0.0607 -0.7441 -0.0953
 4270SOL    HW224447   3.566   3.658   6.657 -1.1309  0.0790 -2.6282
 4271SOL     OW24448   2.623   3.166   2.372 -0.4696 -0.2192 -0.2497
 4271SOL    HW124449   2.666   3.244   2.336 -0.1747 -0.7206 -0.9842
 4271SOL    HW224450   2.578   3.135   2.293  2.3453 -1.0973 -1.4980
 4272SOL     OW24451   1.202   2.044   8.020  0.5120  0.0389  0.3056
 4272SOL    HW124452   1.228   1.960   7.983 -1.4040 -0.3959 -0.0760
 4272SOL    HW224453   1.129   2.061   7.961 -0.1343  0.4614  1.2172
 4273SOL     OW24454   3.121   3.406   7.126 -1.1540  0.4047  0.1298
 4273SOL    HW124455   3.182   3.420   7.199 -1.9385  1.1889  0.6331
 4273SOL    HW224456   3.168   3.457   7.060  0.5376 -0.1245  0.9238
 4274SOL     OW24457   1.337   1.935   9.437  0.1052 -0.2107 -0.5705
 4274SOL    HW124458   1.402   1.961   9.503  0.1156 -1.8810  0.0634
 4274SOL    HW224459   1.318   1.845   9.462  0.5874  0.4498  2.2225
 4275SOL     OW24460   2.572   0.838  17.216 -0.3945  0.2761 -0.1619
 4275SOL    HW124461   2.627   0.764  17.241  0.8119  1.2737  0.1810
 4275SOL    HW224462   2.552   0.802  17.130 -0.4164  1.5602 -0.6991
 4276SOL     OW24463   3.315   4.204   1.857 -0.1443  0.5501  0.3816
 4276SOL    HW124464   3.333   4.297   1.843  1.5329  0.2324  0.4190
 4276SOL    HW224465   3.220   4.200   1.864 -0.1384  0.8651  0.6247
 4277SOL     OW24466   1.562   0.449   0.373  0.0618 -0.2460  0.8311
 4277SOL    HW124467   1.637   0.458   0.314 -0.3052  2.2289  0.7239
 4277SOL    HW224468   1.504   0.517   0.337 -0.8662 -0.3521  2.1495
 4278SOL     OW24469   0.706   1.027  17.215  0.0703 -0.0000  0.2559
 4278SOL    HW124470   0.672   1.114  17.237 -2.3119 -0.2709 -2.2587
 4278SOL    HW224471   0.692   1.022  17.120 -0.0390  0.9468  0.2182
 4279SOL     OW24472   4.400   0.854   3.278 -0.4299  0.7620 -0.0680
 4279SOL    HW124473   4.490   0.823   3.287 -0.9527 -1.5043 -3.1311
 4279SOL    HW224474   4.382   0.835   3.187  0.7604  1.5632 -0.4847
 4280SOL     OW24475   0.673   2.372   9.288  0.4820 -0.0391  0.5385
 4280SOL    HW124476   0.620   2.344   9.363 -0.2023  2.0165  0.8147
 4280SOL    HW224477   0.763   2.357   9.316  0.5812 -1.4067 -0.5291
 4281SOL     OW24478   1.159   3.203  16.035 -0.2117  0.4867  0.1013
 4281SOL    HW124479   1.203   3.267  16.092  1.1316  2.5786 -3.3101
 4281SOL    HW224480   1.108   3.160  16.104  1.4363 -1.4160  0.1144
 4282SOL     OW24481   0.608   1.435   3.962  0.0477 -0.0208 -0.1547
 4282SOL    HW124482   0.578   1.431   3.872  0.7492 -2.3107 -0.2805
 4282SOL    HW224483   0.539   1.395   4.015 -0.1469 -0.0927 -0.4622
 4283SOL     OW24484   1.285   0.927   4.714  0.3328 -0.4538  0.2135
 4283SOL    HW124485   1.270   1.019   4.695  0.0383 -0.7167 -0.8183
 4283SOL    HW224486   1.317   0.887   4.633 -0.9669  0.0563 -0.5454
 4284SOL     OW24487   1.069   2.994   5.529 -0.5922  0.2553 -0.0780
 4284SOL    HW124488   1.132   3.062   5.505  0.0585 -0.1931  0.3622
 4284SOL    HW224489   1.000   3.018   5.467  0.1876  0.5163 -0.8450
 4285SOL     OW24490   1.426   1.432  17.122  0.1353  0.3113  0.8395
 4285SOL    HW124491   1.447   1.342  17.098 -0.3618  0.6252 -0.7612
 4285SOL    HW224492   1.346   1.442  17.070 -0.1067 -2.2817  0.7062
 4286SOL     OW24493   1.079   1.310  14.196 -0.2356  0.4989  0.4505
 4286SOL    HW124494   1.067   1.358  14.279 -0.0209 -0.2492  0.9149
 4286SOL    HW224495   1.004   1.252  14.210 -0.3816  0.6012  0.0789
 4287SOL     OW24496   1.347   4.464  16.799 -0.3218  0.3704  0.1579
 4287SOL    HW124497   1.395   4.489  16.878 -0.9907  0.4586  0.5386
 4287SOL    HW224498   1.410   4.410  16.752 -2.5803 -3.8665  2.0543
 4288SOL     OW24499   1.927   0.220   7.984 -0.5618 -0.0972 -0.6592
 4288SOL    HW124500   1.895   0.305   8.014  2.5865  0.9005 -0.1029
 4288SOL    HW224501   1.891   0.166   8.054 -0.8354 -0.1596 -0.8471
 4289SOL     OW24502   1.767   3.261  12.035  0.5749 -0.3742 -0.4205
 4289SOL    HW124503   1.757   3.220  11.949 -0.7940 -1.5269  0.2867
 4289SOL    HW224504   1.801   3.349  12.018 -0.9045 -0.2271 -2.6053
 4290SOL     OW24505   2.410   2.108   6.004  0.0018  0.1754  0.1303
 4290SOL    HW124506   2.478   2.152   6.056 -1.3010  2.2672  0.0658
 4290SOL    HW224507   2.460   2.085   5.926  0.9544 -0.8397  1.0435
 4291SOL     OW24508   1.648   3.702  12.721 -0.2081  0.2592  0.4983
 4291SOL    HW124509   1.657   3.720  12.815  0.6442  2.8591 -0.1014
 4291SOL    HW224510   1.655   3.786  12.676 -3.1365 -0.5713 -1.5281
 4292SOL     OW24511   2.945   2.778   6.981  0.4238  0.3439  0.5154
 4292SOL    HW124512   2.922   2.686   6.972  2.3533 -0.2810  2.0702
 4292SOL    HW224513   3.025   2.766   7.031  0.1455  2.9889  1.6247
 4293SOL     OW24514   3.548   2.845   6.732  0.7884  0.1925  0.5072
 4293SOL    HW124515   3.585   2.928   6.762  0.1002  1.4576 -2.0934
 4293SOL    HW224516   3.614   2.777   6.745  1.1455  0.1096 -1.6346
 4294SOL     OW24517   3.242   0.373   3.717  0.2540  0.0741  0.0687
 4294SOL    HW124518   3.284   0.452   3.685 -1.4344  1.3605  1.0402
 4294SOL    HW224519   3.151   0.387   3.690  0.2135  2.1734  1.3097
 4295SOL     OW24520   3.553   0.790   8.280 -0.8105  1.2797  0.1624
 4295SOL    HW124521   3.583   0.712   8.327  0.7915  1.0730 -1.2251
 4295SOL    HW224522   3.459   0.774   8.272 -0.6663  1.0945 -1.1024
 4296SOL     OW24523   1.063   2.575  10.832 -0.7272 -0.0101  0.3839
 4296SOL    HW124524   0.995   2.591  10.767 -1.4691  1.7583  1.6094
 4296SOL    HW224525   1.010   2.527  10.896 -1.5584  1.4331  0.7662
 4297SOL     OW24526   1.825   2.073   7.239  0.6026 -0.1241 -0.5060
 4297SOL    HW124527   1.826   1.987   7.197 -1.6891 -0.2464 -0.3196
 4297SOL    HW224528   1.867   2.117   7.166 -0.8828 -0.3946 -1.5154
 4298SOL     OW24529   1.561   0.135   1.919  0.2691 -0.6662  0.5255
 4298SOL    HW124530   1.510   0.192   1.977  1.5177  3.6985 -2.7743
 4298SOL    HW224531   1.642   0.178   1.893  0.0802 -1.7265 -1.8312
 4299SOL     OW24532   3.137   3.933   3.812  0.0133 -0.3437  0.0310
 4299SOL    HW124533   3.097   3.847   3.802  1.1616 -0.4796 -3.4058
 4299SOL    HW224534   3.099   3.963   3.894  2.3536 -0.2891  1.0837
 4300SOL     OW24535   0.678   2.793  12.422 -0.6184  0.0590 -0.1187
 4300SOL    HW124536   0.616   2.851  12.465  2.4939  3.1203  0.2880
 4300SOL    HW224537   0.619   2.725  12.391  0.3286  0.1246 -2.1287
 4301SOL     OW24538   0.936   0.596   6.016  0.1197 -0.2682 -0.2811
 4301SOL    HW124539   1.031   0.609   6.022  0.0357  0.6996 -1.0492
 4301SOL    HW224540   0.927   0.510   5.976 -1.2328 -1.3094  2.2202
 4302SOL     OW24541   2.817   2.960   4.359  0.2609 -0.1481  0.1389
 4302SOL    HW124542   2.787   2.930   4.274  1.0835  0.6617 -0.4401
 4302SOL    HW224543   2.789   2.886   4.413 -2.0435  0.2608 -0.4840
 4303SOL     OW24544   4.476   1.188  11.432  0.3085 -0.2787  0.0931
 4303SOL    HW124545   4.507   1.177  11.522 -1.2860 -1.5883  0.4916
 4303SOL    HW224546   4.447   1.279  11.434  0.4569 -0.2302  0.0379
 4304SOL     OW24547   2.007   3.990   9.835  0.6122 -0.0155 -0.1159
 4304SOL    HW124548   2.095   3.951   9.840  0.0788 -1.3246 -0.8433
 4304SOL    HW224549   2.024   4.084   9.828  0.2228  0.1314  0.8515
 4305SOL     OW24550   0.632   3.776   2.975 -0.1762  0.0023  0.3776
 4305SOL    HW124551   0.575   3.698   2.972 -0.0375 -0.1639  2.3441
 4305SOL    HW224552   0.593   3.850   2.928 -2.6775 -1.4563  0.1264
 4306SOL     OW24553   0.098   0.186   8.309 -0.4857 -0.0026  0.0490
 4306SOL    HW124554   0.020   0.148   8.348 -0.9017  1.2341  0.4156
 4306SOL    HW224555   0.163   0.116   8.325  0.0198  0.6356  0.8091
 4307SOL     OW24556   4.725   4.091   9.039 -0.5348 -0.4377 -0.0918
 4307SOL    HW124557   0.005   3.997   9.038 -0.7636 -0.4856 -0.2625
 4307SOL    HW224558   4.700   4.103   9.130  0.1048 -0.1468  0.0424
 4308SOL     OW24559   1.266   4.705  13.523 -0.2180 -0.7494 -0.0177
 4308SOL    HW124560   1.339   4.662  13.478  1.3278  1.7906  0.0698
 4308SOL    HW224561   1.208   4.629  13.527  0.2954 -0.9985  2.9500
 4309SOL     OW24562   2.057   2.795  11.215  0.4648 -0.6328  1.2674
 4309SOL    HW124563   2.014   2.724  11.262  1.1210 -1.9032 -0.0117
 4309SOL    HW224564   2.041   2.879  11.258  0.2276 -0.2037  0.3453
 4310SOL     OW24565   2.768   3.010   5.187 -0.2620  0.5762  0.0407
 4310SOL    HW124566   2.821   3.012   5.266  0.4483  0.2718 -0.4270
 4310SOL    HW224567   2.825   3.046   5.119  0.8159  0.6563  0.9942
 4311SOL     OW24568   2.938   3.029   5.485 -0.1415  0.2873 -0.1373
 4311SOL    HW124569   2.868   3.071   5.535 -0.0850 -3.0089  2.7285
 4311SOL    HW224570   2.990   3.109   5.484  0.6565 -0.2227  0.2045
 4312SOL     OW24571   2.830   3.854   2.562  0.2372 -0.1726  0.3575
 4312SOL    HW124572   2.771   3.813   2.625 -0.2845 -0.9691 -0.6539
 4312SOL    HW224573   2.818   3.946   2.588 -0.4931 -0.1197 -0.1771
 4313SOL     OW24574   1.673   3.742  10.695 -0.2873  0.6455 -0.2239
 4313SOL    HW124575   1.754   3.724  10.647 -0.5302 -0.6384 -0.1391
 4313SOL    HW224576   1.609   3.738  10.624 -1.1734  0.8498  0.5512
 4314SOL     OW24577   0.456   0.395   3.196 -0.0267  0.0045 -0.1538
 4314SOL    HW124578   0.392   0.465   3.207  1.9726  1.2841  3.2944
 4314SOL    HW224579   0.396   0.320   3.202  2.0493 -1.6818 -0.5833
 4315SOL     OW24580   1.329   2.289   8.608  0.3411 -0.1118  0.1343
 4315SOL    HW124581   1.308   2.297   8.701 -3.6057 -1.6886 -0.5923
 4315SOL    HW224582   1.251   2.242   8.577  0.4075 -0.5061  0.5796
 4316SOL     OW24583   2.675   3.227   9.406 -0.8281  0.0606 -0.1219
 4316SOL    HW124584   2.746   3.251   9.347 -1.4805  2.0715 -0.0856
 4316SOL    HW224585   2.667   3.295   9.473 -1.5803 -1.4323  1.2997
 4317SOL     OW24586   3.594   3.188   7.780  0.0010 -0.3617 -0.4805
 4317SOL    HW124587   3.535   3.187   7.856  3.1556  0.7791  1.9829
 4317SOL    HW224588   3.524   3.210   7.719  1.2000  1.4295 -1.2003
 4318SOL     OW24589   1.886   0.186   6.826 -0.0141 -0.0145 -0.0998
 4318SOL    HW124590   1.942   0.159   6.753  2.7200  2.3533  1.1215
 4318SOL    HW224591   1.921   0.274   6.839  3.7892 -1.3879 -0.8164
 4319SOL     OW24592   2.014   3.452   5.362 -0.3010  0.1436  0.4015
 4319SOL    HW124593   2.069   3.373   5.372 -1.4913 -0.6143  0.9655
 4319SOL    HW224594   2.075   3.523   5.383 -0.8478  0.2047  1.7524
 4320SOL     OW24595   0.879   2.252   0.111 -0.0208  0.1337  0.6506
 4320SOL    HW124596   0.810   2.309   0.076  1.6227  2.3694  1.0639
 4320SOL    HW224597   0.844   2.163   0.104 -0.4857  0.4698 -1.3461
 4321SOL     OW24598   2.554   2.389   7.635  0.5215  0.3649  0.1359
 4321SOL    HW124599   2.593   2.415   7.719  0.0702 -2.3397  1.1743
 4321SOL    HW224600   2.593   2.456   7.579 -1.1548  0.8136 -0.4837
 4322SOL     OW24601   1.299   3.752  12.521  0.2300 -0.7664 -0.4364
 4322SOL    HW124602   1.325   3.717  12.606 -0.2790  0.2265  0.1255
 4322SOL    HW224603   1.359   3.826  12.515 -0.4193 -0.0607  1.9767
 4323SOL     OW24604   1.460   1.916   9.037  0.1980 -0.0749 -0.1591
 4323SOL    HW124605   1.532   1.878   9.087  0.3835  0.8971  0.3052
 4323SOL    HW224606   1.416   1.840   8.999 -3.4544  0.9728  1.9879
 4324SOL     OW24607   4.438   2.809   8.727  0.0824  0.6141  0.2390
 4324SOL    HW124608   4.366   2.838   8.671 -0.0980 -0.7671 -0.2359
 4324SOL    HW224609   4.508   2.792   8.664 -1.0610 -2.5341 -0.1391
 4325SOL     OW24610   4.540   1.333  14.348  0.6129  0.2152 -0.0847
 4325SOL    HW124611   4.550   1.418  14.392  2.5721 -0.9909  1.7853
 4325SOL    HW224612   4.538   1.362  14.257 -0.0845 -0.7312 -0.3631
 4326SOL     OW24613   1.618   1.502   3.362  0.2832 -0.6306  0.5164
 4326SOL    HW124614   1.526   1.494   3.384  0.3131 -0.0885  0.8474
 4326SOL    HW224615   1.639   1.412   3.340  3.2743  0.2817 -0.4833
 4327SOL     OW24616   3.663   2.824  13.682  0.3545  0.1205 -0.4257
 4327SOL    HW124617   3.694   2.734  13.665  3.1649  0.8674  0.7130
 4327SOL    HW224618   3.575   2.823  13.644 -0.6526  2.4634  1.8275
 4328SOL     OW24619   4.325   0.981   3.784  0.1243 -0.0346  0.2247
 4328SOL    HW124620   4.331   1.066   3.740 -0.0171  0.2572  0.7722
 4328SOL    HW224621   4.361   0.933   3.710 -0.9067  0.8578 -0.8609
 4329SOL     OW24622   0.599   1.240  16.980 -0.0074  0.4133  0.0783
 4329SOL    HW124623   0.610   1.311  17.043  1.3011  0.5951 -0.3489
 4329SOL    HW224624   0.650   1.275  16.907  0.5601  0.5802  0.5461
 4330SOL     OW24625   1.992   3.253   5.978 -0.4891  0.2028 -0.0456
 4330SOL    HW124626   1.949   3.273   5.894 -1.3003  2.2438  0.8591
 4330SOL    HW224627   2.070   3.308   5.978  0.0463 -0.5629 -0.2298
 4331SOL     OW24628   0.872   2.809   1.843 -0.5724  0.1735 -0.1739
 4331SOL    HW124629   0.784   2.844   1.841 -0.4535  0.4448 -0.7307
 4331SOL    HW224630   0.916   2.884   1.882  0.9819  0.0147 -1.6090
 4332SOL     OW24631   4.137   1.924   6.992 -0.0948 -0.9344  0.2344
 4332SOL    HW124632   4.145   1.831   7.010 -1.6224 -1.0722  0.1838
 4332SOL    HW224633   4.123   1.967   7.076 -1.5316 -1.2375  0.1445
 4333SOL     OW24634   1.467   3.163   7.121  0.2152  0.0220  0.3886
 4333SOL    HW124635   1.558   3.165   7.092  0.0686 -0.6744 -0.1186
 4333SOL    HW224636   1.475   3.123   7.207  0.0838 -0.7336  0.0537
 4334SOL     OW24637   0.759   3.668   2.050 -0.2065  0.3600  0.1326
 4334SOL    HW124638   0.829   3.734   2.058 -0.6557  0.7113  1.2518
 4334SOL    HW224639   0.685   3.728   2.062  0.0776  0.6193  0.5938
 4335SOL     OW24640   1.540   0.582   2.265 -0.5443  0.3741 -0.4471
 4335SOL    HW124641   1.487   0.616   2.338  2.2794 -1.0165  2.2474
 4335SOL    HW224642   1.552   0.489   2.284 -1.0078  0.4732  0.3673
 4336SOL     OW24643   0.712   2.145   7.023  0.3973 -0.3060 -0.5499
 4336SOL    HW124644   0.765   2.161   6.945 -2.4474  0.2794 -2.3604
 4336SOL    HW224645   0.773   2.101   7.082  0.7485 -0.7554 -1.2433
 4337SOL     OW24646   0.593   3.991   7.833 -0.6568 -1.1470  0.7592
 4337SOL    HW124647   0.669   4.008   7.777  0.3934 -1.1352  2.1903
 4337SOL    HW224648   0.521   4.034   7.787 -0.9308 -1.8259  0.5587
 4338SOL     OW24649   1.162   2.337   4.788 -0.2122  0.5890 -0.2801
 4338SOL    HW124650   1.241   2.302   4.747 -1.4391 -0.3153 -1.8945
 4338SOL    HW224651   1.096   2.281   4.747 -0.5703 -0.1891  1.3839
 4339SOL     OW24652   3.640   3.480  11.801 -0.0402 -0.0623  0.3408
 4339SOL    HW124653   3.735   3.469  11.811 -0.4055 -2.4032  1.3894
 4339SOL    HW224654   3.646   3.569  11.767  0.6280 -1.6491 -3.6339
 4340SOL     OW24655   2.908   1.527   5.723  0.6602  0.0397 -1.1873
 4340SOL    HW124656   2.984   1.574   5.759 -0.9403  1.2932  0.5499
 4340SOL    HW224657   2.893   1.581   5.645  3.4017  2.1363 -0.2800
 4341SOL     OW24658   4.697   3.175   2.514 -0.0233  0.3623 -0.5967
 4341SOL    HW124659   0.029   3.114   2.527 -0.3014  0.3054  0.6724
 4341SOL    HW224660   4.643   3.122   2.455  0.7628  0.5139 -1.4552
 4342SOL     OW24661   3.489   3.697   4.560  0.2830  0.0197  0.0893
 4342SOL    HW124662   3.526   3.721   4.475  1.2308  0.6133  0.6719
 4342SOL    HW224663   3.481   3.603   4.546  0.1838  0.0312  0.0677
 4343SOL     OW24664   1.532   1.964   1.332 -0.5112  0.0928 -0.3138
 4343SOL    HW124665   1.498   1.962   1.242 -1.1260 -2.2875 -0.0319
 4343SOL    HW224666   1.530   2.054   1.362  2.3507 -0.3137  1.1016
 4344SOL     OW24667   2.804   4.454   2.788  0.1933  0.0690 -0.4261
 4344SOL    HW124668   2.839   4.512   2.721  0.4824 -1.0781 -1.2621
 4344SOL    HW224669   2.877   4.456   2.850 -0.1001 -0.6302 -0.0555
 4345SOL     OW24670   1.943   2.019  15.356  0.4903 -0.2142 -0.3326
 4345SOL    HW124671   1.947   2.078  15.281  1.1035  0.4577  0.2241
 4345SOL    HW224672   1.991   1.951  15.308  0.5382 -0.3489 -0.0953
 4346SOL     OW24673   2.396   2.714  16.087  0.6077  0.0091 -0.0545
 4346SOL    HW124674   2.476   2.758  16.114 -0.0191  0.5093  0.9933
 4346SOL    HW224675   2.410   2.677  15.999 -0.3832  0.7587 -0.5245
 4347SOL     OW24676   2.981   0.691   2.667  0.5965  0.8505 -0.1585
 4347SOL    HW124677   2.982   0.603   2.628 -2.8036  0.0445  1.5815
 4347SOL    HW224678   3.070   0.688   2.702  0.4624 -1.5406  0.0155
 4348SOL     OW24679   3.106   1.375   0.063 -0.5578 -0.1527  0.2576
 4348SOL    HW124680   3.190   1.346   0.027  1.0214  2.5985  1.7254
 4348SOL    HW224681   3.050   1.311   0.020 -0.1245  0.9325 -1.9347
 4349SOL     OW24682   3.481   3.062   4.537  0.5676 -0.0740 -0.1255
 4349SOL    HW124683   3.551   3.011   4.496  0.6522 -0.5263  0.5718
 4349SOL    HW224684   3.524   3.075   4.622  1.5970  0.0608 -0.6639
 4350SOL     OW24685   1.493   4.047   2.667 -0.0489  0.7734  0.2793
 4350SOL    HW124686   1.561   3.980   2.659 -0.7624 -0.4400  4.1495
 4350SOL    HW224687   1.536   4.114   2.614 -2.3404  2.1323  0.1314
 4351SOL     OW24688   1.646   2.678   2.857  0.2573  0.1635 -0.5430
 4351SOL    HW124689   1.678   2.647   2.942 -2.6717  0.1590  0.5859
 4351SOL    HW224690   1.552   2.688   2.874 -0.1666 -1.0329 -2.2313
 4352SOL     OW24691   1.562   1.711   2.820 -0.2949 -0.1695  0.1342
 4352SOL    HW124692   1.495   1.665   2.871 -1.2528  0.2083 -0.7719
 4352SOL    HW224693   1.567   1.797   2.861  0.1124  0.8518 -2.0885
 4353SOL     OW24694   2.807   4.578   6.360  0.0988 -0.0619  0.2178
 4353SOL    HW124695   2.878   4.607   6.418 -1.5402  2.5564  0.8971
 4353SOL    HW224696   2.833   4.486   6.352  1.5692  0.3487  0.2654
 4354SOL     OW24697   2.323   0.340   8.858 -0.1774  0.1733 -0.6708
 4354SOL    HW124698   2.256   0.404   8.883  0.0269  1.6130 -3.8291
 4354SOL    HW224699   2.283   0.307   8.777 -2.8453  0.6713  0.4450
 4355SOL     OW24700   4.214   0.721   6.135  0.0293  0.5712  0.0190
 4355SOL    HW124701   4.227   0.650   6.071 -1.5823 -0.0437  0.3670
 4355SOL    HW224702   4.292   0.776   6.130 -0.1139  0.6051 -1.7593
 4356SOL     OW24703   0.698   0.968   5.324  0.4065  0.3182 -0.2760
 4356SOL    HW124704   0.636   1.034   5.292 -0.2034 -0.8128 -1.4530
 4356SOL    HW224705   0.766   0.975   5.257  1.3057 -1.2318  0.4946
 4357SOL     OW24706   1.041   2.525  13.531 -0.2559 -0.5537 -0.8061
 4357SOL    HW124707   1.027   2.557  13.442  2.4266  0.4146 -0.8670
 4357SOL    HW224708   1.001   2.592  13.587  1.6289  0.7195 -0.9783
 4358SOL     OW24709   2.148   2.951  13.602 -0.3022 -0.1286 -0.8832
 4358SOL    HW124710   2.099   2.870  13.614 -2.4079  1.1289 -1.0325
 4358SOL    HW224711   2.097   3.001  13.539 -1.3245  0.2874  0.2814
 4359SOL     OW24712   2.932   3.628  13.142  0.4631  0.0668  0.8743
 4359SOL    HW124713   2.887   3.658  13.063  3.0518 -0.0086 -0.6177
 4359SOL    HW224714   2.976   3.548  13.111 -1.4433 -1.3284  1.7456
 4360SOL     OW24715   4.520   4.266   5.352  0.7990  0.1442 -0.2687
 4360SOL    HW124716   4.594   4.319   5.324  0.2551  1.8430  1.5459
 4360SOL    HW224717   4.545   4.256   5.444 -0.6072  1.5441  0.2521
 4361SOL     OW24718   1.038   3.824   8.395  0.0016 -0.3652 -0.2913
 4361SOL    HW124719   1.001   3.900   8.351  2.1533  0.3340 -0.9160
 4361SOL    HW224720   0.989   3.755   8.350  0.9089 -0.8385 -0.5740
 4362SOL     OW24721   2.952   2.268   7.094 -0.7882  0.0697 -0.3219
 4362SOL    HW124722   2.877   2.270   7.154 -1.0927  1.7346 -0.7715
 4362SOL    HW224723   2.933   2.186   7.048  1.2841 -0.2756 -0.5638
 4363SOL     OW24724   0.036   4.409   3.956 -0.2694 -1.1389  0.0614
 4363SOL    HW124725   0.077   4.327   3.984  0.9542 -0.9636 -1.2219
 4363SOL    HW224726   0.082   4.465   4.019 -2.2831  0.1027  0.4236
 4364SOL     OW24727   1.142   2.146  13.317  0.5925 -0.3337  0.5771
 4364SOL    HW124728   1.058   2.150  13.272  1.5031 -2.2718 -1.3114
 4364SOL    HW224729   1.195   2.211  13.270 -0.3242 -0.6558 -0.8939
 4365SOL     OW24730   4.386   2.934  14.802 -0.2346  0.2025  0.4247
 4365SOL    HW124731   4.472   2.914  14.766 -0.8879  1.2709 -1.7538
 4365SOL    HW224732   4.392   3.028  14.782  1.7393  0.1888  0.9208
 4366SOL     OW24733   4.319   4.285   7.119  0.2890 -0.1142  0.1827
 4366SOL    HW124734   4.322   4.285   7.024 -1.8588  0.7979  0.1073
 4366SOL    HW224735   4.375   4.213   7.146  1.0761  0.8425  1.1097
 4367SOL     OW24736   3.243   0.123   2.438  0.4031  0.3665  0.2603
 4367SOL    HW124737   3.253   0.029   2.419 -0.7022  0.6981 -1.8933
 4367SOL    HW224738   3.215   0.157   2.354  1.3238 -0.4075 -0.3665
 4368SOL     OW24739   0.129   2.094  16.130 -0.4331 -0.8707 -1.1021
 4368SOL    HW124740   0.180   2.076  16.051 -1.8206 -0.6335 -2.0623
 4368SOL    HW224741   0.134   2.007  16.170 -1.0497 -0.3615  0.0676
 4369SOL     OW24742   4.034   2.990   6.764  0.0188 -0.4424 -0.2549
 4369SOL    HW124743   4.079   3.017   6.844  1.2960  0.1362 -1.1716
 4369SOL    HW224744   3.995   3.074   6.739 -2.7022 -1.3016  1.0090
 4370SOL     OW24745   1.765   3.724   1.722  0.0137  0.4166 -0.1154
 4370SOL    HW124746   1.711   3.789   1.677 -0.8847  1.4987  2.5445
 4370SOL    HW224747   1.842   3.723   1.666 -0.0123  1.4810 -0.1566
 4371SOL     OW24748   0.532   0.742   9.782 -0.6644  0.2583  0.0589
 4371SOL    HW124749   0.548   0.813   9.719 -0.9637  0.2720 -0.0020
 4371SOL    HW224750   0.480   0.782   9.852  0.4579  1.2817  0.3015
 4372SOL     OW24751   0.500   4.647   2.448 -0.2680 -0.0325 -0.0719
 4372SOL    HW124752   0.470   4.713   2.510  0.9686 -0.8147  1.3632
 4372SOL    HW224753   0.593   4.642   2.470 -0.4735  1.2826  1.1225
 4373SOL     OW24754   1.623   2.099   6.318 -0.3359 -0.2311 -0.5148
 4373SOL    HW124755   1.655   2.109   6.228  1.6705  0.3818  0.2557
 4373SOL    HW224756   1.532   2.077   6.300 -0.2055 -0.6642 -0.6465
 4374SOL     OW24757   2.413   3.847  17.741 -0.1908 -0.0643 -0.5012
 4374SOL    HW124758   2.354   3.851  17.666 -1.0694 -1.3969  0.1120
 4374SOL    HW224759   2.376   3.910   0.045  2.9878  0.2414  1.1206
 4375SOL     OW24760   1.629   3.821  13.319 -0.8517 -0.3242 -0.0265
 4375SOL    HW124761   1.712   3.776  13.337 -1.5316 -0.6208  2.4065
 4375SOL    HW224762   1.651   3.894  13.261  2.2690  1.2636  3.1420
 4376SOL     OW24763   0.804   1.705   1.330 -0.2265 -0.4880  0.5048
 4376SOL    HW124764   0.833   1.790   1.362  0.6832 -0.8226  0.5880
 4376SOL    HW224765   0.750   1.674   1.403  0.5030  0.8611  1.6341
 4377SOL     OW24766   4.205   2.175   9.018 -0.0975 -0.6322 -0.9326
 4377SOL    HW124767   4.291   2.132   9.021  0.5140  0.5218 -2.2294
 4377SOL    HW224768   4.227   2.253   9.069 -2.0958 -3.7150  4.6548
 4378SOL     OW24769   4.402   2.436   6.502  0.1275 -0.0177 -0.0171
 4378SOL    HW124770   4.445   2.520   6.519  0.0027 -0.1158  0.7859
 4378SOL    HW224771   4.411   2.422   6.408  1.5715 -0.9991  0.2539
 4379SOL     OW24772   0.782   4.263  14.761 -0.2666 -0.4307 -0.2709
 4379SOL    HW124773   0.873   4.237  14.750 -0.2318 -0.1714 -0.5882
 4379SOL    HW224774   0.764   4.294  14.672 -1.0704  0.1804  0.1071
 4380SOL     OW24775   4.095   4.222   2.530  0.3198 -0.4532 -0.0048
 4380SOL    HW124776   4.095   4.220   2.626 -0.0693  1.5305  0.0416
 4380SOL    HW224777   4.106   4.134   2.495  0.9422  0.2150 -1.4724
 4381SOL     OW24778   4.150   2.625  15.570 -0.4549 -0.7764  0.3565
 4381SOL    HW124779   4.095   2.548  15.564 -1.1233 -0.3005  0.4153
 4381SOL    HW224780   4.143   2.640  15.665  1.6024 -0.3887  0.4515
 4382SOL     OW24781   3.263   3.232  12.416  0.4026  0.2131  0.0614
 4382SOL    HW124782   3.186   3.241  12.359  0.3883 -1.1241 -0.1262
 4382SOL    HW224783   3.244   3.287  12.492 -0.1274 -0.8336  0.6785
 4383SOL     OW24784   0.905   4.737   9.326 -0.1886  0.0714  0.1016
 4383SOL    HW124785   0.941   4.661   9.279  1.1387  1.3684 -0.9929
 4383SOL    HW224786   0.851   0.030   9.255 -0.4180 -0.6928 -0.0799
 4384SOL     OW24787   4.709   3.726  12.810 -0.4405 -0.5061  0.6732
 4384SOL    HW124788   0.036   3.788  12.839  1.2386 -1.7582 -0.5640
 4384SOL    HW224789   4.663   3.701  12.890  1.3970 -0.6293  1.6832
 4385SOL     OW24790   1.879   1.877   6.242 -0.1231 -0.3127 -0.6029
 4385SOL    HW124791   1.884   1.956   6.187 -0.2467 -0.2762 -0.5627
 4385SOL    HW224792   1.875   1.925   6.326 -2.9341  0.9684 -1.4618
 4386SOL     OW24793   0.797   2.244   7.834 -0.3345 -0.2164 -0.2221
 4386SOL    HW124794   0.801   2.306   7.761 -0.7194  1.7674  1.4441
 4386SOL    HW224795   0.709   2.215   7.810 -0.9474  0.9671  0.5836
 4387SOL     OW24796   3.991   2.460   8.873  0.5841  0.3545 -0.4987
 4387SOL    HW124797   3.948   2.517   8.809  0.8477  2.4186  1.1694
 4387SOL    HW224798   4.004   2.383   8.817  2.0906 -1.2398  2.0473
 4388SOL     OW24799   0.913   1.506   4.656 -0.2070 -0.0428 -0.4370
 4388SOL    HW124800   0.937   1.443   4.588  2.4719 -0.4176  0.8911
 4388SOL    HW224801   0.852   1.454   4.709 -0.7125  0.5858 -0.3958
 4389SOL     OW24802   1.580   3.882   2.060 -0.5909  0.6616  0.2058
 4389SOL    HW124803   1.506   3.822   2.054  1.7555 -2.2665  0.3523
 4389SOL    HW224804   1.591   3.879   2.155 -0.1808 -2.3404  0.0478
 4390SOL     OW24805   2.713   1.632   6.105 -0.0589 -0.1211 -0.3736
 4390SOL    HW124806   2.714   1.646   6.200  1.4907 -1.4306 -0.2070
 4390SOL    HW224807   2.646   1.566   6.090 -0.1695 -0.1167  0.1037
 4391SOL     OW24808   4.474   1.848   9.204 -0.2488  0.4012 -0.0868
 4391SOL    HW124809   4.554   1.800   9.181 -1.1208 -1.0186 -0.1969
 4391SOL    HW224810   4.422   1.814   9.131  0.1790  0.3970 -0.3853
 4392SOL     OW24811   3.673   3.161   9.092 -0.1371  0.0725  0.1314
 4392SOL    HW124812   3.695   3.192   9.004  0.4230 -0.5774  0.0491
 4392SOL    HW224813   3.733   3.204   9.153 -2.3917  0.4937  2.0964
 4393SOL     OW24814   3.487   1.524   9.166 -0.5159 -0.2919 -0.4139
 4393SOL    HW124815   3.441   1.440   9.170  0.4884 -0.7819  0.9956
 4393SOL    HW224816   3.469   1.563   9.080  0.8305  1.1255 -0.0383
 4394SOL     OW24817   2.015   3.870   2.169  0.5378  0.1553  0.2901
 4394SOL    HW124818   1.961   3.815   2.227  0.2785  1.3874  1.2347
 4394SOL    HW224819   1.962   3.867   2.090  0.8769 -0.6017  0.0982
 4395SOL     OW24820   3.327   0.912   2.922  0.1725 -0.0698  0.1031
 4395SOL    HW124821   3.307   0.997   2.882  2.7288  0.4586 -0.0813
 4395SOL    HW224822   3.422   0.919   2.908  0.1430  0.7461  0.3291
 4396SOL     OW24823   2.703   3.405   2.281 -0.1004 -0.3088  0.2839
 4396SOL    HW124824   2.722   3.472   2.346 -1.3862  1.2434 -0.9175
 4396SOL    HW224825   2.791   3.404   2.244 -0.0614  0.2537  0.3678
 4397SOL     OW24826   0.593   2.298   6.783  0.1583 -0.5546  0.7809
 4397SOL    HW124827   0.583   2.202   6.782 -4.6689 -0.0663 -1.3255
 4397SOL    HW224828   0.649   2.310   6.706 -0.9444 -0.4675 -0.0132
 4398SOL     OW24829   2.653   1.433  15.840 -0.3538  0.1749  0.0565
 4398SOL    HW124830   2.688   1.381  15.911  0.9490  1.9185  0.7102
 4398SOL    HW224831   2.575   1.477  15.872 -0.4517  1.5468 -2.0002
 4399SOL     OW24832   0.877   0.658   5.348  0.0709  0.2331  0.1587
 4399SOL    HW124833   0.826   0.686   5.424 -1.0912 -1.2339 -0.0685
 4399SOL    HW224834   0.960   0.704   5.363  0.6618 -0.7606 -0.0945
 4400SOL     OW24835   3.734   0.143   6.325 -0.5672 -0.0341 -0.1780
 4400SOL    HW124836   3.806   0.196   6.359 -1.6801  1.0070  0.5443
 4400SOL    HW224837   3.738   0.062   6.377 -0.6969  0.9151  1.3045
 4401SOL     OW24838   0.536   0.729   4.905  0.5406 -0.2789  0.0365
 4401SOL    HW124839   0.608   0.783   4.940  1.8433 -1.9343 -0.0898
 4401SOL    HW224840   0.594   0.672   4.854  1.1734 -0.0276  0.4692
 4402SOL     OW24841   1.874   3.511   6.821 -0.1525  0.4828 -0.3925
 4402SOL    HW124842   1.806   3.446   6.807 -0.8620  1.1549 -0.0773
 4402SOL    HW224843   1.847   3.535   6.910  1.2315 -1.6912  0.6279
 4403SOL     OW24844   2.918   0.247  16.942  0.1011 -0.0434 -0.1705
 4403SOL    HW124845   2.848   0.275  16.883  0.0888  0.2636 -0.0157
 4403SOL    HW224846   2.965   0.179  16.894 -0.6858 -0.6397 -0.0845
 4404SOL     OW24847   4.349   3.436   2.853  0.1572  0.2572  0.0399
 4404SOL    HW124848   4.277   3.486   2.815 -0.6198  0.3048  1.5982
 4404SOL    HW224849   4.309   3.379   2.918 -1.2454 -1.2311 -2.1235
 4405SOL     OW24850   3.905   0.562  17.278 -0.5920 -0.2556 -0.6654
 4405SOL    HW124851   3.892   0.513  17.359  1.1809  0.5390  0.1063
 4405SOL    HW224852   3.996   0.540  17.261 -1.0852 -1.8553 -1.2327
 4406SOL     OW24853   1.950   0.073  15.705  0.6529  0.3414  0.3190
 4406SOL    HW124854   1.951   0.114  15.791 -0.6759  1.5774 -0.2501
 4406SOL    HW224855   2.041   0.080  15.676  0.1552  0.5699 -1.1810
 4407SOL     OW24856   2.472   4.399  16.093  0.0474 -0.3970  0.6406
 4407SOL    HW124857   2.398   4.439  16.139  0.2429 -0.2695  0.8487
 4407SOL    HW224858   2.502   4.471  16.037  1.7623 -1.4449  0.2220
 4408SOL     OW24859   0.228   3.669   6.650 -0.3235 -0.4673 -0.4566
 4408SOL    HW124860   0.313   3.664   6.605 -0.6467  0.9086 -1.2215
 4408SOL    HW224861   0.238   3.739   6.714  0.0482 -1.4834  0.6004
 4409SOL     OW24862   1.876   0.245   2.693 -0.4444 -1.1875 -0.6580
 4409SOL    HW124863   1.803   0.305   2.682 -1.2814 -1.5625  2.9722
 4409SOL    HW224864   1.942   0.311   2.714  0.7396 -2.9593  1.2425
 4410SOL     OW24865   2.646   2.087  10.049  0.4927 -0.3420  0.4206
 4410SOL    HW124866   2.593   2.147   9.997  0.0074 -1.4153 -0.3449
 4410SOL    HW224867   2.711   2.065   9.982 -1.1070  1.9150 -1.8704
 4411SOL     OW24868   2.615   1.877   4.020  0.1798 -0.1441 -0.3545
 4411SOL    HW124869   2.669   1.957   4.023 -0.2762  0.0822  1.5254
 4411SOL    HW224870   2.571   1.901   3.938 -0.6510  0.6147  0.3263
 4412SOL     OW24871   4.127   1.485  11.873  0.1789  0.2979 -0.0104
 4412SOL    HW124872   4.043   1.484  11.921  1.4454  2.8773  2.3278
 4412SOL    HW224873   4.188   1.484  11.947  0.1866  1.4360 -0.0008
 4413SOL     OW24874   3.917   3.439   6.994  0.2256 -0.1514  0.0286
 4413SOL    HW124875   3.960   3.427   7.079  0.6083 -0.8586 -0.2765
 4413SOL    HW224876   3.951   3.528   6.981 -0.3926  0.0309 -0.3565
 4414SOL     OW24877   0.442   0.446  11.614  0.3031 -0.3537 -0.0507
 4414SOL    HW124878   0.381   0.520  11.620  1.2184  0.3087  1.0346
 4414SOL    HW224879   0.383   0.371  11.621  1.4010 -1.2586 -0.4940
 4415SOL     OW24880   3.791   3.371   6.506 -0.6353  0.5248 -0.0337
 4415SOL    HW124881   3.810   3.419   6.587  1.1795 -0.1402 -0.0676
 4415SOL    HW224882   3.845   3.416   6.441  0.5030 -0.8657 -0.0441
 4416SOL     OW24883   0.085   2.611   3.926 -0.5248 -0.5907 -0.1714
 4416SOL    HW124884   0.017   2.671   3.896  1.3108  0.5742 -1.9653
 4416SOL    HW224885   0.072   2.533   3.873  2.0714 -0.7112 -0.6395
 4417SOL     OW24886   3.452   1.932   6.194  0.2418 -0.3290  0.1296
 4417SOL    HW124887   3.382   1.997   6.182 -1.2126 -1.5113  2.4285
 4417SOL    HW224888   3.465   1.929   6.289 -2.3354 -3.8387  0.3626
 4418SOL     OW24889   1.331   3.300   4.450  0.2417 -0.0357 -0.2316
 4418SOL    HW124890   1.403   3.249   4.412 -2.6564 -2.4703 -2.3761
 4418SOL    HW224891   1.349   3.308   4.544 -1.4160 -1.7618  0.2297
 4419SOL     OW24892   4.679   0.354   6.607 -0.0296  0.5047  0.1467
 4419SOL    HW124893   4.594   0.397   6.602 -0.0190  0.4225 -0.9166
 4419SOL    HW224894   4.712   0.391   6.688  2.3087 -1.9202  0.2960
 4420SOL     OW24895   2.196   3.530   6.387  0.1217 -0.0946  0.2116
 4420SOL    HW124896   2.179   3.548   6.295  1.3391 -1.5286 -0.3051
 4420SOL    HW224897   2.287   3.504   6.370  0.0807  1.0236 -1.7316
 4421SOL     OW24898   3.813   2.454   6.018  0.4293 -0.5844 -0.1357
 4421SOL    HW124899   3.750   2.515   5.981 -0.7055 -1.2469  0.7369
 4421SOL    HW224900   3.846   2.501   6.095  0.7657 -1.0400 -0.0016
 4422SOL     OW24901   1.908   2.948   6.122  0.1720  0.1631 -0.3956
 4422SOL    HW124902   1.944   3.026   6.080  0.7259 -0.5796 -1.3200
 4422SOL    HW224903   1.895   2.979   6.211 -0.3578 -2.8937  0.5976
 4423SOL     OW24904   0.804   2.693   3.672  0.4407  0.3651 -0.5628
 4423SOL    HW124905   0.768   2.753   3.606  0.1031  2.0558  1.1298
 4423SOL    HW224906   0.891   2.731   3.679  0.4844  0.3246 -0.9000
 4424SOL     OW24907   2.741   2.625   1.648  0.1470 -0.1557  0.2894
 4424SOL    HW124908   2.689   2.666   1.578 -1.5661  0.8695  2.1555
 4424SOL    HW224909   2.754   2.694   1.713  1.4841 -0.9237  0.8451
 4425SOL     OW24910   2.528   4.165  14.632  0.4873  0.7110 -0.0423
 4425SOL    HW124911   2.511   4.156  14.539  0.4630  2.3130 -0.1931
 4425SOL    HW224912   2.445   4.196  14.670  1.2242  3.0029 -0.2955
 4426SOL     OW24913   3.251   1.160  11.978 -0.1143  0.0307 -0.3091
 4426SOL    HW124914   3.227   1.253  11.989  1.0804  0.3661 -0.5384
 4426SOL    HW224915   3.282   1.133  12.065 -0.9846 -2.7016 -0.8641
 4427SOL     OW24916   1.467   2.153   5.932 -0.2150 -0.5321 -0.3231
 4427SOL    HW124917   1.466   2.063   5.899 -2.3920 -0.3307 -0.8050
 4427SOL    HW224918   1.553   2.148   5.974 -0.0848 -0.8306 -0.6307
 4428SOL     OW24919   0.982   0.300   5.905 -0.0819 -0.4753  0.3625
 4428SOL    HW124920   0.997   0.244   5.982  2.2951 -1.8062 -1.0545
 4428SOL    HW224921   0.915   0.252   5.857  0.2602 -0.0379 -0.5450
 4429SOL     OW24922   3.843   2.332  13.309  0.4277 -0.6095 -0.2328
 4429SOL    HW124923   3.895   2.412  13.316  2.3211 -1.7176 -1.5843
 4429SOL    HW224924   3.758   2.363  13.279  1.2937  1.8587 -0.1605
 4430SOL     OW24925   4.598   3.308   3.280 -0.5259 -0.0620  0.7679
 4430SOL    HW124926   4.559   3.225   3.253  0.5215  0.3069 -1.9413
 4430SOL    HW224927   4.639   3.336   3.198  1.2050 -0.9797  1.3220
 4431SOL     OW24928   1.461   4.478  14.591  0.3551  0.5472 -0.1243
 4431SOL    HW124929   1.539   4.464  14.645  0.1767  2.4407  0.6088
 4431SOL    HW224930   1.435   4.386  14.579 -0.0328  0.9515 -2.3845
 4432SOL     OW24931   0.020   3.030   6.175  0.6588 -0.8315  0.1303
 4432SOL    HW124932   0.052   3.013   6.087  2.1286 -0.0361  0.5155
 4432SOL    HW224933   4.668   3.029   6.150  0.9475 -0.8816 -0.9216
 4433SOL     OW24934   3.809   2.760   0.540 -0.7014  0.2033 -0.0761
 4433SOL    HW124935   3.847   2.710   0.468  0.7434  0.4935  0.4824
 4433SOL    HW224936   3.816   2.851   0.512 -1.9203  0.8685  1.7488
 4434SOL     OW24937   2.563   0.996   6.126 -0.2148  0.0042  0.1255
 4434SOL    HW124938   2.593   0.960   6.210 -0.9056  0.5084  0.5866
 4434SOL    HW224939   2.641   1.044   6.098 -0.3907  0.1448 -0.1206
 4435SOL     OW24940   4.594   2.385   7.893 -0.2997  0.3637 -0.1605
 4435SOL    HW124941   4.663   2.417   7.835 -0.2104 -0.9131 -0.7805
 4435SOL    HW224942   4.586   2.291   7.875  0.1750  0.0368  1.3410
 4436SOL     OW24943   2.775   4.732   7.269 -0.6160  0.0077 -0.0112
 4436SOL    HW124944   2.764   4.714   7.363  2.1958  1.1630  0.5444
 4436SOL    HW224945   2.692   0.034   7.246 -2.1065 -1.2932  3.0419
 4437SOL     OW24946   3.165   2.854  12.099  0.4218 -0.2928  0.0215
 4437SOL    HW124947   3.150   2.889  12.187 -1.3283 -0.6419 -0.1457
 4437SOL    HW224948   3.118   2.922  12.051 -3.2960 -1.1336  2.4406
 4438SOL     OW24949   0.528   1.866   8.565 -1.2313  0.3151 -0.7352
 4438SOL    HW124950   0.597   1.801   8.561 -1.0837  0.5891 -2.3516
 4438SOL    HW224951   0.508   1.880   8.473 -0.5632 -0.9115 -1.0638
 4439SOL     OW24952   0.797   2.145  10.350 -0.5106  0.4677  0.5084
 4439SOL    HW124953   0.818   2.124  10.441  3.2183 -0.2503 -0.5012
 4439SOL    HW224954   0.868   2.205  10.327  1.6122 -2.8217 -1.4019
 4440SOL     OW24955   2.422   2.842   8.593 -0.0283  0.6121 -0.0005
 4440SOL    HW124956   2.477   2.851   8.671  3.3523 -1.1573 -2.2038
 4440SOL    HW224957   2.372   2.766   8.623 -1.2396  1.3354 -0.1765
 4441SOL     OW24958   4.558   3.964  12.710 -0.9618  0.0525  0.0043
 4441SOL    HW124959   4.603   4.048  12.724  0.0912 -0.7435  1.4519
 4441SOL    HW224960   4.626   3.899  12.727  1.3405  3.2935  3.1393
 4442SOL     OW24961   3.274   0.223   3.269 -0.2442  0.2690 -0.0390
 4442SOL    HW124962   3.349   0.282   3.275 -0.5661  0.7465 -0.6410
 4442SOL    HW224963   3.289   0.179   3.185 -1.2029 -0.4151  0.1425
 4443SOL     OW24964   2.186   0.132   3.869  0.0294 -0.3583 -0.1061
 4443SOL    HW124965   2.111   0.177   3.829  0.9791 -1.3080 -2.9732
 4443SOL    HW224966   2.160   0.132   3.961 -1.6592  0.8016 -0.5668
 4444SOL     OW24967   0.734   4.030  17.520  0.1452 -0.0077 -0.0244
 4444SOL    HW124968   0.788   3.952  17.518 -0.1484 -0.1753 -1.1308
 4444SOL    HW224969   0.673   3.996  17.585 -0.3291 -2.5107 -1.7827
 4445SOL     OW24970   0.449   2.146  15.712  0.3126 -0.0852 -0.0631
 4445SOL    HW124971   0.485   2.230  15.683  0.6176 -0.5833 -1.1529
 4445SOL    HW224972   0.530   2.104  15.739  1.8596  2.6079 -0.4772
 4446SOL     OW24973   0.196   2.971   1.374 -0.2508 -0.0544 -0.2414
 4446SOL    HW124974   0.242   3.003   1.452  0.6652  0.0088 -0.8116
 4446SOL    HW224975   0.216   3.032   1.304 -0.2361 -1.0305 -1.0873
 4447SOL     OW24976   1.840   4.198   3.954  0.1397  0.2417  0.5557
 4447SOL    HW124977   1.746   4.185   3.959 -0.0102  1.4881  0.9906
 4447SOL    HW224978   1.867   4.213   3.864 -1.4739  0.1228  0.0599
 4448SOL     OW24979   0.571   1.757  11.266 -0.5264 -0.4599 -0.3517
 4448SOL    HW124980   0.498   1.818  11.276 -0.3452 -0.1148 -1.0948
 4448SOL    HW224981   0.548   1.695  11.335 -0.4387  0.7205  0.7495
 4449SOL     OW24982   0.371   3.631  14.614  0.1450  0.8404  0.3360
 4449SOL    HW124983   0.287   3.675  14.629  0.5662  2.3931 -1.6735
 4449SOL    HW224984   0.365   3.616  14.519 -3.2255 -0.6512  0.8046
 4450SOL     OW24985   2.997   3.752   5.074 -0.0487  0.2062 -0.7763
 4450SOL    HW124986   2.960   3.839   5.089 -0.2425  0.2108 -1.2724
 4450SOL    HW224987   2.949   3.725   4.996  1.7096 -0.1959 -1.7296
 4451SOL     OW24988   0.343   1.465  17.104  0.2677  1.1054 -0.2199
 4451SOL    HW124989   0.416   1.515  17.141  1.3984 -0.4558 -0.3398
 4451SOL    HW224990   0.271   1.527  17.114 -3.1301 -2.8451 -0.5177
 4452SOL     OW24991   4.498   1.732   6.456  0.1627  0.2668  1.0033
 4452SOL    HW124992   4.526   1.790   6.386  1.2591 -1.8113 -0.2776
 4452SOL    HW224993   4.418   1.775   6.484 -0.9134  0.2795 -2.0867
 4453SOL     OW24994   1.646   2.700   6.711 -0.1412  0.3492 -0.0240
 4453SOL    HW124995   1.606   2.752   6.641  2.4862  1.7035 -0.5268
 4453SOL    HW224996   1.740   2.696   6.690  0.5081 -0.8561  3.0801
 4454SOL     OW24997   0.774   1.970   7.595 -0.2850 -0.5931  0.1621
 4454SOL    HW124998   0.681   1.981   7.612 -0.4239 -2.3331  0.5678
 4454SOL    HW224999   0.784   1.890   7.543  0.7882 -1.2202  1.2994
 4455SOL     OW25000   2.106   3.138   8.059 -0.1095 -0.1250  0.2893
 4455SOL    HW125001   2.025   3.086   8.062  0.3660 -0.9038 -0.5083
 4455SOL    HW225002   2.100   3.192   7.980  0.2820  0.2024  0.4831
 4456SOL     OW25003   1.554   1.108   7.609 -0.4445 -0.4772  0.3500
 4456SOL    HW125004   1.614   1.102   7.534 -1.6034 -2.4092 -0.4086
 4456SOL    HW225005   1.628   1.115   7.670  0.4179 -0.4843 -0.6865
 4457SOL     OW25006   3.216   2.687  13.212  0.1039 -0.0128  0.2746
 4457SOL    HW125007   3.136   2.739  13.225 -0.3747 -1.5731  3.4036
 4457SOL    HW225008   3.176   2.615  13.162 -0.8080  1.3095 -0.9201
 4458SOL     OW25009   0.372   0.139   8.350 -0.1681 -0.3566 -0.2453
 4458SOL    HW125010   0.424   0.157   8.272 -0.2143  1.9296  0.2533
 4458SOL    HW225011   0.415   0.058   8.374 -1.3819 -0.4778  1.4916
 4459SOL     OW25012   2.516   3.177   6.374  0.5382  0.6564  0.1067
 4459SOL    HW125013   2.563   3.094   6.365 -1.5301 -0.4505 -0.5689
 4459SOL    HW225014   2.487   3.165   6.464  0.8041  1.8359  0.3483
 4460SOL     OW25015   3.205   4.002  16.183 -0.0848  0.3541 -0.0272
 4460SOL    HW125016   3.203   4.013  16.278 -3.3572 -1.4307  0.1085
 4460SOL    HW225017   3.142   4.067  16.152  0.3148  1.8911  2.3462
 4461SOL     OW25018   2.865   2.627  11.174  0.1463  0.4904 -0.4548
 4461SOL    HW125019   2.804   2.555  11.190  0.2880  0.1601 -1.4230
 4461SOL    HW225020   2.938   2.570  11.150  0.5147  1.0011 -0.5515
 4462SOL     OW25021   4.728   2.392   1.915 -0.3904  0.4071 -0.2722
 4462SOL    HW125022   0.022   2.406   2.003  1.0146  0.0968 -0.7579
 4462SOL    HW225023   4.645   2.347   1.930 -1.5628  2.0089 -1.9259
 4463SOL     OW25024   0.060   3.514   6.916  0.2157  0.4750  0.3986
 4463SOL    HW125025   0.067   3.479   6.827  1.0032 -2.3962  1.5828
 4463SOL    HW225026   0.106   3.596   6.900  2.9181 -1.4575 -1.6983
 4464SOL     OW25027   1.933   1.118   3.100 -0.3933 -0.0126 -0.0026
 4464SOL    HW125028   1.871   1.106   3.172 -0.7406 -0.7503 -0.4276
 4464SOL    HW225029   1.898   1.049   3.045  0.9392  0.4312 -1.4063
 4465SOL     OW25030   1.376   4.618   7.149  0.2727  0.1592 -0.0520
 4465SOL    HW125031   1.328   4.537   7.134  1.8082 -0.5013 -1.3340
 4465SOL    HW225032   1.454   4.595   7.200 -0.5740  1.2707  1.7436
 4466SOL     OW25033   1.836   3.828   1.965 -0.1354  0.4143  0.2444
 4466SOL    HW125034   1.828   3.810   1.871  1.6406  1.8638 -0.1868
 4466SOL    HW225035   1.750   3.861   1.989 -0.2911  0.0615  0.1641
 4467SOL     OW25036   1.833   3.880  12.354 -0.3411  0.2425 -1.2768
 4467SOL    HW125037   1.738   3.886  12.370  0.2888  3.3800  1.4380
 4467SOL    HW225038   1.867   3.827  12.426  1.0997  0.8081 -1.5594
 4468SOL     OW25039   2.371   3.726  11.464 -0.3962 -0.5700  0.5310
 4468SOL    HW125040   2.460   3.761  11.462 -1.1838  1.4674  0.1492
 4468SOL    HW225041   2.336   3.795  11.521 -1.7162 -0.4696 -0.4130
 4469SOL     OW25042   1.616   0.812  17.614 -0.2972 -0.6164 -0.3440
 4469SOL    HW125043   1.608   0.895  17.659  2.3418 -0.0246 -0.9633
 4469SOL    HW225044   1.536   0.760  17.623 -0.7014  0.5419  2.6660
 4470SOL     OW25045   2.032   2.910   1.976  0.1958  0.5881  0.1867
 4470SOL    HW125046   2.041   2.849   1.903 -2.9071 -1.0196  1.1244
 4470SOL    HW225047   2.000   2.855   2.048 -0.0017  0.6077  0.1136
 4471SOL     OW25048   2.301   2.021   2.046 -0.1176 -0.5018  0.0365
 4471SOL    HW125049   2.387   2.047   2.081  0.9580 -2.6571 -0.9957
 4471SOL    HW225050   2.307   1.926   2.043  1.8470 -0.3817  0.0505
 4472SOL     OW25051   0.697   4.305  16.145  0.1121  0.0581 -0.2439
 4472SOL    HW125052   0.716   4.274  16.057  0.5375  0.4600 -0.2926
 4472SOL    HW225053   0.703   4.399  16.134  0.5065 -0.2391 -2.5637
 4473SOL     OW25054   3.203   3.779   9.759 -0.3745  0.1487 -0.0788
 4473SOL    HW125055   3.288   3.816   9.736  0.0759 -0.3635  0.7683
 4473SOL    HW225056   3.157   3.771   9.676 -1.0378  1.3841  0.1573
 4474SOL     OW25057   3.595   3.466   9.104  0.3049  0.2845  0.3609
 4474SOL    HW125058   3.590   3.484   9.010  0.2719  0.4739  0.3997
 4474SOL    HW225059   3.596   3.370   9.108 -2.5802  0.1893 -1.1221
 4475SOL     OW25060   1.696   0.842   4.370  0.1020  0.7050  0.4720
 4475SOL    HW125061   1.780   0.875   4.339 -1.1782  1.6426 -1.9889
 4475SOL    HW225062   1.722   0.757   4.405 -2.7812 -0.8323 -1.1456
 4476SOL     OW25063   0.664   4.314  12.572  0.0214 -0.4103 -0.2842
 4476SOL    HW125064   0.716   4.285  12.647 -0.1420 -0.5167 -0.2116
 4476SOL    HW225065   0.729   4.335  12.506  0.7032 -1.4131  0.0721
 4477SOL     OW25066   2.716   2.028   9.661  0.6254 -0.0952 -0.1399
 4477SOL    HW125067   2.646   2.092   9.669 -0.4946 -1.3825  0.3543
 4477SOL    HW225068   2.690   1.978   9.584  0.6164 -1.4253  0.7260
 4478SOL     OW25069   1.243   1.820   8.439  0.4406  0.3524  0.3235
 4478SOL    HW125070   1.297   1.743   8.422  1.4057  1.3246 -1.0122
 4478SOL    HW225071   1.154   1.802   8.407  0.3816  2.2544 -0.6032
 4479SOL     OW25072   0.663   0.263  11.999 -0.0819  0.0535 -0.2818
 4479SOL    HW125073   0.669   0.178  12.043  0.4986  1.1844  1.7989
 4479SOL    HW225074   0.681   0.317  12.076 -1.2853  1.6473 -1.1185
 4480SOL     OW25075   2.221   4.137   5.064  0.7068 -0.8799 -0.1252
 4480SOL    HW125076   2.204   4.117   4.972 -1.2992  2.8335 -0.5348
 4480SOL    HW225077   2.239   4.230   5.072  1.6862 -1.0256 -0.6165
 4481SOL     OW25078   4.157   4.181   1.546 -0.1610  0.4345  0.4376
 4481SOL    HW125079   4.069   4.219   1.538 -0.2972 -0.0774 -0.5740
 4481SOL    HW225080   4.150   4.144   1.634 -1.5728 -2.7045 -0.9904
 4482SOL     OW25081   4.364   1.500   7.661 -0.0796 -0.0634 -0.2441
 4482SOL    HW125082   4.338   1.413   7.632 -0.2765  0.3917 -1.4752
 4482SOL    HW225083   4.284   1.550   7.675 -0.9170 -1.6647  0.6783
 4483SOL     OW25084   0.457   1.240   4.925 -0.2051 -0.3573  0.7770
 4483SOL    HW125085   0.369   1.213   4.898 -0.4024  1.7822 -0.7462
 4483SOL    HW225086   0.457   1.222   5.019  0.4879 -0.8462  0.6746
 4484SOL     OW25087   2.929   3.275   4.298 -0.1505  0.0197 -0.0067
 4484SOL    HW125088   2.850   3.250   4.345  0.5497 -0.4715  0.8978
 4484SOL    HW225089   2.938   3.223   4.218  0.9126 -0.5719  0.4902
 4485SOL     OW25090   2.057   2.808  15.147 -0.0727 -0.0109 -0.8044
 4485SOL    HW125091   2.029   2.827  15.237  0.2417 -2.0870 -0.2644
 4485SOL    HW225092   2.067   2.893  15.103  1.8664 -0.1773 -0.6820
 4486SOL     OW25093   2.864   1.788   9.905  0.3584  1.0663  0.2309
 4486SOL    HW125094   2.838   1.696   9.908 -2.6134  1.9077 -0.5061
 4486SOL    HW225095   2.959   1.775   9.906 -0.1423 -2.5352  1.4948
 4487SOL     OW25096   1.722   4.207   2.265  0.0052 -0.1939 -0.2814
 4487SOL    HW125097   1.721   4.300   2.289  2.0204 -0.6838  1.6628
 4487SOL    HW225098   1.809   4.171   2.279 -0.3992 -1.0363  0.1083
 4488SOL     OW25099   4.734   3.673   8.236 -0.2197 -0.3256 -0.2425
 4488SOL    HW125100   0.066   3.737   8.232  0.0467 -0.6865 -1.1810
 4488SOL    HW225101   0.019   3.623   8.313  0.3260 -0.6927 -0.6571
 4489SOL     OW25102   0.684   0.215   5.538  0.1688  0.0494  1.0585
 4489SOL    HW125103   0.640   0.131   5.546  1.4061 -0.6493  0.5460
 4489SOL    HW225104   0.685   0.238   5.445  0.7057 -0.9817  0.8111
 4490SOL     OW25105   3.666   4.216   9.512 -0.1585  0.4222 -0.2549
 4490SOL    HW125106   3.719   4.292   9.536 -0.4656  0.5626 -0.0253
 4490SOL    HW225107   3.579   4.253   9.528 -0.6236 -0.5168 -0.6306
 4491SOL     OW25108   2.968   1.263   7.095 -0.1921  0.5584 -1.1250
 4491SOL    HW125109   2.981   1.316   7.016 -0.3587  1.4297 -0.5718
 4491SOL    HW225110   3.048   1.288   7.141 -2.5941  2.0331  2.1925
 4492SOL     OW25111   4.650   1.698  17.222 -0.1711  0.3108 -0.5174
 4492SOL    HW125112   4.596   1.764  17.180 -1.4524 -1.4591 -1.6371
 4492SOL    HW225113   4.614   1.619  17.183 -1.2615  0.1087  0.9064
 4493SOL     OW25114   4.378   3.137   2.159  0.1524 -0.3217  0.3575
 4493SOL    HW125115   4.362   3.066   2.097 -1.6812 -1.2754  1.9119
 4493SOL    HW225116   4.421   3.088   2.229  0.5070 -0.0645  0.3203
 4494SOL     OW25117   4.103   3.129  17.701 -0.4568  0.3344 -0.5513
 4494SOL    HW125118   4.147   3.086   0.016 -0.4072  1.7420  0.2554
 4494SOL    HW225119   4.177   3.167  17.653 -0.1201  1.5657  0.9479
 4495SOL     OW25120   1.233   2.550   2.487 -0.2225 -0.3528 -0.3254
 4495SOL    HW125121   1.147   2.585   2.511  0.0924 -1.4763  2.4886
 4495SOL    HW225122   1.268   2.628   2.444 -0.1890 -0.5359 -0.6314
 4496SOL     OW25123   1.754   0.614   7.948 -0.2661 -0.0773 -0.4309
 4496SOL    HW125124   1.750   0.533   8.000 -1.0338  0.4336  0.2968
 4496SOL    HW225125   1.692   0.588   7.881 -0.3950  0.5285 -0.5438
 4497SOL     OW25126   2.684   3.957  12.809  0.3041  0.2704  0.1225
 4497SOL    HW125127   2.642   4.043  12.809  1.5906  0.8937 -1.1710
 4497SOL    HW225128   2.771   3.993  12.824  1.2291 -1.4742 -1.0338
 4498SOL     OW25129   0.072   2.708   6.868  0.3513  0.1528  0.3415
 4498SOL    HW125130   0.123   2.789   6.874  0.7680 -0.0248 -0.9036
 4498SOL    HW225131   0.102   2.654   6.941  0.2190  2.3134  1.9979
 4499SOL     OW25132   1.621   0.861   3.289  0.5739  0.6163  0.0073
 4499SOL    HW125133   1.615   0.781   3.237  0.8003 -0.2587  1.3038
 4499SOL    HW225134   1.527   0.874   3.294  0.5733  1.5556 -2.5538
 4500SOL     OW25135   1.742   3.025   6.714 -0.0848 -0.1811 -0.0812
 4500SOL    HW125136   1.744   2.939   6.672 -2.1720 -0.5546  0.5955
 4500SOL    HW225137   1.735   2.990   6.803  1.8920  0.0580  0.1675
 4501SOL     OW25138   1.869   2.415  12.326 -0.7101  0.4372  0.0233
 4501SOL    HW125139   1.938   2.348  12.327  0.1069  1.2896  1.1583
 4501SOL    HW225140   1.896   2.465  12.403 -1.1283 -3.2547  2.5951
 4502SOL     OW25141   2.531   1.155  16.270 -0.2479 -0.2815  0.0183
 4502SOL    HW125142   2.512   1.244  16.299  2.3532  0.8492 -1.7045
 4502SOL    HW225143   2.590   1.171  16.196  1.2290 -0.7610  1.1070
 4503SOL     OW25144   0.421   2.948  10.676  0.1478 -0.1412 -0.3252
 4503SOL    HW125145   0.516   2.946  10.677  0.1924  2.0715  0.9487
 4503SOL    HW225146   0.405   2.958  10.583 -0.7760  3.4004  0.2004
 4504SOL     OW25147   2.742   2.321   9.867 -0.1187 -0.2187  0.0013
 4504SOL    HW125148   2.802   2.247   9.870 -3.2868 -2.8127  0.2825
 4504SOL    HW225149   2.779   2.380   9.933 -1.2692  1.4106 -0.8044
 4505SOL     OW25150   4.445   4.061   7.186 -0.4371 -0.5510  0.1311
 4505SOL    HW125151   4.525   4.020   7.218  0.2011 -0.1276 -0.9482
 4505SOL    HW225152   4.375   4.004   7.220 -1.8592  0.1707 -1.6061
 4506SOL     OW25153   1.014   3.656   6.511  0.2249  0.0416  0.5182
 4506SOL    HW125154   1.068   3.719   6.559 -0.7946  1.3545 -0.0749
 4506SOL    HW225155   0.968   3.709   6.446 -0.8551  0.2203  1.4523
 4507SOL     OW25156   4.218   2.538   9.046  0.2004  0.5137 -0.6141
 4507SOL    HW125157   4.139   2.532   8.993 -0.4524 -1.1087  0.5397
 4507SOL    HW225158   4.223   2.463   9.106 -0.4430  0.4945 -0.5816
 4508SOL     OW25159   1.546   2.324   7.002  0.1820  0.0523  0.1086
 4508SOL    HW125160   1.584   2.411   7.014 -0.7741  0.4945 -0.0262
 4508SOL    HW225161   1.603   2.296   6.931  0.4438 -0.6470  0.6025
 4509SOL     OW25162   3.678   4.134   5.362  0.3312  0.0741  0.3320
 4509SOL    HW125163   3.641   4.149   5.448 -1.2228  2.8947 -0.8289
 4509SOL    HW225164   3.706   4.221   5.332  1.2131 -0.3533 -0.0945
 4510SOL     OW25165   3.016   1.536   1.791  0.4287  0.4362 -0.3684
 4510SOL    HW125166   3.037   1.528   1.698  0.4352  0.3196 -0.3578
 4510SOL    HW225167   2.961   1.614   1.797 -1.6834 -1.1373  1.1359
 4511SOL     OW25168   0.189   4.145   1.177  0.1239 -0.7662 -0.2132
 4511SOL    HW125169   0.197   4.059   1.136  1.4237  0.0247 -1.6162
 4511SOL    HW225170   0.135   4.137   1.256  1.9480 -2.6039  0.8301
 4512SOL     OW25171   1.782   1.301   2.934 -0.5159  0.1495  0.2930
 4512SOL    HW125172   1.763   1.254   2.853  1.1594 -1.0744  0.6022
 4512SOL    HW225173   1.850   1.237   2.957 -1.6526 -0.8561  0.8517
 4513SOL     OW25174   0.167   1.541   9.076 -0.1267 -0.7024  0.7656
 4513SOL    HW125175   0.225   1.497   9.138 -0.3555 -0.8141  0.8997
 4513SOL    HW225176   0.224   1.528   9.000  2.0132 -0.9616  2.4180
 4514SOL     OW25177   0.170   3.093   5.338  0.2882  0.5702 -0.4147
 4514SOL    HW125178   0.095   3.129   5.291 -0.0838 -1.1321 -1.1194
 4514SOL    HW225179   0.129   3.008   5.354  0.7370  0.7808  1.9379
 4515SOL     OW25180   3.869   1.136   8.536 -0.0974 -0.8891  0.1266
 4515SOL    HW125181   3.797   1.197   8.526  0.2720 -0.6132 -0.8794
 4515SOL    HW225182   3.837   1.058   8.491  2.1701 -0.4647 -2.2237
 4516SOL     OW25183   0.569   4.665   4.916  0.5529  0.3357 -0.4222
 4516SOL    HW125184   0.634   4.627   4.975  1.4132 -0.2227 -1.7195
 4516SOL    HW225185   0.513   4.718   4.972  2.9970  2.8259 -0.3600
 4517SOL     OW25186   3.905   3.321   2.888  0.0213  0.4852  0.1922
 4517SOL    HW125187   3.833   3.266   2.857 -1.4454  1.2414  2.2247
 4517SOL    HW225188   3.862   3.363   2.962 -1.4887 -1.5627  0.4958
 4518SOL     OW25189   3.229   3.735   3.612  0.4459  0.0804 -0.1463
 4518SOL    HW125190   3.151   3.684   3.589  0.2116 -0.2622  1.3546
 4518SOL    HW225191   3.186   3.792   3.676 -2.0541 -0.7677 -1.0752
 4519SOL     OW25192   4.550   2.020   1.619 -0.3129  0.1632  0.0850
 4519SOL    HW125193   4.499   2.088   1.576 -0.5783 -0.1253 -0.0545
 4519SOL    HW225194   4.499   2.008   1.699 -0.8261  1.9408  0.0217
 4520SOL     OW25195   1.639   4.503   7.705 -0.2149  0.2058  0.2074
 4520SOL    HW125196   1.710   4.532   7.762 -1.0527 -0.0877  1.3926
 4520SOL    HW225197   1.558   4.541   7.739 -0.1589 -0.8525  1.5554
 4521SOL     OW25198   1.454   3.733   5.550 -0.1315  0.2414  0.7206
 4521SOL    HW125199   1.409   3.695   5.625 -0.2195  0.6611  0.8803
 4521SOL    HW225200   1.473   3.824   5.572  1.4605  0.7193 -2.6134
 4522SOL     OW25201   4.244   2.590   2.202 -0.1615  0.0233 -0.4281
 4522SOL    HW125202   4.214   2.571   2.113  2.0943 -1.1412 -0.9311
 4522SOL    HW225203   4.160   2.590   2.248  0.1802 -1.8951  0.2276
 4523SOL     OW25204   0.398   0.861  10.019  0.2858  0.0883  0.5579
 4523SOL    HW125205   0.308   0.893  10.013 -0.0246 -0.8358  0.3840
 4523SOL    HW225206   0.386   0.780  10.069 -0.9752 -1.2945 -2.0044
 4524SOL     OW25207   3.041   4.157  17.712 -0.3345 -0.3399 -0.5968
 4524SOL    HW125208   3.084   4.191   0.032  1.7568 -1.4735 -1.2392
 4524SOL    HW225209   2.993   4.084  17.752 -2.4902  1.2030 -0.3651
 4525SOL     OW25210   3.085   4.717   6.789 -0.3796  0.5344  0.0148
 4525SOL    HW125211   3.029   0.035   6.840  0.1616 -0.8709  2.2202
 4525SOL    HW225212   3.153   0.033   6.751 -0.5337  0.5839 -0.1887
 4526SOL     OW25213   4.381   0.417   7.556  0.1687  0.0551 -0.2810
 4526SOL    HW125214   4.298   0.449   7.519  0.4011  0.9929  0.0225
 4526SOL    HW225215   4.446   0.470   7.510  0.6313 -0.1872  0.0950
 4527SOL     OW25216   0.093   4.031  16.397  0.2801 -0.0883  0.0436
 4527SOL    HW125217   0.120   3.939  16.395  1.5627  0.2730  0.6834
 4527SOL    HW225218   0.084   4.048  16.303  2.4666  3.4774  0.4655
 4528SOL     OW25219   3.869   3.420  12.822 -0.0669 -0.1050 -0.7021
 4528SOL    HW125220   3.921   3.417  12.741  2.3964  1.0065  0.8459
 4528SOL    HW225221   3.925   3.354  12.863  0.6835  0.8289 -0.2401
 4529SOL     OW25222   3.739   1.934   9.609  0.1168 -0.5305 -0.1751
 4529SOL    HW125223   3.680   1.980   9.549 -1.7057 -2.5572  0.0697
 4529SOL    HW225224   3.786   2.006   9.651 -1.2430  2.1199 -3.2324
 4530SOL     OW25225   4.432   1.026   0.133  0.4506  0.3148  0.0829
 4530SOL    HW125226   4.502   0.997   0.191 -0.7465 -1.7756  0.4778
 4530SOL    HW225227   4.389   1.101   0.175  0.4455 -0.6103  1.7471
 4531SOL     OW25228   1.558   3.518   9.123 -0.4492  0.4200  0.4409
 4531SOL    HW125229   1.609   3.480   9.052 -1.0102  2.2559 -0.9388
 4531SOL    HW225230   1.558   3.462   9.200 -1.3616  0.7371  0.6799
 4532SOL     OW25231   4.110   0.130  12.921  0.0279 -0.1680 -0.6317
 4532SOL    HW125232   4.199   0.164  12.907 -1.0008  2.9781  0.4682
 4532SOL    HW225233   4.065   0.211  12.942  1.5332  0.2493  1.0369
 4533SOL     OW25234   1.736   3.660   5.713  0.4381 -0.2750 -0.0147
 4533SOL    HW125235   1.828   3.634   5.707  0.6984  0.4400  0.8013
 4533SOL    HW225236   1.703   3.636   5.626 -0.1045 -1.1789  0.4360
 4534SOL     OW25237   4.211   4.245   8.911  0.2674  0.1945 -0.5079
 4534SOL    HW125238   4.249   4.292   8.985 -0.8942  1.4012 -0.6724
 4534SOL    HW225239   4.120   4.236   8.940  0.7086  1.5716  1.3030
 4535SOL     OW25240   0.852   4.558   1.546  0.4692  0.6555 -0.4109
 4535SOL    HW125241   0.805   4.545   1.629 -1.1638  0.6043 -1.3429
 4535SOL    HW225242   0.926   4.598   1.590  0.6360 -1.1425  0.9419
 4536SOL     OW25243   3.100   0.255  17.424  0.1927 -0.5043 -0.4000
 4536SOL    HW125244   3.150   0.181  17.390  3.1255  1.7087 -0.8716
 4536SOL    HW225245   3.045   0.276  17.348 -0.8459 -0.8025  0.2798
 4537SOL     OW25246   1.679   4.690   2.608 -0.0553 -0.2047  0.0123
 4537SOL    HW125247   1.643   4.716   2.693 -2.4604 -0.1499 -1.0349
 4537SOL    HW225248   1.600   4.719   2.562 -1.0253 -1.8293  0.6632
 4538SOL     OW25249   4.610   4.240  16.746  0.0011  0.3003 -0.1186
 4538SOL    HW125250   4.611   4.222  16.840 -0.7657  0.8601 -0.0012
 4538SOL    HW225251   4.596   4.150  16.718 -1.4764 -0.0170  1.6330
 4539SOL     OW25252   3.699   4.045   8.787  0.0455  0.3587 -0.5186
 4539SOL    HW125253   3.624   3.992   8.812  1.3733  0.1627  3.1584
 4539SOL    HW225254   3.679   4.126   8.835 -0.4871 -0.9842  1.5034
 4540SOL     OW25255   4.026   4.584   1.295  0.3370  0.3174  0.2275
 4540SOL    HW125256   4.064   4.498   1.315  1.3419  0.0728 -2.6647
 4540SOL    HW225257   4.081   4.606   1.219 -0.9373 -0.2884 -0.8695
 4541SOL     OW25258   0.258   0.577   6.831  1.0256 -0.4079 -0.0469
 4541SOL    HW125259   0.174   0.606   6.795  1.5759  0.5633 -0.5689
 4541SOL    HW225260   0.270   0.485   6.807  0.2548 -0.2622 -0.9962
 4542SOL     OW25261   2.718   2.278   8.194  0.1584  0.1485 -0.3896
 4542SOL    HW125262   2.625   2.259   8.192  0.2557 -0.3262 -0.4952
 4542SOL    HW225263   2.753   2.221   8.263 -2.6134 -0.8144  0.2007
 4543SOL     OW25264   4.665   3.619   7.459  0.5078 -0.5831  0.2703
 4543SOL    HW125265   4.594   3.682   7.474  0.4012 -0.4783 -0.6695
 4543SOL    HW225266   4.631   3.569   7.386  0.1972 -2.2431  1.5520
 4544SOL     OW25267   1.676   4.096   3.322 -0.1990  0.7351 -0.8302
 4544SOL    HW125268   1.666   4.018   3.376  0.7128  1.7415  0.8000
 4544SOL    HW225269   1.752   4.073   3.269  2.1224  1.7156  2.0217
 4545SOL     OW25270   4.007   2.904   7.610 -0.1101  0.5396  0.0818
 4545SOL    HW125271   3.969   2.857   7.536 -1.2215  1.1958  0.2438
 4545SOL    HW225272   4.090   2.918   7.564 -0.4172 -1.0887 -0.9780
 4546SOL     OW25273   3.166   4.689   9.029 -0.1965  0.0293 -0.1944
 4546SOL    HW125274   3.255   4.723   9.039 -0.5456  1.2227 -1.1540
 4546SOL    HW225275   3.190   4.611   8.979  0.5398 -0.8810  1.5822
 4547SOL     OW25276   4.648   1.483   6.472  0.5060  0.2565  0.3238
 4547SOL    HW125277   4.717   1.522   6.526  0.0815  0.6219  0.6070
 4547SOL    HW225278   4.593   1.557   6.447  0.2487  0.0392  0.2411
 4548SOL     OW25279   3.786   4.410   6.891  0.1699 -0.4124 -0.4349
 4548SOL    HW125280   3.731   4.336   6.917  0.6655 -0.5669  0.1462
 4548SOL    HW225281   3.857   4.403   6.954 -0.1188  0.2152 -0.0325
 4549SOL     OW25282   3.027   2.847   2.444  0.4675 -0.3453  0.3186
 4549SOL    HW125283   2.945   2.858   2.395  0.2773 -1.7878  0.3222
 4549SOL    HW225284   2.992   2.809   2.525 -0.6570  1.4217  0.6647
 4550SOL     OW25285   2.435   3.003   7.308 -0.5315  0.0249 -0.5950
 4550SOL    HW125286   2.511   3.022   7.363 -1.4926  1.0319  0.4008
 4550SOL    HW225287   2.445   2.908   7.312  2.2704  0.3959  1.0599
 4551SOL     OW25288   0.676   2.852  10.387  0.2166 -0.2313  0.3104
 4551SOL    HW125289   0.749   2.824  10.442 -0.2166  1.0607  1.5580
 4551SOL    HW225290   0.708   2.929  10.341 -0.2574 -0.0416  0.2952
 4552SOL     OW25291   0.133   3.559  17.334  0.5260 -0.6244 -0.2785
 4552SOL    HW125292   0.147   3.497  17.405 -2.8385 -1.3550 -0.2219
 4552SOL    HW225293   0.040   3.577  17.348  0.1396 -1.7632 -1.4026
 4553SOL     OW25294   1.786   3.848   8.500 -0.0426  0.0322  0.2307
 4553SOL    HW125295   1.721   3.816   8.562  2.3676 -0.3339  2.5825
 4553SOL    HW225296   1.858   3.785   8.506 -0.4601 -0.4584  0.0055
 4554SOL     OW25297   3.265   3.972   6.121 -0.4588  0.2253 -0.2229
 4554SOL    HW125298   3.174   4.000   6.114 -0.7324 -0.3622  1.0395
 4554SOL    HW225299   3.285   4.012   6.205 -0.1029  1.9942 -1.1628
 4555SOL     OW25300   3.772   0.074   0.794 -0.1113 -0.1891  0.0122
 4555SOL    HW125301   3.758   0.013   0.866  0.6974  1.8208  1.8855
 4555SOL    HW225302   3.863   0.053   0.773  0.6879  0.9103  2.3370
 4556SOL     OW25303   1.022   4.708   6.096  0.3338  0.3302  0.1349
 4556SOL    HW125304   0.963   4.700   6.171  0.3711  3.2868  0.5025
 4556SOL    HW225305   0.966   4.696   6.020 -1.5077 -1.3011  1.7696
 4557SOL     OW25306   1.933   1.093   8.817 -0.1717 -0.9055  0.1940
 4557SOL    HW125307   1.890   1.167   8.859  1.1718  1.2209 -2.1399
 4557SOL    HW225308   1.970   1.043   8.890 -0.4934 -0.1973  0.8484
 4558SOL     OW25309   4.676   0.247   7.457 -0.8165  0.2354  0.0516
 4558SOL    HW125310   4.702   0.330   7.419 -4.1712  1.4513  0.4439
 4558SOL    HW225311   4.685   0.175   7.395 -1.1220 -0.5198  0.8734
 4559SOL     OW25312   4.449   2.765   6.010  0.4673 -0.1533  0.2999
 4559SOL    HW125313   4.439   2.830   5.940  0.3895  1.1293  1.4875
 4559SOL    HW225314   4.434   2.808   6.095 -0.4752  0.2305 -0.0614
 4560SOL     OW25315   1.799   1.587   2.938  0.4239 -0.0339  0.1606
 4560SOL    HW125316   1.801   1.492   2.936  0.9883 -0.0160 -0.1784
 4560SOL    HW225317   1.712   1.600   2.975  0.3305  0.2911 -0.1698
 4561SOL     OW25318   0.370   2.181   2.123  0.1477 -0.1061 -0.0042
 4561SOL    HW125319   0.344   2.161   2.213 -0.8217 -0.8721 -0.4534
 4561SOL    HW225320   0.404   2.097   2.092  1.4048  0.1211  0.7352
 4562SOL     OW25321   4.624   1.085  16.400 -0.3093 -0.3412 -0.0453
 4562SOL    HW125322   4.602   1.174  16.372 -0.3375  0.1013  1.3744
 4562SOL    HW225323   4.536   1.053  16.420  0.1731 -0.6816  1.5814
 4563SOL     OW25324   0.802   2.752   9.172  0.8030 -0.4235 -0.0745
 4563SOL    HW125325   0.889   2.715   9.153  0.9179  0.1479 -0.6685
 4563SOL    HW225326   0.756   2.725   9.093 -0.0754  0.5025  0.1347
 4564SOL     OW25327   2.718   0.675   0.107  0.0000 -0.5488  0.3430
 4564SOL    HW125328   2.706   0.583   0.082  1.3732  0.0177 -2.3849
 4564SOL    HW225329   2.784   0.692   0.040 -2.1041  1.2577 -1.3107
 4565SOL     OW25330   4.434   4.268   8.162 -0.9632  0.0669  0.0294
 4565SOL    HW125331   4.345   4.256   8.127 -0.3520 -2.4380 -0.6343
 4565SOL    HW225332   4.426   4.237   8.252 -1.7947 -1.7860 -0.6840
 4566SOL     OW25333   2.327   1.252  10.516  0.6047 -0.4077  0.0257
 4566SOL    HW125334   2.294   1.341  10.505  0.2878 -0.4659  0.5275
 4566SOL    HW225335   2.421   1.269  10.523  0.6426 -1.6950  2.4304
 4567SOL     OW25336   1.663   3.568   4.704  0.1167 -0.2630 -0.3856
 4567SOL    HW125337   1.624   3.571   4.792 -1.5603 -3.4145 -1.0359
 4567SOL    HW225338   1.737   3.628   4.711 -1.1961  1.3057  0.2965
 4568SOL     OW25339   2.560   3.169  11.846 -0.0133  0.8120  0.0342
 4568SOL    HW125340   2.479   3.190  11.799  0.2985 -0.2832 -0.9766
 4568SOL    HW225341   2.591   3.086  11.811 -0.6979  0.2281  0.7855
 4569SOL     OW25342   2.633   2.285   2.304  0.0239  0.0812 -0.4098
 4569SOL    HW125343   2.645   2.311   2.213  0.6406 -0.7909 -0.5754
 4569SOL    HW225344   2.549   2.330   2.318  1.3502  2.4253  0.0239
 4570SOL     OW25345   2.200   3.173  16.573 -0.2055  0.0779  0.5716
 4570SOL    HW125346   2.272   3.220  16.531 -1.9491  2.5116  0.2821
 4570SOL    HW225347   2.241   3.088  16.591  3.7099  1.6363 -1.1960
 4571SOL     OW25348   2.512   4.166   3.864 -0.0157  0.0445  0.6679
 4571SOL    HW125349   2.596   4.187   3.823 -0.1543  0.8586  0.7932
 4571SOL    HW225350   2.549   4.169   3.952  1.3350  1.6904  0.0555
 4572SOL     OW25351   4.501   3.013   2.362 -0.1936 -0.0870  0.2974
 4572SOL    HW125352   4.506   2.919   2.376  0.7906 -0.0713  0.0754
 4572SOL    HW225353   4.453   3.037   2.441 -0.2824 -0.5201  0.3725
 4573SOL     OW25354   0.167   2.483   8.576  0.2263 -0.2648  0.1527
 4573SOL    HW125355   0.188   2.473   8.668 -2.6184  2.4561  1.0677
 4573SOL    HW225356   0.237   2.543   8.549  1.1777 -2.2758 -1.9603
 4574SOL     OW25357   1.095   0.164  10.600  0.2110 -0.1483 -0.3907
 4574SOL    HW125358   1.086   0.083  10.550  0.8495 -1.6349  1.9125
 4574SOL    HW225359   1.158   0.212  10.547  1.0933  1.8750  2.4711
 4575SOL     OW25360   3.098   1.692   2.906 -0.1456  0.5485 -0.1513
 4575SOL    HW125361   3.017   1.644   2.888 -2.1388  4.2707 -1.1924
 4575SOL    HW225362   3.091   1.717   2.998  0.5999  2.7465 -0.6902
 4576SOL     OW25363   2.159   0.645   5.616  0.1920 -0.3374 -0.4188
 4576SOL    HW125364   2.171   0.684   5.529  0.3174 -1.2827 -0.8266
 4576SOL    HW225365   2.251   0.650   5.642  0.1684 -0.6929 -0.2614
 4577SOL     OW25366   3.918   0.170   7.397 -0.2500 -0.2443 -0.2265
 4577SOL    HW125367   3.927   0.078   7.372 -0.2272 -0.9124  2.2965
 4577SOL    HW225368   3.846   0.189   7.336 -0.1175 -1.1558 -0.6684
 4578SOL     OW25369   1.367   3.217   5.473  0.3626  0.1667 -0.3972
 4578SOL    HW125370   1.321   3.246   5.551  1.2727  2.2731 -0.6385
 4578SOL    HW225371   1.299   3.178   5.418 -0.0418  0.4284 -0.0749
 4579SOL     OW25372   1.833   0.925   9.214 -0.1995 -0.0103  0.5796
 4579SOL    HW125373   1.809   1.017   9.226 -2.2529 -0.6067  1.0909
 4579SOL    HW225374   1.748   0.891   9.184  0.4966 -0.5039 -0.8242
 4580SOL     OW25375   0.650   0.202  17.581 -0.0995 -0.3165 -0.5124
 4580SOL    HW125376   0.653   0.137  17.651 -1.4830  1.6693  1.3994
 4580SOL    HW225377   0.686   0.149  17.510 -1.7738 -1.9004 -0.1662
 4581SOL     OW25378   3.291   0.467   1.987 -0.7827 -0.4971  0.3138
 4581SOL    HW125379   3.213   0.504   2.030 -0.1445  2.5234 -1.1011
 4581SOL    HW225380   3.316   0.549   1.944 -1.3383 -0.7553 -0.4911
 4582SOL     OW25381   1.953   3.111  12.251 -0.6964 -0.1426  0.3614
 4582SOL    HW125382   1.953   3.206  12.241 -2.0561 -0.0920  0.8475
 4582SOL    HW225383   1.864   3.081  12.272 -1.9833  2.1639 -1.8617
 4583SOL     OW25384   2.404   0.226   5.290  0.2850  0.6362  0.1698
 4583SOL    HW125385   2.490   0.184   5.298 -0.3073 -0.7906 -1.0956
 4583SOL    HW225386   2.425   0.282   5.215 -0.8049  0.4188 -0.2809
 4584SOL     OW25387   3.734   4.701  15.147 -0.6595 -0.3226  0.1997
 4584SOL    HW125388   3.771   4.706  15.235  1.8659  0.6532 -0.9231
 4584SOL    HW225389   3.656   4.646  15.157 -0.1020 -1.6812 -2.7226
 4585SOL     OW25390   0.815   3.824  14.524 -0.1874 -0.7512  0.3818
 4585SOL    HW125391   0.843   3.864  14.607  0.3493  3.1299 -1.6618
 4585SOL    HW225392   0.900   3.786  14.501  1.0295  0.1859  3.2838
 4586SOL     OW25393   2.081   3.938  14.610  0.5048  0.1165 -0.2275
 4586SOL    HW125394   2.173   3.914  14.597  0.4174 -0.5352  0.3557
 4586SOL    HW225395   2.070   3.994  14.534  0.3394 -1.7376 -1.5779
 4587SOL     OW25396   3.251   3.460   7.868 -0.5497  0.1476  0.4044
 4587SOL    HW125397   3.194   3.534   7.889 -1.3579 -0.4087  0.1871
 4587SOL    HW225398   3.203   3.422   7.794  1.2506 -1.6947  0.1671
 4588SOL     OW25399   1.724   0.275   4.982  0.1240  0.8032 -0.4009
 4588SOL    HW125400   1.723   0.246   5.073 -1.7230  0.0008 -0.6577
 4588SOL    HW225401   1.648   0.334   4.982 -0.7321 -0.3024  1.7214
 4589SOL     OW25402   2.383   4.032   5.234  0.0973 -0.2321  0.2669
 4589SOL    HW125403   2.368   3.944   5.199  1.2616 -0.0524 -0.6928
 4589SOL    HW225404   2.327   4.077   5.171  1.4314 -1.4833 -1.8390
 4590SOL     OW25405   3.428   0.121   6.308 -0.3742  0.5906 -0.3004
 4590SOL    HW125406   3.522   0.126   6.290 -0.5445  1.9114 -0.8757
 4590SOL    HW225407   3.429   0.053   6.374 -0.2741  1.1958  0.3157
 4591SOL     OW25408   4.027   3.323   7.631  0.5398  0.3442 -0.1911
 4591SOL    HW125409   3.961   3.293   7.569  0.7060  0.0958 -0.2450
 4591SOL    HW225410   4.110   3.313   7.585  1.0338  1.1997  0.5071
 4592SOL     OW25411   3.127   3.201   1.541  0.4562 -0.6906 -0.2669
 4592SOL    HW125412   3.125   3.130   1.605 -2.0619 -0.0452  0.4016
 4592SOL    HW225413   3.123   3.275   1.602 -0.2511 -0.8927 -0.0652
 4593SOL     OW25414   1.804   4.636   4.683  0.7084  0.5991 -0.2119
 4593SOL    HW125415   1.818   4.555   4.732  1.2158  0.1166 -1.1694
 4593SOL    HW225416   1.752   4.679   4.751  1.1803  1.0307 -0.1207
 4594SOL     OW25417   1.390   0.903  12.057  0.0311 -0.5469  0.0151
 4594SOL    HW125418   1.463   0.936  12.109  0.4585  0.9054 -1.5015
 4594SOL    HW225419   1.364   0.830  12.113 -0.5098 -0.0172  0.4503
 4595SOL     OW25420   1.701   1.074   6.408 -0.6434  0.6379 -0.9678
 4595SOL    HW125421   1.779   1.130   6.399  1.8175 -2.3713  1.8821
 4595SOL    HW225422   1.734   0.985   6.397 -0.6256  0.4359  0.8700
 4596SOL     OW25423   0.046   3.800   9.036  0.0543  0.1287 -0.3558
 4596SOL    HW125424   0.023   3.807   8.943  0.3061 -2.9684 -0.6491
 4596SOL    HW225425   0.131   3.761   9.017  0.0576  0.0046 -0.0812
 4597SOL     OW25426   1.477   1.719   8.178  0.0646 -0.0239 -0.0462
 4597SOL    HW125427   1.446   1.809   8.185 -1.7625 -0.7866  1.7471
 4597SOL    HW225428   1.513   1.703   8.265  3.2408  0.8914 -1.1848
 4598SOL     OW25429   4.354   4.605  12.893  0.0390 -0.5684 -0.5848
 4598SOL    HW125430   4.298   4.548  12.839 -0.6328  1.7335 -2.3001
 4598SOL    HW225431   4.364   4.556  12.974 -1.2604 -3.0496 -1.8951
 4599SOL     OW25432   3.334   0.666   3.086  0.2050  0.5454  0.2483
 4599SOL    HW125433   3.332   0.721   3.164 -0.0328  0.9281 -0.0275
 4599SOL    HW225434   3.329   0.732   3.017  2.5456  0.1941 -0.2835
 4600SOL     OW25435   2.918   1.472   4.784 -0.6053 -0.7239 -0.2232
 4600SOL    HW125436   2.976   1.507   4.717  0.6715  0.0819  1.3119
 4600SOL    HW225437   2.981   1.460   4.855 -0.7013  1.1163  0.1751
 4601SOL     OW25438   4.153   1.387  15.875  0.1282  0.1663  0.2380
 4601SOL    HW125439   4.090   1.372  15.804 -0.7330 -0.8167  1.1974
 4601SOL    HW225440   4.208   1.309  15.871 -0.4414 -0.2152 -0.2522
 4602SOL     OW25441   0.635   3.181   6.775  0.6228  0.9880  0.5850
 4602SOL    HW125442   0.673   3.243   6.713 -1.1493  0.1633 -1.2974
 4602SOL    HW225443   0.555   3.228   6.802 -0.0010 -0.3877  1.1213
 4603SOL     OW25444   1.597   2.516   3.099  0.6032  0.0351  0.3070
 4603SOL    HW125445   1.644   2.450   3.047 -1.3837 -1.4165  0.3367
 4603SOL    HW225446   1.532   2.463   3.145 -1.2395 -0.1796 -2.5306
 4604SOL     OW25447   1.394   4.624  15.167  0.5117 -0.2790  0.5590
 4604SOL    HW125448   1.306   4.588  15.168 -0.4359  1.9996  1.7023
 4604SOL    HW225449   1.396   4.655  15.258  1.5577  0.9220  0.1420
 4605SOL     OW25450   2.416   0.286   3.858  0.6086  0.0446  0.0746
 4605SOL    HW125451   2.350   0.218   3.873 -0.4771  0.4017 -3.0740
 4605SOL    HW225452   2.464   0.243   3.787  1.8371 -0.5255  1.2383
 4606SOL     OW25453   1.379   3.573   9.683  0.0230 -0.2371 -0.7232
 4606SOL    HW125454   1.300   3.570   9.629 -1.5044 -0.9077  1.5268
 4606SOL    HW225455   1.400   3.666   9.673  0.2547 -0.0394  1.5036
 4607SOL     OW25456   0.322   2.157  14.515 -0.1304  0.2779  0.1473
 4607SOL    HW125457   0.360   2.145  14.428  1.0290  1.8649  0.4413
 4607SOL    HW225458   0.383   2.221  14.551  1.0316  0.2950 -1.8710
 4608SOL     OW25459   3.496   0.301   2.515 -0.4753 -0.2844  0.2769
 4608SOL    HW125460   3.407   0.270   2.531 -0.6500  0.0587 -0.0236
 4608SOL    HW225461   3.549   0.234   2.558 -0.9062  0.0932  1.3824
 4609SOL     OW25462   2.098   0.789   3.147  0.4362 -0.0066 -0.6915
 4609SOL    HW125463   2.161   0.851   3.183 -0.6355 -0.3639  1.7957
 4609SOL    HW225464   2.074   0.821   3.060 -1.4571 -0.1323 -0.1985
 4610SOL     OW25465   2.490   2.731   4.547  0.2065  0.2654 -0.1198
 4610SOL    HW125466   2.493   2.680   4.466 -1.8422  1.0489 -0.6876
 4610SOL    HW225467   2.415   2.693   4.593  1.6859  1.0766  2.9120
 4611SOL     OW25468   2.333   3.341   2.699  0.0542 -0.2018  1.0984
 4611SOL    HW125469   2.249   3.302   2.723 -0.7110  0.7696  0.0185
 4611SOL    HW225470   2.401   3.305   2.755 -1.4466 -0.7791  2.5266
 4612SOL     OW25471   3.278   0.921   9.834 -0.2753 -0.3289  0.6286
 4612SOL    HW125472   3.248   0.945   9.921 -1.0985  0.4682  0.1252
 4612SOL    HW225473   3.254   1.000   9.785 -0.3845 -1.0612 -0.4953
 4613SOL     OW25474   0.552   1.178   5.749 -0.2479 -0.1959  0.5504
 4613SOL    HW125475   0.646   1.177   5.764  0.0974 -0.7456 -1.5359
 4613SOL    HW225476   0.555   1.255   5.693 -0.9793 -0.5017  0.0865
 4614SOL     OW25477   2.844   0.709   2.992 -0.6025  0.0378 -0.6324
 4614SOL    HW125478   2.859   0.620   2.959 -1.0717 -0.2999  0.0593
 4614SOL    HW225479   2.851   0.755   2.908  1.6874 -0.0023 -0.4704
 4615SOL     OW25480   4.570   2.657   9.714  0.3531  0.1022  0.0725
 4615SOL    HW125481   4.542   2.634   9.626 -0.8705  0.3427  0.3994
 4615SOL    HW225482   4.493   2.630   9.764 -0.3740  0.4543 -0.8588
 4616SOL     OW25483   1.043   3.547   7.642  0.0694  0.3712 -0.3557
 4616SOL    HW125484   1.124   3.571   7.688  0.7063 -0.8912 -0.8218
 4616SOL    HW225485   1.033   3.614   7.574 -0.4788  1.1238  0.4598
 4617SOL     OW25486   2.007   0.230   8.906  0.3136 -0.4654 -0.4012
 4617SOL    HW125487   1.933   0.249   8.849 -0.0819 -1.2798 -0.1567
 4617SOL    HW225488   1.994   0.298   8.973 -2.3236 -1.1524 -0.2383
 4618SOL     OW25489   1.382   2.358   4.602 -0.5909 -0.2173 -0.4813
 4618SOL    HW125490   1.300   2.390   4.566 -0.5918 -0.1705 -0.4369
 4618SOL    HW225491   1.434   2.437   4.588 -0.7530 -0.0918 -0.3486
 4619SOL     OW25492   0.848   0.120   6.972 -0.0191 -0.3366  0.1569
 4619SOL    HW125493   0.815   0.203   6.938  0.1418 -0.0000  0.8079
 4619SOL    HW225494   0.832   0.129   7.066  2.1147  0.0429  0.4907
 4620SOL     OW25495   1.489   2.288   2.363  0.4123  0.2007  0.7966
 4620SOL    HW125496   1.467   2.365   2.415 -1.1819 -0.1026  0.5904
 4620SOL    HW225497   1.520   2.327   2.281  1.7216  0.2300  1.3123
 4621SOL     OW25498   1.138   0.873   8.784  0.4066  0.6982  0.4708
 4621SOL    HW125499   1.084   0.801   8.752 -0.2536  1.1989  0.4627
 4621SOL    HW225500   1.114   0.938   8.718 -1.2496  1.2996  1.6562
 4622SOL     OW25501   0.276   3.875  16.828 -0.0642  0.5573  0.2751
 4622SOL    HW125502   0.227   3.851  16.750  0.7172  1.3381 -0.4542
 4622SOL    HW225503   0.245   3.962  16.852  1.4062  0.8215  1.2880
 4623SOL     OW25504   2.974   1.161   3.081 -0.3211  0.4802 -0.5490
 4623SOL    HW125505   2.967   1.242   3.131 -3.2942 -0.0426 -0.1435
 4623SOL    HW225506   2.905   1.177   3.017 -0.8952 -0.2335 -0.1158
 4624SOL     OW25507   2.619   1.016   0.710 -0.0866  0.4235 -0.3021
 4624SOL    HW125508   2.531   1.005   0.673 -0.1365  1.8217 -0.5739
 4624SOL    HW225509   2.677   1.013   0.634 -0.2228 -0.2024 -0.3827
 4625SOL     OW25510   0.863   0.358   9.180 -0.5560 -0.0024 -0.6336
 4625SOL    HW125511   0.941   0.323   9.222 -1.2836 -0.9166 -0.0461
 4625SOL    HW225512   0.791   0.351   9.243 -2.6902 -0.5274 -3.1146
 4626SOL     OW25513   2.126   0.205   8.647 -0.3484  0.4064 -0.0478
 4626SOL    HW125514   2.054   0.229   8.589 -0.7259  0.3659  0.4030
 4626SOL    HW225515   2.088   0.208   8.735 -0.5395 -0.1965 -0.1123
 4627SOL     OW25516   3.669   1.470  14.296 -0.0645  0.4686  0.0346
 4627SOL    HW125517   3.618   1.514  14.364 -1.3327  0.0670 -0.6477
 4627SOL    HW225518   3.725   1.412  14.347 -1.9186 -1.2278  0.1599
 4628SOL     OW25519   1.133   4.381   2.916  0.1886 -0.1354  0.1217
 4628SOL    HW125520   1.122   4.306   2.975  1.7960 -0.0289  0.5825
 4628SOL    HW225521   1.182   4.338   2.846  2.0462  0.3401  1.1035
 4629SOL     OW25522   1.835   3.460   4.328  0.5779 -0.3146  0.5132
 4629SOL    HW125523   1.756   3.423   4.289  0.0481  0.3410  0.9770
 4629SOL    HW225524   1.875   3.382   4.366  1.6712 -0.1077 -0.2192
 4630SOL     OW25525   0.574   1.940   8.283  0.3460  0.0386 -0.2500
 4630SOL    HW125526   0.559   1.849   8.258 -0.1714 -0.2211  1.0243
 4630SOL    HW225527   0.630   1.978   8.215  2.7639 -1.0132  1.2008
 4631SOL     OW25528   3.623   2.157   1.905  0.2975 -0.1133  1.3623
 4631SOL    HW125529   3.534   2.170   1.938  0.5798 -0.5182  2.2691
 4631SOL    HW225530   3.629   2.070   1.945 -0.9243 -0.8893 -0.1263
 4632SOL     OW25531   2.081   2.756  16.676 -0.0698 -0.2528 -0.3798
 4632SOL    HW125532   2.054   2.769  16.767  0.7604 -1.0439 -0.0110
 4632SOL    HW225533   2.006   2.706  16.645  0.2357  1.5234 -3.8857
 4633SOL     OW25534   3.166   0.492  16.354  0.3969 -0.0123 -0.2188
 4633SOL    HW125535   3.240   0.545  16.385  0.9151 -0.5890 -0.4599
 4633SOL    HW225536   3.166   0.500  16.259  0.4582  2.4228 -0.0173
 4634SOL     OW25537   4.234   2.101   2.398  0.3745 -0.2445  0.0881
 4634SOL    HW125538   4.169   2.168   2.418  2.4016  1.5886  0.4986
 4634SOL    HW225539   4.179   2.029   2.367 -0.5886  0.1257  0.9546
 4635SOL     OW25540   3.338   3.723  15.823  0.1707  0.4883 -0.4172
 4635SOL    HW125541   3.325   3.757  15.912 -2.5295 -0.5322 -0.4083
 4635SOL    HW225542   3.421   3.762  15.798 -0.0245 -0.9525 -3.3401
 4636SOL     OW25543   4.644   0.688   5.765 -0.0881 -0.1478 -0.3252
 4636SOL    HW125544   4.603   0.761   5.813 -1.7045 -0.6420 -0.9527
 4636SOL    HW225545   4.579   0.675   5.696 -1.4513  3.9000  0.2237
 4637SOL     OW25546   2.088   3.210   7.088 -0.4092  0.4500 -0.0080
 4637SOL    HW125547   2.182   3.196   7.083 -0.3479  0.8448  0.0603
 4637SOL    HW225548   2.064   3.202   6.995 -1.2979 -2.9934  0.5324
 4638SOL     OW25549   3.606   4.034   7.772  0.3740 -0.4371  0.0200
 4638SOL    HW125550   3.617   4.106   7.833 -0.0544 -0.4958  0.1656
 4638SOL    HW225551   3.521   3.993   7.786  0.8260 -1.6951 -0.8851
 4639SOL     OW25552   1.429   2.175   7.914  0.5122  0.7185  0.4011
 4639SOL    HW125553   1.397   2.251   7.865  0.3337  0.8658  0.7469
 4639SOL    HW225554   1.355   2.142   7.965 -0.1481  1.3078 -0.1770
 4640SOL     OW25555   3.360   0.936   4.979 -0.3829 -0.1233  0.2712
 4640SOL    HW125556   3.436   0.986   5.009 -1.4061  0.1153  2.4909
 4640SOL    HW225557   3.367   0.925   4.885  0.4663  1.8769  0.0991
 4641SOL     OW25558   0.739   1.009   1.831  0.1009  0.3537 -0.0539
 4641SOL    HW125559   0.762   1.098   1.855  1.5282  0.3824 -1.5471
 4641SOL    HW225560   0.747   1.023   1.736 -0.5769  2.5434  0.2174
 4642SOL     OW25561   1.387   1.946  10.422 -0.1313 -0.1561 -0.1019
 4642SOL    HW125562   1.448   1.924  10.491  0.7550  0.6908 -0.6098
 4642SOL    HW225563   1.378   2.041  10.431  2.2570  0.0280  0.2469
 4643SOL     OW25564   0.540   1.758  13.822  0.0182  0.2748  0.3398
 4643SOL    HW125565   0.603   1.764  13.894 -0.6835  0.8534  0.8942
 4643SOL    HW225566   0.613   1.748  13.760  1.1374  0.6472  1.5918
 4644SOL     OW25567   1.728   2.709   7.530 -0.3038 -0.4467 -0.1806
 4644SOL    HW125568   1.710   2.798   7.499  1.9274  0.1755  0.3365
 4644SOL    HW225569   1.649   2.690   7.580 -1.5217  1.0223 -1.5500
 4645SOL     OW25570   3.217   3.739   7.569 -0.5123  0.0146 -0.1134
 4645SOL    HW125571   3.126   3.723   7.591 -0.8255 -0.3520 -1.7354
 4645SOL    HW225572   3.210   3.780   7.483 -0.1699  0.8849  0.2677
 4646SOL     OW25573   3.460   1.741   7.894 -0.7354 -0.0020 -0.2718
 4646SOL    HW125574   3.505   1.804   7.951  2.1683 -2.3988  0.0978
 4646SOL    HW225575   3.371   1.756   7.925 -0.9870  1.6705 -1.7591
 4647SOL     OW25576   4.174   0.623   5.307 -0.0759 -0.1940 -0.5869
 4647SOL    HW125577   4.115   0.567   5.357  1.3935 -0.1019  1.2426
 4647SOL    HW225578   4.218   0.560   5.249 -2.2634 -0.5995 -1.7864
 4648SOL     OW25579   0.932   0.382   3.314  0.1813  0.3146 -0.5129
 4648SOL    HW125580   0.997   0.380   3.244 -0.2093 -1.2060 -0.8399
 4648SOL    HW225581   0.863   0.329   3.274 -0.1363 -0.0213  0.4743
 4649SOL     OW25582   2.509   1.105   6.954 -0.1443 -0.4009 -0.8494
 4649SOL    HW125583   2.542   1.150   7.032  0.1406 -0.8343 -0.7193
 4649SOL    HW225584   2.520   1.177   6.893  2.9901 -0.3433 -0.2350
 4650SOL     OW25585   1.683   1.175   7.117  0.4657  0.1120 -0.0111
 4650SOL    HW125586   1.634   1.204   7.040 -0.0747 -2.1573 -0.5235
 4650SOL    HW225587   1.712   1.088   7.088  0.6889 -0.4391  1.8886
 4651SOL     OW25588   2.054   0.893   6.642  0.3510  0.3575  0.1520
 4651SOL    HW125589   2.099   0.818   6.680  1.4895  1.2470  0.5492
 4651SOL    HW225590   2.007   0.922   6.721  1.4305  0.0779  0.8933
 4652SOL     OW25591   0.038   2.149   8.803 -0.2118 -0.2471 -0.3946
 4652SOL    HW125592   0.034   2.075   8.863 -1.1964 -0.7439 -1.0775
 4652SOL    HW225593   4.689   2.181   8.790  0.2181  0.0224 -2.7387
 4653SOL     OW25594   0.248   3.162  11.732  0.2070 -0.7594 -0.2439
 4653SOL    HW125595   0.161   3.141  11.699  0.5395 -0.1492 -1.4754
 4653SOL    HW225596   0.256   3.255  11.712  0.1568 -0.7921 -0.4126
 4654SOL     OW25597   3.534   3.666   7.888  0.0533 -0.0898  1.0357
 4654SOL    HW125598   3.472   3.638   7.820  0.6112  1.6223 -0.1714
 4654SOL    HW225599   3.472   3.662   7.961 -2.9513  1.5114 -1.3789
 4655SOL     OW25600   0.630   0.899  15.457  0.5722  0.6236  0.0652
 4655SOL    HW125601   0.537   0.881  15.440 -0.3528  1.4946  4.2248
 4655SOL    HW225602   0.630   0.991  15.485 -1.3200  0.2415  1.3219
 4656SOL     OW25603   1.698   3.418   8.911  0.1268  0.1959  0.0381
 4656SOL    HW125604   1.783   3.460   8.922 -0.5460  1.6044 -0.1919
 4656SOL    HW225605   1.730   3.328   8.901  0.7437  0.6157 -1.8878
 4657SOL     OW25606   0.529   4.634   5.381 -0.1611  0.0285 -0.4890
 4657SOL    HW125607   0.606   4.679   5.348 -0.3247  0.9564  0.4155
 4657SOL    HW225608   0.569   4.547   5.384  1.0136  0.6728  2.0386
 4658SOL     OW25609   2.595   1.701   3.038  0.3189 -0.2554 -0.2983
 4658SOL    HW125610   2.651   1.654   3.100  0.4601 -0.3517 -0.4997
 4658SOL    HW225611   2.662   1.741   2.982  0.6031 -1.4975 -0.8357
 4659SOL     OW25612   0.789   1.016   3.607 -0.1812 -0.8369 -0.1728
 4659SOL    HW125613   0.768   0.923   3.608 -2.0794 -0.4066  0.0947
 4659SOL    HW225614   0.838   1.022   3.525  1.0061  0.8543  0.6598
 4660SOL     OW25615   2.469   1.522  13.765 -0.0780  0.1625 -0.4216
 4660SOL    HW125616   2.539   1.586  13.770 -1.2342  1.5995 -2.4538
 4660SOL    HW225617   2.517   1.448  13.728 -2.2238 -0.3384 -2.2220
 4661SOL     OW25618   1.974   1.643  13.693  0.4441  0.4753  0.1670
 4661SOL    HW125619   2.045   1.643  13.628  0.0984 -3.5245 -0.2157
 4661SOL    HW225620   1.995   1.726  13.735  1.0142  0.6449 -0.4598
 4662SOL     OW25621   0.087   0.314   5.150 -0.1662 -0.0422  0.8933
 4662SOL    HW125622   0.132   0.397   5.165  1.0343 -0.2689 -1.4194
 4662SOL    HW225623   4.734   0.338   5.151 -0.2015 -0.1567 -0.4063
 4663SOL     OW25624   1.805   1.269  12.267  0.1641  0.0655 -0.2072
 4663SOL    HW125625   1.773   1.237  12.352  2.0449  2.5096  1.4204
 4663SOL    HW225626   1.828   1.186  12.226 -0.1970 -0.0716 -0.1394
 4664SOL     OW25627   3.211   1.597   8.580  0.0124 -0.1971  0.2805
 4664SOL    HW125628   3.158   1.543   8.639 -1.6761  1.5143  0.3174
 4664SOL    HW225629   3.148   1.618   8.512  0.9725 -2.9151 -1.4473
 4665SOL     OW25630   0.510   1.382  12.676 -0.1102  0.3662 -0.6373
 4665SOL    HW125631   0.419   1.369  12.701 -0.3337  1.2562 -0.9771
 4665SOL    HW225632   0.514   1.316  12.607 -1.6564 -0.0697 -0.3111
 4666SOL     OW25633   1.330   0.648  16.843 -0.0000  0.2906 -0.0636
 4666SOL    HW125634   1.392   0.627  16.773 -0.4500  0.7125 -0.5917
 4666SOL    HW225635   1.298   0.734  16.817  0.2574  0.1632 -0.8060
 4667SOL     OW25636   0.286   0.607  16.618  0.2671  0.5092 -0.1852
 4667SOL    HW125637   0.200   0.610  16.575 -0.8413 -0.8918  1.9414
 4667SOL    HW225638   0.290   0.703  16.616  2.2438  0.4345  0.0036
 4668SOL     OW25639   0.069   3.557   6.227 -0.3286  0.3815  0.5473
 4668SOL    HW125640   0.105   3.644   6.243 -0.3853  0.9107 -2.3436
 4668SOL    HW225641   4.717   3.581   6.222 -0.1265  0.6206 -2.0621
 4669SOL     OW25642   2.697   3.158  17.431  0.3083  0.4608  0.4604
 4669SOL    HW125643   2.659   3.109  17.358  0.0996  0.6660  0.4307
 4669SOL    HW225644   2.739   3.085  17.475  0.5665 -0.7899 -1.8464
 4670SOL     OW25645   3.280   2.557   8.642  0.4333  0.7377 -0.3309
 4670SOL    HW125646   3.276   2.624   8.710 -3.5928 -1.5014  1.5973
 4670SOL    HW225647   3.353   2.589   8.588  0.5497  2.8968  1.1121
 4671SOL     OW25648   1.093   3.820   9.094  0.4411 -0.1150 -0.2290
 4671SOL    HW125649   1.034   3.867   9.036  1.4402 -0.1356 -1.2736
 4671SOL    HW225650   1.165   3.881   9.109 -0.8474  0.5294  3.2456
 4672SOL     OW25651   0.065   3.966   4.400  0.0559 -0.3079  0.5767
 4672SOL    HW125652   4.730   3.916   4.369  1.5736 -1.6272 -1.0046
 4672SOL    HW225653   0.059   3.961   4.495 -1.1377  0.1651  0.5188
 4673SOL     OW25654   3.245   2.082   6.145 -0.3801  0.3816  0.6682
 4673SOL    HW125655   3.253   2.152   6.209 -0.1087  1.1716 -0.2375
 4673SOL    HW225656   3.173   2.028   6.179  1.9384 -2.3193  1.2949
 4674SOL     OW25657   3.193   1.458   1.093  0.1599  0.4687 -0.1586
 4674SOL    HW125658   3.126   1.505   1.143 -0.8721 -2.6828  1.4406
 4674SOL    HW225659   3.163   1.367   1.102  0.1518  0.4463 -0.4247
 4675SOL     OW25660   0.524   3.756   5.408  0.0279 -0.1850 -0.1858
 4675SOL    HW125661   0.538   3.721   5.320 -0.2233 -0.0336 -0.2885
 4675SOL    HW225662   0.534   3.678   5.463 -0.1108  0.7405  1.1565
 4676SOL     OW25663   1.905   4.599   7.836 -0.1794 -0.6049  0.1527
 4676SOL    HW125664   1.975   4.546   7.798 -0.5784 -2.1513  1.5650
 4676SOL    HW225665   1.918   4.595   7.931 -2.0948  0.7696  0.4718
 4677SOL     OW25666   0.558   2.101  12.070 -0.2768 -0.5933 -0.4846
 4677SOL    HW125667   0.650   2.127  12.071 -0.7213  0.9949 -0.6014
 4677SOL    HW225668   0.568   2.024  12.015 -0.0155 -1.3493  0.6250
 4678SOL     OW25669   0.444   2.475   5.888  0.0180  0.3362 -0.3801
 4678SOL    HW125670   0.443   2.482   5.984  0.0190  0.5634 -0.3955
 4678SOL    HW225671   0.506   2.547   5.871  1.9082 -0.8740  1.4347
 4679SOL     OW25672   0.910   3.459   2.920  0.0524 -0.1661  0.1200
 4679SOL    HW125673   0.922   3.547   2.957  0.5607 -0.1316 -0.1205
 4679SOL    HW225674   0.905   3.478   2.826 -1.3496 -3.9580 -0.5702
 4680SOL     OW25675   4.079   2.197   6.362  0.0649 -0.4304 -0.4260
 4680SOL    HW125676   4.081   2.289   6.336 -1.5264  0.0820  1.2329
 4680SOL    HW225677   4.060   2.199   6.456 -1.7676  0.2703 -0.8123
 4681SOL     OW25678   1.592   4.472  10.129 -0.4275 -0.1195 -0.6056
 4681SOL    HW125679   1.505   4.453  10.093 -0.3807  1.1864 -1.4070
 4681SOL    HW225680   1.574   4.484  10.222  1.5330 -1.5471 -0.0342
 4682SOL     OW25681   2.941   3.376   8.446  0.2603 -0.0588  1.1024
 4682SOL    HW125682   2.958   3.333   8.363 -0.5947  0.5812  0.5992
 4682SOL    HW225683   2.978   3.317   8.512  2.2861  0.6394  0.6164
 4683SOL     OW25684   1.173   3.049   8.405 -0.2553  0.2376 -0.4051
 4683SOL    HW125685   1.094   3.043   8.351 -0.6125  0.7528  0.0573
 4683SOL    HW225686   1.127   3.087   8.480  1.8540 -1.5557  1.7981
 4684SOL     OW25687   1.705   3.893  10.393  0.0344 -0.3102  0.3921
 4684SOL    HW125688   1.636   3.838  10.428  0.0451 -0.5440  0.0454
 4684SOL    HW225689   1.755   3.840  10.331  1.0201  2.0025 -0.8089
 4685SOL     OW25690   0.930   0.107   0.953 -0.3601 -0.3282  0.2903
 4685SOL    HW125691   0.852   0.164   0.955  0.1178  0.3082  0.9919
 4685SOL    HW225692   0.999   0.147   0.901 -0.9100  1.4390  0.8925
 4686SOL     OW25693   1.773   0.633   0.562  0.3541  0.5845  0.0512
 4686SOL    HW125694   1.844   0.593   0.512 -0.1238  1.5980 -1.4251
 4686SOL    HW225695   1.724   0.667   0.487 -0.7239  1.5732  1.2111
 4687SOL     OW25696   3.797   2.524   7.198 -0.2543  0.1435  0.6033
 4687SOL    HW125697   3.774   2.441   7.156 -0.8226  0.9362 -0.6732
 4687SOL    HW225698   3.839   2.486   7.275  1.8770  0.4518 -0.3871
 4688SOL     OW25699   3.226   0.277   3.952 -0.6867 -0.9262  0.0406
 4688SOL    HW125700   3.246   0.320   3.869 -0.5570 -1.8500 -0.3997
 4688SOL    HW225701   3.189   0.193   3.927  0.2973 -1.5770  0.7600
 4689SOL     OW25702   2.523   4.361   8.472 -0.4795  0.2406  0.4464
 4689SOL    HW125703   2.538   4.290   8.409  2.8526  1.2901  0.0181
 4689SOL    HW225704   2.610   4.347   8.511 -0.2734  1.6066  0.4687
 4690SOL     OW25705   2.836   0.696   3.940  0.3974 -0.1473 -0.0832
 4690SOL    HW125706   2.856   0.788   3.958  0.5608 -0.2475  0.2417
 4690SOL    HW225707   2.921   0.658   3.958  1.1108  1.8497  0.7270
 4691SOL     OW25708   3.621   2.464   4.206  0.0539 -0.1455 -0.0284
 4691SOL    HW125709   3.544   2.498   4.160 -0.7841  2.7203  3.4659
 4691SOL    HW225710   3.571   2.439   4.284 -0.6652 -0.0553 -0.4638
 4692SOL     OW25711   0.385   1.707   3.714 -0.4958 -0.0602 -0.0889
 4692SOL    HW125712   0.364   1.772   3.781  1.8892 -2.1102  2.6406
 4692SOL    HW225713   0.305   1.722   3.662 -0.1485  0.5081 -0.4538
 4693SOL     OW25714   2.557   3.632   4.995 -0.0827 -0.0429 -0.7625
 4693SOL    HW125715   2.568   3.636   4.900 -1.3165  1.7681 -0.8310
 4693SOL    HW225716   2.545   3.722   5.026 -0.9540 -1.1829  2.2843
 4694SOL     OW25717   3.400   4.452   5.780  0.4348 -0.6562  0.2634
 4694SOL    HW125718   3.308   4.440   5.753  0.6174 -3.1349  0.7491
 4694SOL    HW225719   3.392   4.485   5.870  0.8415 -0.6872  0.3099
 4695SOL     OW25720   3.533   0.706   6.642 -0.3032 -0.2517 -0.2617
 4695SOL    HW125721   3.565   0.703   6.552 -1.6552 -0.3315 -0.7457
 4695SOL    HW225722   3.572   0.788   6.672  0.1070 -0.9046  0.9750
 4696SOL     OW25723   3.590   4.060  13.838  0.2000 -0.7890  0.3153
 4696SOL    HW125724   3.494   4.055  13.837  0.1739  0.0905 -0.9116
 4696SOL    HW225725   3.602   4.113  13.759  0.9502 -2.1303 -0.4695
 4697SOL     OW25726   4.237   0.506   5.749 -0.1962 -0.2602 -0.1588
 4697SOL    HW125727   4.201   0.419   5.731  1.0541 -0.4690 -1.6646
 4697SOL    HW225728   4.277   0.492   5.835  1.1066 -1.1803 -0.9094
 4698SOL     OW25729   4.023   3.511   6.386  0.3109 -0.0487  0.3328
 4698SOL    HW125730   4.098   3.453   6.398  1.3038  1.5814  2.0008
 4698SOL    HW225731   4.058   3.571   6.320  3.1294 -2.1562 -0.1152
 4699SOL     OW25732   0.808   1.132   5.832  0.1209 -0.3610 -0.3092
 4699SOL    HW125733   0.766   1.046   5.842 -2.8606  0.8591 -2.2317
 4699SOL    HW225734   0.869   1.120   5.905  0.2005 -0.9313 -0.4678
 4700SOL     OW25735   3.213   2.304   1.575  0.1798 -0.1180  0.3877
 4700SOL    HW125736   3.125   2.341   1.576 -0.4879 -1.7167  1.6793
 4700SOL    HW225737   3.236   2.336   1.488 -0.2374 -2.6620 -0.6624
 4701SOL     OW25738   3.770   0.312   9.132  0.3961  0.5274  0.2384
 4701SOL    HW125739   3.731   0.347   9.212 -1.8431 -3.0017  0.6943
 4701SOL    HW225740   3.732   0.224   9.134  2.3848 -0.3483 -0.3703
 4702SOL     OW25741   4.203   0.072   9.191 -0.1483 -0.0964  0.0874
 4702SOL    HW125742   4.229   0.098   9.279 -0.9688  2.3040 -0.3613
 4702SOL    HW225743   4.174   0.159   9.162 -2.4337 -0.5625  0.9413
 4703SOL     OW25744   1.612   1.099   1.101 -0.5522  0.6842 -0.5844
 4703SOL    HW125745   1.668   1.153   1.046  2.3854 -1.3328  0.4187
 4703SOL    HW225746   1.645   1.010   1.089  0.8888  1.0159  0.9399
 4704SOL     OW25747   0.603   3.561   6.824 -0.0449  0.0002  0.2685
 4704SOL    HW125748   0.631   3.603   6.905  0.2210 -2.2349  1.3217
 4704SOL    HW225749   0.593   3.639   6.768  0.4756  0.4842  0.8482
 4705SOL     OW25750   4.213   4.669  12.489 -0.1609  0.1710  0.1033
 4705SOL    HW125751   4.191   4.611  12.562  1.0524 -1.5355 -0.8668
 4705SOL    HW225752   4.247   0.006  12.533  1.5152  0.1698 -1.1880
 4706SOL     OW25753   3.555   2.914  12.489  0.7523 -0.3136  0.1414
 4706SOL    HW125754   3.549   2.984  12.424 -2.9392  0.1830  1.0572
 4706SOL    HW225755   3.629   2.860  12.459  0.6496 -1.8024  2.6249
 4707SOL     OW25756   3.954   0.767   3.014  0.2534 -0.4040 -0.0702
 4707SOL    HW125757   3.890   0.700   2.992 -1.4762  1.8007 -1.7294
 4707SOL    HW225758   3.977   0.735   3.101  2.0647 -0.3244 -0.5072
 4708SOL     OW25759   1.065   3.712   9.344 -0.3657  0.1969  0.3292
 4708SOL    HW125760   1.133   3.645   9.342 -0.0888  0.3891  2.9052
 4708SOL    HW225761   1.075   3.742   9.254  0.3593 -2.8240 -0.6042
 4709SOL     OW25762   3.337   2.445   9.137  0.3524 -0.5156 -0.6434
 4709SOL    HW125763   3.335   2.349   9.141  2.5947 -0.6230 -1.8248
 4709SOL    HW225764   3.257   2.467   9.184  0.5597 -2.4513  0.6271
 4710SOL     OW25765   0.898   2.777   7.977 -0.4162 -0.1492 -0.6351
 4710SOL    HW125766   0.870   2.685   7.983  2.0278 -0.8969 -0.6367
 4710SOL    HW225767   0.945   2.785   8.060  0.7856 -0.7907 -1.2543
 4711SOL     OW25768   2.935   4.453   0.669  0.1128 -0.2925  0.0309
 4711SOL    HW125769   2.885   4.509   0.728  0.4660 -0.2184  0.2631
 4711SOL    HW225770   2.901   4.368   0.697  0.3788 -0.4908 -0.2529
 4712SOL     OW25771   3.826   0.610   8.430  0.1596  0.5514 -0.2517
 4712SOL    HW125772   3.904   0.591   8.482 -1.1749 -1.8597  0.9023
 4712SOL    HW225773   3.848   0.567   8.347 -0.1157 -0.1175  0.0128
 4713SOL     OW25774   3.993   3.766   8.316 -0.1662 -0.5642  0.4385
 4713SOL    HW125775   3.984   3.682   8.271 -1.6229 -0.4431  0.5037
 4713SOL    HW225776   4.083   3.761   8.349  0.4807 -0.2354 -1.3099
 4714SOL     OW25777   4.696   2.967   7.814 -0.2095  0.1911 -0.2193
 4714SOL    HW125778   4.683   2.926   7.900 -1.8958  0.9842 -0.1000
 4714SOL    HW225779   0.047   2.954   7.788  0.5625  0.5819  2.3061
 4715SOL     OW25780   1.366   3.069   2.069  0.1517 -0.2892  0.0146
 4715SOL    HW125781   1.444   3.018   2.046  0.4511  0.3950 -0.4977
 4715SOL    HW225782   1.302   2.998   2.071  0.3404 -0.3454  3.2088
 4716SOL     OW25783   2.546   1.524   4.640  0.4730  0.5098 -0.4838
 4716SOL    HW125784   2.570   1.613   4.665  0.6450  0.4886 -0.5728
 4716SOL    HW225785   2.476   1.530   4.575  1.8187 -0.1766 -1.9877
 4717SOL     OW25786   3.175   1.931   2.769 -0.2547 -0.0532  0.2369
 4717SOL    HW125787   3.107   1.875   2.806 -0.6909  0.0508 -0.4139
 4717SOL    HW225788   3.172   1.904   2.677  2.1124 -0.7411  0.3715
 4718SOL     OW25789   1.627   4.265  15.010 -0.0654 -0.0125 -0.7908
 4718SOL    HW125790   1.565   4.299  14.945 -0.9554 -0.1146 -0.0051
 4718SOL    HW225791   1.679   4.206  14.956  1.7494  1.0455 -0.1998
 4719SOL     OW25792   2.895   1.288  13.418  0.1781 -0.3274 -0.2999
 4719SOL    HW125793   2.816   1.289  13.365  0.2568 -1.8008 -0.4392
 4719SOL    HW225794   2.964   1.309  13.354 -0.6086  2.4514 -0.2682
 4720SOL     OW25795   1.711   3.123   9.374 -0.2531 -0.1218 -0.1372
 4720SOL    HW125796   1.680   3.037   9.402  0.1675 -0.0702  0.4769
 4720SOL    HW225797   1.801   3.117   9.406 -0.2753 -0.3064 -0.1051
 4721SOL     OW25798   0.003   1.411   9.362 -0.1414  0.4872 -0.4678
 4721SOL    HW125799   4.659   1.378   9.332  0.0224  0.2370 -0.6598
 4721SOL    HW225800   4.733   1.395   9.456 -0.5746 -5.3674 -1.5436
 4722SOL     OW25801   3.834   3.710   8.830 -0.8585  0.1072  0.3591
 4722SOL    HW125802   3.823   3.798   8.867 -0.5259 -0.4636  1.8083
 4722SOL    HW225803   3.804   3.730   8.742 -1.2552 -0.4084  0.3756
 4723SOL     OW25804   1.979   1.265   4.858  0.2441 -0.3220  0.4551
 4723SOL    HW125805   1.939   1.235   4.940  1.6107 -2.8508  0.2042
 4723SOL    HW225806   1.999   1.353   4.889  2.8548 -1.2623  1.4957
 4724SOL     OW25807   0.252   0.094   1.198 -0.4391 -0.1199 -0.0674
 4724SOL    HW125808   0.257   0.076   1.104 -0.5061 -0.7987  0.0629
 4724SOL    HW225809   0.200   0.023   1.235 -0.6300 -0.3429 -0.7590
 4725SOL     OW25810   3.907   3.653   2.919  0.2081 -0.0146 -0.0036
 4725SOL    HW125811   3.819   3.671   2.954 -0.4134 -1.6937 -0.6903
 4725SOL    HW225812   3.953   3.633   3.000  0.5411  0.7673 -0.0001
 4726SOL     OW25813   0.109   0.711   0.635  0.7800 -0.1666 -0.3727
 4726SOL    HW125814   0.115   0.796   0.592  3.2780  0.0458  0.4078
 4726SOL    HW225815   0.023   0.728   0.675  0.7022  1.6422 -1.3095
 4727SOL     OW25816   3.417   3.824   7.314  0.3616 -0.0193 -0.0686
 4727SOL    HW125817   3.459   3.799   7.232  1.2331  2.7102 -0.4306
 4727SOL    HW225818   3.324   3.815   7.292  0.4761  0.2234 -0.6352
 4728SOL     OW25819   2.704   3.123   6.724  0.2750  0.0202 -0.1393
 4728SOL    HW125820   2.658   3.040   6.713  2.4545 -1.3488  1.2096
 4728SOL    HW225821   2.777   3.097   6.780 -0.8182  1.1504  1.8303
 4729SOL     OW25822   1.262   4.033   1.768 -0.0648 -0.2544  0.0333
 4729SOL    HW125823   1.303   4.119   1.766  1.6280 -1.0514 -0.2624
 4729SOL    HW225824   1.192   4.036   1.833  1.2221  0.1838  1.4079
 4730SOL     OW25825   2.720   4.190   2.891 -0.6504  0.2601  0.6596
 4730SOL    HW125826   2.740   4.190   2.985 -3.6765 -0.5629  1.3063
 4730SOL    HW225827   2.770   4.264   2.858 -0.3431 -0.2466 -0.0140
 4731SOL     OW25828   4.575   1.931   1.237 -0.1616  0.1677 -0.6184
 4731SOL    HW125829   4.493   1.889   1.265 -0.2659  0.0234 -1.1322
 4731SOL    HW225830   4.553   2.023   1.246 -0.4987 -0.0143  0.3975
 4732SOL     OW25831   4.377   3.239   5.012  0.0520 -0.1854  0.1048
 4732SOL    HW125832   4.339   3.153   5.029  2.4606 -1.2981 -0.0698
 4732SOL    HW225833   4.299   3.286   4.983  0.4941  0.3729 -0.1898
 4733SOL     OW25834   3.582   0.842   5.945 -0.2250  0.2178 -0.0366
 4733SOL    HW125835   3.604   0.777   5.879 -0.1968  1.1882 -0.9828
 4733SOL    HW225836   3.487   0.841   5.938 -0.4517 -0.0855  3.2494
 4734SOL     OW25837   2.081   1.326   0.443  0.4863 -0.0701 -0.0995
 4734SOL    HW125838   2.107   1.323   0.535 -2.3828 -1.8795  0.6079
 4734SOL    HW225839   2.142   1.390   0.405 -0.1009 -0.6130 -1.9614
 4735SOL     OW25840   1.177   1.026   9.152  0.2400  0.6819 -0.2372
 4735SOL    HW125841   1.261   1.071   9.161  0.4576  0.0564  0.8668
 4735SOL    HW225842   1.198   0.939   9.117  0.3463 -0.1510  1.8482
 4736SOL     OW25843   0.396   0.414   4.996 -0.0199 -0.5316  0.4757
 4736SOL    HW125844   0.332   0.479   4.969  0.0808 -1.3443 -1.7635
 4736SOL    HW225845   0.450   0.458   5.062 -1.6886  1.9736  0.1260
 4737SOL     OW25846   1.734   1.850   0.717  0.2595 -0.1419 -0.6898
 4737SOL    HW125847   1.708   1.758   0.709 -1.4022  0.4052 -1.5432
 4737SOL    HW225848   1.655   1.880   0.762  1.6881  1.9878  0.3642
 4738SOL     OW25849   1.587   2.464  11.949 -0.3422  0.3071 -0.3935
 4738SOL    HW125850   1.626   2.533  12.003 -0.3473  1.1521 -1.4691
 4738SOL    HW225851   1.512   2.443  12.004  0.3569 -2.2601 -0.3848
 4739SOL     OW25852   0.682   0.187   0.730  0.0338  0.5908 -0.4284
 4739SOL    HW125853   0.617   0.124   0.760 -0.1560  1.6899  1.4740
 4739SOL    HW225854   0.633   0.268   0.714 -0.3375  0.8155  1.8113
 4740SOL     OW25855   0.798   0.840   9.599 -0.2751  0.1886 -0.7009
 4740SOL    HW125856   0.787   0.751   9.634  2.5204  0.1565  0.1378
 4740SOL    HW225857   0.711   0.877   9.585  0.4761  1.8301 -0.9763
 4741SOL     OW25858   0.602   3.908  17.708 -0.1280 -0.0101  0.4064
 4741SOL    HW125859   0.566   3.825  17.739 -0.1340 -1.1730 -2.6549
 4741SOL    HW225860   0.522   3.958  17.696 -0.2580 -0.0659  1.0397
 4742SOL     OW25861   1.294   3.654   4.300  0.6382 -0.3632 -0.3398
 4742SOL    HW125862   1.334   3.620   4.219  1.2114  0.1029 -0.2508
 4742SOL    HW225863   1.350   3.619   4.369 -0.8100 -0.4108  0.7889
 4743SOL     OW25864   2.926   0.689  15.721 -0.2377 -0.3212 -0.2354
 4743SOL    HW125865   3.005   0.733  15.754 -1.9728  1.6444  1.3185
 4743SOL    HW225866   2.955   0.597  15.721  2.9307  0.6721  0.0116
 4744SOL     OW25867   3.590   2.376   8.281 -0.4569 -0.3483 -0.2347
 4744SOL    HW125868   3.644   2.417   8.349  0.1925 -0.2299 -0.8190
 4744SOL    HW225869   3.554   2.457   8.247 -0.6761 -0.6937 -0.8232
 4745SOL     OW25870   0.481   4.423   5.124 -0.3370  0.6971  0.1160
 4745SOL    HW125871   0.576   4.423   5.135 -0.2129  2.3535 -1.0227
 4745SOL    HW225872   0.470   4.394   5.034 -0.7468  0.4805  0.2343
 4746SOL     OW25873   2.984   0.433   4.595 -0.2034 -0.1622  0.2856
 4746SOL    HW125874   3.018   0.491   4.527  0.9655  0.2539  1.2247
 4746SOL    HW225875   3.052   0.370   4.618  0.1189  0.3435  0.7190
 4747SOL     OW25876   4.492   1.842   6.896 -0.6856 -0.0396 -0.0081
 4747SOL    HW125877   4.397   1.856   6.897 -0.9593 -1.9754  0.2560
 4747SOL    HW225878   4.506   1.781   6.824  0.2668  0.1659 -0.0042
 4748SOL     OW25879   1.353   0.904   2.080 -0.7707 -0.0432 -0.0638
 4748SOL    HW125880   1.363   0.998   2.062 -0.6559 -0.3915 -1.8537
 4748SOL    HW225881   1.371   0.898   2.173 -0.4738 -0.5575 -0.1537
 4749SOL     OW25882   4.658   1.704  13.244  0.6700 -0.1297  0.8262
 4749SOL    HW125883   4.682   1.621  13.285 -0.8334 -1.7084 -1.5035
 4749SOL    HW225884   4.588   1.738  13.299 -0.4706 -0.8075 -0.2142
 4750SOL     OW25885   0.088   1.682  13.644 -0.7439 -0.0653  0.4056
 4750SOL    HW125886   0.141   1.620  13.593 -0.7575  0.8021 -0.6855
 4750SOL    HW225887   0.152   1.721  13.702  1.8507 -0.7124 -1.9926
 4751SOL     OW25888   2.581   0.279  15.908 -0.6485  0.2699 -0.2649
 4751SOL    HW125889   2.638   0.226  15.853  1.4944  3.4017 -1.0879
 4751SOL    HW225890   2.599   0.232  15.989 -2.4486  1.3184  0.7626
 4752SOL     OW25891   0.349   4.385   9.569  0.3369  0.1420 -0.3130
 4752SOL    HW125892   0.254   4.374   9.568  0.2708  0.5789  1.0560
 4752SOL    HW225893   0.345   4.480   9.579 -3.0162 -0.3554  3.3886
 4753SOL     OW25894   1.623   4.585   0.595  0.3864  0.0093  0.6916
 4753SOL    HW125895   1.560   4.616   0.530  0.3507 -2.2612 -0.3513
 4753SOL    HW225896   1.699   4.637   0.568 -1.5406  1.6778 -1.5979
 4754SOL     OW25897   3.165   0.572   8.732  0.0113  0.2707 -0.3129
 4754SOL    HW125898   3.084   0.612   8.702 -0.7673  1.5001  3.5082
 4754SOL    HW225899   3.228   0.643   8.716  2.0228 -1.2339  0.9517
 4755SOL     OW25900   1.059   3.590   5.691 -0.0060  0.1916  0.3873
 4755SOL    HW125901   1.073   3.496   5.700  1.0238  0.1971 -1.1222
 4755SOL    HW225902   1.143   3.634   5.703  0.4187 -0.1565 -1.3945
 4756SOL     OW25903   0.062   3.620   1.616 -1.0464 -0.0847 -0.7677
 4756SOL    HW125904   0.108   3.681   1.558  2.1450  0.3730  2.2796
 4756SOL    HW225905   0.032   3.674   1.689  1.8093 -1.3658  1.3466
 4757SOL     OW25906   2.636   0.423   2.330 -0.5302 -0.0291 -0.3443
 4757SOL    HW125907   2.606   0.409   2.420 -1.8430  0.0964 -0.7652
 4757SOL    HW225908   2.624   0.335   2.295  1.4883 -0.6233  0.4343
 4758SOL     OW25909   0.215   3.348   2.434  0.7763  0.5066  0.4188
 4758SOL    HW125910   0.209   3.403   2.512 -0.8094 -0.2445  0.8201
 4758SOL    HW225911   0.134   3.301   2.449  0.5436  0.2257 -1.6946
 4759SOL     OW25912   2.708   2.876  10.931 -0.3785  0.1376  0.3115
 4759SOL    HW125913   2.643   2.824  10.978  2.2577 -1.5260  2.1421
 4759SOL    HW225914   2.780   2.813  10.925  0.0076  0.6713 -0.7757
 4760SOL     OW25915   0.024   1.740   2.234  0.1292 -0.2351 -0.6228
 4760SOL    HW125916   0.011   1.646   2.245 -1.1253  0.0984  0.8301
 4760SOL    HW225917   4.677   1.779   2.242  0.3521  0.2433 -0.5203
 4761SOL     OW25918   1.024   3.506   6.052 -0.2299 -0.2829 -0.5709
 4761SOL    HW125919   0.935   3.530   6.026  0.5595  2.5104 -0.6745
 4761SOL    HW225920   1.050   3.588   6.096  0.5021 -0.1501 -1.2499
 4762SOL     OW25921   2.844   2.059   9.890 -0.1157 -0.0628  0.4389
 4762SOL    HW125922   2.814   2.051   9.800 -0.3812  1.0480  0.4274
 4762SOL    HW225923   2.857   1.965   9.900  1.4792 -0.0154 -1.1136
 4763SOL     OW25924   2.117   1.955   3.247 -0.2496 -0.0178 -0.4832
 4763SOL    HW125925   2.059   2.026   3.220  1.0636  1.5748  0.9381
 4763SOL    HW225926   2.152   1.985   3.331 -1.1269  1.7423 -0.7405
 4764SOL     OW25927   2.434   3.266   5.695  0.7410 -0.3721 -0.5780
 4764SOL    HW125928   2.405   3.179   5.666 -2.1768 -0.1723  1.7472
 4764SOL    HW225929   2.523   3.252   5.727  1.5681  3.0499 -1.4772
 4765SOL     OW25930   3.167   0.436   3.071  0.1306  0.1204 -0.6426
 4765SOL    HW125931   3.220   0.515   3.086 -0.9032  1.0097 -1.5638
 4765SOL    HW225932   3.150   0.415   3.162 -1.0397  1.5823 -0.5241
 4766SOL     OW25933   4.085   3.889   3.834  0.1369  0.0540  0.2610
 4766SOL    HW125934   4.023   3.896   3.907  0.3236  1.6763  0.2522
 4766SOL    HW225935   4.073   3.800   3.801 -0.0060  0.5987 -1.1369
 4767SOL     OW25936   2.666   2.793   7.562  0.6851  0.3372  0.3743
 4767SOL    HW125937   2.680   2.886   7.542 -1.0725  0.4793 -0.2195
 4767SOL    HW225938   2.731   2.783   7.632  1.7638  0.4106 -0.6092
 4768SOL     OW25939   2.454   4.519   7.971 -0.3600 -0.1730  0.1046
 4768SOL    HW125940   2.380   4.580   7.967  1.2782  1.7374 -0.8780
 4768SOL    HW225941   2.531   4.569   7.998 -1.1167  1.2044 -0.2848
 4769SOL     OW25942   1.116   4.062   3.870  0.0477 -0.3867  0.5150
 4769SOL    HW125943   1.166   4.123   3.924  0.3641 -1.3509  1.3018
 4769SOL    HW225944   1.028   4.099   3.871  1.5084  3.1999 -1.3759
 4770SOL     OW25945   3.192   3.611   0.721 -0.4634  0.0388 -0.3861
 4770SOL    HW125946   3.259   3.628   0.654  0.6089 -1.0280  0.4109
 4770SOL    HW225947   3.177   3.518   0.705 -0.8421 -0.0271  0.3881
 4771SOL     OW25948   0.220   4.723   3.790 -0.0746  0.1669 -0.0191
 4771SOL    HW125949   0.306   4.730   3.830  0.0206 -1.5110  0.0574
 4771SOL    HW225950   0.172   0.013   3.868  2.0836  3.2039  0.1424
 4772SOL     OW25951   1.321   4.170   2.969 -0.0963 -0.1620 -0.6876
 4772SOL    HW125952   1.408   4.157   3.008 -0.7887  1.2052  1.2853
 4772SOL    HW225953   1.262   4.155   3.043 -0.7673  0.3675 -1.1180
 4773SOL     OW25954   2.692   0.012   9.318 -0.3618  0.0586 -0.2471
 4773SOL    HW125955   2.729   0.081   9.262  0.4135 -0.1498  0.0107
 4773SOL    HW225956   2.732   0.015   9.405 -0.7662  0.4743 -0.0750
 4774SOL     OW25957   4.683   3.394   4.137 -0.0932 -0.1346  0.1303
 4774SOL    HW125958   4.669   3.321   4.077  0.4449 -0.0646 -0.0788
 4774SOL    HW225959   4.600   3.388   4.184  0.2301  0.2770  0.7632
 4775SOL     OW25960   3.828   1.637   4.134 -0.7923 -0.1422  0.1311
 4775SOL    HW125961   3.861   1.619   4.222  0.4965  0.8956 -0.1341
 4775SOL    HW225962   3.812   1.549   4.101 -0.4434 -0.9812  2.1749
 4776SOL     OW25963   0.202   4.386   8.171 -0.3017  0.0822  0.3296
 4776SOL    HW125964   0.224   4.478   8.161 -1.0852  0.2631  0.2781
 4776SOL    HW225965   0.229   4.362   8.082 -0.9472  0.2877  0.0772
 4777SOL     OW25966   2.304   4.344  10.149 -0.8792  0.0618  0.1747
 4777SOL    HW125967   2.235   4.404  10.178 -2.6618 -0.3159 -3.3215
 4777SOL    HW225968   2.364   4.405  10.106  0.4763 -0.9032  0.6906
 4778SOL     OW25969   4.618   3.212  13.595 -0.3336 -0.1999  0.1173
 4778SOL    HW125970   4.535   3.169  13.574 -0.3506  1.0366 -2.3398
 4778SOL    HW225971   4.586   3.290  13.641  1.1641  1.2454 -1.3225
 4779SOL     OW25972   2.709   0.013  10.670  0.4433  0.0877 -0.4449
 4779SOL    HW125973   2.731   4.670  10.710  0.6592 -0.1107 -0.9693
 4779SOL    HW225974   2.741   4.734  10.582 -0.7517 -2.1089 -0.3976
 4780SOL     OW25975   4.291   0.270   3.368  0.2697 -0.4537 -0.2996
 4780SOL    HW125976   4.292   0.183   3.328 -2.0896  0.0189 -1.3911
 4780SOL    HW225977   4.282   0.242   3.459 -1.4231  2.2022  0.3532
 4781SOL     OW25978   3.857   1.635  10.077 -0.1866 -0.0007  0.3158
 4781SOL    HW125979   3.946   1.603  10.094  0.1010  1.7896  2.1830
 4781SOL    HW225980   3.846   1.662  10.168 -0.2679  1.4662 -0.1281
 4782SOL     OW25981   4.655   1.545   6.098 -0.3498 -0.3854 -0.4130
 4782SOL    HW125982   4.568   1.573   6.070 -1.3877 -2.0907  1.0187
 4782SOL    HW225983   4.712   1.621   6.092  1.0562 -1.4283 -0.3161
 4783SOL     OW25984   3.307   1.571  14.289 -0.1848 -0.1963 -0.1898
 4783SOL    HW125985   3.252   1.625  14.232 -0.5826  0.6591  1.0154
 4783SOL    HW225986   3.272   1.489  14.254 -1.0155 -0.6621  1.7453
 4784SOL     OW25987   3.847   1.645   8.317  0.0243 -0.1342  0.1174
 4784SOL    HW125988   3.762   1.603   8.329 -0.3683  1.5033  3.1026
 4784SOL    HW225989   3.837   1.717   8.379  1.3248  0.6169 -0.5504
 4785SOL     OW25990   0.317   1.811   6.739  0.0257 -0.0663 -0.3116
 4785SOL    HW125991   0.351   1.765   6.662 -0.8605 -3.2100  1.1586
 4785SOL    HW225992   0.318   1.746   6.810 -0.5551  0.6456  0.3404
 4786SOL     OW25993   3.260   2.188  16.061 -0.0474 -0.8962 -0.5111
 4786SOL    HW125994   3.272   2.275  16.101 -1.7482  0.2236 -2.4468
 4786SOL    HW225995   3.197   2.213  15.993 -1.5361 -1.3071  0.7230
 4787SOL     OW25996   4.388   4.568   8.748  0.3590  0.0597  0.1712
 4787SOL    HW125997   4.482   4.578   8.732  0.6352 -1.1086  1.0549
 4787SOL    HW225998   4.384   4.565   8.843  1.0309  2.1532  0.2642
 4788SOL     OW25999   2.857   0.627   5.562 -0.6294  0.8988  0.0796
 4788SOL    HW126000   2.855   0.574   5.482 -0.8713  1.5109 -0.3179
 4788SOL    HW226001   2.885   0.711   5.526 -0.6685  1.2008  0.7636
 4789SOL     OW26002   3.273   0.250   1.799 -0.2791 -0.1797 -0.3965
 4789SOL    HW126003   3.301   0.308   1.870  2.4728  0.3437 -1.9157
 4789SOL    HW226004   3.353   0.212   1.762  1.2756  0.5173  2.2051
 4790SOL     OW26005   3.011   3.057   2.783  0.3027 -0.5012  0.0125
 4790SOL    HW126006   3.007   3.091   2.694 -1.2087  1.0981  0.6776
 4790SOL    HW226007   3.105   3.048   2.796  0.2470 -0.6293  0.3480
 4791SOL     OW26008   0.801   1.953   5.483  0.3162  0.3855 -0.6780
 4791SOL    HW126009   0.767   1.900   5.411 -0.3116 -0.0569 -0.0465
 4791SOL    HW226010   0.721   2.003   5.498  0.2732 -0.3951  1.6782
 4792SOL     OW26011   0.301   1.991   4.549  0.2912 -0.5974  0.1440
 4792SOL    HW126012   0.339   2.078   4.539  0.7531 -0.9734 -1.3057
 4792SOL    HW226013   0.207   1.993   4.532  0.1663 -0.4572  0.8613
 4793SOL     OW26014   2.543   2.173   7.456  0.1600 -0.4789  0.3268
 4793SOL    HW126015   2.464   2.174   7.402  0.6581 -1.8168 -0.4267
 4793SOL    HW226016   2.535   2.249   7.513 -1.0037  1.2974 -2.2139
 4794SOL     OW26017   3.567   2.798  12.745 -0.6084 -0.1344 -0.1304
 4794SOL    HW126018   3.484   2.820  12.787 -0.7052 -1.8432  0.5574
 4794SOL    HW226019   3.575   2.849  12.664 -3.2197 -0.2055 -0.4053
 4795SOL     OW26020   3.625   2.954   3.342  0.1890 -0.8638  0.3205
 4795SOL    HW126021   3.622   2.946   3.437 -0.4431 -0.2212  0.3544
 4795SOL    HW226022   3.712   2.990   3.325  0.7167 -1.5796  1.5191
 4796SOL     OW26023   4.273   1.715   4.043 -0.6461  0.7472  0.4975
 4796SOL    HW126024   4.353   1.729   4.092  0.5354 -0.7597 -1.0058
 4796SOL    HW226025   4.227   1.794   4.070 -1.3849  0.8602 -1.0515
 4797SOL     OW26026   3.502   1.007   2.198  0.0936  0.7567  0.5901
 4797SOL    HW126027   3.535   0.949   2.129 -0.0113  1.4916 -0.0738
 4797SOL    HW226028   3.430   1.054   2.157 -0.2153 -0.9721 -0.8433
 4798SOL     OW26029   3.550   1.012   9.152  0.4013 -0.5051 -0.1657
 4798SOL    HW126030   3.626   1.013   9.093 -0.3093  2.2797 -1.0294
 4798SOL    HW226031   3.588   0.991   9.238 -0.6659 -0.8958  0.2059
 4799SOL     OW26032   2.684   3.804   3.230  0.6941  0.7034  0.0595
 4799SOL    HW126033   2.763   3.818   3.281  1.7875  2.2420 -2.0670
 4799SOL    HW226034   2.698   3.711   3.213  0.7920  0.6222  0.5702
 4800SOL     OW26035   4.296   3.993   3.368 -0.5878 -0.3610  0.6879
 4800SOL    HW126036   4.279   3.979   3.461  2.0883  0.0357  1.2601
 4800SOL    HW226037   4.276   4.087   3.363 -1.3777 -0.7416 -3.1563
 4801SOL     OW26038   0.759   0.714   2.564 -0.3916 -0.1840 -0.2127
 4801SOL    HW126039   0.676   0.666   2.563 -0.6476  0.2104  1.3966
 4801SOL    HW226040   0.734   0.803   2.538  0.4758 -0.0431 -0.5768
 4802SOL     OW26041   0.302   3.446   7.541 -0.9064 -0.6468  0.1222
 4802SOL    HW126042   0.253   3.465   7.461 -0.1057 -0.2757 -0.2833
 4802SOL    HW226043   0.394   3.432   7.516 -0.9042  1.4471 -1.0705
 4803SOL     OW26044   2.552   4.398   0.381  0.3973 -0.3603 -0.0375
 4803SOL    HW126045   2.634   4.362   0.417 -0.2691 -1.2054  0.6230
 4803SOL    HW226046   2.585   4.451   0.308  0.6934  1.6149  1.5377
 4804SOL     OW26047   3.988   1.911   8.756  0.1216 -0.1887  0.4501
 4804SOL    HW126048   4.071   1.862   8.757 -0.5420 -1.3533 -1.7266
 4804SOL    HW226049   4.013   2.002   8.772 -0.3936  0.1118 -0.4637
 4805SOL     OW26050   3.299   4.299   6.516  0.3060  0.0510 -0.8429
 4805SOL    HW126051   3.208   4.302   6.546 -0.0486  0.1655 -1.9466
 4805SOL    HW226052   3.299   4.280   6.422 -1.5364 -2.9698 -0.2564
 4806SOL     OW26053   1.936   3.712  14.677 -0.5198  0.0534 -0.4316
 4806SOL    HW126054   1.928   3.670  14.591  0.0905  1.1554 -1.0286
 4806SOL    HW226055   1.974   3.797  14.656 -0.1455  0.4883  1.9954
 4807SOL     OW26056   1.085   2.090   6.879  0.2173  0.6513  0.5526
 4807SOL    HW126057   1.171   2.124   6.854  0.4988 -0.8296 -0.4900
 4807SOL    HW226058   1.081   2.134   6.964  0.8469 -1.8042  1.8629
 4808SOL     OW26059   4.642   1.745   6.669 -0.1976 -0.3175  0.5416
 4808SOL    HW126060   4.592   1.739   6.588  2.8120  3.0262 -1.5353
 4808SOL    HW226061   4.720   1.695   6.643  0.3302  0.4309  0.6615
 4809SOL     OW26062   1.022   2.174   6.340  0.4849  0.8347 -0.4527
 4809SOL    HW126063   0.958   2.206   6.277 -0.2124 -0.9482 -0.6481
 4809SOL    HW226064   1.057   2.097   6.295  1.9598 -0.6392  3.2055
 4810SOL     OW26065   1.797   2.946   0.219  0.0864 -0.0546 -0.0303
 4810SOL    HW126066   1.795   2.976   0.310  1.2713  0.7341 -0.2631
 4810SOL    HW226067   1.891   2.959   0.204 -0.2296  3.0464  0.7721
 4811SOL     OW26068   3.011   2.135   4.643 -0.2157 -0.6349 -0.0631
 4811SOL    HW126069   2.934   2.180   4.609  0.6676  1.1749  0.3345
 4811SOL    HW226070   3.049   2.205   4.696  0.5402 -2.5783  1.9695
 4812SOL     OW26071   0.423   0.270   5.610 -0.1684 -0.6658  0.0815
 4812SOL    HW126072   0.518   0.282   5.615  0.1915 -3.7100  0.5376
 4812SOL    HW226073   0.413   0.266   5.515 -1.5821  1.4356  0.1329
 4813SOL     OW26074   0.269   0.880  16.527  0.5448  0.1988  0.0235
 4813SOL    HW126075   0.289   0.899  16.435 -1.0149 -2.4222 -0.8406
 4813SOL    HW226076   0.210   0.952  16.550  0.8671 -0.0113  1.5405
 4814SOL     OW26077   2.993   1.512  10.161 -0.1027 -0.1000  0.4175
 4814SOL    HW126078   2.948   1.565  10.096  0.4746  0.7038  0.6728
 4814SOL    HW226079   2.938   1.529  10.238  1.2041  0.3118  1.2721
 4815SOL     OW26080   3.687   2.938   9.383 -0.6268 -0.2587 -0.0232
 4815SOL    HW126081   3.763   2.935   9.324 -0.9881  1.8231 -0.6064
 4815SOL    HW226082   3.700   2.865   9.444 -2.4293 -2.1506 -1.9314
 4816SOL     OW26083   3.443   1.231   3.838 -0.6673 -0.4304  0.7053
 4816SOL    HW126084   3.370   1.218   3.778  0.1333  0.4442 -0.4539
 4816SOL    HW226085   3.469   1.322   3.825 -2.5023  0.1366  1.0397
 4817SOL     OW26086   2.217   2.031   0.694 -0.1351 -0.3191 -0.0350
 4817SOL    HW126087   2.125   2.046   0.673  0.0908  1.3217  0.1482
 4817SOL    HW226088   2.265   2.075   0.624 -0.3183 -1.0674 -0.6361
 4818SOL     OW26089   2.346   0.340   4.417  0.8368  0.4275  0.4695
 4818SOL    HW126090   2.393   0.396   4.480 -0.6818  1.2698  0.8335
 4818SOL    HW226091   2.267   0.334   4.470  0.0594 -1.4224 -0.9064
 4819SOL     OW26092   4.259   3.336   7.478  0.4450  0.4391  0.1373
 4819SOL    HW126093   4.315   3.268   7.515  1.8375  0.4704 -1.9082
 4819SOL    HW226094   4.322   3.378   7.420 -2.8328  3.0492 -1.5762
 4820SOL     OW26095   0.201   1.223   9.189  0.6270  0.0597  0.0914
 4820SOL    HW126096   0.151   1.288   9.240  1.2224  1.2910 -0.8888
 4820SOL    HW226097   0.213   1.157   9.257 -2.9710 -0.7436 -0.0270
 4821SOL     OW26098   1.873   0.165  10.863 -0.8291  0.2566  0.4029
 4821SOL    HW126099   1.922   0.246  10.847 -2.6077  1.0557 -0.9915
 4821SOL    HW226100   1.904   0.136  10.949  0.7923 -0.0170 -0.2660
 4822SOL     OW26101   2.881   3.065   7.272  0.4117  0.2550 -0.0838
 4822SOL    HW126102   2.800   3.031   7.308  0.1178  1.3926  0.3066
 4822SOL    HW226103   2.917   3.105   7.351  0.3845 -0.1909  0.1514
 4823SOL     OW26104   3.103   3.055   3.981  0.2249  0.1325  0.8406
 4823SOL    HW126105   3.060   2.970   3.990  0.6807  0.1342  2.9674
 4823SOL    HW226106   3.192   3.028   4.005  0.2372  0.7378  1.4471
 4824SOL     OW26107   1.937   3.693   9.996  0.1047 -0.0549 -0.4544
 4824SOL    HW126108   1.890   3.610   9.995 -0.6056  0.2926  2.3353
 4824SOL    HW226109   1.890   3.756   9.942  0.3053 -0.5189 -1.1679
 4825SOL     OW26110   2.746   0.852   5.854 -0.1257 -0.2500 -0.2139
 4825SOL    HW126111   2.675   0.916   5.856  0.4214  0.3049  0.9847
 4825SOL    HW226112   2.741   0.825   5.945 -1.9656 -0.8680 -0.4980
 4826SOL     OW26113   3.210   3.685   4.336 -0.6491  0.1943  0.2921
 4826SOL    HW126114   3.174   3.772   4.356  1.5322  1.1794 -0.0906
 4826SOL    HW226115   3.221   3.635   4.417  1.3558  1.0997  0.5636
 4827SOL     OW26116   4.229   3.733   0.504 -0.4002 -0.3445 -0.4917
 4827SOL    HW126117   4.151   3.677   0.504  0.6026 -1.7402 -0.0083
 4827SOL    HW226118   4.205   3.799   0.569 -1.7921 -1.2512 -0.0759
 4828SOL     OW26119   3.585   2.730   7.539  0.3863  0.8762  0.2549
 4828SOL    HW126120   3.652   2.677   7.580  0.8611  0.9410 -0.4353
 4828SOL    HW226121   3.547   2.677   7.469 -0.1636  1.1485  0.3481
 4829SOL     OW26122   4.690   3.836   2.936 -0.3170 -0.5631 -0.2381
 4829SOL    HW126123   4.611   3.812   2.889  0.4284 -0.0019 -1.7710
 4829SOL    HW226124   4.661   3.914   2.983 -0.8270  0.6419 -2.6042
 4830SOL     OW26125   4.573   2.242  11.597  0.3422 -0.0343  0.2043
 4830SOL    HW126126   4.666   2.233  11.614 -0.3673 -2.0470  2.9502
 4830SOL    HW226127   4.546   2.288  11.676  1.9600 -1.9997  1.8811
 4831SOL     OW26128   3.745   4.211   4.688 -0.5243  0.3576 -0.1565
 4831SOL    HW126129   3.807   4.164   4.744 -0.6133 -0.3847 -0.6685
 4831SOL    HW226130   3.684   4.240   4.755 -0.2283  3.3906 -1.2043
 4832SOL     OW26131   4.320   1.045   5.014  0.2140  0.2485 -0.5345
 4832SOL    HW126132   4.373   1.099   5.073 -0.8136  0.1343  0.4929
 4832SOL    HW226133   4.265   0.997   5.077  0.9008  1.5646  1.0520
 4833SOL     OW26134   0.383   4.647   1.892 -0.1464 -0.1283 -0.5589
 4833SOL    HW126135   0.430   4.727   1.914  1.6843 -0.8678 -1.7881
 4833SOL    HW226136   0.362   4.662   1.799  3.1649 -1.7343 -1.5645
 4834SOL     OW26137   1.228   0.693   7.174 -0.1267 -0.7636 -0.6630
 4834SOL    HW126138   1.144   0.717   7.214 -0.1626 -0.9540 -0.6254
 4834SOL    HW226139   1.276   0.775   7.161  1.1190 -1.4032 -0.0589
 4835SOL     OW26140   2.930   3.913  16.348 -0.0297  0.3709  0.1629
 4835SOL    HW126141   2.949   3.961  16.429 -0.9874 -0.4170  0.8667
 4835SOL    HW226142   2.893   3.836  16.393  0.6397 -0.3601 -0.5484
 4836SOL     OW26143   2.648   4.018   9.580 -0.3685 -0.4577  0.2797
 4836SOL    HW126144   2.618   4.099   9.621 -1.5253 -0.8008  0.1265
 4836SOL    HW226145   2.632   3.958   9.653 -1.9059 -0.6205 -0.1813
 4837SOL     OW26146   4.035   0.862   0.286 -0.7012 -0.0799 -0.0253
 4837SOL    HW126147   3.942   0.870   0.267 -0.2853  1.0637 -1.5663
 4837SOL    HW226148   4.066   0.828   0.202 -1.8740  0.2369 -0.5808
 4838SOL     OW26149   0.868   3.105   6.912 -0.2398  0.0320 -0.1430
 4838SOL    HW126150   0.936   3.160   6.875  1.9635 -1.2583  1.9970
 4838SOL    HW226151   0.787   3.118   6.861 -0.7875 -0.4990  0.5838
 4839SOL     OW26152   2.663   0.021   8.539 -0.3494  0.1143  0.0954
 4839SOL    HW126153   2.689   0.033   8.630 -0.4539  2.9797 -0.2568
 4839SOL    HW226154   2.589   4.702   8.551  0.4437 -0.5661  1.5332
 4840SOL     OW26155   0.557   0.350   3.874 -0.4135 -0.2491 -0.0102
 4840SOL    HW126156   0.549   0.294   3.952  1.9273 -0.0569  0.3640
 4840SOL    HW226157   0.529   0.288   3.806  1.0362 -0.9216  0.0068
 4841SOL     OW26158   0.087   1.485   9.694  0.1624  0.4497 -0.0376
 4841SOL    HW126159   0.019   1.537   9.652 -1.2059 -0.7704  0.6910
 4841SOL    HW226160   0.081   1.535   9.775 -1.1140 -0.5448  0.4650
 4842SOL     OW26161   1.489   2.946   5.129  0.1006  0.2285  0.1976
 4842SOL    HW126162   1.480   2.850   5.131 -1.2198  0.3788  1.2622
 4842SOL    HW226163   1.518   2.956   5.220  2.4936  0.3327 -0.5819
 4843SOL     OW26164   3.244   0.228  12.346  0.1709 -0.0186 -0.2389
 4843SOL    HW126165   3.295   0.195  12.419 -0.7784 -0.1309  0.3790
 4843SOL    HW226166   3.311   0.272  12.293 -0.0251 -0.3833 -0.7899
 4844SOL     OW26167   3.889   4.186   2.280  0.3789  0.0682 -0.1298
 4844SOL    HW126168   3.904   4.161   2.371 -1.6771 -0.0253  0.1699
 4844SOL    HW226169   3.795   4.172   2.266  0.5697 -2.1140  0.7803
 4845SOL     OW26170   3.223   4.182   7.316 -0.0389  0.5281  0.3612
 4845SOL    HW126171   3.258   4.270   7.329 -1.8214  1.4344 -0.8613
 4845SOL    HW226172   3.241   4.142   7.400 -3.6418 -0.3637  0.6911
 4846SOL     OW26173   4.728   1.697   3.747 -0.0612  0.3449 -0.2878
 4846SOL    HW126174   4.689   1.760   3.686  0.0671 -0.4239 -1.1688
 4846SOL    HW226175   4.736   1.752   3.825  2.3092  0.5649 -0.6863
 4847SOL     OW26176   3.883   2.725  16.134  0.0626  0.1894  0.5297
 4847SOL    HW126177   3.892   2.631  16.117 -0.9554 -0.0814  1.4878
 4847SOL    HW226178   3.848   2.750  16.048 -1.0073 -0.1538  0.8629
 4848SOL     OW26179   2.351   3.405   7.601  0.3580  0.2314  0.2997
 4848SOL    HW126180   2.313   3.346   7.535 -0.5326  1.0490  0.0928
 4848SOL    HW226181   2.313   3.489   7.577  0.5276 -0.1468 -1.3259
 4849SOL     OW26182   0.378   0.090   2.663 -0.0602 -0.5107  0.0350
 4849SOL    HW126183   0.306   0.097   2.600 -0.5269 -1.7848  0.4303
 4849SOL    HW226184   0.329   0.046   2.733  1.6045 -0.3907  1.2606
 4850SOL     OW26185   1.059   3.770   7.492 -0.2423  0.2733 -0.1042
 4850SOL    HW126186   1.083   3.812   7.410 -3.3918  1.4136 -0.4486
 4850SOL    HW226187   0.966   3.788   7.503 -0.3390  0.0088 -0.5057
 4851SOL     OW26188   2.389   1.349  12.367 -0.0755  0.4928  0.3494
 4851SOL    HW126189   2.389   1.301  12.450  1.8123 -0.7049 -0.3613
 4851SOL    HW226190   2.344   1.430  12.393  1.0829  1.2725 -0.0714
 4852SOL     OW26191   1.293   0.447  11.679  0.6112  0.4033 -0.2568
 4852SOL    HW126192   1.268   0.453  11.587  0.5590  1.5743 -0.1549
 4852SOL    HW226193   1.316   0.357  11.704 -0.2301 -0.6054 -3.0805
 4853SOL     OW26194   1.583   1.349   8.189 -0.1916 -0.0288  0.8613
 4853SOL    HW126195   1.625   1.344   8.275  1.4703 -0.8417 -0.0050
 4853SOL    HW226196   1.514   1.287   8.213 -0.2212 -0.3697 -0.1026
 4854SOL     OW26197   1.271   3.438   2.776 -0.1144  0.4442 -0.1186
 4854SOL    HW126198   1.260   3.406   2.686  0.7495  1.9092 -0.7471
 4854SOL    HW226199   1.210   3.510   2.787 -1.0198 -0.1071 -1.4765
 4855SOL     OW26200   4.205   3.865   6.811 -0.4897 -0.6245  0.8942
 4855SOL    HW126201   4.290   3.892   6.845  0.0844 -0.3813 -0.7512
 4855SOL    HW226202   4.234   3.814   6.735  2.3857  0.8122  1.0194
 4856SOL     OW26203   0.252   3.640   8.929  0.1382  0.6495  0.2141
 4856SOL    HW126204   0.231   3.657   8.837  4.6053  0.6237 -0.8224
 4856SOL    HW226205   0.266   3.546   8.919  0.4220  0.5170  1.8242
 4857SOL     OW26206   1.608   4.334   5.238  0.5749 -0.2051  0.1486
 4857SOL    HW126207   1.555   4.308   5.162  0.3906 -1.1388  0.5969
 4857SOL    HW226208   1.541   4.364   5.300 -1.7009 -3.0698 -0.8734
 4858SOL     OW26209   4.443   1.049   5.686  0.2080 -0.2252 -0.0363
 4858SOL    HW126210   4.416   1.135   5.719  0.9138 -0.3402  0.8290
 4858SOL    HW226211   4.448   1.056   5.590 -1.5306  0.8273 -0.0638
 4859SOL     OW26212   3.022   2.173   5.926  0.3315 -0.2092 -0.1338
 4859SOL    HW126213   2.968   2.246   5.956  0.4840 -0.1288 -0.0539
 4859SOL    HW226214   2.973   2.099   5.960 -1.1248  1.6797  1.9121
 4860SOL     OW26215   0.178   1.136  12.630  0.2178  0.3107 -0.2769
 4860SOL    HW126216   0.263   1.131  12.587  1.3935  1.0687  1.9309
 4860SOL    HW226217   0.177   1.228  12.656  1.0294  0.2676 -0.0830
 4861SOL     OW26218   4.554   2.548  13.096  0.3576 -0.3118  0.4217
 4861SOL    HW126219   4.604   2.524  13.174  1.5462 -0.7413 -0.4734
 4861SOL    HW226220   4.515   2.463  13.078  2.0195 -0.5418 -2.0502
 4862SOL     OW26221   1.439   0.670  11.028  0.0070 -0.1653 -0.0547
 4862SOL    HW126222   1.526   0.642  11.057  0.9680  2.5950 -0.2731
 4862SOL    HW226223   1.426   0.604  10.960 -2.8245  0.8689 -0.5195
 4863SOL     OW26224   1.357   1.632   9.230  0.5309  0.1857 -0.0664
 4863SOL    HW126225   1.289   1.579   9.270  1.6286 -2.3549 -1.5439
 4863SOL    HW226226   1.331   1.605   9.142 -0.3906 -1.5435  0.7606
 4864SOL     OW26227   4.362   2.040  17.281 -0.0588 -0.3861 -0.3520
 4864SOL    HW126228   4.317   2.108  17.231  2.2087  0.2198 -1.5565
 4864SOL    HW226229   4.437   2.014  17.228 -1.4871 -0.1681 -2.4953
 4865SOL     OW26230   3.395   3.172   4.977 -0.1990 -0.2777  0.1744
 4865SOL    HW126231   3.340   3.149   5.051  0.8804 -0.6946  0.8518
 4865SOL    HW226232   3.345   3.243   4.936  0.9659  1.6138  2.0796
 4866SOL     OW26233   3.030   2.873   5.741 -0.1044  0.0534  0.3915
 4866SOL    HW126234   3.091   2.925   5.690 -0.3348 -0.1988 -0.1378
 4866SOL    HW226235   3.086   2.799   5.765 -0.0905  0.4143  1.4589
 4867SOL     OW26236   2.820   0.459   5.957 -0.0653 -0.0935 -0.0777
 4867SOL    HW126237   2.823   0.366   5.979  3.8146  0.3901  1.3387
 4867SOL    HW226238   2.910   0.484   5.940  0.0270 -0.2814  0.1455
 4868SOL     OW26239   1.583   2.780   8.883 -0.3309 -0.5232  0.3473
 4868SOL    HW126240   1.650   2.747   8.824  0.2037 -0.6552  1.0352
 4868SOL    HW226241   1.598   2.874   8.876 -1.6907 -0.3114  0.2250
 4869SOL     OW26242   3.944   4.637  14.042 -0.1276  0.1840 -0.2666
 4869SOL    HW126243   3.936   4.700  14.114  1.4168 -1.1529  1.0882
 4869SOL    HW226244   3.853   4.617  14.025 -0.4035  2.7739 -1.9131
 4870SOL     OW26245   0.449   1.020   3.575  0.1591 -0.2917  0.0931
 4870SOL    HW126246   0.503   1.099   3.582  1.0675 -1.0787  1.8323
 4870SOL    HW226247   0.493   0.954   3.628 -0.9418 -0.9069  0.2351
 4871SOL     OW26248   2.669   2.352   2.022 -0.0317  0.0989  0.4170
 4871SOL    HW126249   2.607   2.315   1.959 -1.6389  0.3671  1.8061
 4871SOL    HW226250   2.749   2.369   1.973  0.1952 -0.8269  0.4665
 4872SOL     OW26251   4.578   4.133  13.144 -0.2078  0.5931 -0.4759
 4872SOL    HW126252   4.507   4.166  13.088 -0.5964 -0.1140 -0.4032
 4872SOL    HW226253   4.526   4.109  13.221 -1.0869  1.3344 -0.8306
 4873SOL     OW26254   1.565   1.884  12.235 -0.0041 -0.2816 -0.0555
 4873SOL    HW126255   1.492   1.917  12.183 -0.5000 -1.5860 -0.1876
 4873SOL    HW226256   1.643   1.917  12.189  0.0823  0.1296  0.3971
 4874SOL     OW26257   0.653   3.565   3.422 -0.4278  0.5817 -0.1566
 4874SOL    HW126258   0.585   3.611   3.372 -1.6822 -0.1619  0.8612
 4874SOL    HW226259   0.608   3.483   3.444  1.2157 -0.9965 -2.6386
 4875SOL     OW26260   0.138   3.211  16.307 -0.7401 -0.2934  0.1799
 4875SOL    HW126261   0.083   3.266  16.364 -0.2062  3.0740 -2.5610
 4875SOL    HW226262   0.154   3.131  16.356 -1.2184 -0.8913 -0.6433
 4876SOL     OW26263   4.247   0.215   6.996  0.3662 -1.1054 -0.2004
 4876SOL    HW126264   4.255   0.174   7.082  2.1054 -0.2845  0.0272
 4876SOL    HW226265   4.194   0.153   6.946  0.1819 -0.9711 -0.1741
 4877SOL     OW26266   4.483   3.033   6.798  0.1200 -0.3778  0.5482
 4877SOL    HW126267   4.445   2.949   6.825  0.0477  0.0422  1.7255
 4877SOL    HW226268   4.563   3.006   6.753 -1.0642 -0.3286 -1.5890
 4878SOL     OW26269   3.497   3.814   3.524 -0.4507  0.0086 -0.1740
 4878SOL    HW126270   3.497   3.867   3.604  2.8184 -0.1171 -0.0795
 4878SOL    HW226271   3.409   3.778   3.519 -0.0600 -0.4859 -3.5968
 4879SOL     OW26272   3.316   3.816   2.746  0.0291  0.3591 -0.7452
 4879SOL    HW126273   3.270   3.897   2.765 -0.7289  0.2439 -2.0757
 4879SOL    HW226274   3.349   3.847   2.662  1.2735 -0.3589 -0.5228
 4880SOL     OW26275   1.578   0.862   9.089  0.7321  0.1090 -0.4238
 4880SOL    HW126276   1.569   0.879   8.995  0.2513  0.6866 -0.2675
 4880SOL    HW226277   1.616   0.774   9.082 -1.1330 -0.8407  1.6797
 4881SOL     OW26278   3.779   3.858   6.419 -0.4183  0.2225  0.1516
 4881SOL    HW126279   3.869   3.885   6.401 -0.5447  0.5745  0.0539
 4881SOL    HW226280   3.789   3.852   6.514 -1.3405  2.1227  0.3760
 4882SOL     OW26281   3.515   3.726   8.362 -0.2814 -0.3228  0.5149
 4882SOL    HW126282   3.544   3.817   8.350 -0.8331  0.0019  1.5983
 4882SOL    HW226283   3.577   3.672   8.314 -0.8479 -3.7027  3.6086
 4883SOL     OW26284   3.696   4.416   6.626 -0.5428  0.1789 -0.2116
 4883SOL    HW126285   3.705   4.421   6.721 -1.3788 -2.5525  0.0191
 4883SOL    HW226286   3.606   4.387   6.614 -0.2474 -1.5381  1.6077
 4884SOL     OW26287   0.531   3.898   3.273  0.2264 -0.0263 -0.1910
 4884SOL    HW126288   0.460   3.941   3.225 -1.0702 -0.5184  1.2690
 4884SOL    HW226289   0.493   3.810   3.275  1.3216 -0.5348 -2.3035
 4885SOL     OW26290   3.609   0.599  15.514  0.2869  0.0881  0.1623
 4885SOL    HW126291   3.577   0.627  15.428 -1.1166  1.1729  1.0512
 4885SOL    HW226292   3.639   0.681  15.553 -3.4740  1.8622 -0.7222
 4886SOL     OW26293   1.674   2.718   5.174  0.1142 -0.3597  0.1259
 4886SOL    HW126294   1.658   2.664   5.251  1.2552 -1.3222 -0.3093
 4886SOL    HW226295   1.693   2.804   5.211  0.8012 -0.9205  1.0789
 4887SOL     OW26296   2.233   4.668   6.759  0.0965  0.0900 -0.0281
 4887SOL    HW126297   2.184   0.006   6.732 -1.6859 -1.0740 -0.1958
 4887SOL    HW226298   2.320   4.706   6.771  2.4370 -3.9390 -4.4357
 4888SOL     OW26299   4.391   4.253   2.856 -0.0872  0.2069  0.0003
 4888SOL    HW126300   4.430   4.258   2.768  0.7457 -0.0403  0.3563
 4888SOL    HW226301   4.297   4.251   2.837 -0.4289  1.0508  1.6099
 4889SOL     OW26302   0.633   3.763   8.602 -0.5900  0.0692  0.5288
 4889SOL    HW126303   0.624   3.784   8.509 -1.4478  0.2960  0.6676
 4889SOL    HW226304   0.666   3.674   8.587 -1.1748 -0.4788  2.4669
 4890SOL     OW26305   3.907   3.569   3.350  0.5649 -0.0067  0.1723
 4890SOL    HW126306   3.848   3.595   3.421 -0.4936  0.0391 -0.7426
 4890SOL    HW226307   3.948   3.491   3.388 -0.5058 -0.2795  0.7716
 4891SOL     OW26308   0.710   2.531   7.356 -0.0170 -0.1683  0.1636
 4891SOL    HW126309   0.757   2.566   7.280 -0.8780 -0.2974 -0.4301
 4891SOL    HW226310   0.650   2.604   7.373  0.3400  0.2331 -0.2764
 4892SOL     OW26311   4.595   2.278   3.938 -0.3852  0.0021  0.0037
 4892SOL    HW126312   4.646   2.284   4.019  2.3493  0.2243 -1.7128
 4892SOL    HW226313   4.656   2.314   3.873 -0.8496 -1.4853 -1.2292
 4893SOL     OW26314   4.647   0.720  14.361  0.0762  0.2344  0.0429
 4893SOL    HW126315   4.669   0.699  14.452  0.2947 -1.8442 -0.4723
 4893SOL    HW226316   4.570   0.777  14.365  0.0011  0.0832  0.8078
 4894SOL     OW26317   4.682   3.316  13.267 -0.5647  0.0551 -0.4766
 4894SOL    HW126318   4.590   3.291  13.268  0.1669 -2.6485  0.8927
 4894SOL    HW226319   4.690   3.377  13.194  0.9290  0.2239 -0.1768
 4895SOL     OW26320   2.533   1.991   3.177  0.3557  0.0780  0.1767
 4895SOL    HW126321   2.530   1.951   3.090  0.1944 -2.9097  1.5476
 4895SOL    HW226322   2.437   1.989   3.185  0.4678  0.0457  1.4404
 4896SOL     OW26323   3.493   4.215  14.472  0.4210  0.7759  0.2564
 4896SOL    HW126324   3.549   4.149  14.513 -0.1503  1.6593  2.4599
 4896SOL    HW226325   3.558   4.282  14.450  1.2769 -0.3095 -0.5001
 4897SOL     OW26326   4.315   1.314   9.169 -0.3986  0.3000  0.1340
 4897SOL    HW126327   4.267   1.236   9.139  1.9080 -1.1402  0.1723
 4897SOL    HW226328   4.275   1.352   9.247  0.8960 -0.4290  1.1501
 4898SOL     OW26329   2.230   2.050   1.398 -0.0842  0.2154  0.0774
 4898SOL    HW126330   2.181   1.985   1.347  1.3544 -0.2250 -0.7119
 4898SOL    HW226331   2.290   2.075   1.328  0.2169  0.8105  0.5429
 4899SOL     OW26332   1.943   3.978  13.132 -0.2786 -0.3547  0.2505
 4899SOL    HW126333   1.849   3.960  13.134 -0.3581  0.1203  0.5988
 4899SOL    HW226334   1.933   4.068  13.102 -0.3560 -0.4392  0.0211
 4900SOL     OW26335   3.443   3.798   6.072 -0.1201  0.1930  0.0988
 4900SOL    HW126336   3.377   3.858   6.108  1.4527  1.9060  0.1024
 4900SOL    HW226337   3.427   3.720   6.126 -0.7404 -0.1291 -0.5480
 4901SOL     OW26338   0.095   0.827  16.067  0.5406 -0.2704 -0.4206
 4901SOL    HW126339   0.079   0.873  16.149  0.6612  0.3781 -0.7648
 4901SOL    HW226340   0.088   0.739  16.104 -2.5226 -0.3866 -1.3303
 4902SOL     OW26341   1.697   2.203  11.911 -0.2227  0.0829  0.4577
 4902SOL    HW126342   1.674   2.295  11.927 -1.1377  0.4316 -2.8810
 4902SOL    HW226343   1.698   2.179  12.004  2.3112  0.3673  0.5042
 4903SOL     OW26344   1.696   3.925  11.456 -0.0850  0.0375  0.3520
 4903SOL    HW126345   1.602   3.908  11.455 -0.0195 -0.4327  2.5992
 4903SOL    HW226346   1.712   3.938  11.550 -1.4391  0.0605  0.5730
 4904SOL     OW26347   0.902   3.430   2.050 -0.0713 -0.4716  0.8598
 4904SOL    HW126348   0.848   3.504   2.022 -0.3465 -0.1798  2.1581
 4904SOL    HW226349   0.932   3.394   1.967 -1.0591  1.0902 -0.1740
 4905SOL     OW26350   2.428   0.671   5.163 -0.0424 -0.3226  0.2371
 4905SOL    HW126351   2.350   0.671   5.218 -0.7604  1.0473 -0.7697
 4905SOL    HW226352   2.443   0.764   5.143 -1.7280 -0.0424  0.2602
 4906SOL     OW26353   4.344   1.963   6.516  0.1310 -0.1505 -0.5305
 4906SOL    HW126354   4.375   2.042   6.471 -0.1241 -0.7032 -1.6590
 4906SOL    HW226355   4.410   1.970   6.584  1.4511  0.2895 -1.8701
 4907SOL     OW26356   3.120   3.156   3.127  0.2915  0.0563  0.5205
 4907SOL    HW126357   3.116   3.249   3.102 -0.7522  0.3123  1.6358
 4907SOL    HW226358   3.209   3.145   3.093  0.0561  1.1243 -0.4577
 4908SOL     OW26359   3.134   0.626   3.996 -0.0621 -0.3853  0.7595
 4908SOL    HW126360   3.220   0.662   3.974 -0.7174  0.4245 -0.4571
 4908SOL    HW226361   3.118   0.563   3.926  0.5957  1.6818 -1.2471
 4909SOL     OW26362   2.656   1.352   1.840  0.2422 -0.4443  0.0977
 4909SOL    HW126363   2.579   1.297   1.851 -1.4688  2.4556  2.3367
 4909SOL    HW226364   2.641   1.408   1.916  0.8317 -0.3217  0.1268
 4910SOL     OW26365   3.664   4.485   3.493  0.1188 -0.0507  0.3050
 4910SOL    HW126366   3.579   4.456   3.460  0.3403 -1.0975  0.6538
 4910SOL    HW226367   3.672   4.443   3.579  1.9547  1.3821  0.8613
 4911SOL     OW26368   0.131   4.426   5.555 -0.7709  0.3715  0.3423
 4911SOL    HW126369   0.171   4.511   5.572 -1.5885  1.0964 -1.3149
 4911SOL    HW226370   0.201   4.389   5.502 -0.2351 -0.6384  1.7724
 4912SOL     OW26371   0.870   1.366  12.402 -0.0817 -0.0894 -0.7102
 4912SOL    HW126372   0.964   1.384  12.410 -0.2649  0.4677  0.1304
 4912SOL    HW226373   0.856   1.408  12.317  0.2162  0.9950 -0.2208
 4913SOL     OW26374   3.524   2.567   2.322 -0.7208 -0.3932  0.2953
 4913SOL    HW126375   3.483   2.609   2.398  0.2707  0.8983  0.1266
 4913SOL    HW226376   3.473   2.609   2.252 -0.8637 -0.0804  0.5845
 4914SOL     OW26377   4.724   2.484   1.328 -0.3101 -0.5849  0.2978
 4914SOL    HW126378   4.679   2.405   1.298  0.4526 -0.4157 -1.2773
 4914SOL    HW226379   0.064   2.450   1.367  2.0442 -0.9874 -4.8347
 4915SOL     OW26380   1.867   2.922   4.636 -0.1431  0.7258 -0.0519
 4915SOL    HW126381   1.934   2.874   4.588 -0.7612  0.2469 -0.4458
 4915SOL    HW226382   1.805   2.948   4.568 -2.3143 -2.4145  0.6910
 4916SOL     OW26383   0.371   2.213   6.174  0.2689  0.1471  0.1144
 4916SOL    HW126384   0.321   2.183   6.251  0.0781  0.4688  0.1141
 4916SOL    HW226385   0.310   2.220   6.100  1.8526 -1.6611 -1.3554
 4917SOL     OW26386   3.763   0.989   9.341 -0.3967  0.4008  0.0266
 4917SOL    HW126387   3.777   1.035   9.424  0.1809 -0.2665  0.2974
 4917SOL    HW226388   3.775   1.068   9.288  1.1172  2.8685  4.0576
 4918SOL     OW26389   2.590   3.441   3.746 -0.6466  0.5054  0.0662
 4918SOL    HW126390   2.652   3.503   3.709  0.6917 -0.8504 -0.0026
 4918SOL    HW226391   2.510   3.492   3.737 -0.5970  0.3077 -1.4121
 4919SOL     OW26392   4.391   2.708   8.312  0.2243 -0.4021 -0.8785
 4919SOL    HW126393   4.299   2.691   8.331  0.4807  0.4791  1.1366
 4919SOL    HW226394   4.424   2.625   8.345  1.1753 -0.5721 -2.2742
 4920SOL     OW26395   0.951   4.109   6.860 -0.4751 -0.0359  0.5383
 4920SOL    HW126396   0.927   4.188   6.811  1.3840  1.0824  1.4149
 4920SOL    HW226397   0.933   4.032   6.807 -0.2266 -0.3599  0.9223
 4921SOL     OW26398   2.209   3.374   0.232  0.0012  0.0957 -0.2913
 4921SOL    HW126399   2.179   3.372   0.141  1.2873 -1.1774 -0.6808
 4921SOL    HW226400   2.147   3.309   0.267 -1.9522  3.4335  2.5273
 4922SOL     OW26401   2.391   1.231   5.978 -0.1879 -0.3688 -0.0954
 4922SOL    HW126402   2.349   1.149   5.951  0.7583 -2.2543  4.1393
 4922SOL    HW226403   2.475   1.199   6.011  1.1305  2.8508 -0.3100
 4923SOL     OW26404   3.315   4.133   2.436 -0.3998 -0.4083 -0.2587
 4923SOL    HW126405   3.353   4.177   2.511  1.8076  0.9488 -2.1660
 4923SOL    HW226406   3.361   4.050   2.452 -1.0585 -1.1181 -1.9977
 4924SOL     OW26407   2.615   1.317  13.667  0.2618  0.9306  0.3418
 4924SOL    HW126408   2.579   1.272  13.590  0.6910 -2.8248  2.3255
 4924SOL    HW226409   2.662   1.244  13.708 -4.4675 -1.2164  1.8463
 4925SOL     OW26410   4.713   0.711   2.253  0.2667  0.4294 -0.3960
 4925SOL    HW126411   0.068   0.719   2.247  0.1912  0.1312 -2.2491
 4925SOL    HW226412   4.692   0.710   2.159  0.9045 -0.9104 -0.5302
 4926SOL     OW26413   4.634   2.322   8.150 -0.2649  0.5872 -0.0492
 4926SOL    HW126414   4.702   2.390   8.147  1.1058 -0.8239 -0.9957
 4926SOL    HW226415   4.608   2.329   8.058  2.3203  0.2723 -0.8113
 4927SOL     OW26416   2.891   3.994  15.681 -0.0195 -0.0713  0.4416
 4927SOL    HW126417   2.913   4.046  15.603 -0.7596  0.7692  0.7919
 4927SOL    HW226418   2.827   3.938  15.636 -1.4367  1.0270  1.0695
 4928SOL     OW26419   0.284   1.307   3.392 -0.3616  0.0179 -0.2776
 4928SOL    HW126420   0.348   1.370   3.427  0.5197  0.0535 -1.9511
 4928SOL    HW226421   0.242   1.277   3.472 -0.4018 -0.1093 -0.3471
 4929SOL     OW26422   1.221   0.332   5.731 -0.4470 -0.1990 -0.2665
 4929SOL    HW126423   1.153   0.336   5.798 -0.1846 -1.8427  0.1055
 4929SOL    HW226424   1.224   0.424   5.708 -1.6139 -0.4193 -1.2729
 4930SOL     OW26425   2.015   4.023   5.219  0.2959  0.5174 -0.1198
 4930SOL    HW126426   1.945   4.081   5.186  1.8038  1.9673 -0.7716
 4930SOL    HW226427   2.093   4.046   5.169  0.2774  3.8951  1.3519
 4931SOL     OW26428   3.852   3.503   2.434 -0.2563 -0.2580  0.3072
 4931SOL    HW126429   3.942   3.471   2.431 -0.5446 -1.2070  1.9196
 4931SOL    HW226430   3.808   3.432   2.389  0.4080  0.2169 -1.0741
 4932SOL     OW26431   2.269   4.596   0.763  0.7274 -0.1284  0.3248
 4932SOL    HW126432   2.343   4.652   0.788  0.1802  0.1879  1.1961
 4932SOL    HW226433   2.236   4.657   0.696  0.5363 -0.8996 -0.2868
 4933SOL     OW26434   0.430   3.511  16.544  0.4676 -0.4838 -0.1636
 4933SOL    HW126435   0.519   3.530  16.516  0.2261  0.3059 -0.3895
 4933SOL    HW226436   0.395   3.592  16.510  0.4850 -0.6730 -0.6260
 4934SOL     OW26437   2.814   0.818  12.860 -0.2960  1.0797 -0.7539
 4934SOL    HW126438   2.820   0.853  12.949 -0.8790 -0.4486 -0.1112
 4934SOL    HW226439   2.897   0.771  12.849 -1.2852 -1.0338  0.8884
 4935SOL     OW26440   4.331   2.184  11.099 -0.2421 -0.1502 -0.4110
 4935SOL    HW126441   4.359   2.098  11.129  0.0712 -0.3527 -1.2892
 4935SOL    HW226442   4.302   2.221  11.182  1.7266 -1.0270  0.6627
 4936SOL     OW26443   1.795   2.957   4.003  0.8541 -0.4368  0.0841
 4936SOL    HW126444   1.796   3.006   3.921  0.1229 -1.8593 -0.7753
 4936SOL    HW226445   1.797   2.868   3.966  0.8352 -0.1265 -0.6625
 4937SOL     OW26446   4.322   4.467   3.026  0.1856 -0.7104  0.2140
 4937SOL    HW126447   4.327   4.393   2.965 -1.2286 -0.7421  0.1357
 4937SOL    HW226448   4.252   4.431   3.081  1.0663 -2.4193  0.2223
 4938SOL     OW26449   4.458   3.091  12.248  0.4864 -0.0652  0.3213
 4938SOL    HW126450   4.421   3.006  12.224  0.3483  0.0587  0.0952
 4938SOL    HW226451   4.395   3.117  12.315 -1.5967 -0.4485 -1.4949
 4939SOL     OW26452   0.036   3.787   5.737 -0.4641 -0.3261  0.0321
 4939SOL    HW126453   0.012   3.810   5.647 -0.1097 -0.2739 -0.0491
 4939SOL    HW226454   0.118   3.738   5.737 -0.3769 -0.1799  0.0242
 4940SOL     OW26455   3.779   3.804   7.964  0.0561 -0.0645 -0.4898
 4940SOL    HW126456   3.832   3.728   7.988  0.0072 -0.2848 -1.0644
 4940SOL    HW226457   3.704   3.765   7.919  1.1623 -1.2514 -1.3192
 4941SOL     OW26458   3.024   3.672  12.264 -0.3086 -0.3750  0.1676
 4941SOL    HW126459   3.098   3.689  12.205  0.6362  0.9879  1.7466
 4941SOL    HW226460   3.064   3.621  12.334 -0.7032  0.3603  0.9270
 4942SOL     OW26461   0.645   1.067   2.898  0.2175 -0.4067  0.1694
 4942SOL    HW126462   0.637   1.076   2.803  0.2229 -0.5215  0.1577
 4942SOL    HW226463   0.696   1.145   2.919 -1.3754  1.1197 -1.6997
 4943SOL     OW26464   4.690   0.744   7.045  0.4354 -0.2354 -0.5725
 4943SOL    HW126465   4.599   0.749   7.014  0.9075 -0.8235 -2.0605
 4943SOL    HW226466   4.691   0.803   7.120 -0.1063 -0.8463 -0.0873
 4944SOL     OW26467   0.397   0.323   3.621  0.6061 -0.1576 -0.4452
 4944SOL    HW126468   0.336   0.281   3.561  0.0287  0.3093 -0.1748
 4944SOL    HW226469   0.354   0.393   3.669 -3.7440 -2.8830 -0.3466
 4945SOL     OW26470   2.619   1.283  12.220 -0.0820  0.8541  0.2149
 4945SOL    HW126471   2.552   1.288  12.288 -0.2119 -1.7672  0.2706
 4945SOL    HW226472   2.563   1.264  12.144 -0.2735 -0.9460  0.7947
 4946SOL     OW26473   2.237   2.806   7.707  0.0529 -0.7113  0.1482
 4946SOL    HW126474   2.153   2.768   7.680 -0.7570 -0.5954  2.5397
 4946SOL    HW226475   2.214   2.897   7.721 -0.5366 -0.9840  0.9332
 4947SOL     OW26476   3.847   0.220   2.673  0.3861 -0.2593 -0.1951
 4947SOL    HW126477   3.838   0.258   2.586 -2.2245  1.2447  0.7337
 4947SOL    HW226478   3.921   0.159   2.660 -0.1543 -0.6490 -1.4319
 4948SOL     OW26479   1.931   2.597   6.381  0.1453 -0.1556 -0.1568
 4948SOL    HW126480   1.988   2.641   6.318 -1.1874  0.5203 -0.8790
 4948SOL    HW226481   1.848   2.593   6.334  0.7139  2.5463 -1.3456
 4949SOL     OW26482   0.492   0.220  16.210  0.7973  0.0445  0.4275
 4949SOL    HW126483   0.488   0.128  16.183 -1.7567  0.2787  0.0228
 4949SOL    HW226484   0.478   0.262  16.125  0.3269  1.1670  1.0592
 4950SOL     OW26485   3.536   1.057   9.649 -0.6547 -0.4499 -0.4969
 4950SOL    HW126486   3.448   1.092   9.662 -0.6270  0.0794 -1.7869
 4950SOL    HW226487   3.562   1.070   9.741 -0.5624  1.6676 -0.8061
 4951SOL     OW26488   4.404   0.665  12.654 -0.0958  0.2230 -0.5838
 4951SOL    HW126489   4.464   0.704  12.591 -1.2119  4.0965  0.7679
 4951SOL    HW226490   4.405   0.732  12.722 -0.2016 -1.8809  1.5176
 4952SOL     OW26491   1.862   3.290  13.493 -0.0039 -0.2351  0.5077
 4952SOL    HW126492   1.906   3.211  13.459 -0.6145 -0.1685 -0.4341
 4952SOL    HW226493   1.786   3.288  13.436  0.2637  0.1729  0.1447
 4953SOL     OW26494   4.158   1.149   5.847  0.2479  0.1900 -0.3296
 4953SOL    HW126495   4.086   1.150   5.909  1.5203  0.2020  1.1600
 4953SOL    HW226496   4.146   1.070   5.795  1.3914 -0.4698  0.4091
 4954SOL     OW26497   2.170   3.678   5.422  0.2078  0.4132 -0.5845
 4954SOL    HW126498   2.102   3.744   5.436 -0.1934 -0.2386  0.4940
 4954SOL    HW226499   2.232   3.731   5.472 -1.0708 -1.4457  2.9267
 4955SOL     OW26500   3.640   0.637   5.528  0.1416  0.1589  0.6644
 4955SOL    HW126501   3.579   0.576   5.487  1.2100 -1.4268  1.4726
 4955SOL    HW226502   3.656   0.584   5.606  0.9866  0.1414  0.4774
 4956SOL     OW26503   3.676   2.903  11.157  0.2194 -0.3090 -0.2426
 4956SOL    HW126504   3.657   2.938  11.070  1.9461 -3.4061 -1.8589
 4956SOL    HW226505   3.598   2.921  11.208  0.1525  0.1484 -0.5027
 4957SOL     OW26506   1.316   0.111   8.794  0.3918  0.0296 -0.1813
 4957SOL    HW126507   1.233   0.121   8.747  0.3329 -0.2763 -0.1403
 4957SOL    HW226508   1.301   0.033   8.846  1.0401  0.0263 -0.0034
 4958SOL     OW26509   0.084   0.985   8.422 -0.1300  0.3775 -0.0543
 4958SOL    HW126510   0.038   1.066   8.398  0.9575  1.6001  1.9923
 4958SOL    HW226511   0.035   0.956   8.499 -0.6999  0.7315 -0.2828
 4959SOL     OW26512   3.046   3.106   6.061  0.2714 -0.0433  0.6843
 4959SOL    HW126513   2.965   3.153   6.039  0.2764  0.3417  1.4849
 4959SOL    HW226514   3.094   3.117   5.979 -1.3008  1.8089  0.0123
 4960SOL     OW26515   0.146   2.498   5.213  0.0312  0.1627  0.4478
 4960SOL    HW126516   0.111   2.467   5.129 -0.9131 -0.7090  1.1531
 4960SOL    HW226517   0.187   2.419   5.248  0.8559  0.3923 -0.0041
 4961SOL     OW26518   3.244   1.806   2.508 -0.7247  0.0739 -0.2536
 4961SOL    HW126519   3.227   1.754   2.430  2.2760 -1.3596  0.0688
 4961SOL    HW226520   3.264   1.883   2.455  1.5139  0.5065  1.2406
 4962SOL     OW26521   2.694   4.192  15.164  0.3364  0.1424  0.2634
 4962SOL    HW126522   2.748   4.113  15.155  0.0805 -0.0523  0.4409
 4962SOL    HW226523   2.759   4.261  15.177  1.7222 -0.9491 -0.8333
 4963SOL     OW26524   3.242   1.034  10.936 -0.2469 -0.1492  0.1124
 4963SOL    HW126525   3.335   1.059  10.938 -0.9258  2.3876 -0.2311
 4963SOL    HW226526   3.208   1.123  10.927  1.0650  0.1846 -1.4919
 4964SOL     OW26527   3.571   4.514   4.077  0.3690 -0.5513 -0.4801
 4964SOL    HW126528   3.532   4.576   4.015 -0.6671  0.6887  1.4146
 4964SOL    HW226529   3.494   4.456   4.083  0.4671 -0.7019 -0.6906
 4965SOL     OW26530   1.585   3.117   3.905 -0.4286  0.5029  0.1280
 4965SOL    HW126531   1.558   3.026   3.917  2.5207 -0.2692  0.8201
 4965SOL    HW226532   1.634   3.125   3.824  0.5924 -0.8863  0.6042
 4966SOL     OW26533   3.909   3.883   2.755  0.1831 -0.1381  0.0430
 4966SOL    HW126534   3.976   3.925   2.809 -2.2776  1.5970  1.7489
 4966SOL    HW226535   3.881   3.809   2.808 -1.5715  0.8931  0.5434
 4967SOL     OW26536   0.467   3.163   7.200  0.4134 -0.4397 -0.7434
 4967SOL    HW126537   0.486   3.174   7.293 -1.3037 -1.7955 -0.2488
 4967SOL    HW226538   0.392   3.103   7.201 -1.1299  1.4781  0.0600
 4968SOL     OW26539   2.391   0.972   5.855 -0.3437  0.3161 -0.2329
 4968SOL    HW126540   2.397   0.905   5.923  1.9069  0.8257  0.0728
 4968SOL    HW226541   2.297   0.965   5.838 -0.6043  2.6000  0.2164
 4969SOL     OW26542   1.471   4.412   4.230  0.8003  0.3254  0.3623
 4969SOL    HW126543   1.515   4.450   4.154 -0.4446  1.1179  0.0268
 4969SOL    HW226544   1.399   4.473   4.247  0.2283 -0.3249  0.2584
 4970SOL     OW26545   0.842   2.593   7.135  0.5095 -0.6205  0.0171
 4970SOL    HW126546   0.824   2.537   7.061  1.6090  2.1131 -2.3333
 4970SOL    HW226547   0.902   2.659   7.098 -0.7414 -0.3199 -1.4291
 4971SOL     OW26548   0.654   3.160   7.710 -0.0447 -0.1185 -0.1102
 4971SOL    HW126549   0.685   3.088   7.765 -0.0932  0.0658  0.1568
 4971SOL    HW226550   0.737   3.204   7.688  0.3310 -0.2219  1.0946
 4972SOL     OW26551   4.380   0.909   7.005 -0.8154 -0.4274 -0.0542
 4972SOL    HW126552   4.344   0.996   7.021  0.7927  0.8215 -3.0506
 4972SOL    HW226553   4.384   0.866   7.090  0.3847 -1.5129 -0.6413
 4973SOL     OW26554   0.590   1.214   9.102  0.2876  0.4873  0.1944
 4973SOL    HW126555   0.542   1.155   9.160  1.3403  0.3939  0.9845
 4973SOL    HW226556   0.666   1.225   9.160  0.5810  0.1719 -0.1287
 4974SOL     OW26557   4.340   0.603   7.131  0.2001 -0.3748 -0.6119
 4974SOL    HW126558   4.404   0.607   7.201 -1.1206 -2.6121  0.7314
 4974SOL    HW226559   4.390   0.578   7.054  1.2841 -0.9387  0.2863
 4975SOL     OW26560   1.339   2.217  10.288 -0.3047 -0.4465  0.1888
 4975SOL    HW126561   1.323   2.275  10.213 -0.7777 -0.0365  0.6087
 4975SOL    HW226562   1.411   2.166  10.252 -0.1235  0.0079 -0.1010
 4976SOL     OW26563   0.776   0.604   7.405  0.4389 -0.2246  0.2284
 4976SOL    HW126564   0.799   0.511   7.404  0.9320 -0.1066  0.7031
 4976SOL    HW226565   0.726   0.601   7.486  1.5056 -1.3686  0.8412
 4977SOL     OW26566   3.383   3.437   8.411  0.1656  0.0278 -0.1356
 4977SOL    HW126567   3.458   3.480   8.370 -1.1129  0.7937 -1.6555
 4977SOL    HW226568   3.400   3.344   8.398  1.2343  0.8397 -4.5380
 4978SOL     OW26569   1.863   1.388   6.655  0.9587 -0.3209  0.2760
 4978SOL    HW126570   1.881   1.373   6.562  0.7338 -0.5784  0.2767
 4978SOL    HW226571   1.952   1.412   6.680 -0.0693  1.5621  2.0975
 4979SOL     OW26572   2.382   0.697   7.492 -0.0346 -0.6240 -0.4831
 4979SOL    HW126573   2.300   0.713   7.538 -0.2596 -1.9994 -0.4135
 4979SOL    HW226574   2.348   0.623   7.441  1.1023 -1.9932  0.7591
 4980SOL     OW26575   3.396   0.362  14.631 -0.8771 -0.4615 -0.2065
 4980SOL    HW126576   3.441   0.438  14.596 -1.5120  0.3179  0.6688
 4980SOL    HW226577   3.464   0.307  14.670 -1.9183 -1.9253 -0.4346
 4981SOL     OW26578   0.465   0.116  11.561 -0.2904  0.1641 -0.1098
 4981SOL    HW126579   0.554   0.142  11.537  0.0619  0.2272  1.2271
 4981SOL    HW226580   0.419   0.147  11.483  0.2444  2.6452  0.5524
 4982SOL     OW26581   0.049   2.873   5.451  0.5938 -0.8559  0.5313
 4982SOL    HW126582   0.002   2.794   5.425  2.6460 -2.1218  0.7152
 4982SOL    HW226583   4.715   2.932   5.466  0.5672 -0.5628 -0.7253
 4983SOL     OW26584   2.361   4.487   4.766  0.1497 -0.0464 -0.7193
 4983SOL    HW126585   2.372   4.419   4.701 -3.8592 -1.7519  0.3833
 4983SOL    HW226586   2.301   4.546   4.720 -1.5302 -1.3253 -0.1404
 4984SOL     OW26587   2.774   4.736  16.729  0.3249 -0.2182  0.2099
 4984SOL    HW126588   2.789   4.645  16.702 -3.1544 -1.1919  1.5877
 4984SOL    HW226589   2.750   4.721  16.820 -2.3460  2.3703 -0.0791
 4985SOL     OW26590   0.408   0.920   3.977 -0.0608 -0.6843  0.3953
 4985SOL    HW126591   0.392   1.011   3.951  2.2809 -0.1768  0.7116
 4985SOL    HW226592   0.430   0.878   3.894 -0.2063 -0.6965  0.3630
 4986SOL     OW26593   3.352   1.046  13.494 -0.0578 -0.4166  0.2604
 4986SOL    HW126594   3.289   0.975  13.491 -1.6725  1.1021 -2.1126
 4986SOL    HW226595   3.289   1.117  13.480  0.2712  0.0687  1.2708
 4987SOL     OW26596   1.256   0.303  13.792 -0.1797 -0.1707 -0.1405
 4987SOL    HW126597   1.182   0.282  13.850  0.8288  2.2435  2.0002
 4987SOL    HW226598   1.327   0.329  13.851 -0.3012  1.9330 -0.9282
 4988SOL     OW26599   0.452   2.981   6.710 -0.0496  0.7408 -0.2399
 4988SOL    HW126600   0.510   3.057   6.720  1.0615 -0.1897  0.4325
 4988SOL    HW226601   0.506   2.906   6.686 -0.8452  0.5987 -1.5696
 4989SOL     OW26602   0.134   1.601   0.851 -0.2098  0.7474 -0.0076
 4989SOL    HW126603   0.142   1.631   0.942  0.7318  1.4660 -0.3275
 4989SOL    HW226604   0.220   1.624   0.817 -0.1957 -1.1206 -1.2068
 4990SOL     OW26605   3.492   3.784  13.703  0.0659  0.5023 -0.4157
 4990SOL    HW126606   3.474   3.772  13.610  2.1696 -0.6592 -0.6742
 4990SOL    HW226607   3.549   3.860  13.711 -0.4133  0.9139 -0.8969
 4991SOL     OW26608   0.734   1.137  15.646 -0.2309  0.4444  0.6423
 4991SOL    HW126609   0.750   1.232  15.645  0.6040  0.2897 -0.7683
 4991SOL    HW226610   0.819   1.096  15.629 -0.4451  0.5172 -0.5539
 4992SOL     OW26611   4.573   4.387   2.360  0.9523 -0.8599 -0.1677
 4992SOL    HW126612   4.496   4.348   2.318  0.6330  0.3119 -0.6708
 4992SOL    HW226613   4.613   4.449   2.298 -2.7309 -0.2985 -1.9949
 4993SOL     OW26614   3.685   4.506   7.634 -0.1676  0.2557 -0.0805
 4993SOL    HW126615   3.764   4.482   7.683 -0.0786 -0.8064 -0.7499
 4993SOL    HW226616   3.657   4.421   7.600  0.6808  0.6593 -1.8341
 4994SOL     OW26617   2.013   0.329   3.773 -0.1957 -0.0353 -0.1424
 4994SOL    HW126618   2.075   0.372   3.832 -1.2213 -0.8266  1.5208
 4994SOL    HW226619   2.028   0.378   3.692 -2.4725  0.1897 -0.4460
 4995SOL     OW26620   0.594   3.283   7.996 -0.1473 -0.8071 -0.0916
 4995SOL    HW126621   0.682   3.307   8.026  0.1675 -0.4011 -1.3393
 4995SOL    HW226622   0.596   3.292   7.900  0.1340 -2.4362 -0.2380
 4996SOL     OW26623   1.585   2.646   1.670 -0.0384 -0.1846  0.8034
 4996SOL    HW126624   1.619   2.588   1.738  0.4273  0.3393  1.0175
 4996SOL    HW226625   1.645   2.720   1.679  0.3851 -0.5271  0.7882
 4997SOL     OW26626   0.166   1.740   8.023  0.3340  0.8047 -0.1003
 4997SOL    HW126627   0.106   1.696   8.082  1.0366 -1.9630 -1.4552
 4997SOL    HW226628   0.211   1.661   7.993 -2.3775 -0.2750 -1.3513
 4998SOL     OW26629   0.100   3.355  13.505 -0.4441 -0.6233 -0.2494
 4998SOL    HW126630   0.071   3.375  13.416 -1.3917 -0.3700  0.1130
 4998SOL    HW226631   0.031   3.296  13.535  0.7076 -1.4773  0.7187
 4999SOL     OW26632   2.924   4.117   1.443 -0.2103  0.6513 -0.2536
 4999SOL    HW126633   2.848   4.098   1.387  0.8223 -1.9679 -0.7611
 4999SOL    HW226634   2.992   4.071   1.393  0.5307  0.5731  0.8332
 5000SOL     OW26635   3.333   3.716   8.071  0.9016  0.3622 -0.2786
 5000SOL    HW126636   3.298   3.688   8.155  0.2051  1.0713 -0.3269
 5000SOL    HW226637   3.252   3.726   8.020 -0.0555  0.3365  1.2577
 5001SOL     OW26638   3.424   0.400  13.755 -0.2754 -0.0639 -0.6104
 5001SOL    HW126639   3.445   0.492  13.741  1.9409 -0.4371  0.2249
 5001SOL    HW226640   3.395   0.401  13.846  0.2953 -0.0884 -0.4293
 5002SOL     OW26641   4.047   2.058   4.488 -0.3304 -0.4970  0.4028
 5002SOL    HW126642   4.073   1.972   4.523 -1.7667 -1.2804 -0.4488
 5002SOL    HW226643   4.072   2.048   4.397  0.8831 -1.4804  0.8425
 5003SOL     OW26644   4.605   1.492   5.183  0.1731  0.5301  0.0598
 5003SOL    HW126645   4.679   1.432   5.173 -0.1618  0.2356 -0.6369
 5003SOL    HW226646   4.562   1.449   5.256 -0.2146 -1.4674 -1.3438
 5004SOL     OW26647   3.060   1.953  12.383 -0.0475  0.1909 -0.4010
 5004SOL    HW126648   3.118   1.925  12.454  0.7119 -0.5434 -1.3202
 5004SOL    HW226649   3.055   2.048  12.383 -3.1787  0.0443  0.3246
 5005SOL     OW26650   2.532   4.515   1.697  0.1065 -0.0358  0.0775
 5005SOL    HW126651   2.439   4.505   1.719 -0.2847 -2.0158 -2.3713
 5005SOL    HW226652   2.560   4.423   1.702 -0.1188 -0.2206 -2.0863
 5006SOL     OW26653   3.827   1.740   7.717 -0.7306 -0.6266 -0.2065
 5006SOL    HW126654   3.900   1.760   7.659 -0.5014 -0.2017  0.2314
 5006SOL    HW226655   3.855   1.676   7.782  0.2131 -0.9233 -0.9096
 5007SOL     OW26656   3.199   1.059  10.408 -0.5419  0.2274 -0.2315
 5007SOL    HW126657   3.160   0.973  10.427  0.4610 -0.1894 -0.0201
 5007SOL    HW226658   3.285   1.027  10.381 -0.5275 -0.1469  0.2343
 5008SOL     OW26659   0.352   2.055   9.283 -0.2091  0.3931  0.3965
 5008SOL    HW126660   0.356   2.113   9.207  2.5569  0.1272  0.3288
 5008SOL    HW226661   0.439   2.079   9.314 -0.9010  1.0059  1.8743
 5009SOL     OW26662   1.501   0.504   3.723  1.1365 -0.5232  0.3061
 5009SOL    HW126663   1.572   0.519   3.785  2.0031 -2.0717 -0.3222
 5009SOL    HW226664   1.483   0.591   3.689  0.8015 -0.5677  0.3626
 5010SOL     OW26665   2.688   2.824   3.029 -0.2935  0.0467  0.0635
 5010SOL    HW126666   2.688   2.890   2.959  0.1697  2.2439  2.1193
 5010SOL    HW226667   2.771   2.781   3.011 -0.5227 -0.1727 -0.4885
 5011SOL     OW26668   2.458   4.635   5.106 -0.5755  0.2698  0.3304
 5011SOL    HW126669   2.517   4.591   5.045  2.1181 -1.2688  4.0552
 5011SOL    HW226670   2.462   4.730   5.093 -3.1540  0.4461  0.7856
 5012SOL     OW26671   0.440   2.064   3.601  0.2742 -0.8922  0.4035
 5012SOL    HW126672   0.493   2.021   3.667 -0.8394 -1.5080  0.9010
 5012SOL    HW226673   0.462   2.010   3.525  2.4638  0.5953 -0.0136
 5013SOL     OW26674   1.764   0.076   6.568 -0.1316  0.3219 -0.3600
 5013SOL    HW126675   1.766   4.723   6.592  0.8666  0.3340 -0.3748
 5013SOL    HW226676   1.850   0.089   6.528  0.5809 -0.1090  1.0296
 5014SOL     OW26677   2.030   2.345  14.625  0.4277  0.4754  1.2856
 5014SOL    HW126678   2.016   2.253  14.647 -0.0063  0.4302  0.8096
 5014SOL    HW226679   1.984   2.356  14.542 -0.3753  1.4136  1.8533
 5015SOL     OW26680   2.592   4.105   2.238  0.0956  0.1572 -0.0771
 5015SOL    HW126681   2.594   4.011   2.219  1.5741  0.1613  0.0707
 5015SOL    HW226682   2.542   4.109   2.320  0.2118  3.3355 -0.1819
 5016SOL     OW26683   2.700   3.413   5.100 -0.0910  0.1083 -0.8389
 5016SOL    HW126684   2.796   3.413   5.108 -0.1970  1.6333  0.6006
 5016SOL    HW226685   2.676   3.499   5.065 -1.6194 -0.1732 -0.4922
 5017SOL     OW26686   1.766   0.229   3.093 -0.5840  0.1834  0.1386
 5017SOL    HW126687   1.709   0.241   3.169 -0.6801 -2.6913  0.5160
 5017SOL    HW226688   1.772   0.322   3.070  1.9503 -0.0441 -0.1410
 5018SOL     OW26689   2.551   0.833   8.797  0.3910 -0.1590  0.3750
 5018SOL    HW126690   2.543   0.742   8.768 -1.5419  0.0181  0.3084
 5018SOL    HW226691   2.539   0.873   8.710 -3.2330 -0.4175  0.7349
 5019SOL     OW26692   0.715   1.336   4.789  0.0825  0.5451 -0.5689
 5019SOL    HW126693   0.759   1.252   4.801  0.8299  1.0866  0.4304
 5019SOL    HW226694   0.625   1.309   4.810  0.6711  0.0698  1.2541
 5020SOL     OW26695   1.648   1.984   8.293 -0.0538  0.2219 -0.3380
 5020SOL    HW126696   1.644   1.932   8.373  2.5792 -1.2057 -1.1103
 5020SOL    HW226697   1.593   2.055   8.324  4.1355  3.3310 -0.1010
 5021SOL     OW26698   0.695   3.898   4.087  0.8427 -0.3950  0.0025
 5021SOL    HW126699   0.703   3.805   4.067  0.0778 -0.9027  2.0950
 5021SOL    HW226700   0.785   3.927   4.101  0.9154 -1.3583  1.5064
 5022SOL     OW26701   4.648   1.985   9.520  0.0276 -0.0983 -0.5886
 5022SOL    HW126702   4.687   2.072   9.519 -1.6015  0.6259 -1.0827
 5022SOL    HW226703   4.662   1.957   9.430  0.1226  0.1907 -0.6649
 5023SOL     OW26704   3.427   0.350   5.021  0.3919  0.3245 -0.2380
 5023SOL    HW126705   3.504   0.303   4.990  0.9289  2.3490 -2.0130
 5023SOL    HW226706   3.454   0.435   5.057  1.3349 -0.7790  1.6305
 5024SOL     OW26707   1.007   3.619   4.744  0.0803  0.2231  0.1306
 5024SOL    HW126708   1.052   3.535   4.750 -2.0470 -0.7743  2.5034
 5024SOL    HW226709   0.978   3.622   4.653  2.3792  3.0895 -0.4800
 5025SOL     OW26710   2.326   2.639  11.237  0.2469 -0.4642  0.0248
 5025SOL    HW126711   2.367   2.607  11.317  0.6622 -3.0411 -1.2384
 5025SOL    HW226712   2.242   2.597  11.254  0.2234 -0.5340 -0.2630
 5026SOL     OW26713   1.620   3.463   2.489 -0.6563  0.5241  0.3059
 5026SOL    HW126714   1.658   3.393   2.543  0.5895 -0.0244 -1.2740
 5026SOL    HW226715   1.532   3.429   2.473  0.3020 -2.8412  1.9872
 5027SOL     OW26716   0.446   2.147   8.677  0.2808 -0.3201 -0.3755
 5027SOL    HW126717   0.470   2.056   8.689  1.4973 -0.2119 -1.9342
 5027SOL    HW226718   0.480   2.166   8.589 -1.8163  2.0318 -0.6823
 5028SOL     OW26719   0.225   1.697   1.079 -0.6798  0.3852 -0.2791
 5028SOL    HW126720   0.297   1.704   1.142 -1.2005  0.6369  0.2927
 5028SOL    HW226721   0.158   1.731   1.138  0.8061 -1.4641  2.4746
 5029SOL     OW26722   3.936   2.644   7.969  0.6772  0.2965  0.1346
 5029SOL    HW126723   4.001   2.580   7.999 -0.1931 -1.4629 -1.7551
 5029SOL    HW226724   3.999   2.710   7.938  0.2218 -0.7183 -2.9298
 5030SOL     OW26725   3.597   0.762  15.295  0.4015 -0.9542 -0.1538
 5030SOL    HW126726   3.538   0.816  15.243  2.1718  1.4999  0.3707
 5030SOL    HW226727   3.621   0.693  15.234 -0.2202  0.0322 -1.5220
 5031SOL     OW26728   0.685   0.979  10.813  0.5991  0.8998  0.3226
 5031SOL    HW126729   0.617   0.951  10.874  4.2898 -0.9600  3.5579
 5031SOL    HW226730   0.743   0.903  10.821  0.6735  0.7347 -1.8064
 5032SOL     OW26731   3.327   2.483   3.032  0.5766 -0.8189 -0.1279
 5032SOL    HW126732   3.329   2.525   3.118 -3.0596 -2.6518  0.8102
 5032SOL    HW226733   3.358   2.394   3.048  0.3675 -0.5768  1.6783
 5033SOL     OW26734   1.277   1.823   6.862  0.0692  0.0623  0.2037
 5033SOL    HW126735   1.206   1.826   6.797  1.1745  1.5522 -0.9538
 5033SOL    HW226736   1.263   1.900   6.917  0.9551 -0.1904  0.7761
 5034SOL     OW26737   2.858   3.301   8.853 -0.2995  0.9828  0.6690
 5034SOL    HW126738   2.799   3.280   8.925  0.1844 -1.0243  0.4767
 5034SOL    HW226739   2.802   3.353   8.794 -0.0699 -1.3512 -1.6113
 5035SOL     OW26740   2.281   4.384   0.567 -0.0052  0.0667 -0.1409
 5035SOL    HW126741   2.373   4.405   0.549 -0.0129  0.5007  0.3208
 5035SOL    HW226742   2.271   4.420   0.655 -0.9488  0.9172 -0.5968
 5036SOL     OW26743   2.881   1.612   0.839  0.0067  0.3462  0.0904
 5036SOL    HW126744   2.837   1.527   0.845  0.0373  0.1366 -2.8193
 5036SOL    HW226745   2.968   1.589   0.806  0.1275  1.4029 -0.3335
 5037SOL     OW26746   2.527   3.895  15.039 -0.0682 -0.5852  0.1854
 5037SOL    HW126747   2.541   3.930  14.951  1.8317  0.4811  0.8882
 5037SOL    HW226748   2.570   3.968  15.085 -0.7364 -0.4855  0.6605
 5038SOL     OW26749   0.834   0.570  14.062  0.2026 -0.1515  0.1366
 5038SOL    HW126750   0.862   0.513  14.134  1.4650  0.0629 -0.1903
 5038SOL    HW226751   0.816   0.649  14.114 -0.9684  1.1161 -2.2004
 5039SOL     OW26752   1.503   2.419   3.819 -0.0778  0.0152 -0.3014
 5039SOL    HW126753   1.478   2.458   3.735 -0.2663  1.7165  0.5541
 5039SOL    HW226754   1.451   2.472   3.880  0.9182 -0.9370  1.3882
 5040SOL     OW26755   0.160   0.268   4.588  0.7700  0.0362 -0.2493
 5040SOL    HW126756   0.182   0.245   4.678 -3.1862  0.8638  0.9289
 5040SOL    HW226757   0.230   0.219   4.546  0.6620 -0.0072 -0.3788
 5041SOL     OW26758   4.083   0.377   0.715 -0.0390 -0.4838 -0.6785
 5041SOL    HW126759   4.069   0.361   0.622  0.3060  0.9997 -0.9828
 5041SOL    HW226760   4.003   0.420   0.746  0.6639 -0.3841  0.9911
 5042SOL     OW26761   4.343   3.854   8.131  0.6768  0.2338 -0.2100
 5042SOL    HW126762   4.393   3.829   8.208  0.0524 -1.8524 -0.4991
 5042SOL    HW226763   4.266   3.899   8.164 -0.2394 -0.8872 -0.8348
 5043SOL     OW26764   1.778   2.663   7.252 -0.2721  0.0468  0.0271
 5043SOL    HW126765   1.872   2.644   7.247 -0.2832  0.4297 -1.6231
 5043SOL    HW226766   1.775   2.701   7.340  0.2289 -0.5324  0.2977
 5044SOL     OW26767   0.532   1.448   3.694  0.3985 -0.2932 -0.2685
 5044SOL    HW126768   0.559   1.397   3.617  1.9983  1.5716 -0.9598
 5044SOL    HW226769   0.480   1.516   3.651 -0.9832 -0.0588  1.7455
 5045SOL     OW26770   1.908   3.732   4.810  0.2254  0.2501  0.3190
 5045SOL    HW126771   1.948   3.697   4.889  0.3362 -0.5601 -0.0894
 5045SOL    HW226772   1.972   3.720   4.740 -0.1526  0.4454 -0.0637
 5046SOL     OW26773   1.198   2.800   8.712  0.0211 -0.0189 -0.3305
 5046SOL    HW126774   1.255   2.725   8.698  0.9923  0.7907 -0.7856
 5046SOL    HW226775   1.148   2.799   8.631 -0.1290  2.2445 -0.2716
 5047SOL     OW26776   3.442   4.643   6.466  0.2914  0.5865  0.0087
 5047SOL    HW126777   3.435   4.605   6.554 -1.1935 -0.5912 -0.6151
 5047SOL    HW226778   3.467   4.561   6.422 -1.5904 -0.0307  0.0985
 5048SOL     OW26779   4.545   0.766   0.030 -0.6399 -0.0269  0.7291
 5048SOL    HW126780   4.520   0.846   0.076 -0.6215 -0.7419  2.0065
 5048SOL    HW226781   4.535   0.693   0.092 -2.4714 -1.0875 -0.8272
 5049SOL     OW26782   3.589   3.872   1.027 -0.3052 -0.2666  0.8719
 5049SOL    HW126783   3.681   3.849   1.023 -0.8046 -1.8620 -1.3742
 5049SOL    HW226784   3.577   3.960   0.992  0.0243 -0.2428  0.8282
 5050SOL     OW26785   2.232   2.875  11.430  0.0894 -0.0722 -0.1111
 5050SOL    HW126786   2.234   2.837  11.343  0.9675  1.1374 -0.6178
 5050SOL    HW226787   2.183   2.952  11.401  0.1216  0.2937  0.7896
 5051SOL     OW26788   4.409   4.476   5.183  0.4808 -0.2958  0.1632
 5051SOL    HW126789   4.432   4.407   5.245 -0.8278 -0.8450  0.0324
 5051SOL    HW226790   4.358   4.424   5.121 -1.2332  2.4309 -0.7181
 5052SOL     OW26791   1.083   4.025  10.285  0.2518 -0.1518 -0.2980
 5052SOL    HW126792   1.167   4.068  10.273  0.0645 -0.0850 -1.3506
 5052SOL    HW226793   1.042   4.083  10.350 -3.0666 -1.7140 -0.9888
 5053SOL     OW26794   0.863   1.439   2.944 -0.1805  0.5124 -0.6561
 5053SOL    HW126795   0.892   1.509   3.002 -1.0099  1.0720 -0.9128
 5053SOL    HW226796   0.898   1.473   2.862 -1.4283 -0.7992 -1.7189
 5054SOL     OW26797   4.581   1.592  13.515 -0.5080  0.2839  0.4407
 5054SOL    HW126798   4.545   1.537  13.585 -1.2790  1.1411  0.7150
 5054SOL    HW226799   4.653   1.636  13.560 -0.4327  0.6828 -0.0848
 5055SOL     OW26800   2.143   2.730   6.255  0.0223 -0.0283 -0.0500
 5055SOL    HW126801   2.167   2.814   6.293  0.2665 -0.6865  1.2487
 5055SOL    HW226802   2.173   2.744   6.165  0.3742 -0.5521 -0.0168
 5056SOL     OW26803   3.558   2.803  13.345  0.3264  0.0442 -0.3255
 5056SOL    HW126804   3.549   2.864  13.272  0.1905 -1.1464 -1.3018
 5056SOL    HW226805   3.503   2.838  13.415 -0.3234 -0.5659 -0.5242
 5057SOL     OW26806   1.549   2.101   3.786 -0.0470 -0.1341 -0.4490
 5057SOL    HW126807   1.495   2.176   3.759  1.4942  1.2467  0.2553
 5057SOL    HW226808   1.533   2.100   3.880  0.7633  0.3561 -0.3077
 5058SOL     OW26809   0.795   3.988   5.931  0.6995  0.2787 -0.1936
 5058SOL    HW126810   0.732   4.034   5.875 -1.4012  0.2087  2.1286
 5058SOL    HW226811   0.821   3.914   5.878 -0.6742 -0.4660  0.1676
 5059SOL     OW26812   4.149   3.193   8.368  0.0144 -0.1211  0.1345
 5059SOL    HW126813   4.206   3.156   8.300  0.0392 -0.3333  0.2684
 5059SOL    HW226814   4.088   3.120   8.380 -1.0978  0.9898  1.1587
 5060SOL     OW26815   3.384   1.550   3.809  0.4432  0.4567 -0.6217
 5060SOL    HW126816   3.362   1.636   3.773 -1.3760  0.5482  0.7269
 5060SOL    HW226817   3.477   1.560   3.831 -0.1111 -0.9133  2.4220
 5061SOL     OW26818   3.177   2.950   6.632 -0.0072 -0.2201  0.5003
 5061SOL    HW126819   3.093   2.993   6.617 -0.2285 -1.0342 -0.6345
 5061SOL    HW226820   3.146   2.865   6.665  0.8357 -1.0335 -0.7983
 5062SOL     OW26821   1.236   0.203  17.417 -0.6451  0.3375  0.2310
 5062SOL    HW126822   1.283   0.124  17.388 -1.6914 -0.5680  0.9955
 5062SOL    HW226823   1.183   0.213  17.338 -1.2162 -1.1898  0.4168
 5063SOL     OW26824   1.812   4.537   5.292  0.3930 -0.1329  0.3574
 5063SOL    HW126825   1.865   4.543   5.213 -0.1627 -0.9222 -0.0741
 5063SOL    HW226826   1.763   4.455   5.283 -2.0151  1.3349 -0.0692
 5064SOL     OW26827   3.200   0.996   3.869 -0.4637 -0.1182 -0.3497
 5064SOL    HW126828   3.216   1.083   3.833 -1.0019  0.4810  0.8501
 5064SOL    HW226829   3.105   0.999   3.884 -0.2131 -1.1812  1.6124
 5065SOL     OW26830   2.112   3.036   7.673  0.0216  0.3711  0.7123
 5065SOL    HW126831   2.129   3.004   7.584 -0.2069  0.5636  0.5984
 5065SOL    HW226832   2.017   3.044   7.675  0.0418  1.3035 -1.7615
 5066SOL     OW26833   1.785   3.220   3.111 -0.4991 -0.2212 -0.1354
 5066SOL    HW126834   1.815   3.211   3.201  0.3555  0.7580 -0.3174
 5066SOL    HW226835   1.696   3.254   3.121  0.5077  2.6557 -1.0266
 5067SOL     OW26836   4.012   4.146  12.992 -0.1901 -0.0671 -0.1653
 5067SOL    HW126837   3.949   4.181  12.929 -1.6610 -0.2678  1.2261
 5067SOL    HW226838   4.067   4.099  12.929 -1.9387 -3.1685  0.6157
 5068SOL     OW26839   3.913   0.510   2.279  0.5125  0.6876 -0.1660
 5068SOL    HW126840   3.888   0.431   2.328 -0.1321  0.2245 -1.2383
 5068SOL    HW226841   3.967   0.465   2.214  0.4469 -0.7555  0.7665
 5069SOL     OW26842   2.955   1.989   2.203 -0.1696  0.0335  0.0699
 5069SOL    HW126843   2.927   1.900   2.226 -0.2794 -0.1980 -0.9783
 5069SOL    HW226844   3.033   1.977   2.148  0.0825 -0.5982  0.5595
 5070SOL     OW26845   0.385   0.146   3.249 -0.1565  0.5664 -0.3266
 5070SOL    HW126846   0.318   0.080   3.232  1.8831 -1.5091 -0.4097
 5070SOL    HW226847   0.440   0.129   3.173  1.2573 -1.0852  1.0504
 5071SOL     OW26848   3.333   0.784   5.704  0.0875 -0.6361 -0.3474
 5071SOL    HW126849   3.278   0.745   5.637  0.8593 -2.9143  0.3535
 5071SOL    HW226850   3.388   0.708   5.725 -1.3134 -0.6228  3.4246
 5072SOL     OW26851   4.710   3.704  11.391 -0.0115  0.1134  0.0593
 5072SOL    HW126852   4.712   3.626  11.446 -1.3269  1.0245  1.3665
 5072SOL    HW226853   0.044   3.693  11.331  2.1016  1.9715  2.3411
 5073SOL     OW26854   2.438   0.601   6.254 -0.0027  0.3873 -0.0078
 5073SOL    HW126855   2.530   0.622   6.270  0.8026 -2.8475 -0.4882
 5073SOL    HW226856   2.405   0.637   6.337 -1.2455  0.7088 -0.6360
 5074SOL     OW26857   3.965   1.970   5.933 -0.6487 -0.1375  0.0701
 5074SOL    HW126858   3.962   1.954   6.027  1.6230  0.8946  0.3296
 5074SOL    HW226859   3.915   1.895   5.900  1.1733  0.3667 -3.9140
 5075SOL     OW26860   3.464   3.774   5.341 -0.1765 -1.0107  0.0165
 5075SOL    HW126861   3.371   3.775   5.320 -0.2894  0.2109  0.5994
 5075SOL    HW226862   3.454   3.822   5.422 -1.3136  1.0251 -1.3288
 5076SOL     OW26863   4.241   1.233   7.657  0.1244  0.4008 -0.0246
 5076SOL    HW126864   4.182   1.158   7.668 -1.7335  2.2088  2.2357
 5076SOL    HW226865   4.323   1.187   7.671  0.1330  0.5031  0.2532
 5077SOL     OW26866   1.694   1.098   2.361  0.8662 -0.4700  0.3453
 5077SOL    HW126867   1.760   1.036   2.330 -0.1052 -0.7873 -1.0573
 5077SOL    HW226868   1.737   1.180   2.337 -0.5128 -0.1894 -1.1195
 5078SOL     OW26869   3.663   4.095   1.654  0.4092 -0.4616 -0.1494
 5078SOL    HW126870   3.732   4.034   1.678  0.8249 -0.8172 -2.2249
 5078SOL    HW226871   3.616   4.035   1.596  0.8413  1.2150 -2.2583
 5079SOL     OW26872   0.550   3.724   7.785 -0.4929  0.1024 -0.4065
 5079SOL    HW126873   0.575   3.816   7.798 -1.0297  0.1556  0.2513
 5079SOL    HW226874   0.457   3.735   7.767 -0.4517  1.4240  0.1696
 5080SOL     OW26875   1.997   1.838   6.554 -0.0513  0.2743  0.8051
 5080SOL    HW126876   1.944   1.917   6.543 -0.3544 -0.2044 -1.3410
 5080SOL    HW226877   1.922   1.788   6.589  0.5575 -1.2928 -0.1238
 5081SOL     OW26878   3.106   3.975   1.276  0.6505  0.0345  0.1759
 5081SOL    HW126879   3.190   4.020   1.271  0.3634  0.6367  0.6930
 5081SOL    HW226880   3.129   3.883   1.265  0.6193 -0.2098  2.0557
 5082SOL     OW26881   2.859   4.540  13.053  0.0589 -0.1192 -0.2770
 5082SOL    HW126882   2.768   4.547  13.082  0.9542 -0.3202  2.5788
 5082SOL    HW226883   2.855   4.541  12.957  2.2241 -2.2458 -0.4167
 5083SOL     OW26884   0.397   3.076  16.116  0.5668 -0.3837 -0.6139
 5083SOL    HW126885   0.336   3.147  16.133  0.6063 -0.3008 -0.8160
 5083SOL    HW226886   0.404   3.063  16.021 -1.2538  0.3915 -0.8495
 5084SOL     OW26887   4.249   0.085  16.274 -0.4589  0.3012  0.7985
 5084SOL    HW126888   4.325   0.141  16.287  1.7443 -2.2599 -1.1785
 5084SOL    HW226889   4.244   0.042  16.360 -2.5091 -0.3849  0.3411
 5085SOL     OW26890   0.738   3.436  14.969  0.4714 -0.5178 -0.0658
 5085SOL    HW126891   0.665   3.453  14.909  0.3887 -2.8939 -0.6182
 5085SOL    HW226892   0.743   3.341  14.960 -1.2180 -0.6454  0.2861
 5086SOL     OW26893   4.483   2.127   7.598  0.3002  0.1577 -0.4150
 5086SOL    HW126894   4.546   2.127   7.670 -0.2965  0.6862  0.1083
 5086SOL    HW226895   4.514   2.205   7.550 -0.2261  1.4434  1.3552
 5087SOL     OW26896   4.674   4.599   2.198  0.6272  0.0245 -0.5414
 5087SOL    HW126897   0.014   4.652   2.204  0.5932  0.0877 -0.6524
 5087SOL    HW226898   4.644   4.629   2.112  1.3695  0.2889 -0.7095
 5088SOL     OW26899   1.849   3.210  11.608 -0.0518  0.0855 -0.0932
 5088SOL    HW126900   1.778   3.245  11.555  1.0257  0.6679 -1.1528
 5088SOL    HW226901   1.905   3.287  11.602  1.4232 -1.0258 -0.5214
 5089SOL     OW26902   3.498   2.177   6.989 -0.8477 -0.8819  0.5104
 5089SOL    HW126903   3.455   2.094   7.010 -0.9443 -1.1467 -0.6983
 5089SOL    HW226904   3.560   2.172   7.061  0.5226 -0.3516 -0.6428
 5090SOL     OW26905   1.076   0.010   5.400 -0.4674 -0.0830  0.0857
 5090SOL    HW126906   1.014   0.028   5.471  0.3396  0.5571  0.6348
 5090SOL    HW226907   1.157   0.035   5.445  0.3316 -0.7011 -1.0011
 5091SOL     OW26908   1.780   1.097   3.306 -0.1623  0.0796  0.0011
 5091SOL    HW126909   1.725   1.160   3.260  0.5059  2.6064  2.6729
 5091SOL    HW226910   1.717   1.026   3.292 -0.6686  0.6865 -0.7483
 5092SOL     OW26911   1.409   1.937   5.705  0.2246 -0.0545  0.3246
 5092SOL    HW126912   1.431   2.027   5.681  0.1653  0.4600  2.1791
 5092SOL    HW226913   1.344   1.924   5.636  0.2873 -0.5840  0.3689
 5093SOL     OW26914   3.271   1.328   6.830  0.6175 -0.1327  0.1804
 5093SOL    HW126915   3.349   1.379   6.808 -1.5030  2.2328 -1.6727
 5093SOL    HW226916   3.241   1.308   6.741  1.3715  2.7377 -0.7082
 5094SOL     OW26917   0.372   0.551   8.724 -0.4696 -0.1371 -0.1488
 5094SOL    HW126918   0.372   0.600   8.642 -1.0265 -0.8468 -0.5752
 5094SOL    HW226919   0.464   0.540   8.746  0.0246  1.8983 -1.2498
 5095SOL     OW26920   2.662   3.259   5.820  0.1198 -0.2630 -0.0540
 5095SOL    HW126921   2.714   3.338   5.814 -1.8786  0.8473 -2.5790
 5095SOL    HW226922   2.723   3.189   5.796  0.2358  0.1870 -1.0398
 5096SOL     OW26923   2.869   0.827  16.926  0.1373 -0.1591  0.1053
 5096SOL    HW126924   2.919   0.896  16.969  0.9386 -1.3292  1.0433
 5096SOL    HW226925   2.780   0.856  16.945 -0.5088 -1.7655 -0.4953
 5097SOL     OW26926   1.320   4.720  17.307 -0.0105  0.5762  0.6793
 5097SOL    HW126927   1.233   4.681  17.306  0.6832 -0.9852  1.0197
 5097SOL    HW226928   1.376   4.652  17.271  0.8149  0.7130  1.6880
 5098SOL     OW26929   1.131   4.135  13.250 -0.3553  0.5603 -0.4554
 5098SOL    HW126930   1.132   4.138  13.346 -1.3162  1.3419 -0.4621
 5098SOL    HW226931   1.107   4.043  13.243  0.1397  0.5142 -1.4119
 5099SOL     OW26932   2.136   0.310   5.206  0.7573 -0.3936  0.0795
 5099SOL    HW126933   2.208   0.268   5.253  0.4093 -2.5330 -1.2703
 5099SOL    HW226934   2.166   0.323   5.116  0.3809  2.7876  0.4071
 5100SOL     OW26935   1.665   3.601  10.236 -0.0285  0.0606  0.2919
 5100SOL    HW126936   1.723   3.546  10.184  0.3016  0.0822  0.6348
 5100SOL    HW226937   1.659   3.678  10.180 -1.8245  0.3414  0.8716
 5101SOL     OW26938   3.908   2.341   2.195 -0.2121 -0.2027 -0.5719
 5101SOL    HW126939   3.814   2.341   2.176 -0.3866  0.8897  0.3149
 5101SOL    HW226940   3.923   2.246   2.187 -0.5688 -0.2337 -0.8667
 5102SOL     OW26941   1.573   3.161   7.688 -0.4775 -0.3359 -0.0025
 5102SOL    HW126942   1.508   3.228   7.707  1.5736  1.4847  0.5208
 5102SOL    HW226943   1.568   3.098   7.760  2.9479 -1.2215 -0.5338
 5103SOL     OW26944   4.153   0.692  16.115 -0.0015 -0.0599  0.1874
 5103SOL    HW126945   4.062   0.663  16.126  0.1883 -0.8180 -0.2317
 5103SOL    HW226946   4.156   0.724  16.025 -0.1047 -0.7684 -0.0733
 5104SOL     OW26947   4.523   4.651   2.544 -0.1674 -0.6267  0.1423
 5104SOL    HW126948   4.612   4.621   2.526 -0.5287 -0.2436 -2.3362
 5104SOL    HW226949   4.500   4.619   2.631  0.1571  0.8407  0.7764
 5105SOL     OW26950   0.025   3.693  15.080  0.1137  0.3286 -0.3750
 5105SOL    HW126951   0.073   3.668  15.159  0.9608 -0.0023 -0.9924
 5105SOL    HW226952   0.088   3.670  15.012  0.5289  1.8096 -0.4682
 5106SOL     OW26953   4.312   1.025   6.304  0.2131  0.1360  0.2785
 5106SOL    HW126954   4.224   0.990   6.314  1.0179 -1.6546  1.1531
 5106SOL    HW226955   4.327   1.035   6.210 -0.1592  3.1741  0.5277
 5107SOL     OW26956   3.221   4.317  16.237 -0.4523 -0.3302 -0.1426
 5107SOL    HW126957   3.164   4.313  16.314 -0.0901  0.4874  0.1661
 5107SOL    HW226958   3.297   4.272  16.274  0.9332  1.7195 -0.5265
 5108SOL     OW26959   3.663   1.600   3.796  0.1366 -0.0916 -0.1111
 5108SOL    HW126960   3.691   1.686   3.763  0.8937  0.1246  1.0683
 5108SOL    HW226961   3.745   1.572   3.838  0.6169  2.5121  0.6944
 5109SOL     OW26962   1.144   3.257  12.192  0.1939  0.7018  0.2254
 5109SOL    HW126963   1.067   3.273  12.138  2.3927  0.1652 -3.0474
 5109SOL    HW226964   1.101   3.251  12.277  0.4555 -0.6414  0.2696
 5110SOL     OW26965   0.243   3.144   7.571 -0.4447 -0.1236  0.6842
 5110SOL    HW126966   0.193   3.201   7.514 -0.5427  0.3149  1.2066
 5110SOL    HW226967   0.330   3.154   7.533 -1.1487  2.6971 -0.1193
 5111SOL     OW26968   0.560   0.404   7.504  0.2191  0.5216 -0.4970
 5111SOL    HW126969   0.568   0.455   7.585  1.7715  0.4652 -0.6148
 5111SOL    HW226970   0.650   0.396   7.472  0.5735 -2.2219  1.1450
 5112SOL     OW26971   1.910   3.228   5.210  0.0675  0.2402  0.1242
 5112SOL    HW126972   1.999   3.196   5.201 -0.6300 -2.0121  1.3706
 5112SOL    HW226973   1.903   3.215   5.304  0.6161  0.4657  0.1912
 5113SOL     OW26974   1.694   4.141   7.927 -0.0718  0.3709 -0.3198
 5113SOL    HW126975   1.721   4.161   8.016 -1.0804 -2.9514  0.7202
 5113SOL    HW226976   1.601   4.164   7.932 -0.6139 -1.5483 -1.7392
 5114SOL     OW26977   3.398   1.277  10.376 -0.0783  0.2827  0.5087
 5114SOL    HW126978   3.335   1.316  10.316  0.3206 -1.5551 -1.1335
 5114SOL    HW226979   3.338   1.271  10.450 -1.9377 -0.9667 -1.1093
 5115SOL     OW26980   4.285   3.899   7.300  0.7037 -0.1979 -0.1179
 5115SOL    HW126981   4.261   3.851   7.220  2.1614 -1.6152  0.2841
 5115SOL    HW226982   4.247   3.853   7.375 -0.9900  0.7767 -0.3724
 5116SOL     OW26983   0.756   3.670   0.083 -0.5755  0.0375 -0.7487
 5116SOL    HW126984   0.661   3.669   0.074 -0.8481  0.8060  2.1798
 5116SOL    HW226985   0.777   3.740   0.146  1.0260 -1.1636  0.0565
 5117SOL     OW26986   3.971   2.192  16.343 -0.4699  0.1160 -0.4654
 5117SOL    HW126987   3.921   2.208  16.423  0.4419 -0.6871  0.2532
 5117SOL    HW226988   3.902   2.213  16.279 -2.0914 -1.5170  0.7248
 5118SOL     OW26989   2.317   4.398   3.269  0.3242 -0.7723 -0.4247
 5118SOL    HW126990   2.386   4.342   3.305 -0.8877 -0.6678  2.0851
 5118SOL    HW226991   2.313   4.368   3.178  1.6214  1.8437 -1.3532
 5119SOL     OW26992   2.207   3.167   4.711  0.2686  0.2882 -0.1907
 5119SOL    HW126993   2.287   3.166   4.764  0.8339  5.1167 -0.9169
 5119SOL    HW226994   2.144   3.212   4.768  1.5205  0.0120  1.4359
 5120SOL     OW26995   1.039   1.796   7.504  0.1221 -0.3216 -0.2200
 5120SOL    HW126996   1.045   1.832   7.416 -0.7581 -0.5337 -0.3561
 5120SOL    HW226997   0.951   1.761   7.511  0.3997 -1.0930 -0.5388
 5121SOL     OW26998   3.313   1.590  10.145  0.2769  0.1558 -0.1198
 5121SOL    HW126999   3.403   1.609  10.173 -1.0014  3.1650  2.0687
 5121SOL    HW227000   3.304   1.674  10.100 -3.1439 -0.2325 -0.1690
 5122SOL     OW27001   2.415   0.700   5.691  0.8801  0.3252  0.1713
 5122SOL    HW127002   2.492   0.645   5.679  0.5338 -0.3499  1.0134
 5122SOL    HW227003   2.430   0.731   5.780  0.6038  0.8708  0.0277
 5123SOL     OW27004   0.552   1.860   4.848 -0.3352  0.3760  0.4742
 5123SOL    HW127005   0.578   1.774   4.881 -1.8740  0.5181  2.0587
 5123SOL    HW227006   0.628   1.868   4.791 -0.5224  1.5601  0.3951
 5124SOL     OW27007   4.572   2.101   7.855 -0.0451 -0.0653 -0.4571
 5124SOL    HW127008   4.629   2.025   7.843  2.0243  1.8543 -2.8098
 5124SOL    HW227009   4.504   2.066   7.913 -1.3468  1.9595 -0.7692
 5125SOL     OW27010   0.663   1.031   6.254 -0.2090  0.5435  0.2019
 5125SOL    HW127011   0.685   1.029   6.347 -0.2440 -0.6368  0.1832
 5125SOL    HW227012   0.660   0.936   6.241 -0.4522  0.7600 -1.3595
 5126SOL     OW27013   0.379   1.344   2.621  0.3921 -0.3842  0.0346
 5126SOL    HW127014   0.321   1.364   2.547 -0.0822 -1.0149  0.2385
 5126SOL    HW227015   0.448   1.411   2.618 -0.0353  0.1366  1.6116
 5127SOL     OW27016   0.869   4.152   3.908  0.1749 -0.2713  0.3110
 5127SOL    HW127017   0.782   4.112   3.912 -1.2403  2.9085  1.3978
 5127SOL    HW227018   0.844   4.244   3.915 -0.4641 -0.5372  1.4361
 5128SOL     OW27019   0.297   3.524   4.759  0.0527  0.5938 -0.1522
 5128SOL    HW127020   0.220   3.546   4.812  0.8975  2.4486  0.2751
 5128SOL    HW227021   0.334   3.610   4.742 -0.2135  0.2122 -2.5684
 5129SOL     OW27022   0.976   0.434   8.938 -0.4814 -0.2727 -0.1512
 5129SOL    HW127023   0.954   0.423   9.030 -1.8540  0.0090 -0.4480
 5129SOL    HW227024   0.914   0.495   8.899  0.2719  1.5837  1.5993
 5130SOL     OW27025   2.017   3.606   7.123  0.0797 -0.4593 -0.1180
 5130SOL    HW127026   2.006   3.560   7.207  0.4763  1.7007  1.1282
 5130SOL    HW227027   2.034   3.689   7.168 -2.2774  0.3598 -0.7556
 5131SOL     OW27028   3.536   1.141   6.091  0.4306 -0.5491  0.3582
 5131SOL    HW127029   3.492   1.093   6.021  2.1390 -1.7268  0.0980
 5131SOL    HW227030   3.515   1.080   6.161  2.1759 -1.5266  0.0346
 5132SOL     OW27031   3.782   0.427  15.636  0.3993 -0.2695  0.2303
 5132SOL    HW127032   3.719   0.482  15.589  0.7495  1.1793  1.4449
 5132SOL    HW227033   3.786   0.479  15.716  1.4916  0.7824 -0.5017
 5133SOL     OW27034   0.311   4.289  12.691 -0.0034 -0.8646  0.1670
 5133SOL    HW127035   0.372   4.296  12.619  0.2343  2.8419  0.7142
 5133SOL    HW227036   0.300   4.384  12.699  1.8667 -0.4234 -2.6879
 5134SOL     OW27037   4.210   0.488   3.846 -0.1749  0.5791 -0.0859
 5134SOL    HW127038   4.151   0.555   3.811 -0.8515 -0.8140 -1.5922
 5134SOL    HW227039   4.287   0.541   3.866  0.5125 -0.5488  0.2506
 5135SOL     OW27040   1.840   0.816   3.496  0.2732 -0.4476  0.2951
 5135SOL    HW127041   1.787   0.790   3.572  0.7103 -1.7794  0.1476
 5135SOL    HW227042   1.777   0.842   3.429  0.0026  0.0784  0.7526
 5136SOL     OW27043   0.051   1.123  12.362 -0.0023  0.0322 -0.3488
 5136SOL    HW127044   0.041   1.035  12.327 -0.5798  0.1554 -0.4960
 5136SOL    HW227045   0.106   1.121  12.441 -0.4138 -1.2997 -0.0992
 5137SOL     OW27046   0.316   4.048   6.779  0.4817  0.4454 -0.0178
 5137SOL    HW127047   0.276   4.133   6.799 -2.0726 -1.0772  1.2922
 5137SOL    HW227048   0.294   4.033   6.687  1.0154  0.9051 -0.2262
 5138SOL     OW27049   2.799   3.173  13.902 -0.2642 -0.5199  0.0771
 5138SOL    HW127050   2.869   3.107  13.898  0.8446  0.6332  0.5321
 5138SOL    HW227051   2.730   3.135  13.847 -0.0406  1.1109 -1.3242
 5139SOL     OW27052   1.649   0.823   3.701 -0.6483 -0.3681  0.4930
 5139SOL    HW127053   1.638   0.908   3.744  0.5803 -0.1708  0.4389
 5139SOL    HW227054   1.566   0.813   3.655 -1.5867  0.1662  2.0569
 5140SOL     OW27055   1.841   2.058   6.473  0.4414  0.0430 -0.2286
 5140SOL    HW127056   1.897   2.132   6.451 -1.0096  0.8069 -1.3459
 5140SOL    HW227057   1.754   2.090   6.450 -0.4441 -1.3370  1.1707
 5141SOL     OW27058   1.922   1.838   7.108 -0.1193 -0.1120  0.0207
 5141SOL    HW127059   1.950   1.815   7.197  0.4493 -1.5548 -0.5341
 5141SOL    HW227060   2.006   1.824   7.063 -1.0148 -1.2375 -1.3074
 5142SOL     OW27061   4.362   0.234   2.331 -0.0283 -0.3979 -0.6557
 5142SOL    HW127062   4.363   0.149   2.286 -1.7757 -0.3330 -0.8413
 5142SOL    HW227063   4.417   0.282   2.269 -0.5353  1.2715  0.1823
 5143SOL     OW27064   4.722   2.710  15.457  0.1714  0.1890  0.5056
 5143SOL    HW127065   4.639   2.673  15.487  0.4202  0.8014  1.9670
 5143SOL    HW227066   4.693   2.786  15.407  0.1172  0.0014  0.2533
 5144SOL     OW27067   0.255   4.312   6.713 -0.0605  0.5049 -0.1027
 5144SOL    HW127068   0.267   4.330   6.806 -0.5576 -0.9680  0.2492
 5144SOL    HW227069   0.323   4.373   6.684  1.0135 -0.7056 -0.1868
 5145SOL     OW27070   0.380   3.987  14.506  0.2589  0.0229 -0.2844
 5145SOL    HW127071   0.310   4.029  14.555  0.0358  1.6741 -2.0288
 5145SOL    HW227072   0.455   3.973  14.565  0.9569  0.3227 -1.0948
 5146SOL     OW27073   0.139   4.664   9.398  0.5475 -0.1134  0.3785
 5146SOL    HW127074   0.102   4.578   9.413 -0.1981  0.5909  2.6259
 5146SOL    HW227075   0.181   4.653   9.313  1.0431  2.7136  0.2563
 5147SOL     OW27076   2.734   4.290   7.484 -0.4055 -0.1122 -0.8664
 5147SOL    HW127077   2.704   4.273   7.573 -0.1724  1.9973 -0.3793
 5147SOL    HW227078   2.815   4.339   7.496 -0.6535 -0.0169  0.4422
 5148SOL     OW27079   2.168   2.076   3.972 -0.4397 -0.6369 -0.8652
 5148SOL    HW127080   2.203   1.998   4.014  2.9556  0.2485 -2.0224
 5148SOL    HW227081   2.138   2.034   3.891 -1.8530  1.1999 -1.3160
 5149SOL     OW27082   2.584   1.248   8.898  0.2581 -0.8677 -0.1463
 5149SOL    HW127083   2.550   1.162   8.871 -1.2016 -1.0402  2.2489
 5149SOL    HW227084   2.636   1.258   8.819  0.7189  0.9214  0.3985
 5150SOL     OW27085   1.098   0.205   7.509  0.4633 -1.0450  0.2008
 5150SOL    HW127086   1.166   0.167   7.566  1.0265  0.7302  0.7396
 5150SOL    HW227087   1.036   0.138   7.536  0.4166 -0.9452  0.3455
 5151SOL     OW27088   1.989   3.655   3.002 -0.4296  0.4722  0.5798
 5151SOL    HW127089   2.084   3.645   3.006 -0.4388  0.6493  1.3188
 5151SOL    HW227090   1.969   3.566   2.973  0.2038  1.0531 -1.5871
 5152SOL     OW27091   3.689   2.324   5.053 -0.0484  0.1332  0.2699
 5152SOL    HW127092   3.616   2.330   5.115 -0.5569  0.7157 -0.3748
 5152SOL    HW227093   3.624   2.318   4.983  3.6649 -2.2726 -2.9326
 5153SOL     OW27094   4.330   2.832   6.852  0.3805  0.4696  0.1231
 5153SOL    HW127095   4.317   2.770   6.923  1.1587  0.2290  0.0638
 5153SOL    HW227096   4.260   2.816   6.789  1.0049 -2.2135  0.1271
 5154SOL     OW27097   3.541   1.760   6.842  0.4066 -0.3458  0.5695
 5154SOL    HW127098   3.627   1.720   6.831  0.9110  0.5669  1.1589
 5154SOL    HW227099   3.545   1.845   6.798 -1.4806 -0.2925  0.4792
 5155SOL     OW27100   1.681   1.887   7.010 -0.3842 -0.3934 -0.3808
 5155SOL    HW127101   1.658   1.828   7.082 -3.0866  1.5223  0.3600
 5155SOL    HW227102   1.774   1.864   7.012 -0.0649  0.9237  0.1208
 5156SOL     OW27103   0.694   3.330  12.260  0.2116 -0.0164  0.7496
 5156SOL    HW127104   0.673   3.399  12.323  1.8910  2.2456 -1.1728
 5156SOL    HW227105   0.609   3.305  12.225  0.8234 -1.1116  0.0739
 5157SOL     OW27106   2.611   0.065  13.020  0.2673  0.3586 -0.7069
 5157SOL    HW127107   2.538   0.068  12.958 -1.3932  0.0578  1.2298
 5157SOL    HW227108   2.601   0.151  13.062 -0.6443 -0.1811  0.2023
 5158SOL     OW27109   1.829   2.121   4.554  0.3584 -0.3964 -0.1614
 5158SOL    HW127110   1.749   2.160   4.518  0.0500  1.8342  2.8748
 5158SOL    HW227111   1.812   2.034   4.517 -0.5327 -1.0349  1.7176
 5159SOL     OW27112   4.000   1.606   4.362  0.2037  0.1167 -0.1291
 5159SOL    HW127113   4.028   1.653   4.440  1.6431  1.6122 -1.5508
 5159SOL    HW227114   3.929   1.552   4.399  1.9609 -1.5257  0.8200
 5160SOL     OW27115   0.097   1.026   4.508 -0.5143 -0.4589  0.4531
 5160SOL    HW127116   0.064   1.114   4.523 -1.5542 -0.5639 -1.2093
 5160SOL    HW227117   0.153   1.041   4.432  0.6428 -1.0796  1.1956
 5161SOL     OW27118   4.381   0.638   9.451 -0.8226  0.1507  0.7792
 5161SOL    HW127119   4.370   0.612   9.542 -1.3337  0.2985  0.7613
 5161SOL    HW227120   4.298   0.667   9.412 -0.0790 -0.9518 -1.6199
 5162SOL     OW27121   0.919   4.560   2.714 -0.0048 -0.5860 -0.2660
 5162SOL    HW127122   1.014   4.553   2.716  0.0047 -0.6067 -1.0298
 5162SOL    HW227123   0.898   4.472   2.746 -2.8847 -0.1335 -0.9382
 5163SOL     OW27124   2.252   3.251   7.824 -0.0351  0.0385 -0.2664
 5163SOL    HW127125   2.285   3.303   7.751 -0.2622 -0.3110 -0.6182
 5163SOL    HW227126   2.250   3.167   7.778  0.3257 -1.1430  1.8531
 5164SOL     OW27127   4.483   2.647   5.567  1.2301  0.1358  0.3097
 5164SOL    HW127128   4.435   2.568   5.591  1.1038  0.4113  0.9752
 5164SOL    HW227129   4.548   2.605   5.511  2.2261 -2.0301  3.0630
 5165SOL     OW27130   1.439   3.265  17.698  0.3007  0.0602 -0.3509
 5165SOL    HW127131   1.534   3.258  17.688  0.5849  2.5649  0.4739
 5165SOL    HW227132   1.427   3.254   0.034 -1.3488  1.0767 -0.4232
 5166SOL     OW27133   0.506   1.863   7.514  0.3451 -0.3106 -0.5548
 5166SOL    HW127134   0.417   1.858   7.482 -0.0460  3.4711 -0.1104
 5166SOL    HW227135   0.550   1.912   7.444  1.7169 -0.5227  0.1487
 5167SOL     OW27136   1.130   2.276  12.812 -0.6253  0.2955 -0.1252
 5167SOL    HW127137   1.107   2.254  12.721 -0.6504  0.6286 -0.2009
 5167SOL    HW227138   1.094   2.198  12.853  1.5647  0.3797  1.9259
 5168SOL     OW27139   0.714   4.310   3.008  0.0579  0.3766  0.0243
 5168SOL    HW127140   0.757   4.251   3.070 -0.8690 -0.8835 -0.5453
 5168SOL    HW227141   0.634   4.341   3.050  0.1425  0.6962 -0.0530
 5169SOL     OW27142   0.243   3.772  12.972 -0.5087 -0.6704  0.8557
 5169SOL    HW127143   0.301   3.846  12.954  0.0995 -1.2258  0.5266
 5169SOL    HW227144   0.166   3.812  13.012 -1.4216 -0.7638 -0.8275
 5170SOL     OW27145   2.745   1.896   8.649 -0.7533  0.0555 -0.0309
 5170SOL    HW127146   2.717   1.823   8.704 -1.4088  0.1600 -0.2257
 5170SOL    HW227147   2.828   1.919   8.691 -0.8968  1.0046 -0.2622
 5171SOL     OW27148   0.274   3.810   7.772  0.0717  0.6315  0.1953
 5171SOL    HW127149   0.251   3.717   7.777 -1.1649  1.0990  3.4406
 5171SOL    HW227150   0.205   3.849   7.826  0.8967  2.0105  0.2324
 5172SOL     OW27151   3.111   4.604   7.810 -0.3552  0.3640  0.5387
 5172SOL    HW127152   3.146   4.690   7.831 -1.2569  0.6856  0.7669
 5172SOL    HW227153   3.185   4.557   7.772  1.1025  1.2249  2.2963
 5173SOL     OW27154   1.909   4.093   2.660  0.6167  0.1953  0.2796
 5173SOL    HW127155   1.855   4.017   2.641 -0.1815  0.9369 -0.4123
 5173SOL    HW227156   1.954   4.108   2.577  0.6827 -1.1859  0.0670
 5174SOL     OW27157   0.309   0.794   9.260 -0.2856  0.1499 -0.1976
 5174SOL    HW127158   0.357   0.874   9.285 -2.9190  1.5447  0.4300
 5174SOL    HW227159   0.356   0.781   9.178 -0.4472 -0.0251 -0.2602
 5175SOL     OW27160   1.826   3.965  16.831  0.6950  0.4059  0.5841
 5175SOL    HW127161   1.848   4.036  16.892  0.6483 -0.9312  2.1611
 5175SOL    HW227162   1.731   3.963  16.829  0.7414 -0.0378 -1.2247
 5176SOL     OW27163   1.469   3.668   9.399  0.1573 -0.2144  0.5265
 5176SOL    HW127164   1.537   3.605   9.376  0.6990  0.1868  0.9974
 5176SOL    HW227165   1.391   3.617   9.378  0.0537 -1.2737  3.4811
 5177SOL     OW27166   3.485   0.245   4.696  0.4603 -0.0396  0.2068
 5177SOL    HW127167   3.577   0.248   4.670  0.7328 -1.2637  1.0024
 5177SOL    HW227168   3.479   0.336   4.724 -2.3850 -0.4249  0.8626
 5178SOL     OW27169   3.575   0.105  12.896  0.4657  0.2144  0.4807
 5178SOL    HW127170   3.497   0.052  12.883  0.1726  0.1754  2.3019
 5178SOL    HW227171   3.644   0.064  12.843 -1.7420 -0.8778 -1.5013
 5179SOL     OW27172   3.451   2.789   5.983  0.3291 -0.0751  1.1623
 5179SOL    HW127173   3.521   2.839   5.941  0.5854  0.0794  1.7632
 5179SOL    HW227174   3.434   2.841   6.062 -0.4889  0.4196  0.6604
 5180SOL     OW27175   3.224   4.649   5.199 -0.3645  0.1509 -0.0336
 5180SOL    HW127176   3.251   4.666   5.289  1.2186 -0.9228 -0.3074
 5180SOL    HW227177   3.284   4.577   5.178 -0.6641 -0.0723 -0.1203
 5181SOL     OW27178   0.056   0.313  14.518 -0.7298 -0.9465  0.5527
 5181SOL    HW127179   0.043   0.272  14.432 -1.1182  1.6660 -0.6374
 5181SOL    HW227180   0.128   0.256  14.547  0.5215  0.5179  0.2919
 5182SOL     OW27181   0.889   3.943   2.078  0.0213 -0.4080 -0.0777
 5182SOL    HW127182   0.881   3.999   2.156  0.0610  0.3156 -0.5908
 5182SOL    HW227183   0.921   4.005   2.013  0.6129 -1.7472 -1.0536
 5183SOL     OW27184   3.407   4.567   6.052  0.0557  0.5175 -0.4649
 5183SOL    HW127185   3.347   4.636   6.082 -0.7015 -0.4237  0.1602
 5183SOL    HW227186   3.439   4.537   6.137  0.7527  2.7699  0.0755
 5184SOL     OW27187   4.202   2.646   7.107 -0.1849  0.1624  0.6035
 5184SOL    HW127188   4.120   2.640   7.059 -0.8659  2.5226  1.4461
 5184SOL    HW227189   4.179   2.681   7.193 -0.6285 -2.0181  1.3686
 5185SOL     OW27190   0.001   0.160  12.867 -1.0193  0.1087  0.1380
 5185SOL    HW127191   4.697   0.099  12.927 -0.8651 -0.8478 -0.7143
 5185SOL    HW227192   0.064   0.197  12.929 -0.6891  1.0101 -0.7505
 5186SOL     OW27193   0.715   4.570   1.772  0.0268  0.0563  0.2979
 5186SOL    HW127194   0.778   4.565   1.844  1.0991 -0.3590 -0.6747
 5186SOL    HW227195   0.647   4.518   1.817  0.7839 -1.4651 -0.3171
 5187SOL     OW27196   0.292   1.319   9.707 -0.3551  0.2900  0.4025
 5187SOL    HW127197   0.275   1.278   9.792 -1.6683  2.1332  1.0263
 5187SOL    HW227198   0.208   1.363   9.693 -0.3655  0.0211 -0.4015
 5188SOL     OW27199   0.797   2.375   6.615 -0.0656 -0.2897 -0.2881
 5188SOL    HW127200   0.761   2.349   6.530 -1.5144  3.4002 -0.7950
 5188SOL    HW227201   0.891   2.376   6.596  0.8419  2.3370  4.2415
 5189SOL     OW27202   3.706   3.961  15.246 -0.2086 -0.5579 -0.2883
 5189SOL    HW127203   3.691   3.999  15.333  1.1998 -0.3175 -0.1417
 5189SOL    HW227204   3.628   3.907  15.234 -0.0546 -0.8352 -0.0224
 5190SOL     OW27205   3.689   4.638   8.987 -0.9340 -0.4406 -0.1116
 5190SOL    HW127206   3.667   4.730   8.974  1.4261  0.2672  0.8969
 5190SOL    HW227207   3.607   4.592   9.007  0.1451 -1.8129  1.1559
 5191SOL     OW27208   2.687   0.279   9.251 -0.8614  0.3925  0.9528
 5191SOL    HW127209   2.656   0.312   9.167  0.8899 -1.1004 -0.2749
 5191SOL    HW227210   2.609   0.290   9.306 -0.9009  1.8736  0.5977
 5192SOL     OW27211   2.155   2.300   4.125  0.0109 -0.1940  0.7333
 5192SOL    HW127212   2.244   2.305   4.091  0.0535  0.9596  1.0368
 5192SOL    HW227213   2.125   2.222   4.077 -1.5273 -0.5784  2.3438
 5193SOL     OW27214   4.171   0.367   2.451  0.5536  0.3481  0.4097
 5193SOL    HW127215   4.214   0.450   2.469 -0.7998  1.1337 -0.0038
 5193SOL    HW227216   4.253   0.323   2.427 -0.2550  0.1216 -1.8678
 5194SOL     OW27217   0.514   3.862   4.532 -0.1924  0.4584  0.2822
 5194SOL    HW127218   0.595   3.907   4.509 -0.5424  1.2608  0.6333
 5194SOL    HW227219   0.460   3.865   4.452 -0.1978  0.0575  0.2730
 5195SOL     OW27220   1.600   3.896   7.881  0.9297  0.3476 -0.4105
 5195SOL    HW127221   1.651   3.977   7.885  1.6717 -0.1663  0.4659
 5195SOL    HW227222   1.626   3.855   7.963  0.9601  1.2992  0.0542
 5196SOL     OW27223   2.928   0.680  14.528 -0.0372  0.3260  0.3627
 5196SOL    HW127224   3.016   0.682  14.491  0.5641 -1.5798  1.6924
 5196SOL    HW227225   2.895   0.597  14.496  2.2849 -0.3268 -0.3230
 5197SOL     OW27226   1.536   0.019  14.636 -0.5384 -0.0618  0.2567
 5197SOL    HW127227   1.530   0.011  14.731  0.1237 -1.4211  0.1783
 5197SOL    HW227228   1.535   4.670  14.603 -0.8768  0.7635 -1.9200
 5198SOL     OW27229   2.739   0.034   1.280 -0.3177  0.0998 -0.3966
 5198SOL    HW127230   2.820   0.076   1.307  0.0759  0.6125 -2.4028
 5198SOL    HW227231   2.679   0.107   1.268  0.7599  0.5499 -2.9001
 5199SOL     OW27232   2.534   0.339  13.060 -0.5709 -0.8443  0.1256
 5199SOL    HW127233   2.486   0.374  12.986 -1.3755 -0.8169  0.6638
 5199SOL    HW227234   2.538   0.411  13.123 -0.5546 -1.3761  0.7374
 5200SOL     OW27235   0.813   2.249   4.007  0.6084 -0.1456 -0.0609
 5200SOL    HW127236   0.755   2.187   4.051  1.0576 -2.0797 -2.2187
 5200SOL    HW227237   0.833   2.204   3.925  1.5760  0.1184  0.0351
 5201SOL     OW27238   0.373   2.448   8.170 -0.4639  0.0887 -0.5443
 5201SOL    HW127239   0.338   2.365   8.200 -3.0618  0.9886 -1.1025
 5201SOL    HW227240   0.466   2.430   8.155 -0.4955 -0.7110  0.2514
 5202SOL     OW27241   1.043   3.289   1.830 -0.3645 -0.2126 -0.5501
 5202SOL    HW127242   1.113   3.257   1.773  0.1995  0.4816 -0.2419
 5202SOL    HW227243   0.980   3.343   1.781 -1.2857  1.4863  2.5106
 5203SOL     OW27244   2.247   0.428   6.130 -0.0578  0.4899 -0.6070
 5203SOL    HW127245   2.247   0.421   6.035  0.0698  0.4480 -0.6039
 5203SOL    HW227246   2.316   0.492   6.147  0.6565 -0.7882  1.3815
 5204SOL     OW27247   3.581   1.624  10.239 -0.4044  0.1944  0.1399
 5204SOL    HW127248   3.603   1.577  10.319 -0.5444 -1.4462 -0.7822
 5204SOL    HW227249   3.633   1.699  10.267 -1.8417  0.7428  1.3269
 5205SOL     OW27250   2.671   4.436  12.350  0.4220  0.4009 -0.0254
 5205SOL    HW127251   2.617   4.485  12.289 -1.5085  0.2922  1.5918
 5205SOL    HW227252   2.708   4.382  12.280 -1.6914  0.4062 -1.1474
 5206SOL     OW27253   0.985   4.559   1.997 -0.4433 -0.5648 -0.0897
 5206SOL    HW127254   0.923   4.491   2.021 -0.2704 -0.2183  1.3635
 5206SOL    HW227255   0.988   4.608   2.079 -0.6199 -1.0262  0.1920
 5207SOL     OW27256   0.800   0.091   2.349  0.4020 -0.0133  0.3544
 5207SOL    HW127257   0.839   0.153   2.411  2.1873  0.2283 -1.0043
 5207SOL    HW227258   0.771   0.027   2.413  1.9835 -2.6673 -1.5833
 5208SOL     OW27259   3.480   4.173  14.210 -0.4133  0.4094  0.2585
 5208SOL    HW127260   3.479   4.167  14.305 -3.0360  1.0716  0.2723
 5208SOL    HW227261   3.475   4.269  14.206  0.0893  0.3982 -0.6939
 5209SOL     OW27262   2.019   3.996   4.109  0.2991  0.1889 -0.0763
 5209SOL    HW127263   1.980   4.072   4.065  0.1486 -0.2733 -0.7305
 5209SOL    HW227264   1.956   3.935   4.072  1.4423 -2.8201  3.0120
 5210SOL     OW27265   2.292   2.665   5.364  0.5007  0.2753 -0.1309
 5210SOL    HW127266   2.358   2.702   5.305 -0.0507  0.6686 -0.5041
 5210SOL    HW227267   2.228   2.654   5.294  0.3981  0.6967 -0.1036
 5211SOL     OW27268   0.196   2.320   1.426  0.0018  0.0017 -0.0665
 5211SOL    HW127269   0.279   2.279   1.451 -0.8435 -2.3256 -0.9707
 5211SOL    HW227270   0.155   2.341   1.510  0.6699  0.4817  0.1358
 5212SOL     OW27271   4.022   0.626   4.591  0.0571  0.3863  0.0698
 5212SOL    HW127272   4.036   0.532   4.586 -1.4169  0.1708  0.1724
 5212SOL    HW227273   4.061   0.643   4.505 -3.0715  0.4523 -1.3196
 5213SOL     OW27274   1.024   3.674   3.099  0.1258  0.2780  0.2698
 5213SOL    HW127275   0.944   3.696   3.147  1.3976  1.8509  1.6715
 5213SOL    HW227276   1.062   3.757   3.071  1.7275 -0.5677 -0.1054
 5214SOL     OW27277   0.187   0.337   7.035  0.0678  0.3101 -0.5403
 5214SOL    HW127278   0.212   0.345   6.943 -0.0275 -1.8113 -0.7422
 5214SOL    HW227279   0.149   0.250   7.020 -0.2448  0.3895 -0.1898
 5215SOL     OW27280   1.606   3.561   5.921 -0.0383 -0.0375 -0.7549
 5215SOL    HW127281   1.685   3.520   5.957  0.5794 -0.5187 -2.6561
 5215SOL    HW227282   1.640   3.595   5.838  1.5757  0.6923  0.2237
 5216SOL     OW27283   1.387   4.256   8.005 -0.0960  0.2870 -0.0969
 5216SOL    HW127284   1.393   4.213   7.920  0.7776  0.3141 -0.0438
 5216SOL    HW227285   1.304   4.224   8.041 -0.6567  2.9463  0.9719
 5217SOL     OW27286   2.343   0.518   3.647 -0.0372  0.3714  0.5686
 5217SOL    HW127287   2.373   0.446   3.703  2.3198  0.9247  0.0170
 5217SOL    HW227288   2.343   0.592   3.708 -0.3641 -0.7696  1.9412
 5218SOL     OW27289   1.108   0.819   6.662  0.3978  0.0409  0.3254
 5218SOL    HW127290   1.194   0.794   6.695  0.6373 -0.5343 -0.7404
 5218SOL    HW227291   1.104   0.914   6.672  0.2272  0.1853 -1.0799
 5219SOL     OW27292   2.558   2.480   9.409  0.1009  0.0618  0.4759
 5219SOL    HW127293   2.615   2.444   9.478 -1.6984 -2.6602  0.5612
 5219SOL    HW227294   2.628   2.529   9.366 -1.1170  0.8782 -0.5518
 5220SOL     OW27295   1.807   4.550   2.926  0.0270  0.4795 -0.2348
 5220SOL    HW127296   1.728   4.585   2.967  1.7698  2.2437  1.5939
 5220SOL    HW227297   1.847   4.630   2.893  0.8001  0.2987  0.2578
 5221SOL     OW27298   1.371   1.336   9.254 -0.0037 -0.0298 -0.2874
 5221SOL    HW127299   1.381   1.242   9.264  0.3271 -0.0228 -0.5570
 5221SOL    HW227300   1.338   1.346   9.165 -0.7441  1.3890  0.1405
 5222SOL     OW27301   2.316   4.477   1.887 -0.1626  0.3910  0.9215
 5222SOL    HW127302   2.391   4.494   1.944  0.0666  0.3340  0.6356
 5222SOL    HW227303   2.318   4.383   1.870  0.4408  0.3855  1.0178
 5223SOL     OW27304   3.338   2.089   1.496  0.5894  0.6264  0.1390
 5223SOL    HW127305   3.314   2.152   1.564  0.1381  0.8797 -0.2568
 5223SOL    HW227306   3.400   2.036   1.547  0.1929 -0.0364 -0.0652
 5224SOL     OW27307   2.947   0.187   5.556  0.0054  0.7026  0.2102
 5224SOL    HW127308   2.995   0.188   5.473 -0.0841 -1.6672  0.1271
 5224SOL    HW227309   2.963   0.274   5.592 -0.7308  0.3579  1.3596
 5225SOL     OW27310   1.027   2.191   5.864 -0.5186 -0.3102  0.2216
 5225SOL    HW127311   1.003   2.281   5.842 -1.9345 -0.6689  0.3138
 5225SOL    HW227312   1.086   2.201   5.939 -2.2324 -0.7985  1.6394
 5226SOL     OW27313   2.103   3.471  14.522  0.2803 -0.4534 -0.0604
 5226SOL    HW127314   2.066   3.556  14.497  1.2061  0.7284  2.6806
 5226SOL    HW227315   2.186   3.499  14.561  0.1413 -0.2454  0.0790
 5227SOL     OW27316   4.213   2.617   7.475 -1.0510 -0.1664  0.2501
 5227SOL    HW127317   4.184   2.696   7.430 -1.3741  0.1759  1.0577
 5227SOL    HW227318   4.262   2.649   7.550  0.6472 -0.3553 -0.7936
 5228SOL     OW27319   2.223   1.821  15.494  0.0482 -0.1567  0.2011
 5228SOL    HW127320   2.211   1.866  15.578 -3.1668  0.2042 -0.4611
 5228SOL    HW227321   2.269   1.888  15.444 -0.0789 -0.2000  0.0261
 5229SOL     OW27322   1.925   2.443   6.875  0.0807  0.3575 -0.2332
 5229SOL    HW127323   1.860   2.384   6.835  1.1045  0.7315 -2.4485
 5229SOL    HW227324   1.879   2.472   6.953 -2.1123 -2.3236 -0.4948
 5230SOL     OW27325   2.245   2.149  14.426 -0.2084 -0.3557 -0.3724
 5230SOL    HW127326   2.228   2.057  14.405  2.5686 -1.2686  1.5095
 5230SOL    HW227327   2.287   2.137  14.511  0.0949  0.3739 -0.4160
 5231SOL     OW27328   0.852   0.650   6.908 -0.0389 -0.1178 -0.4898
 5231SOL    HW127329   0.801   0.658   6.988 -1.3568  2.5998 -1.5922
 5231SOL    HW227330   0.931   0.700   6.930  0.1733  0.7081 -3.1022
 5232SOL     OW27331   1.790   4.336  14.040  0.1867 -0.8086  0.5401
 5232SOL    HW127332   1.771   4.426  14.066  0.2810 -0.9270  1.0102
 5232SOL    HW227333   1.805   4.345  13.946  1.3774  1.0522  0.9172
 5233SOL     OW27334   4.033   1.531   9.127  0.2602 -0.1927  0.2012
 5233SOL    HW127335   4.085   1.492   9.197 -2.0883 -0.0117  2.0515
 5233SOL    HW227336   4.076   1.496   9.050 -1.5331 -1.1270 -0.3910
 5234SOL     OW27337   4.176   4.611   3.980 -0.1722  0.7378 -0.4888
 5234SOL    HW127338   4.101   4.553   3.999  2.3692 -2.4118  0.0015
 5234SOL    HW227339   4.226   4.551   3.925  1.1484  0.3775  1.1142
 5235SOL     OW27340   1.305   4.192  14.941  0.4368  0.0460 -0.0990
 5235SOL    HW127341   1.312   4.148  14.856  0.7329 -1.7408  0.8523
 5235SOL    HW227342   1.299   4.284  14.915  0.1382 -0.1406 -0.7059
 5236SOL     OW27343   3.320   3.615   9.465  0.1702  0.2849  0.3376
 5236SOL    HW127344   3.291   3.563   9.540 -1.5087 -0.5225 -0.9073
 5236SOL    HW227345   3.348   3.543   9.409  0.4314  0.7024 -0.0659
 5237SOL     OW27346   2.534   1.297   6.651  0.1786 -0.0107 -0.3288
 5237SOL    HW127347   2.609   1.261   6.603  1.1197  1.3074  0.1546
 5237SOL    HW227348   2.509   1.349   6.575 -1.1490  0.5112  0.4688
 5238SOL     OW27349   3.566   2.869  15.329  0.1564  0.0463 -0.7344
 5238SOL    HW127350   3.527   2.827  15.252  0.6694 -0.7696 -0.5585
 5238SOL    HW227351   3.610   2.942  15.287 -1.2041 -0.0905 -2.3787
 5239SOL     OW27352   1.057   3.773   4.339  0.3753  0.0804 -0.2098
 5239SOL    HW127353   1.150   3.756   4.328  0.7520  2.7634 -1.1141
 5239SOL    HW227354   1.054   3.811   4.426 -0.2310 -0.6360  0.0842
 5240SOL     OW27355   1.395   4.694  15.418 -0.5532 -0.4659 -0.1787
 5240SOL    HW127356   1.318   4.672  15.471 -0.3673 -1.1995 -0.2110
 5240SOL    HW227357   1.450   0.008  15.475  0.1725 -0.7856 -0.5714
 5241SOL     OW27358   4.586   3.955   3.821  0.1562 -0.2989 -0.8737
 5241SOL    HW127359   4.586   3.987   3.911  1.1506  0.2330 -1.0588
 5241SOL    HW227360   4.496   3.985   3.803 -0.2485 -1.0876 -0.1480
 5242SOL     OW27361   2.865   0.043   9.522  0.8968 -0.0802  0.3499
 5242SOL    HW127362   2.937   4.732   9.484  0.5017  0.3957 -1.0528
 5242SOL    HW227363   2.893   0.130   9.492 -0.7407 -0.8018 -3.2852
 5243SOL     OW27364   2.207   1.270   3.002 -0.2078 -0.0603  0.5393
 5243SOL    HW127365   2.143   1.296   2.937 -0.5723 -0.5422  0.7063
 5243SOL    HW227366   2.254   1.352   3.014  1.3567 -0.6602 -1.6106
 5244SOL     OW27367   1.631   4.529  15.095 -0.2920  0.0352 -0.1731
 5244SOL    HW127368   1.551   4.555  15.141 -0.7847  3.7486 -3.0970
 5244SOL    HW227369   1.631   4.436  15.118 -1.1019  0.5680  1.9617
 5245SOL     OW27370   3.186   1.778   7.983 -0.0493  0.1636 -0.7450
 5245SOL    HW127371   3.211   1.851   8.039  0.4050 -0.4292 -0.1841
 5245SOL    HW227372   3.093   1.801   7.973 -0.2801 -0.8162 -0.8938
 5246SOL     OW27373   2.825   3.965  15.195 -0.0886 -0.0687 -0.3161
 5246SOL    HW127374   2.920   3.967  15.209 -0.2252  1.4194  0.4143
 5246SOL    HW227375   2.816   3.878  15.156 -0.2522  0.4275 -1.3771
 5247SOL     OW27376   4.394   4.705   2.221  0.1357  0.1559 -0.9694
 5247SOL    HW127377   4.387   4.667   2.133 -0.1653  0.8110 -1.2244
 5247SOL    HW227378   4.474   4.668   2.259  0.9587  0.3023 -2.5400
 5248SOL     OW27379   3.736   1.210   3.877 -0.3754 -0.0208 -0.2500
 5248SOL    HW127380   3.705   1.217   3.787 -0.6820  1.4582 -0.0330
 5248SOL    HW227381   3.728   1.117   3.897 -0.5722  0.4049  1.7049
 5249SOL     OW27382   2.968   3.109   8.556  0.6422 -0.1519 -0.5798
 5249SOL    HW127383   2.991   3.075   8.643 -1.9134 -0.7803 -0.1369
 5249SOL    HW227384   2.873   3.109   8.543  0.7352 -1.1297 -1.2389
 5250SOL     OW27385   3.276   4.729  16.460  0.0873 -0.2087 -0.0562
 5250SOL    HW127386   3.313   4.717  16.547 -0.1001  1.6903  0.2871
 5250SOL    HW227387   3.182   4.720  16.474 -0.2579  2.7236 -0.4618
 5251SOL     OW27388   3.855   0.877   3.742  0.0874 -0.7371 -0.1738
 5251SOL    HW127389   3.875   0.914   3.656 -0.4094  0.9714  0.4463
 5251SOL    HW227390   3.771   0.915   3.767  0.2845  0.3458 -1.1836
 5252SOL     OW27391   2.611   2.241  10.975 -0.3047 -0.4582  0.1621
 5252SOL    HW127392   2.678   2.193  10.927 -0.2515 -2.2817  2.0105
 5252SOL    HW227393   2.541   2.233  10.910  1.9950  3.0734 -2.7511
 5253SOL     OW27394   4.082   3.989   3.558 -0.4014  0.1205  0.3714
 5253SOL    HW127395   4.064   4.010   3.649 -1.1445  2.4383 -0.2981
 5253SOL    HW227396   4.125   3.905   3.571  1.0734  1.1278  2.0123
 5254SOL     OW27397   0.193   1.964   1.391  0.3842  0.3721  0.2165
 5254SOL    HW127398   0.111   1.914   1.394  2.1997 -2.6224 -0.5918
 5254SOL    HW227399   0.164   2.043   1.345  1.7175  2.1326  2.4384
 5255SOL     OW27400   2.823   0.509   8.905  0.1378  0.0177 -0.1374
 5255SOL    HW127401   2.783   0.430   8.867 -1.5973 -0.0070  1.7863
 5255SOL    HW227402   2.745   0.541   8.949  0.0250  0.0817 -0.3853
 5256SOL     OW27403   3.230   1.978   8.895  0.2508 -0.2037 -0.4838
 5256SOL    HW127404   3.314   1.958   8.935  0.3628 -0.5048 -0.8690
 5256SOL    HW227405   3.240   1.937   8.809  0.5149  1.6731 -1.3543
 5257SOL     OW27406   2.710   4.081   7.017 -0.2851 -0.2094 -0.7160
 5257SOL    HW127407   2.626   4.127   7.017  0.6300  1.4442  2.2892
 5257SOL    HW227408   2.759   4.137   6.957  0.3502 -0.3171 -0.3086
 5258SOL     OW27409   1.912   1.078  10.790  0.0037 -0.3110 -0.2357
 5258SOL    HW127410   1.967   1.026  10.732 -0.4890  1.5181 -2.3511
 5258SOL    HW227411   1.874   1.012  10.848  0.8006  0.4099  1.1030
 5259SOL     OW27412   4.426   3.435   7.282  0.2584  0.0178  0.5327
 5259SOL    HW127413   4.496   3.406   7.223 -0.0569 -2.2939  1.2781
 5259SOL    HW227414   4.390   3.512   7.238 -0.9276 -0.8911 -0.0976
 5260SOL     OW27415   4.566   0.011   4.431 -0.9530  0.6192  0.2393
 5260SOL    HW127416   4.483   0.047   4.398 -1.7826  0.1307  1.8025
 5260SOL    HW227417   4.622   0.089   4.434  0.4390 -0.4123  0.4151
 5261SOL     OW27418   0.794   2.288   7.317  0.1676 -0.1222  0.3763
 5261SOL    HW127419   0.817   2.259   7.228 -2.2451 -2.3847  0.4975
 5261SOL    HW227420   0.776   2.382   7.309  1.2699  0.0872  0.3543
 5262SOL     OW27421   0.321   4.639   0.974 -0.0279 -0.4832  0.4238
 5262SOL    HW127422   0.317   4.596   1.059 -2.9923 -0.6993  0.1819
 5262SOL    HW227423   0.253   4.590   0.928  0.9720  0.2028 -1.7799
 5263SOL     OW27424   1.925   1.666  12.523 -0.4067  0.0310  0.2032
 5263SOL    HW127425   1.917   1.660  12.618  1.9924 -1.9323  0.2753
 5263SOL    HW227426   1.833   1.661  12.497 -0.1507 -1.9075 -0.3173
 5264SOL     OW27427   0.679   0.371   9.384  0.0169 -0.2708  0.2905
 5264SOL    HW127428   0.671   0.276   9.396 -1.1403 -0.2686 -0.4619
 5264SOL    HW227429   0.612   0.401   9.446  2.7766 -0.8713  3.5286
 5265SOL     OW27430   0.725   0.554  12.135  0.1584 -0.7729  0.3394
 5265SOL    HW127431   0.790   0.624  12.140 -1.0903  0.2986  1.7999
 5265SOL    HW227432   0.734   0.514  12.222  2.6999 -0.1532  0.3500
 5266SOL     OW27433   1.549   0.881   5.322  0.3902  0.2458 -0.0529
 5266SOL    HW127434   1.477   0.895   5.384  1.6155 -1.2095  1.7323
 5266SOL    HW227435   1.501   0.882   5.240 -0.2589  3.8877  0.3762
 5267SOL     OW27436   0.005   3.492   5.642 -0.0716 -0.1973 -0.4439
 5267SOL    HW127437   4.709   3.429   5.580 -1.8369  1.6388 -1.2858
 5267SOL    HW227438   0.094   3.497   5.607  0.7790  0.8438  1.8904
 5268SOL     OW27439   0.707   2.038   4.404  0.0594 -0.3703 -0.3512
 5268SOL    HW127440   0.697   2.133   4.401 -3.2943 -0.7067 -0.1690
 5268SOL    HW227441   0.754   2.024   4.321  0.6742 -0.3550 -0.0045
 5269SOL     OW27442   4.005   2.585   9.618 -0.1852 -0.3911  1.1569
 5269SOL    HW127443   4.015   2.512   9.557 -0.0578  1.0972 -0.5729
 5269SOL    HW227444   4.085   2.580   9.670  0.1472 -0.0777  0.6653
 5270SOL     OW27445   3.346   0.294  16.897  0.2335 -0.5773  0.6631
 5270SOL    HW127446   3.256   0.264  16.909 -0.4031 -0.0621 -3.1193
 5270SOL    HW227447   3.354   0.374  16.950  1.9115 -0.6471  0.5098
 5271SOL     OW27448   3.232   3.352   9.528 -0.2190 -0.3489 -0.0866
 5271SOL    HW127449   3.139   3.376   9.526  0.2016  1.4736  2.1198
 5271SOL    HW227450   3.241   3.288   9.458 -0.6557 -0.1351 -0.3381
 5272SOL     OW27451   2.729   4.693   4.901  0.2439 -0.1741  0.0673
 5272SOL    HW127452   2.718   4.709   4.995 -0.3332 -1.1277  0.1644
 5272SOL    HW227453   2.799   4.629   4.912  0.9185  0.8511  1.6883
 5273SOL     OW27454   0.411   3.195   2.327  0.3079  0.7075  0.1393
 5273SOL    HW127455   0.325   3.232   2.345 -0.3713 -0.5745 -0.5168
 5273SOL    HW227456   0.384   3.127   2.265  0.5472  2.2340 -1.6559
 5274SOL     OW27457   0.765   3.113   4.657  0.0336  0.4885  0.3531
 5274SOL    HW127458   0.673   3.089   4.664 -0.3456  1.6125 -0.7293
 5274SOL    HW227459   0.766   3.175   4.584 -0.4348  1.4869  1.2155
 5275SOL     OW27460   2.608   1.513   1.625 -0.0128 -0.2267  0.1268
 5275SOL    HW127461   2.623   1.438   1.568  0.4568  2.4483 -3.2691
 5275SOL    HW227462   2.638   1.470   1.705  1.2455  0.6548  0.1379
 5276SOL     OW27463   4.405   1.456   8.765 -0.3096 -0.1735 -0.3006
 5276SOL    HW127464   4.446   1.381   8.722  0.9924  0.6515 -0.4918
 5276SOL    HW227465   4.385   1.519   8.696  1.1074  1.0477  0.4089
 5277SOL     OW27466   0.143   4.394   3.278 -0.1769 -0.3202  0.0284
 5277SOL    HW127467   0.082   4.451   3.325 -0.6804 -0.3361 -0.6021
 5277SOL    HW227468   0.208   4.371   3.343  2.2839  0.0278 -2.2858
 5278SOL     OW27469   1.653   4.199   4.337  0.2585 -0.4506 -0.1308
 5278SOL    HW127470   1.590   4.128   4.324 -0.8382  0.3706  0.7673
 5278SOL    HW227471   1.600   4.270   4.300  0.6934 -0.6542 -1.1597
 5279SOL     OW27472   2.446   1.711   5.668  0.3498 -0.1037 -0.0965
 5279SOL    HW127473   2.522   1.703   5.726 -1.3301 -0.6869  2.0422
 5279SOL    HW227474   2.469   1.647   5.601 -0.5637 -2.3473  1.7311
 5280SOL     OW27475   3.084   3.698   7.878  0.4385  0.6346 -0.2548
 5280SOL    HW127476   3.003   3.663   7.915  0.6389 -0.7022 -1.0748
 5280SOL    HW227477   3.056   3.780   7.838 -2.6329 -1.5466 -2.5154
 5281SOL     OW27478   4.191   2.166   5.955 -0.2095 -0.0448  0.1631
 5281SOL    HW127479   4.112   2.113   5.963 -1.4141  2.1639  3.0233
 5281SOL    HW227480   4.152   2.246   5.919 -0.1255 -0.4484 -0.8084
 5282SOL     OW27481   4.450   3.463  16.557  0.0096 -0.2659  0.0447
 5282SOL    HW127482   4.364   3.422  16.560 -0.1104  0.0579  1.0530
 5282SOL    HW227483   4.489   3.417  16.631 -0.3770  2.2227  1.7764
 5283SOL     OW27484   4.001   4.686   6.416 -0.2705  0.2822 -0.1337
 5283SOL    HW127485   4.066   4.697   6.346 -0.1433  1.3251  0.1555
 5283SOL    HW227486   4.033   0.012   6.476  1.0020  0.3501 -0.9041
 5284SOL     OW27487   1.183   1.485   9.399 -0.0942 -0.3904  0.2601
 5284SOL    HW127488   1.228   1.405   9.373 -2.7072 -1.8203  0.1173
 5284SOL    HW227489   1.101   1.438   9.413 -1.3650  1.2939 -1.4571
 5285SOL     OW27490   2.727   2.406   0.962 -0.1816  0.2209  0.3113
 5285SOL    HW127491   2.669   2.380   1.033 -0.5221 -3.1411 -1.1592
 5285SOL    HW227492   2.802   2.353   0.991 -0.0910  1.5035  2.3990
 5286SOL     OW27493   3.418   2.141   7.639 -0.3313  0.0535  0.4939
 5286SOL    HW127494   3.407   2.194   7.718 -2.3272  1.7244 -0.8868
 5286SOL    HW227495   3.469   2.199   7.581  0.8777 -2.7882 -1.3168
 5287SOL     OW27496   3.682   3.901   5.204  0.0888 -0.4920  0.1482
 5287SOL    HW127497   3.594   3.868   5.223 -0.8994  1.4816 -0.9666
 5287SOL    HW227498   3.681   3.986   5.248 -1.4845  0.4600 -1.7369
 5288SOL     OW27499   3.847   2.140   1.407 -0.2110  0.0596 -0.4508
 5288SOL    HW127500   3.841   2.047   1.384 -2.4438  0.4587 -1.4513
 5288SOL    HW227501   3.796   2.145   1.487  0.1259 -2.2290 -0.1076
 5289SOL     OW27502   2.255   1.067   8.432  0.0265 -0.3088 -0.1085
 5289SOL    HW127503   2.193   1.140   8.439  0.4394  0.2342 -2.2167
 5289SOL    HW227504   2.333   1.121   8.418  0.0385  0.0577  1.3266
 5290SOL     OW27505   4.717   1.275   8.928  0.1995  0.2539  0.3593
 5290SOL    HW127506   0.005   1.290   9.018  0.4324 -0.9428  0.4798
 5290SOL    HW227507   0.014   1.352   8.885 -1.5328  0.2324 -1.2082
 5291SOL     OW27508   1.982   4.663  13.895 -0.0550  0.2022 -0.0513
 5291SOL    HW127509   2.057   4.606  13.877  0.7715  1.4978 -0.6626
 5291SOL    HW227510   2.000   4.733  13.833  1.4142  0.7655  1.0004
 5292SOL     OW27511   0.147   3.991   5.011  0.4876 -0.0617 -0.1502
 5292SOL    HW127512   0.243   3.987   5.006  0.6661  3.2103  0.7481
 5292SOL    HW227513   0.127   3.976   4.918  0.8728 -1.3351 -0.0333
 5293SOL     OW27514   4.577   2.597   7.485  0.0630  0.3034 -0.1480
 5293SOL    HW127515   4.521   2.633   7.555 -0.5413 -1.1932  0.1362
 5293SOL    HW227516   4.541   2.511   7.464  1.7785 -0.7363  1.1338
 5294SOL     OW27517   0.733   1.220   3.118 -0.4850 -0.3911 -0.1000
 5294SOL    HW127518   0.665   1.286   3.132  0.9519  1.1204 -0.2908
 5294SOL    HW227519   0.802   1.274   3.079  0.2433 -0.6820  0.7930
 5295SOL     OW27520   3.485   3.252   6.659 -0.4770 -0.1955  0.4569
 5295SOL    HW127521   3.462   3.220   6.746 -2.4878 -0.3821 -0.1211
 5295SOL    HW227522   3.400   3.238   6.615  0.6675 -2.5820 -1.0198
 5296SOL     OW27523   3.080   2.734  13.932 -0.1572 -0.2139  0.5897
 5296SOL    HW127524   3.155   2.749  13.990  1.5158 -0.2331 -1.5895
 5296SOL    HW227525   3.043   2.656  13.974 -2.9062  0.4195 -0.7064
 5297SOL     OW27526   4.234   4.714   7.791  0.3980 -0.5070  0.6374
 5297SOL    HW127527   4.260   0.063   7.815  0.9763 -0.6135  0.4007
 5297SOL    HW227528   4.267   4.675   7.872  1.3214 -1.0533 -0.0033
 5298SOL     OW27529   4.055   1.954   5.330 -0.2587  0.1270 -0.2568
 5298SOL    HW127530   4.099   1.945   5.415 -1.8279  0.5382  0.5936
 5298SOL    HW227531   4.125   1.910   5.281 -1.8137  0.0261 -2.3721
 5299SOL     OW27532   1.028   3.238   1.294  0.5792 -0.4508  0.0362
 5299SOL    HW127533   0.964   3.290   1.342 -1.1432 -2.6123  0.0733
 5299SOL    HW227534   0.968   3.202   1.228 -0.5121  0.0725  0.7499
 5300SOL     OW27535   0.258   2.863   9.754  0.2687  0.2891  0.4132
 5300SOL    HW127536   0.269   2.769   9.738  1.8523  0.5570 -0.0816
 5300SOL    HW227537   0.170   2.851   9.790 -0.2164 -0.7004 -1.1009
 5301SOL     OW27538   1.480   1.010   4.393 -0.5696 -0.2477 -0.0402
 5301SOL    HW127539   1.559   0.955   4.392  1.7089  2.9661  2.0369
 5301SOL    HW227540   1.413   0.943   4.399 -2.9576  2.1138 -0.3488
 5302SOL     OW27541   4.457   4.381   9.780  0.1470  0.1768  0.2619
 5302SOL    HW127542   4.477   4.439   9.706 -1.7031  0.9408  0.3564
 5302SOL    HW227543   4.544   4.353   9.808  1.2684  1.4197 -1.9823
 5303SOL     OW27544   1.789   4.432  17.102 -0.1200  0.0873  0.7012
 5303SOL    HW127545   1.721   4.471  17.048  0.1972  0.0858  0.2974
 5303SOL    HW227546   1.834   4.513  17.124 -2.0165  0.9023  1.5019
 5304SOL     OW27547   1.518   2.907   5.680  0.1136  0.8989 -0.5427
 5304SOL    HW127548   1.481   2.829   5.639 -3.2746  1.2829  1.8310
 5304SOL    HW227549   1.560   2.867   5.756  2.7054  1.1890 -1.8293
 5305SOL     OW27550   0.541   3.835  14.361 -0.7667 -0.0461 -0.0341
 5305SOL    HW127551   0.489   3.849  14.281  0.8242  2.3627 -0.6698
 5305SOL    HW227552   0.478   3.882  14.415  1.8366  0.4998  2.4965
 5306SOL     OW27553   2.356   1.607   7.839  0.0659  0.4379  0.1894
 5306SOL    HW127554   2.342   1.598   7.745 -0.0617  1.3567  0.1211
 5306SOL    HW227555   2.450   1.585   7.836  0.5280  2.5561 -1.2353
 5307SOL     OW27556   0.561   3.797   6.663  0.1924  0.0309  0.2397
 5307SOL    HW127557   0.537   3.878   6.709 -1.1563  0.6382 -1.5323
 5307SOL    HW227558   0.636   3.830   6.615 -1.0272  0.7903 -1.1557
 5308SOL     OW27559   4.228   4.168   5.961 -0.6950 -0.5132  0.0237
 5308SOL    HW127560   4.207   4.260   5.973  3.1159  0.6833 -2.4190
 5308SOL    HW227561   4.158   4.146   5.900 -1.2359  1.2993  0.0098
 5309SOL     OW27562   4.663   2.996   7.553 -0.7663 -0.6276 -0.1192
 5309SOL    HW127563   4.671   2.985   7.648 -1.1889 -3.5072 -0.4195
 5309SOL    HW227564   0.015   3.000   7.524 -0.2053 -0.6723  1.6697
 5310SOL     OW27565   4.010   0.245   8.009 -1.1824 -0.4162 -0.1382
 5310SOL    HW127566   3.998   0.307   7.937 -1.4458  2.5749  2.5190
 5310SOL    HW227567   4.105   0.250   8.014 -1.1193  0.0247 -1.7669
 5311SOL     OW27568   1.358   0.395   2.781  0.3588 -0.1453 -0.8613
 5311SOL    HW127569   1.321   0.476   2.816 -0.3562 -0.6598 -0.4221
 5311SOL    HW227570   1.386   0.434   2.698  0.2406  1.6322 -0.0756
 5312SOL     OW27571   4.384   3.198  14.760  0.6165 -0.1509 -0.4640
 5312SOL    HW127572   4.397   3.263  14.691 -2.4483 -1.5413 -2.3050
 5312SOL    HW227573   4.406   3.255  14.834 -0.6589  1.5859 -1.4098
 5313SOL     OW27574   1.691   4.366   5.657  0.1058  0.4357 -0.0098
 5313SOL    HW127575   1.695   4.455   5.621  0.1491  0.7408  0.7508
 5313SOL    HW227576   1.757   4.318   5.607 -0.3228  0.4709 -0.6031
 5314SOL     OW27577   1.388   1.242   3.086  0.0674  0.5875 -0.7752
 5314SOL    HW127578   1.320   1.179   3.111  0.0927  1.3848  1.2620
 5314SOL    HW227579   1.349   1.275   3.005 -1.9878  0.9441  0.3543
 5315SOL     OW27580   1.954   0.652   2.561  0.5295  0.0629  0.0479
 5315SOL    HW127581   2.036   0.694   2.532 -0.8025  2.7728  0.1866
 5315SOL    HW227582   1.993   0.607   2.636  1.7247  1.1153  0.0580
 5316SOL     OW27583   0.750   2.226   6.164  0.2628 -0.2578  0.1059
 5316SOL    HW127584   0.717   2.255   6.079 -1.7387 -0.7174  0.7302
 5316SOL    HW227585   0.754   2.130   6.164  0.7875 -0.2453 -1.5727
 5317SOL     OW27586   0.860   4.264  17.633 -0.3062 -0.1268 -0.0494
 5317SOL    HW127587   0.820   4.191  17.585 -1.4666 -1.5214  3.0181
 5317SOL    HW227588   0.928   4.218  17.682  1.0012  2.2241  0.3005
 5318SOL     OW27589   4.110   2.950  14.883  0.4631  0.2554  0.6461
 5318SOL    HW127590   4.200   2.957  14.848  0.5995  0.6362  1.0781
 5318SOL    HW227591   4.103   2.868  14.932  2.0919 -0.3261 -0.0781
 5319SOL     OW27592   4.487   1.107   4.738  0.3739  0.6620  0.2923
 5319SOL    HW127593   4.442   1.078   4.818  0.5237 -2.8796 -0.9259
 5319SOL    HW227594   4.415   1.157   4.698 -1.3300 -2.7680 -0.8886
 5320SOL     OW27595   2.112   3.968   7.033  0.1757  0.7149  0.3852
 5320SOL    HW127596   2.089   3.922   7.113 -0.5277 -1.3505 -0.9976
 5320SOL    HW227597   2.168   4.038   7.067  1.0928 -0.5718  1.4962
 5321SOL     OW27598   2.570   4.588   3.058  0.5949  0.0410  0.3578
 5321SOL    HW127599   2.569   4.506   3.010  1.6998  1.7631 -2.5922
 5321SOL    HW227600   2.482   4.621   3.038 -0.3373 -1.7978  1.4091
 5322SOL     OW27601   1.109   1.794   8.185  0.4819 -0.4868 -0.1519
 5322SOL    HW127602   1.031   1.745   8.159  0.6945 -0.7987 -0.2103
 5322SOL    HW227603   1.166   1.757   8.117 -1.5062 -0.7962 -1.6202
 5323SOL     OW27604   4.618   3.956   7.674 -0.7772 -0.4228 -0.4052
 5323SOL    HW127605   4.630   3.901   7.597 -0.7685  0.2818 -0.9010
 5323SOL    HW227606   4.525   3.945   7.695 -0.3887  0.0011  1.6023
 5324SOL     OW27607   2.165   2.244   9.107 -0.1084  0.4146  0.5264
 5324SOL    HW127608   2.238   2.217   9.164  0.0082 -0.2778  0.0478
 5324SOL    HW227609   2.152   2.157   9.070  1.0092  0.1478  0.7421
 5325SOL     OW27610   1.449   2.903  10.796 -0.4228 -0.2372 -0.5705
 5325SOL    HW127611   1.417   2.872  10.881  0.0418  1.2860  0.1641
 5325SOL    HW227612   1.386   2.960  10.753  0.9278  1.2094 -0.6239
 5326SOL     OW27613   3.820   4.411   7.195  0.1801 -0.0690  0.7823
 5326SOL    HW127614   3.735   4.376   7.219  0.4876 -0.0814  1.8660
 5326SOL    HW227615   3.793   4.502   7.183 -0.4239 -0.4372 -0.6390
 5327SOL     OW27616   4.567   1.187   3.891  0.1303  0.6542  0.5722
 5327SOL    HW127617   4.556   1.093   3.906 -2.4376  1.0928  1.5125
 5327SOL    HW227618   4.658   1.188   3.862 -0.1493  0.0948 -0.3316
 5328SOL     OW27619   3.300   0.684   9.667  0.6972  0.4895 -0.1356
 5328SOL    HW127620   3.305   0.747   9.738 -1.6186 -0.8536  1.1962
 5328SOL    HW227621   3.365   0.727   9.611  0.1031  1.7460  0.1637
 5329SOL     OW27622   1.435   1.584   5.409  1.0911 -0.1254  0.1443
 5329SOL    HW127623   1.415   1.678   5.413  3.6814  0.4608 -1.0773
 5329SOL    HW227624   1.515   1.599   5.359  0.6239  0.4228 -0.4542
 5330SOL     OW27625   3.151   2.227   8.483  0.2814  0.0076  0.5866
 5330SOL    HW127626   3.244   2.212   8.464  0.1606  0.1089 -0.0896
 5330SOL    HW227627   3.132   2.292   8.416  3.2524  1.1560  0.8690
 5331SOL     OW27628   2.692   3.511   5.609 -0.8896 -0.7504  0.2315
 5331SOL    HW127629   2.775   3.521   5.655  0.4550 -0.9507 -2.1940
 5331SOL    HW227630   2.702   3.567   5.532 -1.9102 -0.1857  0.5027
 5332SOL     OW27631   1.759   1.159   4.324  0.0265  0.4520 -0.6840
 5332SOL    HW127632   1.769   1.179   4.417 -0.0868 -1.2559 -0.3077
 5332SOL    HW227633   1.668   1.187   4.312 -0.4216  1.0186  4.0310
 5333SOL     OW27634   4.602   0.674  11.876  0.0360  0.0355  0.1591
 5333SOL    HW127635   4.606   0.579  11.871 -0.8432  0.0874 -1.6592
 5333SOL    HW227636   4.581   0.681  11.969  1.0058  2.7553  0.1564
 5334SOL     OW27637   2.660   3.055  15.013  0.0841 -0.1668  0.0843
 5334SOL    HW127638   2.736   3.048  14.956 -1.0907 -1.0049 -1.3797
 5334SOL    HW227639   2.637   3.147  15.001 -1.7454 -0.2547  2.8786
 5335SOL     OW27640   1.107   4.715   2.450  0.3968  0.1950 -0.6290
 5335SOL    HW127641   1.047   0.039   2.488 -1.4789 -1.2904 -1.0832
 5335SOL    HW227642   1.161   4.701   2.528 -0.3778 -2.7329 -0.5975
 5336SOL     OW27643   4.668   0.062   1.685  0.0076 -0.4942  0.1103
 5336SOL    HW127644   0.002   0.113   1.716 -1.7833  2.5925 -0.7092
 5336SOL    HW227645   4.697   4.731   1.628  2.5675  0.1484  0.6280
 5337SOL     OW27646   0.477   4.184   6.258  0.4817  0.7750  0.2545
 5337SOL    HW127647   0.403   4.152   6.207  1.8206  2.3118 -2.6662
 5337SOL    HW227648   0.553   4.142   6.219  1.6557  0.7473  2.5371
 5338SOL     OW27649   1.548   0.047   0.935 -0.0579 -0.1346  0.6090
 5338SOL    HW127650   1.597   0.116   0.979  2.4515 -1.4989 -0.0248
 5338SOL    HW227651   1.467   0.040   0.985 -0.8961  0.0146 -0.7355
 5339SOL     OW27652   4.086   2.185   3.753 -0.3907 -0.4688 -0.1562
 5339SOL    HW127653   4.048   2.098   3.763  0.1211 -0.4237  2.2762
 5339SOL    HW227654   4.006   2.238   3.748 -0.7148 -1.1774 -2.2855
 5340SOL     OW27655   1.103   0.637   8.652  0.2196  0.3100 -0.5178
 5340SOL    HW127656   1.159   0.655   8.577  0.4075  0.5295 -0.3256
 5340SOL    HW227657   1.029   0.594   8.608  0.4038 -0.6675  0.1110
 5341SOL     OW27658   2.860   1.146   6.312  0.0426 -0.1433  0.5284
 5341SOL    HW127659   2.860   1.139   6.216 -2.8479 -1.3205  0.6285
 5341SOL    HW227660   2.925   1.079   6.332  0.4189  0.6386  1.8969
 5342SOL     OW27661   3.012   0.854   5.418  0.0880 -0.1406 -0.3820
 5342SOL    HW127662   2.958   0.913   5.470 -0.6786 -0.9097 -0.2936
 5342SOL    HW227663   2.973   0.868   5.332 -1.1203 -1.1422 -0.0010
 5343SOL     OW27664   1.227   1.001   7.543  0.6210  0.2159 -0.0797
 5343SOL    HW127665   1.305   0.945   7.551 -1.7924 -3.1543 -0.3625
 5343SOL    HW227666   1.228   1.052   7.624 -1.0238  0.2866 -0.1141
 5344SOL     OW27667   1.236   3.941   5.970  0.3542  0.0746  0.9947
 5344SOL    HW127668   1.253   4.031   5.996  0.8514 -0.2735  1.8519
 5344SOL    HW227669   1.233   3.966   5.877 -0.3358 -0.6043  0.8353
 5345SOL     OW27670   2.894   1.835  11.045 -0.0095 -0.3470  0.3417
 5345SOL    HW127671   2.836   1.787  10.985  0.4670  0.6817 -0.9283
 5345SOL    HW227672   2.891   1.919  11.000  0.9935 -0.4785  0.0445
 5346SOL     OW27673   1.106   3.043   7.960  0.1976 -0.2551 -0.3614
 5346SOL    HW127674   1.083   3.107   8.028 -0.9650 -0.6364 -0.4031
 5346SOL    HW227675   1.033   2.981   7.958  1.9869 -2.3993  0.5290
 5347SOL     OW27676   4.331   1.472  10.028 -1.0980 -0.0715  0.0125
 5347SOL    HW127677   4.416   1.428  10.025 -0.9104  0.2532  0.6763
 5347SOL    HW227678   4.326   1.524   9.948 -0.6030  0.5095  0.3598
 5348SOL     OW27679   0.491   3.737   6.397  0.7810  0.1712 -0.3552
 5348SOL    HW127680   0.478   3.760   6.490 -0.1674 -3.3887  0.3677
 5348SOL    HW227681   0.411   3.690   6.373  0.6412 -0.8209  2.0777
 5349SOL     OW27682   4.140   4.233  12.631 -0.0167 -0.8320 -0.1739
 5349SOL    HW127683   4.217   4.187  12.596  1.5466  0.5075  1.4593
 5349SOL    HW227684   4.072   4.192  12.579 -2.1631  2.2731  0.1813
 5350SOL     OW27685   3.457   2.306   5.200 -0.1964 -0.1401  0.5268
 5350SOL    HW127686   3.418   2.323   5.286 -2.3885  1.3924 -0.7739
 5350SOL    HW227687   3.382   2.298   5.141 -1.0108  0.0841  1.5205
 5351SOL     OW27688   0.069   2.448   2.443  0.3252  0.1940  0.0683
 5351SOL    HW127689   0.023   2.420   2.363  0.3588 -0.1395  0.1658
 5351SOL    HW227690   0.080   2.367   2.492 -1.1344  0.2161  0.4031
 5352SOL     OW27691   2.582   2.689  14.519  0.0955  0.3005  0.3020
 5352SOL    HW127692   2.647   2.756  14.539  1.1326 -0.2007 -1.3076
 5352SOL    HW227693   2.629   2.605  14.515  2.0664  1.4693 -1.2974
 5353SOL     OW27694   3.761   1.655   6.776  0.4845 -0.7440 -0.2353
 5353SOL    HW127695   3.808   1.736   6.798 -2.7396  0.7146  1.2798
 5353SOL    HW227696   3.801   1.588   6.831 -0.7800 -0.4017  1.1042
 5354SOL     OW27697   2.970   3.069   0.753 -0.1405 -0.2942  0.2094
 5354SOL    HW127698   2.914   3.004   0.710 -0.7144  0.4394 -0.1535
 5354SOL    HW227699   2.947   3.054   0.844  0.8245  0.2250  0.5446
 5355SOL     OW27700   3.472   1.184  10.890 -0.0665  0.4289  0.0511
 5355SOL    HW127701   3.495   1.132  10.813 -0.6556  0.5024 -0.1746
 5355SOL    HW227702   3.554   1.205  10.934 -0.7404  4.0270 -0.3919
 5356SOL     OW27703   0.234   0.787   2.488  0.2425 -0.2289  0.1998
 5356SOL    HW127704   0.191   0.862   2.529 -0.8502 -1.4218  1.2251
 5356SOL    HW227705   0.190   0.710   2.524 -0.0705  0.6415  1.6676
 5357SOL     OW27706   4.324   1.898   7.561  0.0718 -0.3229 -0.0744
 5357SOL    HW127707   4.368   1.977   7.594 -1.7442  1.2778 -1.4527
 5357SOL    HW227708   4.385   1.831   7.591  1.1512  0.3316 -0.8246
 5358SOL     OW27709   1.706   2.529  14.028 -0.0598  0.4162 -0.3695
 5358SOL    HW127710   1.794   2.555  14.057  0.2222 -1.8693  0.8509
 5358SOL    HW227711   1.658   2.541  14.109 -1.1421  2.5613 -1.3373
 5359SOL     OW27712   4.315   2.907   1.985 -0.2919 -0.1963  0.2665
 5359SOL    HW127713   4.220   2.906   1.972 -0.0541 -1.4666 -1.3694
 5359SOL    HW227714   4.351   2.923   1.898  0.9450  0.7109  0.9472
 5360SOL     OW27715   2.712   0.554   3.360  0.5603  0.0279  0.0702
 5360SOL    HW127716   2.653   0.619   3.320  0.4237  0.1674  0.5020
 5360SOL    HW227717   2.787   0.554   3.301 -1.6580 -0.8283 -2.7503
 5361SOL     OW27718   3.154   3.965   8.241 -0.1416 -0.0441  0.2510
 5361SOL    HW127719   3.175   3.938   8.330 -1.6653 -0.2914  0.5373
 5361SOL    HW227720   3.240   3.971   8.201  0.2856  1.1014  1.3367
 5362SOL     OW27721   4.512   2.223  10.583 -0.3244 -0.3832 -0.4050
 5362SOL    HW127722   4.578   2.201  10.517 -0.0922 -1.4494  0.1769
 5362SOL    HW227723   4.560   2.231  10.665 -0.3112  2.3874 -0.6835
 5363SOL     OW27724   4.439   1.503   0.301 -0.2031 -0.0979 -0.7284
 5363SOL    HW127725   4.364   1.520   0.243 -0.4454  0.1104 -0.3562
 5363SOL    HW227726   4.433   1.562   0.376  0.6156 -2.4689  1.2172
 5364SOL     OW27727   2.356   2.292   2.585  0.1737  0.5954 -0.0556
 5364SOL    HW127728   2.338   2.304   2.492  1.3825  1.4092 -0.1901
 5364SOL    HW227729   2.312   2.373   2.609 -0.3304  0.0997  0.6878
 5365SOL     OW27730   4.617   1.451  11.704 -0.6498  0.3711 -0.2983
 5365SOL    HW127731   4.591   1.542  11.688  0.9251  1.0206  0.8680
 5365SOL    HW227732   4.681   1.432  11.635 -0.2458  2.2288 -0.4396
 5366SOL     OW27733   2.684   0.638   6.451 -0.6518 -0.4974  0.4297
 5366SOL    HW127734   2.670   0.564   6.510 -3.2165  1.4569  2.2456
 5366SOL    HW227735   2.772   0.610   6.425 -0.0260  0.5571  1.4112
 5367SOL     OW27736   0.545   0.699   2.089  0.1011 -0.0428  0.6383
 5367SOL    HW127737   0.631   0.740   2.101  0.3950 -0.3378 -0.5030
 5367SOL    HW227738   0.512   0.754   2.019 -2.0638 -2.1314  0.0194
 5368SOL     OW27739   0.940   1.369  16.973  0.1084  0.1057  0.4542
 5368SOL    HW127740   0.978   1.305  17.034 -0.3060 -0.0685  0.5269
 5368SOL    HW227741   0.928   1.322  16.891  2.1991  0.4290 -0.0308
 5369SOL     OW27742   0.476   0.213  11.817 -0.0181  0.3242 -0.0674
 5369SOL    HW127743   0.513   0.187  11.733  1.4502  2.2691 -0.0124
 5369SOL    HW227744   0.549   0.243  11.871 -0.7258  0.9821  0.5412
 5370SOL     OW27745   1.482   4.037   2.359  0.1237 -0.2308 -0.4966
 5370SOL    HW127746   1.498   3.976   2.431  1.6528  1.6505  0.7732
 5370SOL    HW227747   1.574   4.060   2.342 -0.0067 -1.1732 -2.4636
 5371SOL     OW27748   1.440   3.441   1.639 -0.5470  0.3232 -0.6079
 5371SOL    HW127749   1.483   3.474   1.717  2.3546  2.0947 -2.9655
 5371SOL    HW227750   1.451   3.347   1.656 -0.8750  0.1514 -1.3155
 5372SOL     OW27751   3.233   4.082   4.537 -0.0074  0.0553  0.4508
 5372SOL    HW127752   3.268   4.037   4.615  1.8798  0.0968 -0.3675
 5372SOL    HW227753   3.198   4.160   4.581 -2.1184 -1.1065  0.8272
 5373SOL     OW27754   1.202   0.274   7.257  0.1057  0.3589 -0.2761
 5373SOL    HW127755   1.147   0.241   7.328 -0.3611  0.6971 -0.4737
 5373SOL    HW227756   1.214   0.363   7.292 -1.8476  1.4603 -2.3299
 5374SOL     OW27757   3.741   2.084   8.748 -0.4774  0.3319  0.3694
 5374SOL    HW127758   3.777   2.021   8.810 -4.3271  0.5513  2.8267
 5374SOL    HW227759   3.694   2.032   8.684  2.0951 -1.3800 -0.1508
 5375SOL     OW27760   1.945   2.663   7.705 -0.3305  0.1955  0.1336
 5375SOL    HW127761   1.884   2.688   7.635  0.1919  0.2394 -0.3067
 5375SOL    HW227762   1.983   2.583   7.668 -0.8562  0.1947 -0.4225
 5376SOL     OW27763   3.743   0.031  13.105 -0.0027 -0.4486 -0.0900
 5376SOL    HW127764   3.724   0.095  13.173 -0.1846  0.3684 -0.9072
 5376SOL    HW227765   3.668   0.054  13.050 -1.2052 -1.0383  1.3285
 5377SOL     OW27766   0.034   1.366   1.806  0.2843 -0.1194 -0.4927
 5377SOL    HW127767   0.106   1.352   1.868 -1.4948  1.4266  1.9143
 5377SOL    HW227768   0.029   1.282   1.761 -0.8754 -1.1618  1.5982
 5378SOL     OW27769   2.895   1.310   0.971  1.2185 -0.2003  0.0312
 5378SOL    HW127770   2.825   1.245   0.981  0.1206  0.7345 -1.5997
 5378SOL    HW227771   2.950   1.265   0.907  0.4924 -1.0120 -0.0201
 5379SOL     OW27772   1.583   0.495   9.304  0.0010 -0.6259  0.8922
 5379SOL    HW127773   1.494   0.531   9.305  0.1965 -0.1054 -0.1369
 5379SOL    HW227774   1.611   0.496   9.212 -0.1588  0.0936  0.8546
 5380SOL     OW27775   2.419   0.965   4.804  1.1656 -1.0018 -0.2974
 5380SOL    HW127776   2.407   0.871   4.816 -0.3495 -0.9964 -1.7687
 5380SOL    HW227777   2.512   0.987   4.805  1.0902 -0.7186  1.0546
 5381SOL     OW27778   4.013   3.481   2.209  0.5198  0.3031 -0.4940
 5381SOL    HW127779   3.969   3.466   2.125 -0.9129 -1.4395  0.5600
 5381SOL    HW227780   4.085   3.419   2.201 -2.6283 -3.3303 -0.5665
 5382SOL     OW27781   2.016   3.655  10.807  0.2677 -0.4719  0.1427
 5382SOL    HW127782   2.032   3.720  10.876 -2.9321  0.3335  0.1302
 5382SOL    HW227783   2.094   3.668  10.754 -1.1167  3.4541 -0.9316
 5383SOL     OW27784   1.642   2.112  17.676  0.0634 -0.0051  0.3165
 5383SOL    HW127785   1.688   2.096   0.000 -1.0686 -1.2882  0.6976
 5383SOL    HW227786   1.709   2.112  17.608  0.0474 -0.5646  0.2991
 5384SOL     OW27787   2.311   3.655  14.597  0.2579 -0.2798 -0.4032
 5384SOL    HW127788   2.380   3.660  14.530  2.2465 -0.8289  1.6097
 5384SOL    HW227789   2.326   3.741  14.637  0.7526 -0.6274  0.1571
 5385SOL     OW27790   0.473   0.969   7.237 -0.2640  0.4300  0.1483
 5385SOL    HW127791   0.429   0.970   7.152 -0.0414 -0.9538  0.0166
 5385SOL    HW227792   0.555   1.007   7.206 -0.5244 -0.7703 -1.9358
 5386SOL     OW27793   0.981   1.362   6.662 -0.6965 -0.2018 -0.2485
 5386SOL    HW127794   1.046   1.333   6.726 -1.2988 -0.0302  0.4428
 5386SOL    HW227795   1.022   1.441   6.626  0.7234  0.2787  2.4737
 5387SOL     OW27796   2.883   2.930  11.904  0.5064 -0.4500  0.3625
 5387SOL    HW127797   2.954   2.982  11.940 -0.5579  0.9658  0.4014
 5387SOL    HW227798   2.904   2.916  11.812  0.3505  1.4676  0.0440
 5388SOL     OW27799   0.316   2.922   7.192 -0.6153  0.4011 -0.2142
 5388SOL    HW127800   0.344   2.914   7.101  0.1854  1.0510 -0.0257
 5388SOL    HW227801   0.228   2.884   7.191 -0.8308  0.8576  2.0034
 5389SOL     OW27802   0.390   3.109   8.018 -0.2140 -0.1894 -0.1435
 5389SOL    HW127803   0.328   3.119   7.946  1.0998 -0.7308 -1.3332
 5389SOL    HW227804   0.457   3.168   7.985 -0.2689  0.7684  1.4456
 5390SOL     OW27805   1.665   3.841   4.879 -0.1372  0.6224  0.0129
 5390SOL    HW127806   1.652   3.759   4.927 -0.5324  1.4791  1.3688
 5390SOL    HW227807   1.748   3.824   4.835 -1.3225  0.3114 -2.0906
 5391SOL     OW27808   3.662   1.298  10.318 -0.0945  0.6919  0.6969
 5391SOL    HW127809   3.576   1.280  10.354 -0.7228  0.4524 -0.9338
 5391SOL    HW227810   3.677   1.373  10.376  0.9533  0.8715  0.1951
 5392SOL     OW27811   3.772   1.170   6.616 -0.4608  0.1749 -0.0135
 5392SOL    HW127812   3.818   1.089   6.592 -1.6282 -0.8919  1.3443
 5392SOL    HW227813   3.838   1.239   6.608  0.8302 -0.8166  2.1488
 5393SOL     OW27814   3.166   3.110   7.233  0.2747 -0.2932  0.2988
 5393SOL    HW127815   3.141   3.198   7.261 -1.2264 -0.2820 -1.0415
 5393SOL    HW227816   3.080   3.071   7.215  0.8020 -1.0350 -0.5706
 5394SOL     OW27817   2.583   3.946   7.981 -0.1826 -0.2864 -0.4115
 5394SOL    HW127818   2.644   3.958   8.054 -1.1963 -1.0093  0.5553
 5394SOL    HW227819   2.535   3.868   8.010 -0.1200 -0.0081  0.4189
 5395SOL     OW27820   2.779   2.469   7.829 -0.2052  0.3554  0.6830
 5395SOL    HW127821   2.827   2.546   7.800  0.5778 -0.1672  0.6049
 5395SOL    HW227822   2.775   2.483   7.924  1.7520 -0.3514  0.8669
 5396SOL     OW27823   3.502   4.281   8.241  0.5612  0.0654  0.1341
 5396SOL    HW127824   3.583   4.293   8.290 -0.5888  1.4765  1.6961
 5396SOL    HW227825   3.442   4.260   8.313  0.1344  0.1900 -0.1855
 5397SOL     OW27826   0.672   1.100   3.836 -0.2320  0.5081  0.5011
 5397SOL    HW127827   0.729   1.088   3.760  1.6875  0.1099  1.9845
 5397SOL    HW227828   0.731   1.081   3.909  0.0493  1.7800  0.6047
 5398SOL     OW27829   0.584   2.690   2.451  0.0289  0.1520  0.6129
 5398SOL    HW127830   0.585   2.785   2.464  3.3258 -0.2327  3.1191
 5398SOL    HW227831   0.658   2.667   2.506  2.0597  0.6338 -1.9146
 5399SOL     OW27832   3.551   3.905  15.776 -0.0276 -0.1330  0.3379
 5399SOL    HW127833   3.565   3.995  15.805 -0.2088  0.3937 -1.1987
 5399SOL    HW227834   3.626   3.893  15.717 -1.1433 -1.1755 -0.8914
 5400SOL     OW27835   1.168   4.261   4.924 -0.2621  0.5059 -0.2942
 5400SOL    HW127836   1.121   4.305   4.853  0.5875  2.1402  0.1614
 5400SOL    HW227837   1.137   4.174   4.900 -1.9585  1.1266 -0.3252
 5401SOL     OW27838   2.118   0.830   3.460 -0.2473 -0.3563  0.1171
 5401SOL    HW127839   2.095   0.787   3.377 -0.9588  2.2813 -1.0303
 5401SOL    HW227840   2.027   0.835   3.488  0.2199 -1.1508  1.7477
 5402SOL     OW27841   0.415   4.395  10.163 -0.1617  0.0328 -0.0855
 5402SOL    HW127842   0.390   4.353  10.246 -0.8930 -2.7452 -1.7019
 5402SOL    HW227843   0.446   4.478  10.200 -1.5853 -0.9111  3.2594
 5403SOL     OW27844   4.337   3.718   7.905 -0.4686 -0.8195 -0.0952
 5403SOL    HW127845   4.369   3.765   7.983 -2.0985 -0.1448  0.1746
 5403SOL    HW227846   4.404   3.650   7.899 -0.0805 -0.3870 -0.6059
 5404SOL     OW27847   3.230   2.978   7.621 -0.0708  0.2512  0.2481
 5404SOL    HW127848   3.245   2.937   7.536 -1.4780 -0.5848  0.3939
 5404SOL    HW227849   3.315   2.976   7.665 -0.3239  0.7814  0.7614
 5405SOL     OW27850   1.732   1.195   9.936 -0.0992 -0.1207  0.5126
 5405SOL    HW127851   1.698   1.180  10.024  1.3246  0.6701  1.1904
 5405SOL    HW227852   1.803   1.131   9.933 -0.1828 -0.1837 -0.2251
 5406SOL     OW27853   0.829   3.477   0.800  0.6267 -0.1561  0.5400
 5406SOL    HW127854   0.899   3.533   0.766 -0.9380  1.3005 -0.2338
 5406SOL    HW227855   0.795   3.441   0.718 -1.0344  1.7572  0.4207
 5407SOL     OW27856   2.906   0.270   0.602 -0.3811 -0.3037 -0.1629
 5407SOL    HW127857   2.820   0.311   0.613 -0.0980  0.4370 -0.7165
 5407SOL    HW227858   2.932   0.311   0.520  1.1727  1.6533  1.2990
 5408SOL     OW27859   3.688   4.654   7.205  0.0722  0.5919 -0.2376
 5408SOL    HW127860   3.623   4.663   7.134 -0.0241  0.9026 -0.1068
 5408SOL    HW227861   3.713   0.006   7.214  0.2722  0.3179  1.8169
 5409SOL     OW27862   1.719   4.464   1.126 -0.4096 -0.5205  0.0973
 5409SOL    HW127863   1.699   4.443   1.035  0.6176  0.9396 -0.4607
 5409SOL    HW227864   1.758   4.551   1.121  1.1003 -1.1949  0.1885
 5410SOL     OW27865   3.922   1.694   7.342  0.6202 -0.2976 -0.2293
 5410SOL    HW127866   3.959   1.758   7.403 -0.0105  2.6272 -2.9313
 5410SOL    HW227867   3.919   1.612   7.392 -2.1749 -1.7163 -2.7367
 5411SOL     OW27868   2.040   0.225  15.914 -0.6533  0.2288  0.7381
 5411SOL    HW127869   2.026   0.280  15.992 -1.1313  0.8047  0.2452
 5411SOL    HW227870   2.128   0.249  15.883 -0.0604 -2.5884  0.2619
 5412SOL     OW27871   2.141   2.198  10.009  0.0805  0.1289  0.0037
 5412SOL    HW127872   2.218   2.151  10.041 -1.1246 -0.9870  1.2185
 5412SOL    HW227873   2.158   2.282  10.054  1.1832  0.0983 -0.3493
 5413SOL     OW27874   3.755   3.897   8.233 -0.0147  0.7370  0.5424
 5413SOL    HW127875   3.759   3.863   8.144  1.3800  1.7604  0.1998
 5413SOL    HW227876   3.835   3.863   8.274 -0.9816 -1.0670  0.9320
 5414SOL     OW27877   4.706   1.059  14.924 -0.2816  0.8111  0.1480
 5414SOL    HW127878   4.700   1.077  14.831  1.1390 -1.6931 -0.4383
 5414SOL    HW227879   0.060   1.046  14.935 -0.0582 -0.0644 -2.9209
 5415SOL     OW27880   3.390   2.922  13.541  0.2289 -0.0197  0.1085
 5415SOL    HW127881   3.318   2.892  13.597  0.5946 -0.0901  0.5352
 5415SOL    HW227882   3.412   2.993  13.602  0.3620  0.6599 -0.7326
 5416SOL     OW27883   2.112   3.050  15.788  0.2232  0.8705  0.1475
 5416SOL    HW127884   2.114   3.059  15.693  1.4729  0.9687  0.1868
 5416SOL    HW227885   2.055   3.120  15.819  0.1990  0.6975  0.4987
 5417SOL     OW27886   0.597   3.611   7.116 -0.5729  0.0106  0.0941
 5417SOL    HW127887   0.542   3.535   7.136 -0.4329 -0.4348 -1.1971
 5417SOL    HW227888   0.557   3.683   7.164 -0.2596 -0.2619  0.7603
 5418SOL     OW27889   3.599   0.139   8.914  0.6153 -1.0793  0.2023
 5418SOL    HW127890   3.547   0.166   8.838  0.1150 -1.8111  0.2801
 5418SOL    HW227891   3.626   0.228   8.937 -0.3085 -0.7214 -0.0867
 5419SOL     OW27892   2.084   4.060   4.387  0.2795  0.3103 -0.3812
 5419SOL    HW127893   2.137   3.984   4.408  2.2936  0.8979 -3.3323
 5419SOL    HW227894   2.081   4.053   4.292  2.4872 -1.2806 -0.3130
 5420SOL     OW27895   2.810   3.738  13.351  0.1591  0.0799  0.2655
 5420SOL    HW127896   2.733   3.687  13.375 -1.5476  3.2972  1.5837
 5420SOL    HW227897   2.834   3.692  13.271  1.0568 -0.0017  0.5766
 5421SOL     OW27898   3.575   4.068  16.148 -0.1883 -0.0702 -0.5774
 5421SOL    HW127899   3.594   4.121  16.070 -2.4652  1.0690 -0.3646
 5421SOL    HW227900   3.663   4.058  16.184 -0.0889 -0.5735 -0.9536
 5422SOL     OW27901   3.458   2.846   5.599  0.1942 -0.5705  0.1530
 5422SOL    HW127902   3.439   2.828   5.507 -0.7304 -0.4221  0.3159
 5422SOL    HW227903   3.491   2.759   5.621  1.2908 -0.7529 -2.2654
 5423SOL     OW27904   2.151   0.720  13.110  0.2614  0.1723  0.2878
 5423SOL    HW127905   2.161   0.633  13.148  0.8384 -0.7890 -2.0338
 5423SOL    HW227906   2.246   0.737  13.108  0.8993 -3.4148  0.1113
 5424SOL     OW27907   0.881   3.279  15.689 -0.1946 -0.4644  0.2394
 5424SOL    HW127908   0.886   3.344  15.619 -3.0524 -1.3067 -0.7479
 5424SOL    HW227909   0.885   3.199  15.636  2.0691 -0.6393  0.6579
 5425SOL     OW27910   0.310   0.193  11.349 -0.2955  0.4942  0.2737
 5425SOL    HW127911   0.236   0.139  11.322 -0.2387  0.0311  1.0657
 5425SOL    HW227912   0.358   0.202  11.266 -1.3981 -1.4346 -0.5608
 5426SOL     OW27913   4.038   3.918   6.447  0.4481  0.8894 -0.0014
 5426SOL    HW127914   4.130   3.896   6.436 -0.1079  0.1414 -3.3471
 5426SOL    HW227915   4.025   3.965   6.529 -1.9127 -0.6778  0.5395
 5427SOL     OW27916   2.902   0.161   7.656  0.6783  0.0309  0.1913
 5427SOL    HW127917   2.832   0.100   7.633  1.0746 -0.9567  1.6224
 5427SOL    HW227918   2.974   0.124   7.606 -0.6895 -2.4925  0.0926
 5428SOL     OW27919   2.971   1.079   4.802  0.2219 -0.3218 -0.4178
 5428SOL    HW127920   3.001   1.050   4.888 -0.8626  0.6901  0.2976
 5428SOL    HW227921   3.051   1.087   4.750  0.6553 -0.8188  0.1895
 5429SOL     OW27922   1.252   2.007   9.959  0.6533 -0.1031 -0.3166
 5429SOL    HW127923   1.319   2.019  10.027 -0.5314  1.1380  0.6439
 5429SOL    HW227924   1.254   1.914   9.937 -0.3810 -0.3409  0.5933
 5430SOL     OW27925   1.644   3.916  13.617  0.2250 -0.3462  0.0011
 5430SOL    HW127926   1.699   3.887  13.545 -1.1360  0.0184 -1.1749
 5430SOL    HW227927   1.585   3.982  13.581  1.0665  0.1630 -0.4511
 5431SOL     OW27928   2.509   0.840   5.425  0.4911 -0.4535 -0.1112
 5431SOL    HW127929   2.547   0.841   5.513 -0.5546 -0.1235  0.3325
 5431SOL    HW227930   2.515   0.746   5.406  1.5486 -0.6726  1.3108
 5432SOL     OW27931   2.887   1.016   1.871 -0.3546 -0.1100  0.1997
 5432SOL    HW127932   2.902   1.109   1.887 -1.1500 -0.1497  1.1921
 5432SOL    HW227933   2.796   0.995   1.892 -0.2866 -0.6272 -0.0220
 5433SOL     OW27934   2.837   3.694   9.027  0.0456 -0.0199  0.3584
 5433SOL    HW127935   2.923   3.720   9.062  0.9516 -1.3869 -0.8838
 5433SOL    HW227936   2.865   3.653   8.946 -1.7949  0.1514 -0.3589
 5434SOL     OW27937   4.086   0.721   8.967  0.1049 -0.0782 -0.0394
 5434SOL    HW127938   4.167   0.724   8.916  1.4199  0.8834  2.1577
 5434SOL    HW227939   4.089   0.806   9.010 -4.8787 -0.5335  1.2953
 5435SOL     OW27940   2.469   0.205  11.354  0.0048  0.0264  0.0680
 5435SOL    HW127941   2.542   0.211  11.292 -2.0578  2.2599 -2.1070
 5435SOL    HW227942   2.515   0.261  11.417 -0.0643 -0.3911  0.4904
 5436SOL     OW27943   4.233   1.133  13.409  0.2301 -0.4102  0.1355
 5436SOL    HW127944   4.293   1.090  13.470  1.5303  0.4390 -0.5421
 5436SOL    HW227945   4.291   1.199  13.371 -0.1645 -1.2135 -1.8561
 5437SOL     OW27946   4.070   1.944   6.239 -0.1016  0.1220  0.2256
 5437SOL    HW127947   4.154   1.912   6.271  1.3506  0.1568 -3.5492
 5437SOL    HW227948   4.062   2.032   6.274 -3.4092 -0.1180  0.1409
 5438SOL     OW27949   0.939   1.115  12.289  0.4979  0.3348  0.3469
 5438SOL    HW127950   0.922   1.182  12.355  2.4702  0.2154  0.9618
 5438SOL    HW227951   1.034   1.110  12.289  0.4795 -0.0395 -1.3389
 5439SOL     OW27952   1.195   4.276   6.882 -0.2513  0.0680  0.2424
 5439SOL    HW127953   1.146   4.201   6.915 -1.0635  0.9942  1.1153
 5439SOL    HW227954   1.230   4.304   6.966  0.2078  1.1197 -0.2898
 5440SOL     OW27955   4.218   1.660   6.860 -0.7776  1.0349 -0.2790
 5440SOL    HW127956   4.218   1.636   6.953  3.8147 -0.8585 -0.7506
 5440SOL    HW227957   4.128   1.692   6.849 -0.2843  2.2481 -0.6830
 5441SOL     OW27958   4.054   2.498   4.191  0.1391  0.0840  0.6457
 5441SOL    HW127959   4.083   2.523   4.103  0.0591  0.3572  0.6984
 5441SOL    HW227960   3.999   2.423   4.167  0.4866 -0.2667  0.9407
 5442SOL     OW27961   1.138   0.233   2.990  0.1823 -0.2596  0.6696
 5442SOL    HW127962   1.089   0.180   3.054 -2.2151  1.3593  0.1552
 5442SOL    HW227963   1.153   0.310   3.045 -0.8215 -0.6866  1.5502
 5443SOL     OW27964   2.266   4.549  15.343  0.1588 -0.1436 -0.1470
 5443SOL    HW127965   2.319   4.510  15.274 -0.5480 -2.1121  0.4158
 5443SOL    HW227966   2.329   4.551  15.414  0.4665 -1.1299 -0.3881
 5444SOL     OW27967   3.440   3.878  16.955  0.1111  0.2250  0.3165
 5444SOL    HW127968   3.529   3.875  16.921  0.2996  1.9879  0.6188
 5444SOL    HW227969   3.416   3.795  16.995 -0.0873  0.5424  0.8640
 5445SOL     OW27970   1.060   2.398   0.805  0.3731 -0.3699 -0.9418
 5445SOL    HW127971   1.026   2.330   0.747 -1.5299 -0.3421  0.1694
 5445SOL    HW227972   1.154   2.392   0.784  0.1327 -1.5411 -1.6605
 5446SOL     OW27973   0.465   2.637   7.948  0.4544 -0.1774  0.1030
 5446SOL    HW127974   0.401   2.705   7.927  0.5040  0.7075  2.8643
 5446SOL    HW227975   0.407   2.576   7.993 -0.9338  1.4282  0.4768
 5447SOL     OW27976   3.590   2.117   4.388 -0.3334  0.1523  0.0884
 5447SOL    HW127977   3.555   2.207   4.392  1.3136  0.8127 -0.3162
 5447SOL    HW227978   3.599   2.099   4.482 -3.1343 -2.0440 -0.0605
 5448SOL     OW27979   3.131   0.058  16.854 -0.2368  0.1363  0.1454
 5448SOL    HW127980   3.196   0.040  16.922 -0.0098  1.0235  0.1671
 5448SOL    HW227981   3.133   4.713  16.810 -0.6391  1.5295 -2.5704
 5449SOL     OW27982   3.542   3.166   0.722  1.1494  0.2086 -0.4821
 5449SOL    HW127983   3.535   3.077   0.756  0.8858  0.6872  0.7257
 5449SOL    HW227984   3.504   3.149   0.636  1.1253 -0.0494 -0.4209
 5450SOL     OW27985   0.001   2.666  11.206 -0.1075  0.4271 -0.2397
 5450SOL    HW127986   4.665   2.642  11.260  0.0522  1.4257  0.4169
 5450SOL    HW227987   0.068   2.643  11.270  0.6863 -0.2063 -1.2985
 5451SOL     OW27988   2.397   4.723   9.935 -0.4819  0.2796 -0.0443
 5451SOL    HW127989   2.346   4.659   9.887 -0.8005 -1.0488  2.0639
 5451SOL    HW227990   2.349   0.066   9.934 -1.6462 -0.3941  0.3772
 5452SOL     OW27991   1.787   1.871   2.275 -0.8018  0.1788 -0.1522
 5452SOL    HW127992   1.865   1.920   2.248 -1.5503  1.0611 -0.7380
 5452SOL    HW227993   1.734   1.897   2.199 -0.7605  0.6747 -0.0138
 5453SOL     OW27994   0.495   3.524   4.291 -0.5080 -0.3002 -0.0469
 5453SOL    HW127995   0.401   3.519   4.275  0.0760 -0.7030 -3.4877
 5453SOL    HW227996   0.513   3.618   4.301 -1.5403 -0.5249  3.7004
 5454SOL     OW27997   3.815   3.338   7.894 -0.4322 -0.8309  0.2400
 5454SOL    HW127998   3.753   3.266   7.887 -2.0663  0.7828 -1.7940
 5454SOL    HW227999   3.896   3.287   7.890  1.8382  2.8396 -0.4853
 5455SOL     OW28000   2.922   1.018  13.509 -0.0816 -0.5323  0.1698
 5455SOL    HW128001   2.837   0.989  13.476  1.0503  0.1946 -3.4651
 5455SOL    HW228002   2.912   1.111  13.488 -1.1574 -0.7469 -0.2991
 5456SOL     OW28003   0.156   0.041   7.274  0.1821 -0.0821  0.1516
 5456SOL    HW128004   0.138   0.038   7.180 -1.3362  0.1739  0.4300
 5456SOL    HW228005   0.082   4.738   7.316  0.9250 -0.5621  0.9613
 5457SOL     OW28006   2.779   1.169   7.562 -0.3021 -0.5286 -0.3271
 5457SOL    HW128007   2.812   1.238   7.504 -0.7661 -0.5774 -0.6489
 5457SOL    HW228008   2.845   1.103   7.542 -0.1436 -0.9747  1.7462
 5458SOL     OW28009   3.037   2.187   8.216  0.0168 -0.1035 -0.1447
 5458SOL    HW128010   3.018   2.264   8.269  2.5710  0.6716 -0.3944
 5458SOL    HW228011   3.005   2.212   8.129  2.0900  0.1683 -0.8309
 5459SOL     OW28012   2.486   4.352   4.575  0.2203  0.6770 -0.6962
 5459SOL    HW128013   2.506   4.440   4.542  0.3815  0.3579 -1.4488
 5459SOL    HW228014   2.416   4.329   4.514 -0.9158 -0.1539  0.9115
 5460SOL     OW28015   3.400   1.600   6.629  0.4022  0.0488 -0.3336
 5460SOL    HW128016   3.413   1.693   6.648  1.6122 -0.3189  0.6519
 5460SOL    HW228017   3.485   1.583   6.590  0.3703  2.5805 -1.4865
 5461SOL     OW28018   1.841   3.239  16.948 -0.0759  0.0585 -0.0120
 5461SOL    HW128019   1.814   3.329  16.929 -0.0525 -0.0089 -0.3601
 5461SOL    HW228020   1.864   3.208  16.861 -1.5385  1.5124 -0.9168
 5462SOL     OW28021   1.957   2.618   9.259  0.2431 -0.3440 -0.1806
 5462SOL    HW128022   1.942   2.523   9.264 -1.6986 -0.0120  0.5200
 5462SOL    HW228023   1.924   2.655   9.341  1.9273  0.4891  0.1202
 5463SOL     OW28024   1.272   4.147   6.285 -0.3660  0.3002  0.2643
 5463SOL    HW128025   1.299   4.165   6.195  2.6228 -0.1960  1.0886
 5463SOL    HW228026   1.298   4.056   6.295  0.7427  0.3222 -2.6505
 5464SOL     OW28027   4.027   0.925  17.138  0.3897  0.4322 -0.3800
 5464SOL    HW128028   4.114   0.908  17.102  0.3816 -0.0383 -0.1710
 5464SOL    HW228029   4.028   1.021  17.140 -0.0948  0.4095  1.0956
 5465SOL     OW28030   0.964   4.179   8.987  0.8133  0.0448 -0.1300
 5465SOL    HW128031   0.982   4.193   9.080 -0.7663 -1.0071  0.3319
 5465SOL    HW228032   0.963   4.084   8.990 -2.1305  0.1707  1.7476
 5466SOL     OW28033   3.353   1.810   8.690  0.3444  0.2545 -0.3680
 5466SOL    HW128034   3.318   1.725   8.664 -0.2937  0.3395  0.2112
 5466SOL    HW228035   3.282   1.865   8.658 -0.5718  0.8175  2.6223
 5467SOL     OW28036   2.953   0.192  12.369  0.0333 -0.4236  0.2964
 5467SOL    HW128037   2.969   0.186  12.464  1.1073 -0.3100  0.1232
 5467SOL    HW228038   3.040   0.218  12.339 -0.8558  3.1246  0.7194
 5468SOL     OW28039   3.632   1.981  10.147 -0.1803 -0.4830  0.2705
 5468SOL    HW128040   3.714   1.985  10.195 -0.6339  0.5569  0.9588
 5468SOL    HW228041   3.652   1.903  10.095 -0.4014 -0.6638  0.4528
 5469SOL     OW28042   2.202   3.690   1.605 -0.3900  0.1817  0.1862
 5469SOL    HW128043   2.289   3.712   1.638 -0.1608  1.9721 -1.6531
 5469SOL    HW228044   2.203   3.624   1.536 -1.4599  0.4501 -0.0951
 5470SOL     OW28045   0.732   4.279   5.854 -0.4811  0.1108 -0.4742
 5470SOL    HW128046   0.691   4.365   5.841 -0.6334 -0.0825 -1.2782
 5470SOL    HW228047   0.669   4.220   5.813  0.3772 -0.0264 -1.5795
 5471SOL     OW28048   0.719   1.242   9.633  0.7757 -0.3937 -0.0375
 5471SOL    HW128049   0.799   1.259   9.584 -0.0148 -1.7316 -1.7892
 5471SOL    HW228050   0.646   1.282   9.586 -0.5566 -2.3146  0.4280
 5472SOL     OW28051   1.257   4.634  12.587  0.3255 -0.4813 -0.2143
 5472SOL    HW128052   1.300   4.695  12.646 -0.3144  0.0799 -0.3321
 5472SOL    HW228053   1.243   4.559  12.644 -1.0455 -3.3691 -4.2845
 5473SOL     OW28054   1.693   0.252   5.788 -0.0981  0.2672 -0.0656
 5473SOL    HW128055   1.666   0.332   5.744 -4.0659 -0.5545  0.8295
 5473SOL    HW228056   1.674   0.275   5.879  0.9854  1.4912 -0.1569
 5474SOL     OW28057   2.513   2.792   9.248  0.3219 -0.1473  0.1836
 5474SOL    HW128058   2.580   2.723   9.246  1.5787  1.0755 -0.0529
 5474SOL    HW228059   2.443   2.743   9.206  0.1989 -1.0159  1.3828
 5475SOL     OW28060   1.961   3.860   5.423 -0.5466  0.5762 -0.0895
 5475SOL    HW128061   1.983   3.935   5.367  1.6271  0.5583  0.7509
 5475SOL    HW228062   1.876   3.827   5.392  0.0307  0.4608 -1.5425
 5476SOL     OW28063   4.269   0.416   6.789 -0.3330 -0.4806 -0.1134
 5476SOL    HW128064   4.265   0.357   6.864 -0.2703  1.3593  1.3352
 5476SOL    HW228065   4.176   0.440   6.783 -0.2567  0.1564  1.2622
 5477SOL     OW28066   4.250   0.910   2.443  0.4508 -0.0722  0.6924
 5477SOL    HW128067   4.200   0.836   2.407  1.8861 -0.7741  0.1150
 5477SOL    HW228068   4.335   0.868   2.433 -0.5924 -1.8688 -0.7179
 5478SOL     OW28069   3.802   0.421   6.774 -0.5162  0.1448  0.3522
 5478SOL    HW128070   3.895   0.433   6.793 -0.9682  3.1915  0.7082
 5478SOL    HW228071   3.809   0.447   6.682 -0.2556 -0.5275  0.1823
 5479SOL     OW28072   2.638   0.751   7.608  0.6470  0.0868  0.4312
 5479SOL    HW128073   2.641   0.842   7.577 -0.9947 -0.1766 -0.5312
 5479SOL    HW228074   2.549   0.730   7.579  0.4646  3.2044 -1.3088
 5480SOL     OW28075   3.583   0.882   8.014 -0.2802  0.3979 -0.1214
 5480SOL    HW128076   3.574   0.819   8.085 -2.9023 -2.8686 -3.3293
 5480SOL    HW228077   3.572   0.962   8.065  0.6909  1.0525 -0.9306
 5481SOL     OW28078   0.248   0.169   9.408 -0.2032  0.1567  0.3951
 5481SOL    HW128079   0.185   0.097   9.411  0.0320 -0.1727 -1.8415
 5481SOL    HW228080   0.210   0.249   9.444 -2.9810 -1.5678  1.2889
 5482SOL     OW28081   3.950   0.201   2.414  1.0631  0.1428 -0.1897
 5482SOL    HW128082   4.027   0.257   2.423  0.7777  0.2928  1.3059
 5482SOL    HW228083   3.997   0.122   2.391 -0.1494 -0.5132 -0.4194
 5483SOL     OW28084   1.256   0.444  17.565  0.0653  0.0154 -0.2203
 5483SOL    HW128085   1.268   0.365  17.513  0.0053  0.2207 -0.5477
 5483SOL    HW228086   1.165   0.436  17.594  0.4750  2.1335  1.6681
 5484SOL     OW28087   2.620   1.166  12.949 -0.4099  0.5321  0.0934
 5484SOL    HW128088   2.664   1.087  12.980 -0.1284  0.5016 -0.3806
 5484SOL    HW228089   2.633   1.170  12.854 -0.7220  1.6901  0.0944
 5485SOL     OW28090   0.958   1.795   8.435  0.8719  0.0280  0.2091
 5485SOL    HW128091   0.944   1.840   8.352  0.5533  0.1776  0.3476
 5485SOL    HW228092   0.872   1.763   8.462  0.7398  0.4523  0.2858
 5486SOL     OW28093   2.621   3.858   7.205  0.0686  0.4489  0.1143
 5486SOL    HW128094   2.648   3.931   7.150 -2.1807 -0.7957 -2.6502
 5486SOL    HW228095   2.618   3.790   7.138  0.5370  1.2709 -0.7367
 5487SOL     OW28096   1.138   2.301   5.069  0.1796  0.4873 -0.6997
 5487SOL    HW128097   1.231   2.278   5.069 -0.1783 -1.0227 -1.6199
 5487SOL    HW228098   1.117   2.315   4.976 -2.3831 -0.8454 -0.3232
 5488SOL     OW28099   3.294   2.297   8.716  0.0826 -0.3461  0.4422
 5488SOL    HW128100   3.279   2.384   8.679 -1.7806 -1.0350 -0.4181
 5488SOL    HW228101   3.240   2.253   8.650  0.1816  1.2784 -0.7363
 5489SOL     OW28102   4.460   1.719   3.402 -0.1566 -0.6055  0.7956
 5489SOL    HW128103   4.445   1.690   3.492 -0.3504  0.2666  1.0440
 5489SOL    HW228104   4.428   1.650   3.345 -1.6021 -0.0184  0.8938
 5490SOL     OW28105   3.931   3.331   6.752 -0.0736  0.4137 -0.4042
 5490SOL    HW128106   3.921   3.367   6.840 -1.6224  1.7749 -1.1245
 5490SOL    HW228107   4.001   3.386   6.716 -0.4351  1.1871  0.0706
 5491SOL     OW28108   4.300   0.460   9.656  0.2597  1.1405  0.2015
 5491SOL    HW128109   4.243   0.465   9.733 -1.6670 -1.3599 -1.0421
 5491SOL    HW228110   4.238   0.443   9.586  2.4993  3.0818 -2.2379
 5492SOL     OW28111   1.643   2.039   7.818 -0.0900  0.3584 -0.1858
 5492SOL    HW128112   1.572   2.087   7.861  1.2870  2.7490 -0.5851
 5492SOL    HW228113   1.672   1.984   7.890 -1.0462  0.4386  0.2607
 5493SOL     OW28114   0.841   4.627   3.456 -0.6836  0.0022 -0.0061
 5493SOL    HW128115   0.884   4.629   3.541  0.2186 -0.6099 -0.4518
 5493SOL    HW228116   0.747   4.636   3.474 -0.2515  0.2003  2.1151
 5494SOL     OW28117   0.278   4.730   2.907  0.3830 -0.1610  0.4406
 5494SOL    HW128118   0.252   4.644   2.872  0.2171 -0.2682  0.8359
 5494SOL    HW228119   0.220   4.735   2.983  0.1294  3.2491  0.0223
 5495SOL     OW28120   0.521   0.490  16.644 -0.2521 -0.0456  0.1398
 5495SOL    HW128121   0.435   0.522  16.670 -1.5858 -3.1650 -0.4338
 5495SOL    HW228122   0.573   0.570  16.654 -1.5367  0.4014  3.2469
 5496SOL     OW28123   2.252   1.906  14.685 -0.5137  0.7969 -0.1125
 5496SOL    HW128124   2.295   1.874  14.606  0.6556 -0.6877  1.1113
 5496SOL    HW228125   2.327   1.943  14.732  1.7555 -0.6343 -2.5888
 5497SOL     OW28126   2.128   2.830   4.922 -0.3869 -0.5094 -0.4133
 5497SOL    HW128127   2.039   2.865   4.926  0.3466  1.4029 -0.5806
 5497SOL    HW228128   2.180   2.911   4.921 -0.3039 -0.5564  1.6842
 5498SOL     OW28129   2.873   4.514   0.168 -0.1125  0.4547  0.2939
 5498SOL    HW128130   2.835   4.429   0.190 -2.3712  1.1721 -0.8355
 5498SOL    HW228131   2.865   4.564   0.249  0.7528  1.7842 -0.4481
 5499SOL     OW28132   4.083   3.648   7.924  0.2153 -0.5348  0.1034
 5499SOL    HW128133   4.057   3.622   7.836 -1.4270  0.2785  0.3509
 5499SOL    HW228134   4.169   3.687   7.905 -0.2098 -0.1345 -0.9587
 5500SOL     OW28135   1.165   3.348  13.538 -0.4292  0.4469 -0.4179
 5500SOL    HW128136   1.131   3.274  13.490  2.6436 -0.3884 -1.3284
 5500SOL    HW228137   1.199   3.404  13.468 -0.4050  1.5423  0.4701
 5501SOL     OW28138   1.414   0.939   5.088 -0.3348  0.3487 -0.0961
 5501SOL    HW128139   1.387   1.014   5.141 -1.3445  1.1682 -1.7432
 5501SOL    HW228140   1.325   0.927   5.053 -0.3531 -1.3911  0.5259
 5502SOL     OW28141   1.358   1.017   4.036 -0.2684  0.6095  0.4352
 5502SOL    HW128142   1.290   0.958   4.004 -1.1621  1.9789 -0.1926
 5502SOL    HW228143   1.418   0.958   4.082  1.6286  2.6968  0.6243
 5503SOL     OW28144   1.112   2.723   7.305 -0.3955  0.6462 -0.0554
 5503SOL    HW128145   1.071   2.639   7.324  0.7639 -0.0493 -0.6545
 5503SOL    HW228146   1.074   2.732   7.217  0.9078  2.4160 -0.4299
 5504SOL     OW28147   3.245   1.858   0.119 -0.3296 -0.1840  0.2999
 5504SOL    HW128148   3.298   1.907   0.181  1.7208  1.9547 -3.1058
 5504SOL    HW228149   3.273   1.767   0.135  0.9476  0.3556  1.1166
 5505SOL     OW28150   1.851   3.736   7.350  0.0738  0.2400 -0.0239
 5505SOL    HW128151   1.935   3.783   7.351  1.9882 -3.2532  1.3892
 5505SOL    HW228152   1.826   3.739   7.442 -0.0035 -2.9791  0.0615
 5506SOL     OW28153   1.581   4.327   8.369  0.1494 -0.8590 -0.0643
 5506SOL    HW128154   1.519   4.395   8.343  0.4986 -1.0215 -1.3216
 5506SOL    HW228155   1.644   4.396   8.394 -2.1127  1.0650  0.3325
 5507SOL     OW28156   1.013   4.412   7.897  0.2623  0.7301 -0.7487
 5507SOL    HW128157   0.983   4.450   7.815 -2.4348 -1.5034 -0.7796
 5507SOL    HW228158   1.030   4.323   7.868 -0.7321 -0.6310  2.8904
 5508SOL     OW28159   1.844   0.713   8.472 -0.0883  0.2727 -0.5855
 5508SOL    HW128160   1.930   0.724   8.431  0.5918 -0.5651  0.6156
 5508SOL    HW228161   1.873   0.772   8.542  0.1885 -0.5689  0.0152
 5509SOL     OW28162   1.765   4.426   2.670 -0.4835  0.2349  0.2445
 5509SOL    HW128163   1.757   4.519   2.648  1.6818  0.3052 -0.2700
 5509SOL    HW228164   1.798   4.435   2.759 -2.9558  1.6451  1.0285
 5510SOL     OW28165   4.198   1.258  11.340  0.1885  0.1119 -0.6753
 5510SOL    HW128166   4.177   1.320  11.410  1.3353 -0.9535  0.6244
 5510SOL    HW228167   4.262   1.197  11.377 -1.0529 -1.6234 -1.4387
 5511SOL     OW28168   1.678   1.881   8.047  0.1268 -0.2112 -0.1012
 5511SOL    HW128169   1.761   1.850   8.082  0.0194  0.5556  0.8127
 5511SOL    HW228170   1.649   1.925   8.127  0.0729  0.5102 -0.5252
 5512SOL     OW28171   1.434   3.289   4.708 -0.3464 -0.0549 -0.2438
 5512SOL    HW128172   1.408   3.357   4.770 -1.2469  0.2211 -0.9129
 5512SOL    HW228173   1.445   3.215   4.768 -2.7400  0.7886  1.2632
 5513SOL     OW28174   0.559   3.128   2.055  0.0907 -0.3750  0.3623
 5513SOL    HW128175   0.637   3.115   2.108 -0.0518 -1.8603  0.1870
 5513SOL    HW228176   0.543   3.220   2.076 -0.5023 -0.7553  1.5364
 5514SOL     OW28177   0.292   2.014   2.565  0.0108 -0.6204 -0.6097
 5514SOL    HW128178   0.328   1.955   2.631  1.2713  2.3615  1.3215
 5514SOL    HW228179   0.371   2.043   2.519  1.2377 -0.6315  1.5274
 5515SOL     OW28180   2.342   4.583   8.821 -0.2660  0.0849 -0.4315
 5515SOL    HW128181   2.419   4.635   8.842  0.9145 -2.2102  0.9000
 5515SOL    HW228182   2.276   4.629   8.873 -0.1585 -1.8575  1.4158
 5516SOL     OW28183   4.726   3.944   8.455  0.5842  0.0462  0.0154
 5516SOL    HW128184   4.715   4.010   8.523  0.4955 -1.4815  1.4705
 5516SOL    HW228185   0.062   3.985   8.413  1.1935 -2.4067 -1.2981
 5517SOL     OW28186   2.534   4.166   8.842 -0.4623 -0.1901 -0.3498
 5517SOL    HW128187   2.455   4.218   8.827 -0.1532  0.2386 -0.4867
 5517SOL    HW228188   2.524   4.103   8.771  1.8735 -1.1513  0.1553
 5518SOL     OW28189   2.682   3.899  17.002  0.1643  0.1294  0.0997
 5518SOL    HW128190   2.766   3.857  17.020  0.1303  1.0078  2.3528
 5518SOL    HW228191   2.709   3.991  17.008  1.8582 -0.3348 -0.4624
 5519SOL     OW28192   3.838   1.079   2.148 -0.0311  0.1616 -0.1338
 5519SOL    HW128193   3.834   1.138   2.072 -0.8048 -0.6949 -0.7643
 5519SOL    HW228194   3.887   1.003   2.116  0.4501  0.4155 -0.0090
 5520SOL     OW28195   2.426   2.086   6.517 -0.2284 -0.6538  1.1085
 5520SOL    HW128196   2.520   2.103   6.526 -0.2513  0.3209 -0.4799
 5520SOL    HW228197   2.414   2.077   6.423 -1.3412 -0.8393  1.2681
 5521SOL     OW28198   2.053   1.701   5.557  0.0705 -0.2624  0.1893
 5521SOL    HW128199   1.972   1.751   5.561  1.8347  2.4816  1.7179
 5521SOL    HW228200   2.044   1.666   5.469 -1.1299  2.6375 -0.8262
 5522SOL     OW28201   4.574   3.709  16.612  0.4502 -0.1365  0.0435
 5522SOL    HW128202   4.535   3.632  16.570  0.8150 -0.3317  0.0615
 5522SOL    HW228203   4.516   3.713  16.688 -1.5552 -0.5620 -1.4470
 5523SOL     OW28204   0.992   2.787   4.597  1.1826  0.1870  0.3800
 5523SOL    HW128205   0.960   2.819   4.681  0.5284 -1.2777  0.6902
 5523SOL    HW228206   1.056   2.848   4.559 -0.1873  1.9835  0.9960
 5524SOL     OW28207   2.941   0.357   3.242 -0.2839 -0.6754 -0.5055
 5524SOL    HW128208   2.848   0.338   3.255 -0.0213 -2.2091 -0.8806
 5524SOL    HW228209   2.957   0.291   3.174  0.1009 -0.8956 -0.1988
 5525SOL     OW28210   3.232   4.031   0.881  0.4455  0.4717  0.1168
 5525SOL    HW128211   3.317   4.074   0.887  1.6375 -1.6257 -1.6960
 5525SOL    HW228212   3.249   3.941   0.908  0.8722  1.0554  1.8172
 5526SOL     OW28213   0.011   4.487   2.541  0.0631 -0.2137 -0.3496
 5526SOL    HW128214   0.080   4.514   2.481  1.3418  0.5262  1.4474
 5526SOL    HW228215   4.703   4.442   2.472  0.2447 -0.2565 -0.4463
 5527SOL     OW28216   3.084   1.788   5.071  0.1812 -0.3463 -0.2046
 5527SOL    HW128217   3.064   1.716   5.130 -0.3374  0.2253  0.3111
 5527SOL    HW228218   3.156   1.753   5.018  0.0657 -3.4308  1.6825
 5528SOL     OW28219   3.772   0.418   7.467  0.2192 -0.2800 -0.1480
 5528SOL    HW128220   3.816   0.452   7.389  0.8537 -0.8899 -0.0525
 5528SOL    HW228221   3.818   0.335   7.471  1.5688  0.5192  1.2752
 5529SOL     OW28222   2.791   1.560  13.682 -0.3883 -0.1121  0.0196
 5529SOL    HW128223   2.795   1.499  13.756  0.3204  2.0037  1.7464
 5529SOL    HW228224   2.744   1.518  13.611 -0.3907 -0.5097  0.2525
 5530SOL     OW28225   2.724   0.059   9.800 -0.4642 -0.3016  0.4808
 5530SOL    HW128226   2.723   0.048   9.705 -0.6702 -0.6523  0.5254
 5530SOL    HW228227   2.773   0.141   9.807 -1.6606  0.4464  0.0889
 5531SOL     OW28228   0.470   3.689   7.346  0.5768 -0.2759  0.1402
 5531SOL    HW128229   0.471   3.741   7.426  1.4460  1.1512 -0.7811
 5531SOL    HW228230   0.507   3.611   7.386  0.5420  1.0051  2.6661
 5532SOL     OW28231   2.746   1.251   6.517 -0.3394  0.4182 -0.1751
 5532SOL    HW128232   2.829   1.278   6.558 -1.0989 -1.7070  2.7371
 5532SOL    HW228233   2.785   1.231   6.431  1.0553 -0.7840  0.7377
 5533SOL     OW28234   3.003   0.227   5.315  0.2052  0.1624 -0.0389
 5533SOL    HW128235   3.080   0.219   5.258 -0.0581 -4.1094  0.2478
 5533SOL    HW228236   2.948   0.168   5.265  2.8511 -1.9016 -0.5285
 5534SOL     OW28237   2.180   1.762  15.049  0.3374 -0.2887 -0.2898
 5534SOL    HW128238   2.151   1.738  15.137  0.1791  0.3836 -0.1595
 5534SOL    HW228239   2.266   1.802  15.065 -0.5705  1.6303 -0.2408
 5535SOL     OW28240   2.216   1.065  17.611  0.6890 -0.0451  0.2553
 5535SOL    HW128241   2.245   1.124  17.681  0.2721 -0.7436  1.0255
 5535SOL    HW228242   2.217   0.978  17.653 -0.3854 -0.6857 -1.0472
 5536SOL     OW28243   3.372   3.000   8.185 -0.0098  0.1531 -0.1271
 5536SOL    HW128244   3.424   2.977   8.108 -1.3859 -2.2183 -0.3598
 5536SOL    HW228245   3.431   2.964   8.251 -0.3239 -3.8513 -2.0133
 5537SOL     OW28246   1.848   3.521   3.646 -0.7405  0.0316  0.8317
 5537SOL    HW128247   1.772   3.549   3.595 -0.4138 -2.0471 -0.8024
 5537SOL    HW228248   1.908   3.506   3.572  1.2464  1.7790  2.0796
 5538SOL     OW28249   1.907   4.535   1.376  0.2491  0.3492 -0.0587
 5538SOL    HW128250   1.860   4.516   1.295  0.8853  2.5131 -0.9411
 5538SOL    HW228251   1.980   4.576   1.329 -0.0074  1.8308  0.8365
 5539SOL     OW28252   0.752   2.744   2.706 -0.2506 -0.2076  0.0366
 5539SOL    HW128253   0.751   2.695   2.788  2.9456 -0.3456  0.0056
 5539SOL    HW228254   0.663   2.777   2.719 -1.3292 -3.6761  1.3577
 5540SOL     OW28255   3.474   3.607   5.744  0.2985 -0.1520  0.1777
 5540SOL    HW128256   3.530   3.682   5.766  0.2182  0.2864 -1.1318
 5540SOL    HW228257   3.515   3.585   5.661  0.8703  0.9304  0.1710
 5541SOL     OW28258   1.392   3.766  14.036  0.4362 -0.5488 -0.4305
 5541SOL    HW128259   1.445   3.801  14.107  0.7408 -0.9466 -0.4628
 5541SOL    HW228260   1.428   3.815  13.961  2.3889  0.2188  0.9942
 5542SOL     OW28261   1.920   1.406   7.313  0.4561 -0.2493  0.3954
 5542SOL    HW128262   1.939   1.329   7.261 -4.6219  0.9976 -3.2917
 5542SOL    HW228263   1.894   1.362   7.394  0.2093  2.4137  1.8019
 5543SOL     OW28264   2.261   2.606   3.945 -0.2216 -0.5678  0.2269
 5543SOL    HW128265   2.337   2.553   3.921  0.3589  0.8131 -0.9799
 5543SOL    HW228266   2.271   2.680   3.885  1.2720  0.0033  1.1905
 5544SOL     OW28267   0.905   0.982   3.239  0.0040  0.5004  0.1964
 5544SOL    HW128268   0.877   0.929   3.165  0.7646  0.7084 -0.2400
 5544SOL    HW228269   0.845   1.056   3.247 -1.1687 -0.4151 -0.2572
 5545SOL     OW28270   3.046   4.310   6.623 -0.4261 -0.0517 -0.1011
 5545SOL    HW128271   3.037   4.216   6.640  0.4083 -0.4905 -2.1654
 5545SOL    HW228272   2.956   4.341   6.629  0.4790  2.8933 -1.6097
 5546SOL     OW28273   0.768   0.057   9.549  0.1513 -0.6172  0.2796
 5546SOL    HW128274   0.679   0.051   9.514 -0.0147 -0.0822  0.6207
 5546SOL    HW228275   0.818   0.030   9.471  0.1466 -0.4058  0.2033
 5547SOL     OW28276   0.779   2.605   0.079  0.5827 -0.2053  0.3904
 5547SOL    HW128277   0.788   2.679   0.020  0.4424 -0.7159 -0.2796
 5547SOL    HW228278   0.702   2.559   0.044  1.4287 -0.6181 -0.8859
 5548SOL     OW28279   2.597   2.722   8.107 -0.3683 -0.3351 -0.3199
 5548SOL    HW128280   2.665   2.659   8.083 -0.9648 -0.0411 -2.7978
 5548SOL    HW228281   2.577   2.665   8.182  1.4095  0.7021  0.9443
 5549SOL     OW28282   1.765   4.442   5.893  0.0619  0.2857 -0.3319
 5549SOL    HW128283   1.708   4.424   5.818  1.2849 -1.8652 -0.7565
 5549SOL    HW228284   1.843   4.479   5.852 -1.1313  3.4796  0.3046
 5550SOL     OW28285   3.147   0.982   1.657 -0.0829  0.5739  0.0557
 5550SOL    HW128286   3.150   0.969   1.562  3.5203 -2.5429  0.5891
 5550SOL    HW228287   3.055   0.972   1.682 -0.2998 -1.1893 -1.4614
 5551SOL     OW28288   4.411   4.380  13.066 -0.6358  0.0145 -0.2073
 5551SOL    HW128289   4.374   4.312  13.011 -1.7303  0.9415 -0.6219
 5551SOL    HW228290   4.335   4.386  13.124 -3.8091  1.7593 -4.6116
 5552SOL     OW28291   0.115   0.102   5.934  0.0053 -0.1757 -0.3066
 5552SOL    HW128292   0.101   0.145   5.849 -1.5060 -0.1357 -0.0423
 5552SOL    HW228293   0.204   0.072   5.915 -0.4260 -1.8838  0.4056
 5553SOL     OW28294   3.375   0.592   3.648 -0.7084  0.2345  0.3321
 5553SOL    HW128295   3.301   0.646   3.675 -0.2540  0.6512  0.7565
 5553SOL    HW228296   3.439   0.663   3.657  3.5524 -3.4627 -0.6853
 5554SOL     OW28297   3.005   3.958   4.746  0.0260  0.1708 -0.0888
 5554SOL    HW128298   3.076   3.993   4.799 -0.5518  0.9738  0.1597
 5554SOL    HW228299   3.053   3.892   4.695  1.1383  0.8610  0.0742
 5555SOL     OW28300   3.699   3.961   5.620 -0.1720 -0.2474  0.8782
 5555SOL    HW128301   3.662   4.048   5.640 -1.0570 -0.5965  0.7601
 5555SOL    HW228302   3.768   3.981   5.557  0.3733  2.7864  2.4322
 5556SOL     OW28303   1.903   2.952   5.005  0.1588  0.7144  0.2357
 5556SOL    HW128304   1.839   2.900   4.957  0.7947  0.6055 -0.5034
 5556SOL    HW228305   1.856   2.972   5.085  0.5035 -1.7913  1.0490
 5557SOL     OW28306   2.965   0.319  17.201  0.4304 -0.4440  0.0866
 5557SOL    HW128307   2.958   0.411  17.177 -0.6397 -0.4213  0.4745
 5557SOL    HW228308   2.948   0.273  17.119  1.6121  0.7603 -0.8327
 5558SOL     OW28309   0.048   4.023   7.863  0.2346  0.4613  1.0003
 5558SOL    HW128310   0.016   3.993   7.778  1.6637 -0.0892  0.6571
 5558SOL    HW228311   4.708   4.021   7.915  0.0948 -2.2049  0.6985
 5559SOL     OW28312   0.188   2.432   2.129 -0.1379 -0.0795 -0.0259
 5559SOL    HW128313   0.255   2.366   2.147  0.2023 -0.1254 -1.5064
 5559SOL    HW228314   0.245   2.507   2.111 -0.7195  0.7979  1.7332
 5560SOL     OW28315   0.440   4.630   1.226 -0.1977  0.0253 -0.2882
 5560SOL    HW128316   0.429   4.725   1.220  0.1864  0.1940  1.6305
 5560SOL    HW228317   0.525   4.616   1.267  0.9485  0.6819 -2.4478
 5561SOL     OW28318   3.149   4.083   7.555  0.4188 -0.2936 -0.5829
 5561SOL    HW128319   3.077   4.126   7.600  0.8649 -1.6668  1.4744
 5561SOL    HW228320   3.200   4.054   7.631 -0.2869 -1.6255 -0.6076
 5562SOL     OW28321   2.228   0.455   6.634  0.0490  0.0070 -0.4258
 5562SOL    HW128322   2.189   0.542   6.643 -1.3525 -0.5998 -0.5000
 5562SOL    HW228323   2.227   0.448   6.538 -0.7409 -1.7751 -0.2978
 5563SOL     OW28324   4.597   3.059   8.249 -0.0510  0.1975  0.0043
 5563SOL    HW128325   4.678   3.104   8.274  1.1148 -2.6434  1.2633
 5563SOL    HW228326   4.631   3.019   8.169 -0.0450  0.6790 -0.2365
 5564SOL     OW28327   4.563   0.202   6.235 -0.0421 -0.3245  0.1703
 5564SOL    HW128328   4.656   0.219   6.249 -0.3789  2.2826 -0.7453
 5564SOL    HW228329   4.558   0.154   6.152 -1.7391  1.7944 -0.9648
 5565SOL     OW28330   4.469   3.498   6.907 -0.6901 -0.7130  0.3774
 5565SOL    HW128331   4.489   3.408   6.933  1.2454 -0.7652 -1.2555
 5565SOL    HW228332   4.378   3.489   6.933 -0.7672 -0.5111  0.1750
 5566SOL     OW28333   4.500   0.801  16.202 -0.3500  0.4410 -0.5425
 5566SOL    HW128334   4.568   0.811  16.268 -1.1011 -1.1642  0.4970
 5566SOL    HW228335   4.470   0.711  16.220  0.4738  0.4529  0.8374
 5567SOL     OW28336   0.205   1.326   6.373 -0.3417  0.6855  0.4419
 5567SOL    HW128337   0.184   1.267   6.445 -0.2194 -1.4973 -1.2861
 5567SOL    HW228338   0.281   1.374   6.408  0.8384  0.2889 -1.5475
 5568SOL     OW28339   3.940   1.306   5.304 -0.1853 -0.3104 -0.5954
 5568SOL    HW128340   3.897   1.308   5.219 -0.3198 -1.4933 -0.5503
 5568SOL    HW228341   3.909   1.228   5.350  2.1894 -0.8459  0.1009
 5569SOL     OW28342   1.393   0.333   2.361 -0.4172 -0.2309 -0.3298
 5569SOL    HW128343   1.298   0.322   2.374 -0.7549  2.1468 -0.7708
 5569SOL    HW228344   1.416   0.240   2.363  0.5364  0.0026 -0.4904
 5570SOL     OW28345   3.589   1.996   6.718 -0.2895  0.3240 -0.7598
 5570SOL    HW128346   3.503   2.027   6.690 -0.1288  0.3153 -1.2654
 5570SOL    HW228347   3.648   2.064   6.685 -0.6877  0.4564 -1.1988
 5571SOL     OW28348   2.654   1.803   8.210  0.7346  0.3329  0.3415
 5571SOL    HW128349   2.734   1.751   8.205  0.0841 -0.4579 -1.8029
 5571SOL    HW228350   2.610   1.803   8.125  1.8320  2.5066 -0.2153
 5572SOL     OW28351   1.466   1.659   7.560  0.3054  0.3651  0.2850
 5572SOL    HW128352   1.452   1.639   7.468 -2.5614  1.2415  0.5078
 5572SOL    HW228353   1.390   1.713   7.580  1.0805  0.2833  3.5232
 5573SOL     OW28354   2.729   4.122   2.632 -0.1143 -0.8765  0.6210
 5573SOL    HW128355   2.712   4.142   2.724  1.3962 -0.7550  0.8854
 5573SOL    HW228356   2.644   4.106   2.592 -0.7503 -0.0934  1.6664
 5574SOL     OW28357   2.177   3.835  10.128  0.2480 -0.2904 -0.1318
 5574SOL    HW128358   2.140   3.782  10.057  3.4564 -0.6982 -1.5052
 5574SOL    HW228359   2.236   3.894  10.082  1.6680 -2.1120 -0.6608
 5575SOL     OW28360   3.105   3.312   4.494 -0.0349  0.3125 -0.2411
 5575SOL    HW128361   3.027   3.280   4.448  0.5639  0.5165 -1.4053
 5575SOL    HW228362   3.168   3.258   4.446 -1.2100 -0.6939 -0.6705
 5576SOL     OW28363   0.715   4.411   5.365 -0.3462 -0.5867 -0.0665
 5576SOL    HW128364   0.716   4.332   5.419 -0.6225  0.3001  1.2456
 5576SOL    HW228365   0.807   4.437   5.361 -0.6854  0.6268 -0.0429
 5577SOL     OW28366   3.986   1.835   1.519 -0.6129  0.3834  0.3885
 5577SOL    HW128367   4.046   1.896   1.563 -0.8093  0.5432  0.4376
 5577SOL    HW228368   3.963   1.872   1.434  1.2319  0.8541  0.1034
 5578SOL     OW28369   1.500   1.231   0.246 -0.2400  0.5442  0.4918
 5578SOL    HW128370   1.484   1.313   0.199  0.3128  0.6855  0.5465
 5578SOL    HW228371   1.465   1.245   0.333  0.7812  0.4509  0.9234
 5579SOL     OW28372   0.769   3.178  16.565  0.6006  0.3744  0.3561
 5579SOL    HW128373   0.713   3.180  16.488 -0.2408 -1.3912  0.9205
 5579SOL    HW228374   0.712   3.136  16.629  1.4167 -2.0192 -0.4703
 5580SOL     OW28375   2.577   4.507   2.353 -0.7268 -0.1028 -0.1650
 5580SOL    HW128376   2.563   4.458   2.434 -1.4237 -0.9372 -0.7894
 5580SOL    HW228377   2.488   4.541   2.352 -0.7016 -0.0014  1.4647
 5581SOL     OW28378   0.108   1.057  16.894  0.4895 -0.2455 -0.3407
 5581SOL    HW128379   0.100   1.083  16.986  1.5348 -1.3912  0.0784
 5581SOL    HW228380   0.040   1.105  16.846  0.6142 -0.2121 -0.4866
 5582SOL     OW28381   0.989   1.906  14.816 -0.5210  0.1596 -0.1668
 5582SOL    HW128382   1.065   1.879  14.765 -0.0090  0.5903  0.3642
 5582SOL    HW228383   1.033   1.906  14.901 -0.1321  0.7977 -0.3668
 5583SOL     OW28384   1.045   0.023   4.512 -0.2729 -0.4458  0.0698
 5583SOL    HW128385   0.975   0.083   4.484 -1.5907 -1.9459  0.1430
 5583SOL    HW228386   1.115   0.085   4.533  0.1835 -0.1496 -2.3248
 5584SOL     OW28387   0.385   1.923   0.463  0.0369 -0.1300 -0.6776
 5584SOL    HW128388   0.356   1.951   0.376 -1.8226  1.2190  0.3753
 5584SOL    HW228389   0.462   1.874   0.436 -0.3287 -1.8705  1.4259
 5585SOL     OW28390   2.655   0.921  13.438 -0.9099  0.0911  0.1428
 5585SOL    HW128391   2.580   0.882  13.483 -0.8005 -0.1885  0.0825
 5585SOL    HW228392   2.661   0.862  13.362 -0.9017 -0.2413  0.4041
 5586SOL     OW28393   4.277   3.965   4.820 -0.5828  0.2706 -0.2611
 5586SOL    HW128394   4.288   4.043   4.765  0.6441 -0.8013 -1.5299
 5586SOL    HW228395   4.287   3.895   4.756  0.9472 -1.7584  2.1872
 5587SOL     OW28396   4.144   0.246   5.765 -0.6124 -0.0117 -0.4766
 5587SOL    HW128397   4.162   0.215   5.854 -1.0893  0.8815 -0.0609
 5587SOL    HW228398   4.221   0.207   5.724  0.0127  0.7983 -0.0989
 5588SOL     OW28399   0.543   1.775   0.181  0.0178  0.0699 -0.1157
 5588SOL    HW128400   0.617   1.738   0.132 -1.9938 -0.0423 -3.0336
 5588SOL    HW228401   0.557   1.868   0.164  1.7407  0.0751  1.3020
 5589SOL     OW28402   3.796   2.202  16.547  0.4557 -0.3463 -0.0795
 5589SOL    HW128403   3.729   2.229  16.610 -0.2970 -1.7447 -0.2871
 5589SOL    HW228404   3.793   2.106  16.548  1.0711 -0.3407  1.5877
 5590SOL     OW28405   4.369   1.479   1.325  0.1842  0.3955 -0.2759
 5590SOL    HW128406   4.454   1.489   1.282  1.1275  0.3664  1.5702
 5590SOL    HW228407   4.391   1.518   1.410  0.0536  1.5245 -0.7537
 5591SOL     OW28408   3.586   4.684   7.464 -0.2034 -0.2722  0.9547
 5591SOL    HW128409   3.624   4.657   7.380 -0.5868 -1.5750  1.1889
 5591SOL    HW228410   3.627   4.619   7.521 -0.8225 -0.3377  1.3254
 5592SOL     OW28411   1.621   2.277  14.341  0.0813  0.1360 -0.3850
 5592SOL    HW128412   1.598   2.189  14.371  1.2780  0.0203  0.1974
 5592SOL    HW228413   1.578   2.283  14.256 -1.3464 -0.2301  0.3116
 5593SOL     OW28414   4.291   3.565  13.587  0.1326  0.6258  0.4562
 5593SOL    HW128415   4.318   3.544  13.498  1.6209  0.0133  1.0556
 5593SOL    HW228416   4.292   3.661  13.579 -1.2808  0.6556  0.7048
 5594SOL     OW28417   0.576   3.003   2.443 -0.3794 -0.5610 -0.4176
 5594SOL    HW128418   0.651   3.005   2.383 -0.4573  1.4037 -0.4576
 5594SOL    HW228419   0.520   3.073   2.409  1.3297  0.8908 -0.2643
 5595SOL     OW28420   1.553   0.165   6.328 -0.8183  0.3468 -0.9651
 5595SOL    HW128421   1.511   0.094   6.278 -2.2047  0.0536  0.5982
 5595SOL    HW228422   1.638   0.125   6.347 -0.4071  0.3437 -2.8326
 5596SOL     OW28423   3.007   1.645   6.125 -0.1015  0.1861  0.1206
 5596SOL    HW128424   2.926   1.641   6.075  0.0236  1.2967 -0.1710
 5596SOL    HW228425   2.995   1.571   6.184 -1.9264  0.2667 -0.1437
 5597SOL     OW28426   2.126   1.887   7.352 -0.0745  0.1703  0.3624
 5597SOL    HW128427   2.060   1.818   7.361 -0.8950  0.6704 -1.8694
 5597SOL    HW228428   2.078   1.963   7.385 -0.5134 -0.1660  0.5009
 5598SOL     OW28429   4.426   3.176   0.292 -0.1181  0.0654  0.6736
 5598SOL    HW128430   4.448   3.091   0.330 -0.1992  0.7987  2.3728
 5598SOL    HW228431   4.331   3.167   0.283 -0.1657  2.1244 -0.9296
 5599SOL     OW28432   1.056   1.860  13.369 -0.0026  0.0338  0.2237
 5599SOL    HW128433   1.066   1.940  13.316 -0.3961 -0.3832 -0.4884
 5599SOL    HW228434   0.964   1.863  13.395  0.3418 -0.0979  1.4204
 5600SOL     OW28435   1.457   0.978   7.223  0.2118  0.1415  0.1485
 5600SOL    HW128436   1.475   1.069   7.246 -2.4925  1.0886 -1.4176
 5600SOL    HW228437   1.512   0.942   7.292  1.0666  0.0665 -0.5695
 5601SOL     OW28438   4.022   3.733   1.851  0.3259  0.0156  0.1749
 5601SOL    HW128439   4.092   3.697   1.906 -0.8531  2.2463  3.1157
 5601SOL    HW228440   3.962   3.659   1.852 -0.0953  0.3627  0.6836
 5602SOL     OW28441   3.361   4.351   4.042  0.2351  0.2492 -0.3513
 5602SOL    HW128442   3.357   4.345   3.947 -2.3865 -3.3728 -0.0328
 5602SOL    HW228443   3.282   4.302   4.065 -0.1128  0.1877 -1.6841
 5603SOL     OW28444   0.847   0.366   3.600 -0.6677 -0.0563  0.3041
 5603SOL    HW128445   0.910   0.351   3.530 -0.8701  2.1907 -0.3773
 5603SOL    HW228446   0.766   0.363   3.549 -0.5993 -1.4857  0.2863
 5604SOL     OW28447   3.449   4.037   7.077  0.5080  0.1333 -0.1241
 5604SOL    HW128448   3.359   4.035   7.109  1.1722  0.5096  1.7842
 5604SOL    HW228449   3.489   4.050   7.163  1.6950 -0.5754 -0.5641
 5605SOL     OW28450   2.380   0.444   7.329  0.0341  0.4301 -0.4168
 5605SOL    HW128451   2.314   0.417   7.266 -1.0714  1.2256  0.3899
 5605SOL    HW228452   2.453   0.442   7.267 -0.1980  0.1926 -0.6836
 5606SOL     OW28453   1.335   2.733   1.577  0.2559  0.2837 -0.1975
 5606SOL    HW128454   1.350   2.694   1.490  0.0218 -0.6683  0.1830
 5606SOL    HW228455   1.418   2.709   1.617  0.2371  0.5583  0.0017
 5607SOL     OW28456   3.861   1.207   5.036 -0.1239 -0.0458 -0.1146
 5607SOL    HW128457   3.929   1.267   5.005  0.2118 -0.9461 -1.1447
 5607SOL    HW228458   3.920   1.144   5.076 -2.3710 -1.0368  1.6305
 5608SOL     OW28459   3.598   1.352  14.789  0.1272 -0.9595  0.3856
 5608SOL    HW128460   3.642   1.432  14.759  0.2348 -0.4879  1.7957
 5608SOL    HW228461   3.672   1.303  14.825  2.8591  1.5161 -1.8543
 5609SOL     OW28462   1.268   1.634   2.379 -0.3190 -0.3249 -0.4201
 5609SOL    HW128463   1.342   1.670   2.330  0.9185 -1.6902  0.4278
 5609SOL    HW228464   1.198   1.691   2.348 -3.1988 -2.7110  1.6638
 5610SOL     OW28465   1.119   2.372   2.299 -0.1474  0.1169  0.5413
 5610SOL    HW128466   1.175   2.433   2.347 -0.3308 -1.4183  2.6574
 5610SOL    HW228467   1.038   2.414   2.327 -1.4868 -1.2543 -1.2541
 5611SOL     OW28468   4.061   0.151   6.589  0.1627 -0.0869  0.3710
 5611SOL    HW128469   4.134   0.198   6.548 -3.0624  4.0132 -0.5839
 5611SOL    HW228470   3.992   0.213   6.567  0.5183  0.1979  0.0595
 5612SOL     OW28471   2.090   2.118   5.126  0.4071  0.5634  0.6228
 5612SOL    HW128472   2.104   2.211   5.111  0.8714 -0.2838 -4.1852
 5612SOL    HW228473   2.169   2.091   5.173  0.4207 -1.5073 -0.5618
 5613SOL     OW28474   2.348   4.152   7.954  0.1056  0.0832 -0.5422
 5613SOL    HW128475   2.405   4.206   8.008 -1.8620  0.8120  0.7949
 5613SOL    HW228476   2.390   4.067   7.970  1.1718  0.4009 -1.7015
 5614SOL     OW28477   2.241   0.412  14.443  0.1287 -0.2899  0.2492
 5614SOL    HW128478   2.325   0.372  14.464 -0.5331 -0.8922  1.7534
 5614SOL    HW228479   2.248   0.491  14.497 -0.4087  1.4512 -2.2120
 5615SOL     OW28480   3.158   1.968  15.768  0.3901 -0.5857 -0.2823
 5615SOL    HW128481   3.128   1.912  15.840  0.1758  0.2516  0.2743
 5615SOL    HW228482   3.114   2.051  15.785  0.1004 -1.3557  2.7080
 5616SOL     OW28483   3.851   0.523   0.714  0.2435  0.3987  0.4009
 5616SOL    HW128484   3.827   0.611   0.743 -2.1518 -0.3569  0.7521
 5616SOL    HW228485   3.898   0.539   0.632  0.3711 -1.1578  0.1748
 5617SOL     OW28486   1.121   4.196   3.138 -0.8737 -0.5424  0.6282
 5617SOL    HW128487   1.178   4.198   3.215  0.7344 -1.8770 -0.5257
 5617SOL    HW228488   1.032   4.204   3.171 -0.9219  1.1973  0.0950
 5618SOL     OW28489   0.298   0.509   9.155 -0.0725 -0.5217  0.7461
 5618SOL    HW128490   0.269   0.549   9.073  1.0281 -0.4344  0.3891
 5618SOL    HW228491   0.296   0.580   9.218 -1.1435 -0.5543  0.7498
 5619SOL     OW28492   0.668   1.418  13.943  0.4183 -0.1733  0.1816
 5619SOL    HW128493   0.656   1.512  13.929  2.7024  0.3187  1.5838
 5619SOL    HW228494   0.739   1.419  14.006 -1.6372  2.6328  2.4400
 5620SOL     OW28495   2.637   0.336   0.556 -0.9853 -0.8064  0.3161
 5620SOL    HW128496   2.578   0.331   0.631  2.2529  0.0706  2.9383
 5620SOL    HW228497   2.613   0.420   0.517 -0.3864 -0.6518  0.2845
 5621SOL     OW28498   0.035   4.420   6.297 -0.0055 -0.0942 -0.0834
 5621SOL    HW128499   0.085   4.474   6.235  2.0629 -2.2267 -0.2670
 5621SOL    HW228500   4.722   4.486   6.341  2.0703  1.3551  0.2382
 5622SOL     OW28501   2.204   2.524  16.143 -0.2592  0.2465 -0.6800
 5622SOL    HW128502   2.234   2.602  16.096 -2.6903  2.0276  0.7243
 5622SOL    HW228503   2.117   2.517  16.102 -0.3016 -2.8001 -0.0682
 5623SOL     OW28504   4.360   4.091  13.291 -0.0749 -0.6983 -0.0811
 5623SOL    HW128505   4.290   4.029  13.314 -0.5295  0.1886  0.9632
 5623SOL    HW228506   4.306   4.168  13.272  1.1184 -0.4939 -2.5383
 5624SOL     OW28507   3.037   4.584   4.800 -0.5039  0.2504 -0.4394
 5624SOL    HW128508   3.032   4.496   4.838  3.6632  0.0620 -0.2373
 5624SOL    HW228509   2.994   4.587   4.715 -0.3179 -0.1782 -0.5492
 5625SOL     OW28510   0.105   4.403   8.417 -0.1634  0.5320  0.2133
 5625SOL    HW128511   0.064   4.316   8.417  0.5168  0.2092  1.9160
 5625SOL    HW228512   0.128   4.414   8.325 -0.7312  1.9771  0.2545
 5626SOL     OW28513   3.362   1.993  13.708 -0.0714  0.5136  0.0791
 5626SOL    HW128514   3.326   1.956  13.627 -2.4038 -0.6058  1.6119
 5626SOL    HW228515   3.317   1.930  13.765  2.0882 -1.5828 -0.5470
 5627SOL     OW28516   1.131   1.592   7.229 -0.5028  0.5885  0.0219
 5627SOL    HW128517   1.212   1.561   7.188 -0.8452 -0.7736  0.3765
 5627SOL    HW228518   1.120   1.532   7.303 -0.4922  0.6112  0.0418
 5628SOL     OW28519   4.614   4.211   4.909 -0.5202  0.0401  0.2488
 5628SOL    HW128520   4.609   4.182   5.000  0.5810 -0.1496  0.2435
 5628SOL    HW228521   4.522   4.234   4.894 -0.5641  2.4977  4.1702
 5629SOL     OW28522   4.383   1.122  14.109  0.2873 -0.3543  0.0653
 5629SOL    HW128523   4.469   1.085  14.127 -0.9261 -2.3904  1.6619
 5629SOL    HW228524   4.398   1.216  14.122  4.4082 -0.6578 -2.4857
 5630SOL     OW28525   2.850   2.096   3.508  0.3479 -0.4005 -0.4393
 5630SOL    HW128526   2.922   2.080   3.569  0.8906  3.5638 -0.0700
 5630SOL    HW228527   2.810   2.013   3.480  0.3621 -0.3399 -0.6345
 5631SOL     OW28528   1.923   1.205   3.497  0.2182 -0.2387  0.4097
 5631SOL    HW128529   1.979   1.220   3.421 -1.9951  0.4880 -1.0804
 5631SOL    HW228530   1.840   1.179   3.456 -0.3992  1.3926  0.6184
 5632SOL     OW28531   2.927   2.986   3.178  0.2065  0.0218 -0.1863
 5632SOL    HW128532   2.994   3.051   3.157  0.5419 -0.2384  0.0911
 5632SOL    HW228533   2.928   2.926   3.102  0.2017  2.5279 -2.1645
 5633SOL     OW28534   2.989   0.806   2.172 -0.1816 -0.3371  0.2157
 5633SOL    HW128535   3.024   0.832   2.257  0.6018  0.1990 -0.2595
 5633SOL    HW228536   2.910   0.859   2.175 -0.9640 -1.4222 -1.3405
 5634SOL     OW28537   3.589   2.839   8.917  0.6720  0.1912  0.3959
 5634SOL    HW128538   3.672   2.846   8.964  0.7685 -1.9031  0.5495
 5634SOL    HW228539   3.615   2.778   8.847 -1.5704 -0.5195  0.1975
 5635SOL     OW28540   1.953   3.658   8.609 -0.1518  0.6639  0.1704
 5635SOL    HW128541   1.907   3.582   8.574 -1.5819  1.4572  0.3396
 5635SOL    HW228542   2.013   3.605   8.662  1.3762  0.1461 -2.0510
 5636SOL     OW28543   0.390   0.627   5.624 -0.5708 -0.1584 -0.6052
 5636SOL    HW128544   0.308   0.633   5.575 -0.5570  0.5174 -0.5329
 5636SOL    HW228545   0.387   0.533   5.644 -1.2278  0.3298  1.6206
 5637SOL     OW28546   1.155   1.511  16.474  0.5739 -0.0271  0.2335
 5637SOL    HW128547   1.222   1.577  16.455 -0.3296  1.1063  0.9559
 5637SOL    HW228548   1.087   1.567  16.511  0.6274  0.0503  0.2160
 5638SOL     OW28549   2.626   0.427   6.621 -0.5126 -0.5724 -0.8905
 5638SOL    HW128550   2.671   0.346   6.642  1.6268  1.1166  1.0538
 5638SOL    HW228551   2.537   0.412   6.654 -1.0455  1.3279 -1.4120
 5639SOL     OW28552   0.191   0.059  11.683  0.1186 -0.3161  0.0431
 5639SOL    HW128553   0.285   0.045  11.672  0.1915  0.7776 -0.7543
 5639SOL    HW228554   0.168   0.134  11.629 -1.9027 -0.4450  0.7343
 5640SOL     OW28555   0.887   0.670   3.996  0.5735  0.3978 -0.3616
 5640SOL    HW128556   0.846   0.734   4.054 -0.5598  0.8399 -1.6389
 5640SOL    HW228557   0.812   0.650   3.939  1.3893 -0.5350 -1.1223
 5641SOL     OW28558   4.641   1.167   3.285 -0.2514  0.1483  0.7293
 5641SOL    HW128559   4.617   1.154   3.193 -1.0036 -0.0893  0.9650
 5641SOL    HW228560   4.679   1.081   3.301  0.2881 -0.2587 -2.6166
 5642SOL     OW28561   3.196   1.148   2.320 -0.6834  0.2215  0.0787
 5642SOL    HW128562   3.249   1.145   2.240 -0.6115 -0.7900  0.1654
 5642SOL    HW228563   3.105   1.157   2.292 -0.5737 -0.8918 -0.6531
 5643SOL     OW28564   4.590   1.793   5.882 -0.4230 -0.0774 -0.1517
 5643SOL    HW128565   4.624   1.799   5.793  0.8040  0.7243  0.3812
 5643SOL    HW228566   4.533   1.870   5.890 -2.3217 -1.6738  1.8222
 5644SOL     OW28567   2.934   1.317   4.187  0.4586  0.1712 -0.0990
 5644SOL    HW128568   2.922   1.411   4.198 -2.1456 -0.1543 -0.1113
 5644SOL    HW228569   2.850   1.312   4.142 -0.0902  0.4627  0.8745
 5645SOL     OW28570   3.821   3.889   7.627 -0.0991  0.4351  0.7130
 5645SOL    HW128571   3.748   3.915   7.683 -1.9033  0.1425 -1.4941
 5645SOL    HW228572   3.775   3.823   7.575 -0.6975  1.8901 -0.6069
 5646SOL     OW28573   0.060   0.446   2.184  0.0046  0.0655  0.1363
 5646SOL    HW128574   0.054   0.448   2.280 -0.8273  2.6403  0.0262
 5646SOL    HW228575   0.127   0.513   2.170 -2.5458  3.3220  3.5098
 5647SOL     OW28576   4.630   0.246   4.769 -0.1470 -0.5338 -0.8369
 5647SOL    HW128577   4.725   0.237   4.777 -0.3907 -0.9378  1.7997
 5647SOL    HW228578   4.604   0.154   4.772 -3.1613  0.2663 -2.1764
 5648SOL     OW28579   4.163   0.902   5.706 -0.2068  0.3133  0.4205
 5648SOL    HW128580   4.112   0.852   5.642 -0.2714 -1.1595  1.6269
 5648SOL    HW228581   4.253   0.876   5.691 -0.2436 -0.1232  0.9426
 5649SOL     OW28582   2.804   3.818  11.369 -0.2961  0.2147 -0.2949
 5649SOL    HW128583   2.733   3.841  11.429  0.5926  2.8741 -0.2895
 5649SOL    HW228584   2.851   3.900  11.375  3.3954 -1.8583 -1.1653
 5650SOL     OW28585   0.591   2.359  14.044 -0.5649  0.3325 -0.5667
 5650SOL    HW128586   0.547   2.442  14.026 -1.1621 -0.0852 -1.0463
 5650SOL    HW228587   0.535   2.312  14.106  0.5523  1.6874  1.4455
 5651SOL     OW28588   2.924   0.420   4.298 -0.1740 -0.2701  0.2245
 5651SOL    HW128589   2.954   0.335   4.328  1.3572  1.0311  2.3359
 5651SOL    HW228590   2.949   0.416   4.206 -0.4720 -0.1776  0.1384
 5652SOL     OW28591   0.241   2.211   3.895  0.5595  0.0204  0.5877
 5652SOL    HW128592   0.331   2.244   3.891  0.4324  0.2382 -0.5771
 5652SOL    HW228593   0.187   2.264   3.836  0.3445 -1.6499 -0.7105
 5653SOL     OW28594   3.873   0.016   8.775  0.3905  0.0611 -0.7284
 5653SOL    HW128595   3.787   0.049   8.800  0.2981  0.1812 -1.2064
 5653SOL    HW228596   3.879   4.676   8.826  1.2797  1.0117  0.6772
 5654SOL     OW28597   1.114   3.836   0.906  0.4776 -0.1726 -0.1264
 5654SOL    HW128598   1.106   3.923   0.866 -0.1567  0.5055  1.4801
 5654SOL    HW228599   1.027   3.835   0.947  0.3705 -0.7058 -0.3705
 5655SOL     OW28600   1.419   1.676   4.202  0.2530  0.2630 -0.0108
 5655SOL    HW128601   1.506   1.662   4.238  0.6962 -0.7674 -1.4750
 5655SOL    HW228602   1.371   1.600   4.236  0.6979  0.1616  0.3773
 5656SOL     OW28603   1.428   3.714   2.871  0.0913  0.0402 -0.4001
 5656SOL    HW128604   1.511   3.706   2.825  0.2936  0.1729 -0.0611
 5656SOL    HW228605   1.397   3.623   2.870  0.0043  0.0784 -1.2614
 5657SOL     OW28606   1.300   0.036   2.888 -0.5732 -0.0682 -0.0409
 5657SOL    HW128607   1.384   0.082   2.888 -0.1253 -0.8597  2.9596
 5657SOL    HW228608   1.241   0.095   2.934 -0.4244  0.2619 -0.2758
 5658SOL     OW28609   0.558   2.205  10.217 -0.0643  0.2438  0.1304
 5658SOL    HW128610   0.613   2.160  10.281 -1.4361 -1.0274  0.3828
 5658SOL    HW228611   0.598   2.292  10.220 -0.7262  0.5055  1.1684
 5659SOL     OW28612   3.378   2.511   4.099 -0.1723 -0.5707 -0.4344
 5659SOL    HW128613   3.347   2.495   4.188  2.0897 -1.3013  0.2183
 5659SOL    HW228614   3.294   2.553   4.083 -0.4995 -0.1389  2.4632
 5660SOL     OW28615   1.597   3.217   6.249  0.3929  0.0713  0.1769
 5660SOL    HW128616   1.611   3.277   6.322  1.4229 -1.1454  0.9561
 5660SOL    HW228617   1.549   3.283   6.198  2.9124  0.8278 -1.2366
 5661SOL     OW28618   1.684   2.606  12.829  0.0430 -0.7097 -0.0223
 5661SOL    HW128619   1.668   2.551  12.906 -2.1743  2.3759  1.7529
 5661SOL    HW228620   1.625   2.681  12.836  0.6997 -0.2048  0.1990
 5662SOL     OW28621   0.449   0.519   9.631 -0.0646 -0.3633 -0.3213
 5662SOL    HW128622   0.473   0.577   9.559 -0.5410  1.1831  0.7721
 5662SOL    HW228623   0.478   0.571   9.705  0.3634  0.1860 -0.8731
 5663SOL     OW28624   4.246   4.572   3.330  0.2601  0.1217  0.2399
 5663SOL    HW128625   4.326   4.522   3.316 -2.0805 -3.4015 -0.4476
 5663SOL    HW228626   4.180   4.527   3.277  0.8043  0.2842 -0.5711
 5664SOL     OW28627   4.543   4.343  13.925  0.6286 -0.8348  0.2228
 5664SOL    HW128628   4.534   4.408  13.995  1.3925 -3.0527  2.3654
 5664SOL    HW228629   4.483   4.392  13.868 -0.2092  0.1638  1.9670
 5665SOL     OW28630   1.210   0.579   6.380  0.4632 -0.1118 -0.5471
 5665SOL    HW128631   1.119   0.610   6.383  0.2861 -0.7043  0.1263
 5665SOL    HW228632   1.211   0.485   6.395 -0.2076  0.0088  0.2549
 5666SOL     OW28633   4.687   1.489   7.686  0.8594  0.6030  0.4853
 5666SOL    HW128634   4.625   1.472   7.757 -0.6488  0.2423 -0.9259
 5666SOL    HW228635   4.658   1.430   7.617 -0.6198  0.7029  0.9978
 5667SOL     OW28636   3.651   0.696   2.484  0.0051  0.0935  0.4534
 5667SOL    HW128637   3.730   0.653   2.515  0.0402 -1.7729 -2.2458
 5667SOL    HW228638   3.666   0.694   2.389 -2.3659 -0.7472  0.0919
 5668SOL     OW28639   3.575   2.136   3.897  0.4648 -0.1883 -0.0483
 5668SOL    HW128640   3.549   2.199   3.963  1.4570  0.2443 -0.0620
 5668SOL    HW228641   3.517   2.153   3.823 -0.1459 -5.7121 -0.8773
 5669SOL     OW28642   3.681   4.559   0.154  0.0557  0.4100 -0.3377
 5669SOL    HW128643   3.590   4.536   0.136 -0.4310  1.8581  0.2343
 5669SOL    HW228644   3.679   4.578   0.248 -1.2795 -0.8337 -0.1282
 5670SOL     OW28645   0.679   4.679   7.969  0.3055 -0.3017  0.5467
 5670SOL    HW128646   0.697   4.683   8.063 -4.0439  3.0262  1.2448
 5670SOL    HW228647   0.584   4.686   7.976 -0.0238 -2.2223 -1.8706
 5671SOL     OW28648   2.939   2.724   2.999  0.3159 -0.4858  0.0740
 5671SOL    HW128649   3.031   2.747   2.987  0.6024  0.2599  3.6375
 5671SOL    HW228650   2.936   2.629   2.987  2.6112 -0.6759  1.0357
 5672SOL     OW28651   0.808   2.448   1.655  0.4678 -0.4703  0.1966
 5672SOL    HW128652   0.878   2.513   1.653 -2.1645  2.3358 -0.6270
 5672SOL    HW228653   0.731   2.506   1.657 -1.4896 -3.0720  0.9773
 5673SOL     OW28654   0.964   4.187   5.736 -0.7963 -0.2929  0.6170
 5673SOL    HW128655   0.891   4.219   5.789 -1.0927 -3.6367  2.2559
 5673SOL    HW228656   0.936   4.101   5.705  0.4332 -0.0618 -1.0878
 5674SOL     OW28657   0.672   4.326   3.706  0.2914 -0.3861  0.2091
 5674SOL    HW128658   0.588   4.356   3.740  1.0691  0.9529  1.0050
 5674SOL    HW228659   0.726   4.354   3.780  1.5993 -0.3168 -0.7715
 5675SOL     OW28660   0.908   1.807  10.774 -0.0821 -0.1339  0.5660
 5675SOL    HW128661   0.940   1.724  10.738 -1.5014 -0.7986  0.8425
 5675SOL    HW228662   0.986   1.846  10.813  0.5244  1.2088 -2.0245
 5676SOL     OW28663   2.324   2.791   8.236 -0.2854  0.2083 -0.3660
 5676SOL    HW128664   2.279   2.711   8.209  0.0739 -0.3783  0.7815
 5676SOL    HW228665   2.383   2.814   8.165 -1.0616  0.1273 -1.0438
 5677SOL     OW28666   0.998   0.419   3.961  0.3467 -0.3442  0.2709
 5677SOL    HW128667   1.088   0.443   3.941 -0.2937 -0.9163 -3.4243
 5677SOL    HW228668   0.949   0.502   3.965 -0.9509 -1.1545  1.2038
 5678SOL     OW28669   3.411   0.562   2.534  0.1729 -0.1919 -0.1365
 5678SOL    HW128670   3.435   0.471   2.512 -2.0167 -0.7440 -0.2677
 5678SOL    HW228671   3.496   0.604   2.523  1.0750 -1.8188  0.4830
 5679SOL     OW28672   0.695   4.447   7.765  0.2180 -0.4642  0.0969
 5679SOL    HW128673   0.708   4.519   7.827  0.3079  1.8753 -2.6676
 5679SOL    HW228674   0.783   4.450   7.729 -0.5365  0.1408 -1.7266
 5680SOL     OW28675   2.845   0.524  16.067  0.3957  0.3980  0.2259
 5680SOL    HW128676   2.937   0.541  16.046  0.9952 -3.9690 -0.6689
 5680SOL    HW228677   2.818   0.613  16.092  0.3194  0.2015  0.8286
 5681SOL     OW28678   1.835   1.641  12.777  0.0017 -0.3332  0.1684
 5681SOL    HW128679   1.844   1.640  12.872  1.5473 -1.6966  0.0009
 5681SOL    HW228680   1.779   1.563  12.774 -0.4545  0.1201 -2.5843
 5682SOL     OW28681   0.580   3.617  15.323  0.2242 -0.3169 -0.2143
 5682SOL    HW128682   0.593   3.578  15.409  0.2526  0.7123  0.2552
 5682SOL    HW228683   0.494   3.580  15.306 -0.5706  1.5990 -0.3647
 5683SOL     OW28684   4.705   1.826   7.101  0.3855 -0.0425 -0.7314
 5683SOL    HW128685   4.631   1.766   7.096  0.0444  0.2827  0.4455
 5683SOL    HW228686   4.715   1.850   7.009  1.4915 -1.6332 -1.0264
 5684SOL     OW28687   2.839   4.138   6.405  0.5150 -0.5477 -0.0137
 5684SOL    HW128688   2.816   4.197   6.476  1.2034  0.1564 -0.3722
 5684SOL    HW228689   2.760   4.152   6.353 -1.2085 -1.4702  2.3667
 5685SOL     OW28690   0.146   3.677   4.484 -0.2618  0.6671 -0.8879
 5685SOL    HW128691   0.115   3.590   4.457 -1.2300  0.5180  0.7397
 5685SOL    HW228692   0.225   3.679   4.431  1.4768 -0.1442  1.6851
 5686SOL     OW28693   1.632   1.095   0.015  0.2183 -0.0833 -0.3145
 5686SOL    HW128694   1.627   1.180  17.730 -0.8018  0.0280  0.0291
 5686SOL    HW228695   1.560   1.126   0.069  1.2518  1.5265  0.1481
 5687SOL     OW28696   0.726   2.464   5.271  0.0975 -0.2255 -0.5435
 5687SOL    HW128697   0.776   2.389   5.238  0.3980 -0.1999 -0.1606
 5687SOL    HW228698   0.641   2.422   5.284 -0.9317  1.6125 -1.3131
 5688SOL     OW28699   1.632   4.305   6.658  0.3152 -0.1070  0.7772
 5688SOL    HW128700   1.662   4.218   6.633  0.6599  0.2075  0.0802
 5688SOL    HW228701   1.561   4.273   6.714 -1.0110 -0.1844 -0.9535
 5689SOL     OW28702   1.576   4.562  11.252 -0.3275  0.1169 -0.7622
 5689SOL    HW128703   1.660   4.517  11.253 -0.1699  0.4884  2.1383
 5689SOL    HW228704   1.514   4.491  11.267  0.2925 -0.1573  0.4411
 5690SOL     OW28705   3.408   1.775   5.646 -0.0286  0.3399 -0.0698
 5690SOL    HW128706   3.408   1.727   5.562  1.2125  0.1389  0.0329
 5690SOL    HW228707   3.396   1.861   5.607  1.0817 -0.0584 -1.3327
 5691SOL     OW28708   2.807   4.662   6.072  0.5069  0.0042  0.1680
 5691SOL    HW128709   2.897   4.682   6.100  0.2407  1.0685  0.2686
 5691SOL    HW228710   2.775   4.608   6.144  1.4655 -0.6525  0.1042
 5692SOL     OW28711   3.411   0.987   1.655  0.1113  0.1150 -0.1449
 5692SOL    HW128712   3.430   0.990   1.561  4.1215 -0.9159  0.6585
 5692SOL    HW228713   3.316   0.981   1.667 -0.1081 -0.4960 -2.1663
 5693SOL     OW28714   2.870   2.283   8.779  0.4109 -0.3675  0.0189
 5693SOL    HW128715   2.929   2.295   8.704 -0.4382  0.0083 -0.5855
 5693SOL    HW228716   2.936   2.264   8.846  2.0121  0.5351 -1.2948
 5694SOL     OW28717   0.194   4.268  16.580 -0.0593  0.4632  0.5387
 5694SOL    HW128718   0.122   4.329  16.566 -1.0013 -0.7388  0.1479
 5694SOL    HW228719   0.186   4.206  16.508 -1.4120 -1.0214  1.9772
 5695SOL     OW28720   1.606   1.467  16.749 -0.1232  0.0859  0.2630
 5695SOL    HW128721   1.628   1.554  16.782  0.1995 -0.2185  0.8377
 5695SOL    HW228722   1.605   1.425  16.834  0.5711 -0.1161  0.1686
 5696SOL     OW28723   1.033   2.162  12.594  0.0595 -0.9582 -0.4611
 5696SOL    HW128724   0.947   2.168  12.553 -0.5494  0.4849  1.0282
 5696SOL    HW228725   1.084   2.120  12.525  0.1998 -0.9895 -0.3415
 5697SOL     OW28726   0.640   4.247   8.057 -0.3064 -0.0574 -0.6802
 5697SOL    HW128727   0.717   4.301   8.073 -1.1645  0.5251  1.3715
 5697SOL    HW228728   0.687   4.165   8.067 -0.4622  0.1492  1.7093
 5698SOL     OW28729   3.223   2.354   2.380  0.0324  0.1391 -0.2183
 5698SOL    HW128730   3.232   2.306   2.463 -0.9670 -3.8181 -2.4075
 5698SOL    HW228731   3.175   2.430   2.412 -0.3942 -0.2829  0.1524
 5699SOL     OW28732   1.645   1.522   8.978  0.5911  0.2441  0.2559
 5699SOL    HW128733   1.550   1.535   8.972  0.2964 -0.7149  2.8723
 5699SOL    HW228734   1.669   1.612   8.955  0.9735  0.0874  0.0396
 5700SOL     OW28735   4.250   1.781   5.758  0.5768  0.0700 -0.3457
 5700SOL    HW128736   4.309   1.850   5.788  0.4691 -0.6786  1.5737
 5700SOL    HW228737   4.174   1.836   5.737  0.6599  0.5168  0.5379
 5701SOL     OW28738   2.123   0.729   6.148  0.2123 -0.3043 -0.4719
 5701SOL    HW128739   2.132   0.725   6.053 -0.6396 -0.4076 -0.5466
 5701SOL    HW228740   2.084   0.643   6.157 -1.3632  0.3113 -1.4872
 5702SOL     OW28741   2.893   3.104   5.800 -0.1619 -0.1889  0.4555
 5702SOL    HW128742   2.955   3.162   5.756 -0.1147 -0.2642  0.4217
 5702SOL    HW228743   2.936   3.020   5.782  0.3374 -0.1829  1.6478
 5703SOL     OW28744   1.701   2.539   4.223  0.1299  0.0672  0.2678
 5703SOL    HW128745   1.674   2.477   4.156 -0.8083  2.6310 -1.7362
 5703SOL    HW228746   1.618   2.580   4.248 -0.7231 -1.8359  0.5810
 5704SOL     OW28747   4.666   4.017  11.668  0.1772  0.6193  0.3758
 5704SOL    HW128748   4.578   4.023  11.632  0.2531  0.5686  0.1861
 5704SOL    HW228749   4.717   4.069  11.606 -1.6207  3.3139  1.1468
 5705SOL     OW28750   3.538   0.430   7.337 -0.0439  0.4520  0.1168
 5705SOL    HW128751   3.620   0.424   7.386  0.5598 -0.2845 -0.9963
 5705SOL    HW228752   3.480   0.365   7.375  0.3063  0.0988  0.0493
 5706SOL     OW28753   4.464   4.437   8.525 -0.5237  0.6785 -0.1611
 5706SOL    HW128754   4.398   4.462   8.590 -3.0214 -1.9649 -1.6944
 5706SOL    HW228755   4.551   4.432   8.565 -0.3010 -3.1459 -1.1798
 5707SOL     OW28756   2.879   1.732   9.091  0.1994  0.0187 -0.1710
 5707SOL    HW128757   2.818   1.663   9.118 -1.0231  0.6229 -1.4043
 5707SOL    HW228758   2.956   1.679   9.070  3.2209  3.4181  2.2550
 5708SOL     OW28759   4.642   3.079   3.629  0.2967 -0.0723 -0.5147
 5708SOL    HW128760   4.564   3.131   3.645  1.0799 -0.2213  3.8363
 5708SOL    HW228761   4.614   3.008   3.572 -1.0618 -0.3195  0.4750
 5709SOL     OW28762   4.124   1.407   1.196  0.2868 -0.5929  0.3190
 5709SOL    HW128763   4.075   1.433   1.273 -1.5485 -3.5561  0.1339
 5709SOL    HW228764   4.213   1.439   1.213  0.3037  0.1350 -1.1189
 5710SOL     OW28765   4.608   2.015   6.713 -0.3026 -0.1179  0.8625
 5710SOL    HW128766   4.573   1.956   6.779 -0.1117  0.1626  1.2160
 5710SOL    HW228767   4.684   1.960   6.693  1.2817  2.4753 -0.4002
 5711SOL     OW28768   2.803   3.340  15.771 -0.3518  0.8830  0.3210
 5711SOL    HW128769   2.781   3.428  15.743 -1.8538  0.9742  1.8367
 5711SOL    HW228770   2.896   3.345  15.796  0.0658  1.7993 -1.4059
 5712SOL     OW28771   2.233   1.662   1.299  0.0703  0.4893  0.3576
 5712SOL    HW128772   2.325   1.641   1.281  0.2071 -0.3492  2.0241
 5712SOL    HW228773   2.226   1.649   1.394  0.9900  2.5383  0.7025
 5713SOL     OW28774   3.092   0.095   0.313  0.1111  0.0098 -0.5342
 5713SOL    HW128775   3.062   0.185   0.324  0.4973  0.0892 -0.1416
 5713SOL    HW228776   3.167   0.109   0.256 -0.2721  0.2928 -0.9648
 5714SOL     OW28777   2.143   0.631   0.190 -0.1868  0.3593 -0.6455
 5714SOL    HW128778   2.167   0.712   0.144 -1.6056  0.6479 -0.8915
 5714SOL    HW228779   2.222   0.603   0.236  0.1457  0.5758 -1.0853
 5715SOL     OW28780   4.560   2.709   1.370 -0.0504  0.0057  0.2297
 5715SOL    HW128781   4.630   2.650   1.341  0.3533 -0.7357  2.7855
 5715SOL    HW228782   4.568   2.697   1.464 -0.3546  2.2137  0.5425
 5716SOL     OW28783   3.490   4.575   5.134  0.4683 -0.4252  0.4749
 5716SOL    HW128784   3.556   4.605   5.197 -0.2009  1.4628  0.2984
 5716SOL    HW228785   3.478   4.487   5.168  0.6048 -0.1379  1.2575
 5717SOL     OW28786   3.310   3.674   0.131 -0.0282  0.4386 -0.0835
 5717SOL    HW128787   3.257   3.749   0.156 -0.5732 -0.0512  0.2228
 5717SOL    HW228788   3.387   3.693   0.185  0.6549 -1.0677 -0.5233
 5718SOL     OW28789   4.392   0.769   0.705 -0.0002 -0.0624  0.2025
 5718SOL    HW128790   4.303   0.800   0.689  0.2059 -0.6860 -2.2556
 5718SOL    HW228791   4.369   0.705   0.772  1.6384  0.0930  0.8987
 5719SOL     OW28792   2.635   0.320  11.531  0.5342 -0.6084  0.6282
 5719SOL    HW128793   2.649   0.247  11.591  0.8339  0.3578  1.7357
 5719SOL    HW228794   2.714   0.374  11.536 -0.3069  0.6335  0.4076
 5720SOL     OW28795   3.189   0.810   5.952 -0.0072  0.3040 -0.2620
 5720SOL    HW128796   3.167   0.903   5.944 -0.4061  0.0345 -2.1376
 5720SOL    HW228797   3.227   0.796   5.866 -1.9430 -0.1849 -1.0306
 5721SOL     OW28798   3.967   3.182   6.365  0.4108  0.6175 -0.4144
 5721SOL    HW128799   4.044   3.222   6.406  0.7579 -0.5161  0.0125
 5721SOL    HW228800   3.992   3.189   6.272  1.3403 -0.2885 -0.2287
 5722SOL     OW28801   4.138   2.879   2.728 -0.1282 -0.0516 -0.2131
 5722SOL    HW128802   4.066   2.834   2.684 -0.6907  0.0290  0.6153
 5722SOL    HW228803   4.129   2.856   2.821  2.2756  0.0101  0.0532
 5723SOL     OW28804   3.299   3.926   8.477  0.0854 -0.3152  0.7215
 5723SOL    HW128805   3.310   3.897   8.568 -0.6979  2.3410  1.6601
 5723SOL    HW228806   3.388   3.950   8.451 -0.1119  0.9483  1.2519
 5724SOL     OW28807   2.629   2.510  13.485  0.4944  0.4107 -0.5790
 5724SOL    HW128808   2.680   2.578  13.529  1.7436 -0.5583 -0.5631
 5724SOL    HW228809   2.544   2.529  13.524  0.5956 -1.9499  0.7260
 5725SOL     OW28810   2.321   2.106   8.374  0.1077  0.4358  0.2555
 5725SOL    HW128811   2.364   2.162   8.310 -0.6329 -0.6505 -1.2024
 5725SOL    HW228812   2.300   2.178   8.434 -0.8771  0.7616 -0.4733
 5726SOL     OW28813   0.306   2.311   9.444  0.2272  0.5459 -0.7359
 5726SOL    HW128814   0.356   2.230   9.441  1.3598  1.0573  3.9763
 5726SOL    HW228815   0.363   2.374   9.488 -0.1522  1.4750 -1.5821
 5727SOL     OW28816   2.382   1.259   5.442  0.1346  0.1620  0.2254
 5727SOL    HW128817   2.336   1.186   5.483 -0.4261  0.6907  0.5329
 5727SOL    HW228818   2.376   1.235   5.350  0.0764  0.6489  0.1044
 5728SOL     OW28819   1.064   2.164   0.922  0.2753  0.3501  0.3627
 5728SOL    HW128820   1.076   2.258   0.911 -2.4407  0.8301  1.6592
 5728SOL    HW228821   1.013   2.152   0.842  2.0880  0.1527 -0.7674
 5729SOL     OW28822   4.285   0.465   5.105 -0.0746  0.4811 -0.2980
 5729SOL    HW128823   4.290   0.523   5.029  1.1295  0.3818 -0.2917
 5729SOL    HW228824   4.255   0.383   5.067  0.2355  0.5513 -0.6924
 5730SOL     OW28825   2.385   3.466   5.179  0.9649  0.3329 -0.0925
 5730SOL    HW128826   2.342   3.483   5.263  1.7810 -0.9127  0.5840
 5730SOL    HW228827   2.413   3.551   5.145  1.0499  0.8065  1.1638
 5731SOL     OW28828   1.556   1.859   5.924  0.3854 -0.4040 -0.0048
 5731SOL    HW128829   1.511   1.863   5.839 -1.6868 -0.6474  1.0873
 5731SOL    HW228830   1.639   1.816   5.904  0.6932  0.0712  0.2612
 5732SOL     OW28831   1.775   2.744   3.826  0.6029 -0.3865  0.4751
 5732SOL    HW128832   1.802   2.655   3.847 -0.6420 -1.0267 -0.6585
 5732SOL    HW228833   1.806   2.737   3.735  0.4262  1.3059  0.2810
 5733SOL     OW28834   2.645   4.547   9.738 -0.3371 -0.3060 -0.1615
 5733SOL    HW128835   2.664   4.633   9.775  1.7796  0.3391 -2.7724
 5733SOL    HW228836   2.560   4.563   9.698  0.9626 -1.5082 -3.3992
 5734SOL     OW28837   1.149   3.054  15.774 -0.1162 -0.4256 -0.0001
 5734SOL    HW128838   1.135   3.085  15.864  1.4628  0.2583  0.0165
 5734SOL    HW228839   1.213   2.984  15.791 -1.0405 -1.4910 -0.9801
 5735SOL     OW28840   1.198   1.107   6.610 -0.4881 -0.5408  0.0396
 5735SOL    HW128841   1.288   1.079   6.594  0.4314  2.0255  0.7321
 5735SOL    HW228842   1.207   1.163   6.687  0.1408 -0.5316 -0.0357
 5736SOL     OW28843   2.429   1.490   8.910 -0.5290  0.2259  0.9392
 5736SOL    HW128844   2.416   1.428   8.982  1.5966 -2.1479 -0.6875
 5736SOL    HW228845   2.500   1.444   8.864 -0.0677 -0.3968  2.2898
 5737SOL     OW28846   2.461   0.599  17.063 -0.1241 -0.7904 -0.2891
 5737SOL    HW128847   2.542   0.589  17.014 -0.7389 -0.9102 -1.2834
 5737SOL    HW228848   2.406   0.570  16.990 -0.0003  0.8206 -1.0030
 5738SOL     OW28849   0.760   2.915   1.149 -0.1246  0.2094  0.2676
 5738SOL    HW128850   0.827   2.963   1.100 -1.3694  1.7752  0.0903
 5738SOL    HW228851   0.795   2.827   1.140  0.5778  0.7364 -2.2331
 5739SOL     OW28852   3.051   1.717   8.341  0.3740 -0.0978 -0.3538
 5739SOL    HW128853   2.980   1.778   8.358 -1.7131 -2.8056  0.6748
 5739SOL    HW228854   3.030   1.667   8.262  0.0562 -1.8184  0.8162
 5740SOL     OW28855   1.119   2.127   4.256  0.3572 -0.3360  0.9981
 5740SOL    HW128856   1.134   2.205   4.203  0.8741  1.2003  3.4128
 5740SOL    HW228857   1.160   2.056   4.206  1.0011 -0.2588  1.4050
 5741SOL     OW28858   1.205   3.643   1.084  0.1407  0.1905 -0.4648
 5741SOL    HW128859   1.192   3.712   1.019 -0.1265 -0.7422 -1.3849
 5741SOL    HW228860   1.278   3.680   1.134  0.2950  0.7951 -1.1397
 5742SOL     OW28861   0.957   1.688   4.843 -0.1271 -0.5681  0.3676
 5742SOL    HW128862   0.937   1.640   4.762 -0.7807  0.2586  0.0389
 5742SOL    HW228863   1.036   1.641   4.870  1.3975  0.1559 -2.7510
 5743SOL     OW28864   3.144   1.044   8.805 -0.7926 -0.3432 -0.3673
 5743SOL    HW128865   3.154   1.051   8.710 -2.1084  0.2012 -0.4610
 5743SOL    HW228866   3.231   1.014   8.832 -0.3724  0.6723 -0.5817
 5744SOL     OW28867   2.325   2.178   0.258 -0.3436  0.3593  0.2699
 5744SOL    HW128868   2.247   2.133   0.224  0.5104 -0.6633 -0.3232
 5744SOL    HW228869   2.291   2.267   0.266 -0.5832  0.1605  1.5507
 5745SOL     OW28870   0.884   0.202   3.838 -0.1354  0.0051 -0.5838
 5745SOL    HW128871   0.925   0.262   3.900 -2.1466  0.3906  0.3711
 5745SOL    HW228872   0.871   0.263   3.765  2.2744  1.2648  0.0094
 5746SOL     OW28873   1.749   3.253   7.070  0.2916 -0.1617  0.1531
 5746SOL    HW128874   1.715   3.270   6.982  0.5330 -0.2825  0.0363
 5746SOL    HW228875   1.730   3.338   7.110 -0.1572 -0.3231  0.2778
 5747SOL     OW28876   4.470   0.340   0.773  0.1648 -0.0505  0.3953
 5747SOL    HW128877   4.462   0.279   0.846 -1.9193  1.5026  1.4427
 5747SOL    HW228878   4.446   0.287   0.697 -2.1934  0.3279  0.8947
 5748SOL     OW28879   2.698   2.354   1.661  0.0932 -0.0571 -0.1054
 5748SOL    HW128880   2.782   2.324   1.628  0.1342 -1.1279  0.9969
 5748SOL    HW228881   2.715   2.446   1.682  1.5681  0.3165 -2.9437
 5749SOL     OW28882   4.247   0.615   1.262  0.0694 -0.1788  0.0863
 5749SOL    HW128883   4.182   0.573   1.318  0.9185  0.2623  1.4197
 5749SOL    HW228884   4.327   0.600   1.312  0.5574  0.5562 -0.4854
 5750SOL     OW28885   0.701   4.590  16.378 -0.0284  0.0242 -0.3177
 5750SOL    HW128886   0.682   4.524  16.444  0.8520 -1.5421 -1.6384
 5750SOL    HW228887   0.698   4.669  16.433 -0.4657  0.3281 -0.7752
 5751SOL     OW28888   4.082   3.559   8.699 -0.0209  0.4849  0.1351
 5751SOL    HW128889   4.128   3.539   8.617  2.1496  1.5677  1.0939
 5751SOL    HW228890   4.038   3.479   8.726  1.1579  0.1109  0.9247
 5752SOL     OW28891   1.711   0.646  12.055 -0.5462  0.6058  0.5125
 5752SOL    HW128892   1.658   0.705  12.109  0.0774  1.3239  0.3258
 5752SOL    HW228893   1.653   0.570  12.049  1.2383 -0.6029 -1.3593
 5753SOL     OW28894   1.965   3.513  16.810 -0.0317  0.3207 -0.6809
 5753SOL    HW128895   1.998   3.528  16.722 -0.2979 -1.8195 -1.1323
 5753SOL    HW228896   1.872   3.494  16.801  0.4779 -1.7477 -1.3866
 5754SOL     OW28897   0.028   2.432   5.615  0.5965 -0.6687 -0.5001
 5754SOL    HW128898   0.116   2.472   5.612  0.5908 -0.7150 -1.1594
 5754SOL    HW228899   4.740   2.483   5.691  2.4594 -0.3248 -0.0203
 5755SOL     OW28900   2.750   0.093   2.800 -1.0117  0.5847 -0.6073
 5755SOL    HW128901   2.827   0.039   2.783 -0.8851  1.3590 -2.4796
 5755SOL    HW228902   2.675   0.040   2.774  0.2806 -0.8888 -1.3082
 5756SOL     OW28903   4.443   1.360   7.995 -0.2937  0.0313  0.3524
 5756SOL    HW128904   4.480   1.272   8.003 -2.7599 -0.8489  2.0790
 5756SOL    HW228905   4.350   1.342   7.983  0.2032 -1.8458 -0.5878
 5757SOL     OW28906   2.822   1.709  17.622 -0.4968 -0.1458  0.6091
 5757SOL    HW128907   2.861   1.626  17.650  0.0712  0.1810  0.7730
 5757SOL    HW228908   2.903   1.759  17.621  0.2815 -1.4645 -1.1817
 5758SOL     OW28909   2.466   4.194   6.924  0.1227 -0.2555 -0.4234
 5758SOL    HW128910   2.385   4.243   6.933  1.3102  1.7814 -0.9656
 5758SOL    HW228911   2.436   4.117   6.875  1.6157 -0.4366 -1.0618
 5759SOL     OW28912   2.218   0.925   2.909 -0.0484 -0.4017 -0.1341
 5759SOL    HW128913   2.214   0.969   2.994 -1.0597  0.5176 -0.6446
 5759SOL    HW228914   2.167   0.977   2.846  0.2475 -0.2012 -0.2045
 5760SOL     OW28915   1.407   1.175   6.007 -0.3444 -0.0540 -0.3637
 5760SOL    HW128916   1.368   1.154   6.092 -2.7173  0.8446 -1.2587
 5760SOL    HW228917   1.498   1.145   6.017 -0.4279 -0.2461 -0.1911
 5761SOL     OW28918   3.673   2.167  11.455  0.6890  0.1408  0.5746
 5761SOL    HW128919   3.684   2.256  11.422 -0.7197 -0.5642 -1.7592
 5761SOL    HW228920   3.591   2.176  11.504  0.3909 -0.1244  0.1223
 5762SOL     OW28921   3.630   2.374   9.593 -0.5220 -0.2937  0.4140
 5762SOL    HW128922   3.614   2.435   9.521  0.8508 -0.6699 -0.2129
 5762SOL    HW228923   3.641   2.436   9.665 -2.0192  1.7398 -1.0999
 5763SOL     OW28924   1.839   3.451  15.372 -0.3431 -0.1633  0.0568
 5763SOL    HW128925   1.776   3.380  15.360 -0.9847  0.5448 -0.7621
 5763SOL    HW228926   1.822   3.486  15.285  1.4866 -0.4773 -0.4284
 5764SOL     OW28927   4.117   1.398   5.733  0.1166 -0.2033  0.0074
 5764SOL    HW128928   4.117   1.316   5.781  0.6476  1.2282  2.4553
 5764SOL    HW228929   4.024   1.423   5.732 -0.1652 -1.3441 -2.7796
 5765SOL     OW28930   3.191   4.246   5.070  0.1574 -0.0296 -0.3034
 5765SOL    HW128931   3.097   4.255   5.088  0.3660  2.8055 -0.5381
 5765SOL    HW228932   3.213   4.241   5.163 -2.1661 -1.2031  0.1888
 5766SOL     OW28933   2.165   3.608   6.114  0.2201  0.3019  0.3109
 5766SOL    HW128934   2.096   3.666   6.146 -0.1991 -0.4525  0.7404
 5766SOL    HW228935   2.228   3.676   6.088  1.9390 -1.1779  0.6272
 5767SOL     OW28936   4.490   3.641  13.005 -0.1232 -0.1098  0.1723
 5767SOL    HW128937   4.427   3.634  13.076  1.8935 -0.4498  1.9423
 5767SOL    HW228938   4.428   3.663  12.936 -0.5781  0.1189  0.6471
 5768SOL     OW28939   0.211   0.297   3.414 -0.0861 -0.1591 -0.1611
 5768SOL    HW128940   0.257   0.232   3.362 -1.9991  0.7123 -2.9300
 5768SOL    HW228941   0.166   0.346   3.345  0.6055 -1.7825 -1.7338
 5769SOL     OW28942   3.076   1.892  15.013  0.0657  0.0854  0.5351
 5769SOL    HW128943   3.037   1.830  15.075 -2.2080 -0.2555 -1.2502
 5769SOL    HW228944   3.084   1.843  14.931 -2.1680  0.1484  0.2922
 5770SOL     OW28945   2.658   0.501   9.887  0.0476  0.0052 -0.1016
 5770SOL    HW128946   2.677   0.580   9.836 -1.1141 -0.0859 -0.6662
 5770SOL    HW228947   2.732   0.493   9.947  1.0884  1.3141 -1.2028
 5771SOL     OW28948   1.539   0.328   6.915 -0.2061  0.4850 -0.2057
 5771SOL    HW128949   1.589   0.396   6.870  0.7121 -1.1612 -1.6673
 5771SOL    HW228950   1.583   0.335   6.999  2.3628  2.1949 -1.6887
 5772SOL     OW28951   3.969   3.381   9.684 -0.0884 -0.2510  0.4025
 5772SOL    HW128952   4.036   3.377   9.752  1.6813  0.3871 -1.3039
 5772SOL    HW228953   3.887   3.363   9.729 -0.2507  3.2655  1.4868
 5773SOL     OW28954   4.616   3.557   3.767  0.6031 -0.1604 -0.4799
 5773SOL    HW128955   4.523   3.536   3.763  0.4519  0.2719  1.0553
 5773SOL    HW228956   4.600   3.634   3.712  0.3669  1.5720  2.0350
 5774SOL     OW28957   1.489   4.463  13.706 -0.0735 -0.1851 -0.3683
 5774SOL    HW128958   1.542   4.536  13.738  0.9937 -1.6152  1.1424
 5774SOL    HW228959   1.416   4.475  13.766  1.0724 -1.7646  1.3386
 5775SOL     OW28960   1.472   0.501   3.261  0.6458  0.7141 -0.4930
 5775SOL    HW128961   1.559   0.470   3.285  1.2778  1.6510 -1.5711
 5775SOL    HW228962   1.434   0.508   3.348  0.8492  1.4894 -0.4689
 5776SOL     OW28963   0.820   0.772   5.070  0.2300 -0.1616 -0.1093
 5776SOL    HW128964   0.860   0.854   5.096  0.6421 -0.4178  0.0534
 5776SOL    HW228965   0.821   0.730   5.156  0.6124 -1.8023 -0.9050
 5777SOL     OW28966   2.743   1.002   7.948  0.5311 -0.4123 -0.7340
 5777SOL    HW128967   2.662   1.023   7.902 -0.2865 -1.9661 -0.0088
 5777SOL    HW228968   2.758   1.084   7.994 -1.5991 -0.0125 -0.7685
 5778SOL     OW28969   4.031   4.450   4.565 -0.3676  0.4396 -0.3844
 5778SOL    HW128970   4.112   4.470   4.520 -0.9132  0.2137 -1.4677
 5778SOL    HW228971   3.981   4.404   4.497 -0.6375  1.1757 -0.6793
 5779SOL     OW28972   2.278   0.432   4.797  0.1865 -0.2258  0.0947
 5779SOL    HW128973   2.276   0.349   4.845 -1.3367  0.7080  1.6607
 5779SOL    HW228974   2.239   0.478   4.872  0.0535  0.0435 -0.1420
 5780SOL     OW28975   4.448   2.629  15.611 -0.8272 -0.1621 -0.2901
 5780SOL    HW128976   4.469   2.706  15.664 -1.5091  1.0325 -1.7423
 5780SOL    HW228977   4.384   2.659  15.546 -1.3164  1.9678  1.1669
 5781SOL     OW28978   3.771   1.404   5.621  0.2012  0.1692 -0.6724
 5781SOL    HW128979   3.688   1.444   5.648  1.2808  1.9351  0.0120
 5781SOL    HW228980   3.820   1.472   5.574  0.1147  1.3674  0.9685
 5782SOL     OW28981   0.131   4.503  12.086 -0.0174 -0.2540  0.4275
 5782SOL    HW128982   0.151   4.585  12.040  0.8952 -0.4600  0.4610
 5782SOL    HW228983   0.047   4.513  12.130  0.5970  0.2248  1.4944
 5783SOL     OW28984   0.662   1.259   7.351 -0.1921 -0.6709 -0.2102
 5783SOL    HW128985   0.576   1.267   7.393  1.1919  1.1894  2.2710
 5783SOL    HW228986   0.634   1.303   7.270  2.8794 -0.7237 -1.2928
 5784SOL     OW28987   0.755   0.169   7.861  0.1281  0.0432  0.0129
 5784SOL    HW128988   0.668   0.207   7.849  0.9540  0.3882 -4.8868
 5784SOL    HW228989   0.716   0.097   7.911 -0.4348  0.1972 -0.2010
 5785SOL     OW28990   1.407   0.974   0.237 -0.2386 -0.1806 -0.1621
 5785SOL    HW128991   1.444   0.947   0.153 -0.7866  0.9034 -0.7576
 5785SOL    HW228992   1.416   1.069   0.225 -0.5537 -0.0721  0.4506
 5786SOL     OW28993   0.938   3.973  14.724 -0.2641  0.4440  0.6759
 5786SOL    HW128994   0.919   4.017  14.807  0.2141  1.7468  0.1101
 5786SOL    HW228995   1.015   3.921  14.749 -1.4910 -0.7778  1.9042
 5787SOL     OW28996   1.652   4.672  13.746 -0.0418  0.9984 -0.7153
 5787SOL    HW128997   1.563   4.708  13.745  0.2976  1.8321 -2.0294
 5787SOL    HW228998   1.699   4.716  13.816 -0.5533 -0.8549  0.7845
 5788SOL     OW28999   2.721   1.203   7.193 -0.5021  0.1863 -0.0528
 5788SOL    HW129000   2.814   1.213   7.172 -0.4448 -1.7012 -0.7012
 5788SOL    HW229001   2.696   1.295   7.205  2.4129  0.8163  1.1515
 5789SOL     OW29002   4.248   2.720   5.066  0.3805 -0.2779  0.4081
 5789SOL    HW129003   4.329   2.682   5.101 -0.2175 -1.5954  0.3690
 5789SOL    HW229004   4.233   2.775   5.143  0.0661 -1.5892  1.2969
 5790SOL     OW29005   3.245   4.076   1.613  0.2339  0.2425 -0.7331
 5790SOL    HW129006   3.201   4.141   1.558 -1.0821 -1.5249 -1.7742
 5790SOL    HW229007   3.263   4.133   1.687 -0.6991 -0.4524  0.0217
 5791SOL     OW29008   0.682   3.448   1.077  0.3992  0.5802  0.0222
 5791SOL    HW129009   0.713   3.445   0.987  0.3426 -0.4102  0.0447
 5791SOL    HW229010   0.686   3.542   1.096  0.0435  0.9812 -1.9029
 5792SOL     OW29011   1.773   3.357  16.592 -0.2880 -0.3319  0.0165
 5792SOL    HW129012   1.783   3.262  16.582 -0.0025 -0.1532 -1.4002
 5792SOL    HW229013   1.687   3.377  16.557 -0.9854  0.2715  2.0629
 5793SOL     OW29014   0.086   3.286   7.404  0.1650  0.0848 -0.1062
 5793SOL    HW129015   0.108   3.377   7.382  0.0502 -0.3779 -2.1748
 5793SOL    HW229016   0.087   3.247   7.316 -0.0947 -1.0830  0.4117
 5794SOL     OW29017   0.432   2.572  15.320 -0.1246 -0.5155 -0.8723
 5794SOL    HW129018   0.499   2.628  15.358 -0.5890 -0.1475 -0.5972
 5794SOL    HW229019   0.394   2.635  15.259 -0.8308  0.2037  0.3272
 5795SOL     OW29020   2.732   1.198   5.258  0.4765  0.6975 -0.7720
 5795SOL    HW129021   2.771   1.117   5.291 -0.9647 -0.1817 -1.2166
 5795SOL    HW229022   2.691   1.171   5.175 -0.5448 -2.0542  0.6219
 5796SOL     OW29023   1.725   3.404   1.171 -0.1464  0.0953  0.0214
 5796SOL    HW129024   1.674   3.435   1.246 -0.2131 -3.1308  1.3541
 5796SOL    HW229025   1.660   3.344   1.135 -0.4530  1.7748 -2.1934
 5797SOL     OW29026   4.689   1.858   3.193  0.2025 -0.2838 -0.7829
 5797SOL    HW129027   4.676   1.800   3.268  0.8241  3.3560  2.1094
 5797SOL    HW229028   4.733   1.932   3.235 -1.1043 -0.9166  1.6622
 5798SOL     OW29029   4.106   2.597   3.351 -0.9857  0.0786  0.1977
 5798SOL    HW129030   4.016   2.626   3.363 -1.6073 -1.2586 -1.2598
 5798SOL    HW229031   4.102   2.515   3.399 -0.9697  0.7719  1.3710
 5799SOL     OW29032   1.262   1.162   5.160  0.1417 -0.4256  0.2533
 5799SOL    HW129033   1.247   1.194   5.250  1.5655 -0.9325  0.6689
 5799SOL    HW229034   1.175   1.184   5.127  0.6042  0.9167 -0.0612
 5800SOL     OW29035   3.821   4.482   5.045 -0.4430  0.2518  0.7663
 5800SOL    HW129036   3.872   4.434   4.979 -0.2181  0.6671  0.6395
 5800SOL    HW229037   3.874   4.561   5.050 -1.7691  0.8860  4.7011
 5801SOL     OW29038   2.463   2.746   6.189  0.1226  0.7303  0.2553
 5801SOL    HW129039   2.505   2.804   6.252  1.7102 -0.8092  0.6070
 5801SOL    HW229040   2.520   2.673   6.215  1.1008  1.3465 -0.1406
 5802SOL     OW29041   2.384   1.559   2.308 -0.2094  0.6473 -0.0063
 5802SOL    HW129042   2.408   1.481   2.358  0.6489 -0.1019 -1.5878
 5802SOL    HW229043   2.379   1.621   2.381 -0.0115  1.0283 -0.3186
 5803SOL     OW29044   2.584   0.200   6.176  0.5665 -0.5412 -0.0138
 5803SOL    HW129045   2.674   0.168   6.176 -0.0214 -2.2028 -0.5785
 5803SOL    HW229046   2.545   0.199   6.088 -0.7355 -0.3985  0.5555
 5804SOL     OW29047   2.046   1.456   6.231  0.0067  0.5564  0.0228
 5804SOL    HW129048   2.044   1.551   6.242 -2.9157  0.3930  0.9517
 5804SOL    HW229049   2.119   1.445   6.170 -2.0231  0.5773 -2.3633
 5805SOL     OW29050   2.030   2.266   2.619  0.0352  0.5364 -0.5489
 5805SOL    HW129051   2.099   2.213   2.660 -1.0418  0.9317  1.7553
 5805SOL    HW229052   1.997   2.319   2.691  1.7001  0.7410  0.0778
 5806SOL     OW29053   4.109   2.883  16.094 -0.2369  0.1282 -0.2170
 5806SOL    HW129054   4.020   2.853  16.116 -1.2301  1.7453 -1.9687
 5806SOL    HW229055   4.147   2.802  16.126 -0.1223 -1.0726 -3.3721
 5807SOL     OW29056   0.317   0.551   6.549 -0.2836  0.2191 -0.7425
 5807SOL    HW129057   0.395   0.590   6.589  0.4188 -0.7406 -1.1793
 5807SOL    HW229058   0.355   0.479   6.498  0.1766  0.7644 -1.1742
 5808SOL     OW29059   3.005   2.650   5.542  0.3968  0.4232 -0.1047
 5808SOL    HW129060   3.036   2.726   5.492  2.4021  0.1998  0.8216
 5808SOL    HW229061   3.083   2.595   5.547  0.6715  0.6194 -2.1487
 5809SOL     OW29062   1.707   0.832   1.038  0.4544  0.2310 -0.0358
 5809SOL    HW129063   1.710   0.791   0.952  0.0736 -1.1491  0.6067
 5809SOL    HW229064   1.693   0.761   1.100 -0.6281 -1.0175 -1.7141
 5810SOL     OW29065   4.094   3.289   9.929 -0.1260  0.1337 -0.1186
 5810SOL    HW129066   4.113   3.231   9.855 -0.2495 -1.2576  0.9315
 5810SOL    HW229067   4.179   3.308   9.968 -1.3534  1.0019  2.1194
 5811SOL     OW29068   3.681   3.164   8.477  0.1578  0.3154  0.4646
 5811SOL    HW129069   3.637   3.206   8.551 -0.7692 -2.0383  1.2572
 5811SOL    HW229070   3.728   3.245   8.457 -0.2697  0.8224  1.5328
 5812SOL     OW29071   2.096   3.700   3.827  0.1093  0.3338 -0.1532
 5812SOL    HW129072   2.074   3.793   3.814  3.0193  0.6098 -3.2712
 5812SOL    HW229073   2.016   3.671   3.869  0.4237 -0.3288 -0.0181
 5813SOL     OW29074   1.226   0.461   8.899  0.3797 -0.3176 -0.2853
 5813SOL    HW129075   1.140   0.419   8.903  0.1078  0.2549  0.0419
 5813SOL    HW229076   1.201   0.542   8.853 -0.1377 -0.4981 -0.3207
 5814SOL     OW29077   1.274   0.227   4.041  0.1890  0.9208 -0.3595
 5814SOL    HW129078   1.364   0.215   4.010  0.1166  1.1148 -0.6375
 5814SOL    HW229079   1.282   0.260   4.131 -2.4913  0.1847  0.1316
 5815SOL     OW29080   3.753   2.235   2.594 -0.3717  0.0152 -0.1548
 5815SOL    HW129081   3.669   2.188   2.598  1.2302 -2.7529  0.8172
 5815SOL    HW229082   3.726   2.323   2.571 -0.3095  0.3572  1.0951
 5816SOL     OW29083   0.372   3.309  14.506  0.2757 -0.7407  0.7991
 5816SOL    HW129084   0.352   3.383  14.450 -0.2080 -0.5236  1.2533
 5816SOL    HW229085   0.367   3.234  14.447 -1.8759 -1.0675  1.4081
 5817SOL     OW29086   1.350   3.545   8.972  0.5334 -0.0201 -0.0046
 5817SOL    HW129087   1.435   3.539   9.016  0.3348 -2.1811  0.0821
 5817SOL    HW229088   1.287   3.532   9.043 -1.3056  1.8099 -1.2883
 5818SOL     OW29089   3.306   0.737  12.734 -0.4212  0.2941  0.2198
 5818SOL    HW129090   3.349   0.793  12.670 -0.1752  0.9206  0.9317
 5818SOL    HW229091   3.372   0.670  12.752  0.5294  1.7390  2.0769
 5819SOL     OW29092   2.232   2.029  10.579  0.1436  0.2398  0.3241
 5819SOL    HW129093   2.279   2.069  10.506  1.1043 -1.3565  0.0701
 5819SOL    HW229094   2.165   2.096  10.587  0.7579  1.0109 -1.1087
 5820SOL     OW29095   4.250   2.636  16.100  0.3637  0.8483 -0.3146
 5820SOL    HW129096   4.344   2.621  16.111  0.4812  0.6181 -1.6200
 5820SOL    HW229097   4.207   2.612  16.182  0.4369  0.3458 -0.4225
 5821SOL     OW29098   1.682   4.469  16.261 -0.3857  0.1114 -0.1993
 5821SOL    HW129099   1.597   4.425  16.265 -0.0943 -0.2623  1.9012
 5821SOL    HW229100   1.655   4.560  16.262  2.7918  1.0641 -1.5024
 5822SOL     OW29101   2.616   3.878   9.096  0.2201  0.3157 -0.7369
 5822SOL    HW129102   2.529   3.842   9.081  0.2939 -0.4834  0.7548
 5822SOL    HW229103   2.658   3.796   9.121  2.5467  0.8824 -2.7578
 5823SOL     OW29104   3.713   3.704  15.960  0.5401  0.0309  0.0832
 5823SOL    HW129105   3.627   3.698  15.917  0.2031  1.7983  0.5015
 5823SOL    HW229106   3.768   3.700  15.882 -0.8964 -1.2497 -0.8592
 5824SOL     OW29107   2.077   2.318   5.460  0.6286 -0.3340 -0.0370
 5824SOL    HW129108   2.122   2.377   5.520 -2.8871  2.2386  0.0851
 5824SOL    HW229109   2.115   2.231   5.474 -1.0853 -0.9871  0.6537
 5825SOL     OW29110   0.590   3.420   1.809 -0.3374  0.8016  0.2369
 5825SOL    HW129111   0.667   3.432   1.754  0.4169  1.1300  1.3694
 5825SOL    HW229112   0.530   3.387   1.742 -1.0963  1.5936  0.5275
 5826SOL     OW29113   2.868   1.428  16.596 -0.4715 -0.3721  0.2133
 5826SOL    HW129114   2.777   1.405  16.613 -0.4214 -0.1727  0.7458
 5826SOL    HW229115   2.888   1.474  16.677  0.2972 -1.1096  0.4344
 5827SOL     OW29116   2.198   0.180   8.074 -0.5165  0.0717 -0.3891
 5827SOL    HW129117   2.107   0.182   8.044 -0.5963  2.9515  0.0977
 5827SOL    HW229118   2.238   0.262   8.044  0.3333  0.5434  2.0344
 5828SOL     OW29119   3.323   1.669   1.660  0.8236 -0.1424 -0.2855
 5828SOL    HW129120   3.283   1.645   1.744 -1.0773 -0.0353 -1.1709
 5828SOL    HW229121   3.247   1.649   1.606  1.6687 -1.5115 -0.9553
 5829SOL     OW29122   4.125   4.452   9.618 -0.2011 -0.4337  0.2559
 5829SOL    HW129123   4.119   4.530   9.563 -2.2689  0.0937  1.2069
 5829SOL    HW229124   4.074   4.479   9.695 -1.0294  1.4721 -0.9659
 5830SOL     OW29125   1.678   1.675  12.371 -0.0615  0.3367 -0.2610
 5830SOL    HW129126   1.681   1.628  12.288 -0.4738 -0.2942  0.0761
 5830SOL    HW229127   1.649   1.760  12.339  1.3051  0.2241 -1.7738
 5831SOL     OW29128   4.105   0.409   7.420 -0.1539  0.1625 -0.1910
 5831SOL    HW129129   4.124   0.394   7.328  2.0335  0.2555  0.2527
 5831SOL    HW229130   4.105   0.318   7.450  1.2114  0.1115 -0.3808
 5832SOL     OW29131   0.513   3.328   2.693  0.2261 -0.3107 -0.3631
 5832SOL    HW129132   0.465   3.322   2.610 -1.3151  0.8035  0.4575
 5832SOL    HW229133   0.472   3.254   2.738  0.9847  1.2706  2.8890
 5833SOL     OW29134   1.939   3.074  16.690  0.1916 -0.1772  0.4862
 5833SOL    HW129135   1.999   3.047  16.759  1.6443  0.7576 -0.4133
 5833SOL    HW229136   2.002   3.127  16.642  0.1541 -1.7688 -1.3156
 5834SOL     OW29137   1.522   4.623   8.889 -0.3121  0.1442  0.0900
 5834SOL    HW129138   1.521   4.527   8.899  0.6670  0.0656 -0.5646
 5834SOL    HW229139   1.460   4.654   8.954  1.4067  0.8433  1.3907
 5835SOL     OW29140   4.227   2.517   6.782 -0.5206  0.3787  0.0537
 5835SOL    HW129141   4.221   2.428   6.814  2.2896  1.7417  4.4496
 5835SOL    HW229142   4.233   2.493   6.689  3.1524 -4.9491  1.6600
 5836SOL     OW29143   2.506   0.821   0.954  0.3076  0.5404 -0.0962
 5836SOL    HW129144   2.411   0.832   0.955  0.2967  0.2461  2.3148
 5836SOL    HW229145   2.522   0.751   0.891  0.8163 -0.9177  1.6601
 5837SOL     OW29146   1.468   1.950   1.065  0.4624 -0.3786  1.0894
 5837SOL    HW129147   1.374   1.941   1.080  0.0432 -0.4683 -1.6181
 5837SOL    HW229148   1.463   1.957   0.970 -2.4154  0.7032  1.2922
 5838SOL     OW29149   4.303   3.258   9.520  0.5640 -1.1178  0.4711
 5838SOL    HW129150   4.367   3.297   9.460  0.0764 -0.0087  0.6599
 5838SOL    HW229151   4.300   3.325   9.589 -1.9150 -2.1076  1.3337
 5839SOL     OW29152   4.574   4.587   7.765  0.4812 -0.0715  0.1911
 5839SOL    HW129153   4.623   4.647   7.821 -3.2752  3.7799 -0.5631
 5839SOL    HW229154   4.558   4.653   7.697 -1.3344 -0.1478  0.5282
 5840SOL     OW29155   3.410   2.918   3.166  0.2186 -0.4271 -0.1426
 5840SOL    HW129156   3.351   2.871   3.225 -0.0377 -1.3691 -1.1554
 5840SOL    HW229157   3.488   2.911   3.222 -1.7952 -0.5097  2.6428
 5841SOL     OW29158   3.881   4.060   8.575  0.1247  0.8756 -0.0635
 5841SOL    HW129159   3.955   4.112   8.608 -0.0527  1.2186 -0.2102
 5841SOL    HW229160   3.812   4.074   8.640  0.4447  1.1518  0.2168
 5842SOL     OW29161   2.988   0.984  14.458  0.0076  0.3794 -0.2621
 5842SOL    HW129162   2.899   0.966  14.427  0.2901  0.2098 -0.9893
 5842SOL    HW229163   3.001   0.901  14.504 -1.8042 -0.7116 -1.7275
 5843SOL     OW29164   0.315   4.679   9.596  0.3230  0.1179 -0.5824
 5843SOL    HW129165   0.259   4.663   9.520  0.6704 -0.8090 -0.6530
 5843SOL    HW229166   0.241   4.703   9.652 -1.4288 -2.2170 -1.8922
 5844SOL     OW29167   0.404   3.016   6.242 -0.3797 -0.1964  0.0222
 5844SOL    HW129168   0.465   2.954   6.280 -0.7177  1.3393  3.0481
 5844SOL    HW229169   0.321   3.001   6.288 -0.9182 -2.4031 -1.6472
 5845SOL     OW29170   4.612   1.691   9.593 -0.4569 -0.0024 -0.1361
 5845SOL    HW129171   4.529   1.688   9.545 -0.6791 -0.4428  0.2775
 5845SOL    HW229172   4.634   1.784   9.587 -1.4998  0.2817  0.2766
 5846SOL     OW29173   4.339   0.559   2.487 -0.2072  0.5237 -0.1372
 5846SOL    HW129174   4.348   0.615   2.564 -1.7160 -0.4111  0.7242
 5846SOL    HW229175   4.383   0.615   2.423  1.0832 -0.3282  0.0180
 5847SOL     OW29176   0.488   3.127  17.338  0.0919  0.3135 -0.1509
 5847SOL    HW129177   0.463   3.077  17.416  1.7452 -1.9182 -1.0757
 5847SOL    HW229178   0.554   3.065  17.307  0.9649  1.7199 -1.1417
 5848SOL     OW29179   2.394   1.840  15.213 -0.9528 -0.1354 -0.2473
 5848SOL    HW129180   2.480   1.813  15.245 -1.5597 -1.2180  0.4705
 5848SOL    HW229181   2.386   1.929  15.246  0.5910  0.3515 -1.2483
 5849SOL     OW29182   3.287   1.523   4.288  0.5001 -0.0792 -0.5968
 5849SOL    HW129183   3.314   1.438   4.323  0.2071 -0.6177 -1.6882
 5849SOL    HW229184   3.249   1.503   4.203 -0.7865  0.1374 -0.0719
 5850SOL     OW29185   0.394   2.020   4.234 -0.1078  0.3880 -0.1659
 5850SOL    HW129186   0.365   2.044   4.322 -1.2410  2.5879 -1.1388
 5850SOL    HW229187   0.358   1.933   4.215  1.4180 -0.6294  1.5733
 5851SOL     OW29188   3.303   2.517   6.154 -0.1576  0.1950  0.3129
 5851SOL    HW129189   3.252   2.589   6.189 -1.2457  0.4132 -1.7380
 5851SOL    HW229190   3.386   2.527   6.201  0.3534 -0.8713 -0.3527
 5852SOL     OW29191   1.561   3.018  16.278 -0.7116 -0.3503  0.0291
 5852SOL    HW129192   1.573   2.926  16.257 -0.0649 -0.9973  3.1927
 5852SOL    HW229193   1.637   3.038  16.333 -1.1030 -1.7543  1.0873
 5853SOL     OW29194   3.842   1.197   6.145 -0.0971  0.4846  0.8315
 5853SOL    HW129195   3.818   1.238   6.061  0.6335 -0.4031  0.1899
 5853SOL    HW229196   3.767   1.217   6.201 -1.0673 -2.6395  0.6576
 5854SOL     OW29197   4.326   1.647  11.528 -0.1723  0.3233 -0.8469
 5854SOL    HW129198   4.278   1.730  11.522 -0.4218  0.1768 -0.8839
 5854SOL    HW229199   4.401   1.673  11.582 -0.3804 -0.7700 -0.0339
 5855SOL     OW29200   3.737   1.937   4.258 -0.3572 -0.3308 -0.3335
 5855SOL    HW129201   3.687   2.009   4.298 -0.5704 -0.4373 -0.4113
 5855SOL    HW229202   3.677   1.863   4.267 -2.3795  1.4358  0.6344
 5856SOL     OW29203   1.018   3.819   3.426 -0.4843 -0.0042  0.0912
 5856SOL    HW129204   0.958   3.800   3.353 -2.0431  0.7917  1.1624
 5856SOL    HW229205   0.981   3.901   3.458 -2.8552 -0.1443 -2.2247
 5857SOL     OW29206   4.011   1.239   2.324 -0.0650  0.1718  0.1884
 5857SOL    HW129207   4.061   1.187   2.387 -0.5750  0.6782  1.0089
 5857SOL    HW229208   3.947   1.175   2.294  1.8289 -1.6456 -0.0114
 5858SOL     OW29209   2.503   1.513   5.455  0.0391  0.3181  0.0628
 5858SOL    HW129210   2.454   1.432   5.437  1.2701 -0.2616 -0.7070
 5858SOL    HW229211   2.587   1.498   5.411 -0.3318 -1.3968 -0.0782
 5859SOL     OW29212   3.275   1.480  14.886  0.0509  0.6492 -0.0569
 5859SOL    HW129213   3.338   1.499  14.817  1.0257 -0.5563  0.5058
 5859SOL    HW229214   3.277   1.556  14.944 -0.7417 -1.1263  2.2860
 5860SOL     OW29215   4.303   4.546  11.971 -0.1708  0.3013 -0.0818
 5860SOL    HW129216   4.386   4.568  11.929  1.5042  0.5467  3.3617
 5860SOL    HW229217   4.267   4.635  11.971 -1.2117 -0.1105 -1.2445
 5861SOL     OW29218   4.620   1.273   1.202  0.4541 -0.0636  0.9105
 5861SOL    HW129219   4.597   1.366   1.205 -2.8796 -0.7413 -3.4434
 5861SOL    HW229220   4.578   1.241   1.122 -1.8757  2.2640  1.1932
 5862SOL     OW29221   2.465   4.214  14.975 -0.7467 -0.0495 -0.0646
 5862SOL    HW129222   2.464   4.306  15.002 -1.8133 -0.8309  2.5866
 5862SOL    HW229223   2.554   4.186  14.997 -0.7487  1.3224  1.7406
 5863SOL     OW29224   2.554   2.222  15.240  0.5977 -0.2454 -0.4018
 5863SOL    HW129225   2.493   2.163  15.284  0.1724  0.0399 -0.6096
 5863SOL    HW229226   2.577   2.272  15.318  1.8715 -1.9929  0.3367
 5864SOL     OW29227   3.885   3.869   4.001  0.3559 -0.3832 -0.1431
 5864SOL    HW129228   3.881   3.792   4.057  1.6659  1.3466  2.3405
 5864SOL    HW229229   3.882   3.929   4.076 -0.7947 -0.0941 -0.4185
 5865SOL     OW29230   0.962   1.610   9.557 -0.2172  0.1269  0.2950
 5865SOL    HW129231   0.946   1.693   9.603  1.1215  0.1552  0.7181
 5865SOL    HW229232   1.041   1.582   9.603 -1.7041 -2.6560  1.1080
 5866SOL     OW29233   4.261   1.268   2.047 -0.0280 -0.3874  0.3488
 5866SOL    HW129234   4.342   1.270   1.995  0.1643  2.1746  0.7126
 5866SOL    HW229235   4.195   1.248   1.982 -0.8270  1.8679  0.4472
 5867SOL     OW29236   0.587   3.602   4.917 -0.1393  0.4656  0.6165
 5867SOL    HW129237   0.541   3.657   4.854 -0.2785 -0.1506  0.1887
 5867SOL    HW229238   0.679   3.614   4.893  0.0419  0.1319  1.1322
 5868SOL     OW29239   1.040   0.712   7.843 -0.6205  0.6166 -0.4757
 5868SOL    HW129240   1.128   0.746   7.864 -0.2634 -1.1344  0.7978
 5868SOL    HW229241   1.022   0.741   7.753 -1.0233 -0.4029 -0.7144
 5869SOL     OW29242   0.814   1.497   8.934  0.3552  0.2602 -0.3491
 5869SOL    HW129243   0.890   1.441   8.922  1.5784  1.7999  0.1206
 5869SOL    HW229244   0.835   1.538   9.018  1.2434 -1.0014  0.0316
 5870SOL     OW29245   3.329   2.546   3.640 -0.0564 -0.0753  0.5246
 5870SOL    HW129246   3.236   2.567   3.633  0.3150  0.8423 -1.7440
 5870SOL    HW229247   3.354   2.634   3.666  0.3964  0.5889 -2.1670
 5871SOL     OW29248   1.229   4.081   5.725 -0.4185 -0.0373  0.0178
 5871SOL    HW129249   1.292   4.150   5.707  1.8224 -2.4477 -1.4546
 5871SOL    HW229250   1.141   4.119   5.721  0.0385  0.7912 -2.3123
 5872SOL     OW29251   1.774   2.563  13.358 -0.3821  0.2832  0.0198
 5872SOL    HW129252   1.850   2.582  13.303  0.2539 -1.4036  0.2997
 5872SOL    HW229253   1.759   2.469  13.342 -1.7416 -0.1690  3.8723
 5873SOL     OW29254   3.962   0.433   7.788  0.1234  0.2345  0.4727
 5873SOL    HW129255   3.919   0.358   7.747  0.2539  0.8431 -0.7909
 5873SOL    HW229256   3.885   0.479   7.822  0.9170  3.2035 -1.6774
 5874SOL     OW29257   1.811   3.947  11.737 -0.4073 -0.1919 -0.3252
 5874SOL    HW129258   1.864   3.983  11.808 -0.2747  2.1751 -1.6134
 5874SOL    HW229259   1.720   3.967  11.755  0.1913  3.7791 -1.6477
 5875SOL     OW29260   3.022   0.640   6.514  0.1725  0.3437  0.0168
 5875SOL    HW129261   3.076   0.593   6.578  0.6974  0.5614 -0.2675
 5875SOL    HW229262   3.061   0.727   6.518  2.1211 -0.4990 -0.5798
 5876SOL     OW29263   4.031   4.347   0.699 -0.1868 -0.5542  0.2706
 5876SOL    HW129264   4.094   4.290   0.743  0.4737  1.4244  1.8306
 5876SOL    HW229265   4.022   4.424   0.755  0.2849 -1.5330  1.6992
 5877SOL     OW29266   1.243   0.701   8.422 -0.2713  0.2352  0.3986
 5877SOL    HW129267   1.202   0.773   8.373 -1.3189 -0.8477 -0.3083
 5877SOL    HW229268   1.293   0.659   8.353 -0.9207 -0.7439  0.5207
 5878SOL     OW29269   0.489   4.407   2.035  0.3667  0.2794 -0.8287
 5878SOL    HW129270   0.445   4.324   2.014  0.3391  0.0280  0.2522
 5878SOL    HW229271   0.434   4.470   1.988 -2.3254 -0.8506  0.8626
 5879SOL     OW29272   4.497   1.385   5.439  0.5631  1.3922  0.7018
 5879SOL    HW129273   4.429   1.408   5.502 -0.4793  0.7926 -0.2244
 5879SOL    HW229274   4.569   1.354   5.493  2.3496  1.8604 -1.3900
 5880SOL     OW29275   3.331   1.116  14.327 -0.0285 -0.2947  0.5954
 5880SOL    HW129276   3.286   1.200  14.335  1.6534  0.4842  2.0650
 5880SOL    HW229277   3.296   1.100  14.240 -0.1208  1.1749  0.3760
 5881SOL     OW29278   0.847   4.653   4.111 -0.0462 -0.5604  0.6922
 5881SOL    HW129279   0.790   4.660   4.189  1.8661 -2.1171  2.2287
 5881SOL    HW229280   0.922   4.702   4.144  1.0787 -0.6131 -1.8840
 5882SOL     OW29281   2.430   3.077   2.592 -0.2028  0.4277 -0.1707
 5882SOL    HW129282   2.470   3.161   2.569  0.5185  0.0456 -0.3096
 5882SOL    HW229283   2.338   3.101   2.587  0.1084  1.2519 -1.9309
 5883SOL     OW29284   0.777   2.668   5.094  0.2376 -0.5369 -0.7987
 5883SOL    HW129285   0.737   2.666   5.007  0.9887  0.3224 -1.1685
 5883SOL    HW229286   0.735   2.599   5.145  2.1210 -1.2217 -0.1542
 5884SOL     OW29287   4.287   2.263  12.385  0.1168  0.1380 -0.5049
 5884SOL    HW129288   4.291   2.187  12.442 -2.1227 -0.3646 -1.0131
 5884SOL    HW229289   4.246   2.223  12.308  1.1100 -2.2320  0.2357
 5885SOL     OW29290   0.136   3.361   1.558 -0.2757  0.4192 -0.7112
 5885SOL    HW129291   0.095   3.437   1.599 -2.1412 -0.2377 -1.3404
 5885SOL    HW229292   0.101   3.370   1.469  0.4700  2.4791 -0.7909
 5886SOL     OW29293   4.344   1.846  12.748  0.0795 -0.1078 -0.2184
 5886SOL    HW129294   4.360   1.912  12.816  1.8779 -2.4733  1.6594
 5886SOL    HW229295   4.412   1.783  12.770  0.8460  1.2998  1.4763
 5887SOL     OW29296   2.535   1.131   9.247  0.0437 -0.9533 -0.3319
 5887SOL    HW129297   2.447   1.167   9.260  1.8642  2.4120  2.7320
 5887SOL    HW229298   2.522   1.063   9.181  0.7061 -2.4109  1.0397
 5888SOL     OW29299   0.176   4.450   2.040  0.8646 -1.0377  0.0765
 5888SOL    HW129300   0.223   4.520   1.994 -0.0124  0.8707  2.0764
 5888SOL    HW229301   0.164   4.493   2.124  0.7873  0.7811 -0.8707
 5889SOL     OW29302   2.102   4.276   5.813 -0.1417  0.2975 -0.0787
 5889SOL    HW129303   2.069   4.366   5.813 -1.0144 -0.0261 -0.5355
 5889SOL    HW229304   2.190   4.288   5.848 -0.6162  1.8062  0.6143
 5890SOL     OW29305   3.531   4.216   9.024 -0.4640  0.0386  0.5303
 5890SOL    HW129306   3.513   4.134   9.070  0.8639 -0.6615 -0.2156
 5890SOL    HW229307   3.611   4.247   9.067 -1.1423 -0.5876  2.2617
 5891SOL     OW29308   0.914   3.826  13.097  0.2435 -0.9743 -0.6322
 5891SOL    HW129309   0.860   3.768  13.151 -1.2501  0.1538 -0.9155
 5891SOL    HW229310   0.990   3.830  13.155 -0.3185 -1.3115  0.1204
 5892SOL     OW29311   1.234   3.367  16.230 -0.1701 -0.6476 -0.4304
 5892SOL    HW129312   1.145   3.394  16.250  0.1898 -0.0986  0.4302
 5892SOL    HW229313   1.252   3.300  16.296 -2.2713 -1.1725 -0.3935
 5893SOL     OW29314   2.366   2.968  10.483 -0.3377  0.2761  0.0258
 5893SOL    HW129315   2.383   2.914  10.560 -0.4003  2.0641  1.3063
 5893SOL    HW229316   2.334   3.044  10.531 -1.0098  0.0126 -0.0110
 5894SOL     OW29317   1.227   2.197   2.128  0.2736 -0.0808 -0.2654
 5894SOL    HW129318   1.186   2.260   2.187  0.1323  0.7022 -1.2103
 5894SOL    HW229319   1.266   2.247   2.057  3.3201 -3.0500 -0.6820
 5895SOL     OW29320   0.836   3.763  11.497  0.2743 -0.0991 -0.1068
 5895SOL    HW129321   0.883   3.791  11.418  0.5439  2.4577  0.9454
 5895SOL    HW229322   0.909   3.763  11.559 -0.3378 -0.6813  0.6299
 5896SOL     OW29323   0.919   2.254  16.758  0.4780  0.0088  0.4906
 5896SOL    HW129324   0.898   2.161  16.755  3.1444 -0.5326 -1.1661
 5896SOL    HW229325   0.843   2.288  16.806  0.2262  0.0393  0.0695
 5897SOL     OW29326   2.754   0.604   9.226  0.0225  0.2598 -1.0058
 5897SOL    HW129327   2.730   0.650   9.146  1.4430  1.1906 -0.8888
 5897SOL    HW229328   2.836   0.569   9.190  1.2142  0.9314  1.0995
 5898SOL     OW29329   0.115   4.240   3.048  0.0806 -0.0637  0.0749
 5898SOL    HW129330   0.123   4.304   3.119  2.8768  1.0687 -1.2746
 5898SOL    HW229331   0.119   4.296   2.970  1.6716 -1.2028 -0.6646
 5899SOL     OW29332   2.315   0.731  10.608 -0.2222  0.2960  0.5569
 5899SOL    HW129333   2.389   0.711  10.665 -0.2265  0.4365  0.6126
 5899SOL    HW229334   2.357   0.792  10.549 -1.1986  1.3186  0.9187
 5900SOL     OW29335   2.315   0.397   0.343  0.5631  0.0749  0.6318
 5900SOL    HW129336   2.292   0.309   0.314 -2.8409  0.6342  1.6563
 5900SOL    HW229337   2.289   0.406   0.435  0.2183 -1.4899  0.6754
 5901SOL     OW29338   4.521   2.924  12.511  0.3504 -0.0041 -0.1923
 5901SOL    HW129339   4.455   2.928  12.580 -0.0146 -1.8806 -0.4378
 5901SOL    HW229340   4.463   2.951  12.440 -0.3751  1.5086  0.9782
 5902SOL     OW29341   2.580   2.583   8.337 -0.5232 -0.0673  0.0586
 5902SOL    HW129342   2.649   2.601   8.401  0.0596  0.3674 -0.7004
 5902SOL    HW229343   2.506   2.558   8.392 -0.0998 -0.5609  0.3974
 5903SOL     OW29344   1.648   2.013   6.770  0.0823  0.2346 -0.1201
 5903SOL    HW129345   1.681   1.947   6.709 -0.7129 -1.3287  1.1441
 5903SOL    HW229346   1.680   1.971   6.849  0.8243  2.1420  0.6038
 5904SOL     OW29347   3.339   3.679  17.125  0.3798 -0.3004 -0.0903
 5904SOL    HW129348   3.276   3.637  17.068  1.1405 -1.2054 -0.2632
 5904SOL    HW229349   3.296   3.695  17.209  1.2614  2.5118 -0.1777
 5905SOL     OW29350   2.920   4.262   7.187 -0.8160  0.3372  0.5429
 5905SOL    HW129351   2.927   4.189   7.126  0.6967 -0.0757  1.2144
 5905SOL    HW229352   2.882   4.214   7.261 -1.8865  2.1034  1.1359
 5906SOL     OW29353   2.667   1.821   5.397 -0.1737  0.2767  0.8050
 5906SOL    HW129354   2.573   1.808   5.407 -0.3280  0.3598 -0.5421
 5906SOL    HW229355   2.683   1.804   5.304  0.1904  4.7242  0.0267
 5907SOL     OW29356   2.294   1.292  10.195  1.0539  0.0937 -0.4605
 5907SOL    HW129357   2.245   1.349  10.254 -1.1876 -0.1276 -2.1276
 5907SOL    HW229358   2.254   1.205  10.205  0.2400  0.6557  1.1070
 5908SOL     OW29359   2.778   0.823   0.929  0.1980  0.2822  0.4927
 5908SOL    HW129360   2.811   0.747   0.881  1.8526  1.0288  0.4382
 5908SOL    HW229361   2.683   0.811   0.933  0.4972 -1.7171  1.8374
 5909SOL     OW29362   2.974   1.376  12.418  0.0871  0.4066 -0.0407
 5909SOL    HW129363   2.991   1.301  12.361 -0.5956 -0.5601  1.0135
 5909SOL    HW229364   2.939   1.319  12.487 -2.0491  1.1312 -0.5288
 5910SOL     OW29365   3.441   2.952   9.255  0.0424  0.7244 -0.3069
 5910SOL    HW129366   3.524   2.941   9.300  0.0591 -2.2243 -1.0624
 5910SOL    HW229367   3.434   2.872   9.202 -1.2782  0.3939  0.3384
 5911SOL     OW29368   2.209   1.839  16.882 -0.3004  0.1442  0.5061
 5911SOL    HW129369   2.145   1.861  16.950 -1.3368 -1.7234  0.1169
 5911SOL    HW229370   2.284   1.809  16.934  0.6075  0.4714 -0.6105
 5912SOL     OW29371   1.285   2.458  12.989  0.0423 -0.0305  0.3370
 5912SOL    HW129372   1.211   2.415  12.947 -1.3713  2.3334  0.3956
 5912SOL    HW229373   1.297   2.531  12.929  0.5967  1.5537  2.3781
 5913SOL     OW29374   2.492   3.176   5.248  0.0063  0.1604  0.1014
 5913SOL    HW129375   2.494   3.124   5.167  0.3499  0.0331  0.1946
 5913SOL    HW229376   2.448   3.257   5.221 -0.3009  0.1237  0.4932
 5914SOL     OW29377   3.544   2.292   6.425  0.8509 -0.5269 -0.3750
 5914SOL    HW129378   3.609   2.234   6.386 -1.3862 -1.2616 -3.0168
 5914SOL    HW229379   3.524   2.359   6.360  1.4468  0.8846  0.9077
 5915SOL     OW29380   4.270   2.334   9.250 -0.9515  0.0756 -0.1805
 5915SOL    HW129381   4.347   2.280   9.235 -1.7603 -1.1328  0.0103
 5915SOL    HW229382   4.235   2.298   9.332  1.3751  1.6098  1.4801
 5916SOL     OW29383   0.966   4.307  13.685  0.2873 -0.1809 -0.0927
 5916SOL    HW129384   0.949   4.298  13.779  0.0890 -1.3876 -0.2457
 5916SOL    HW229385   0.904   4.378  13.667  0.7721  0.5720  1.2498
 5917SOL     OW29386   3.501   0.589   2.888  0.0092  0.1046 -0.4857
 5917SOL    HW129387   3.463   0.543   2.813 -3.0279 -0.5625  1.4469
 5917SOL    HW229388   3.432   0.580   2.954  0.5503  2.3764  0.3783
 5918SOL     OW29389   1.436   4.608   4.463  0.5097 -1.0721  0.2140
 5918SOL    HW129390   1.398   4.564   4.539 -1.6973 -0.0622 -0.2983
 5918SOL    HW229391   1.361   4.613   4.404 -0.1611 -0.1103  1.1404
 5919SOL     OW29392   4.076   3.530  13.125 -0.2177  0.6667  0.0746
 5919SOL    HW129393   3.997   3.579  13.103 -0.8895 -0.1124  0.7847
 5919SOL    HW229394   4.070   3.455  13.065  1.0213  0.0642  0.7066
 5920SOL     OW29395   4.720   0.989   2.290 -0.3090  0.0660 -0.9492
 5920SOL    HW129396   4.671   1.028   2.362  1.0747 -2.0444  1.1596
 5920SOL    HW229397   4.686   0.900   2.297 -2.8751  0.9332 -2.7360
 5921SOL     OW29398   0.467   1.982   9.617  0.1802  0.0444  0.3506
 5921SOL    HW129399   0.419   2.042   9.673  0.1310  1.1300 -0.8601
 5921SOL    HW229400   0.403   1.911   9.618  0.5208 -0.2615  0.7341
 5922SOL     OW29401   1.643   3.485   8.642  0.1330 -0.7169 -0.2246
 5922SOL    HW129402   1.630   3.564   8.694 -1.1015 -1.2144  0.2430
 5922SOL    HW229403   1.643   3.420   8.712  0.3847 -0.9119 -0.4062
 5923SOL     OW29404   3.203   2.274  10.517  0.1239  0.4434 -0.6771
 5923SOL    HW129405   3.140   2.242  10.582  0.3978  0.6823 -0.2936
 5923SOL    HW229406   3.203   2.202  10.454  1.7481 -0.6188  0.5291
 5924SOL     OW29407   1.460   4.657   0.380 -0.1297  0.1262  0.5381
 5924SOL    HW129408   1.369   4.639   0.359 -0.9794  4.1624  0.6988
 5924SOL    HW229409   1.492   4.697   0.299 -0.8082  0.5510  0.4814
 5925SOL     OW29410   1.096   1.917   6.219  0.0288  0.4285 -0.1613
 5925SOL    HW129411   1.130   1.873   6.141  0.6584  0.7426 -0.0652
 5925SOL    HW229412   1.150   1.867   6.281  1.5097 -2.3444 -3.7135
 5926SOL     OW29413   2.270   0.862   5.057  0.7801  0.0797 -0.5476
 5926SOL    HW129414   2.259   0.804   4.981 -1.6215  0.1979 -0.3042
 5926SOL    HW229415   2.319   0.937   5.023  1.9135 -0.2345  0.4087
 5927SOL     OW29416   1.353   4.594  14.318  0.0461 -0.2049 -0.0325
 5927SOL    HW129417   1.387   4.616  14.405  1.5069 -0.6923 -0.4651
 5927SOL    HW229418   1.400   4.654  14.260 -0.9505  0.4657 -0.1451
 5928SOL     OW29419   3.359   2.722  12.349  0.6482  0.4091 -0.1506
 5928SOL    HW129420   3.444   2.688  12.377  0.8851 -1.5283 -3.1850
 5928SOL    HW229421   3.347   2.794  12.411 -1.8155 -0.5271  0.4309
 5929SOL     OW29422   4.629   0.274  16.779 -0.4950  0.5265  0.2139
 5929SOL    HW129423   4.679   0.355  16.787  1.9538 -1.2403  2.8982
 5929SOL    HW229424   4.659   0.236  16.862  2.8554  0.3461 -1.0672
 5930SOL     OW29425   0.308   2.545   1.321 -0.2177  0.5937 -0.3484
 5930SOL    HW129426   0.269   2.610   1.379  1.1406  1.0527  0.0666
 5930SOL    HW229427   0.261   2.469   1.354 -0.9950 -0.0218 -2.8840
 5931SOL     OW29428   1.980   4.491   7.533  0.3858 -0.2586 -0.2531
 5931SOL    HW129429   1.888   4.466   7.520 -0.4296  1.8733  1.4613
 5931SOL    HW229430   2.024   4.442   7.463  1.4734 -0.4972  0.5984
 5932SOL     OW29431   1.446   2.654   4.266  0.1096  0.1892 -1.0953
 5932SOL    HW129432   1.438   2.748   4.250 -1.3409  0.4443  1.1007
 5932SOL    HW229433   1.410   2.650   4.355 -1.1829 -1.0133 -1.6753
 5933SOL     OW29434   4.725   2.338  11.233  0.5224  0.1688  0.3908
 5933SOL    HW129435   0.025   2.333  11.320 -1.3961  0.5099  1.2985
 5933SOL    HW229436   4.681   2.422  11.221  1.3888  0.3322 -1.6022
 5934SOL     OW29437   2.390   2.514   7.329  0.0055 -0.2127  0.1122
 5934SOL    HW129438   2.295   2.517   7.316  0.1704 -0.0030 -1.0507
 5934SOL    HW229439   2.395   2.421   7.349 -0.5085 -0.7581 -2.2579
 5935SOL     OW29440   2.676   1.779   4.685 -0.1158  0.1745 -0.0160
 5935SOL    HW129441   2.750   1.806   4.739 -2.7797 -1.6039  4.5326
 5935SOL    HW229442   2.602   1.826   4.723 -1.1026  0.2836 -2.0767
 5936SOL     OW29443   2.154   3.764   5.826  0.3355  0.2648 -0.1784
 5936SOL    HW129444   2.173   3.857   5.834 -0.3034  0.4206 -0.4678
 5936SOL    HW229445   2.082   3.754   5.888  2.0849  1.0942  2.0143
 5937SOL     OW29446   4.073   0.683   7.428 -0.2065 -0.1552 -0.3587
 5937SOL    HW129447   3.990   0.684   7.380  0.3680 -2.6153 -1.4057
 5937SOL    HW229448   4.088   0.591   7.450 -0.4020 -0.1481 -0.2007
 5938SOL     OW29449   0.258   3.429   8.202  0.2294  0.7120 -0.2607
 5938SOL    HW129450   0.216   3.397   8.282 -0.2088 -1.6382 -1.4322
 5938SOL    HW229451   0.340   3.381   8.214  0.5021  1.2298 -0.0592
 5939SOL     OW29452   4.406   0.775   3.018 -0.2557  0.4935  0.0586
 5939SOL    HW129453   4.458   0.700   2.989 -0.2830  0.6972 -0.5343
 5939SOL    HW229454   4.320   0.758   2.980 -1.6371 -0.5122  3.6897
 5940SOL     OW29455   4.532   2.398   1.604  0.7279  0.6339 -0.0919
 5940SOL    HW129456   4.533   2.491   1.627  0.7529  0.5775  0.1354
 5940SOL    HW229457   4.625   2.379   1.589  0.8480 -0.4767  2.0394
 5941SOL     OW29458   3.312   4.077   5.375 -0.7771  0.6140  0.6648
 5941SOL    HW129459   3.343   4.016   5.441  0.4182 -0.6552 -1.0705
 5941SOL    HW229460   3.302   4.014   5.304  0.7427  0.3971  0.6336
 5942SOL     OW29461   0.166   3.828   6.329  0.0147  0.1082 -0.5016
 5942SOL    HW129462   0.208   3.890   6.389 -3.2858  0.7489  1.1606
 5942SOL    HW229463   0.072   3.839   6.346  0.1300 -0.2068  0.3676
 5943SOL     OW29464   2.062   2.568   7.384 -0.1358  0.4007  0.0670
 5943SOL    HW129465   2.083   2.654   7.350 -1.3314  0.6830  0.0381
 5943SOL    HW229466   2.118   2.558   7.461  2.7214 -0.8031 -2.1733
 5944SOL     OW29467   3.934   2.375   4.979  0.5069 -0.0468  0.1468
 5944SOL    HW129468   3.844   2.389   5.008  0.4403 -2.0087  0.8420
 5944SOL    HW229469   3.955   2.467   4.966 -0.8070  0.5932  2.4954
 5945SOL     OW29470   3.317   0.129   8.436  0.4952 -0.0068 -0.3854
 5945SOL    HW129471   3.351   0.042   8.458 -0.7520 -0.2272  0.7046
 5945SOL    HW229472   3.356   0.183   8.505  2.3774 -0.8497 -0.7793
 5946SOL     OW29473   2.951   3.385   9.544 -0.3810 -0.4212  0.0164
 5946SOL    HW129474   2.870   3.436   9.552 -0.0545  0.0313  0.3623
 5946SOL    HW229475   2.995   3.405   9.626  0.1362  0.9053 -0.5887
 5947SOL     OW29476   4.323   0.622   4.875  0.5980  0.0794 -0.0077
 5947SOL    HW129477   4.406   0.669   4.863 -0.6150  1.8685 -1.3317
 5947SOL    HW229478   4.345   0.539   4.832 -0.3793  0.4660 -1.2789
 5948SOL     OW29479   1.552   1.172   3.621  0.1828 -0.7239 -0.0531
 5948SOL    HW129480   1.462   1.147   3.600 -0.6294  3.5093 -1.5017
 5948SOL    HW229481   1.553   1.147   3.713  1.1735  2.0303  0.6917
 5949SOL     OW29482   1.534   2.526   2.478 -0.4247  0.0221  0.5991
 5949SOL    HW129483   1.574   2.613   2.486 -0.3618  0.1195 -0.7828
 5949SOL    HW229484   1.493   2.513   2.564  0.4722 -1.8510  0.7441
 5950SOL     OW29485   3.000   1.387   2.624  0.0243  0.1965 -0.2785
 5950SOL    HW129486   3.008   1.304   2.671  0.4436  1.7682  2.4496
 5950SOL    HW229487   3.089   1.395   2.590  0.9142 -1.1973  1.7003
 5951SOL     OW29488   0.268   1.836   7.371 -0.7567  0.4830 -0.5016
 5951SOL    HW129489   0.223   1.918   7.390 -1.0849  0.5071 -1.3673
 5951SOL    HW229490   0.307   1.856   7.286  2.2095  0.7536  0.9228
 5952SOL     OW29491   2.973   3.976   8.755  0.1869 -0.3865  0.4699
 5952SOL    HW129492   2.930   3.890   8.755  0.2941 -0.4450  0.9810
 5952SOL    HW229493   2.904   4.024   8.801  0.8766 -0.5072  1.6542
 5953SOL     OW29494   1.871   4.693   1.604 -0.4826 -0.5013  0.0386
 5953SOL    HW129495   1.902   4.633   1.673  2.0074 -1.1904 -1.6707
 5953SOL    HW229496   1.876   4.636   1.528 -0.8626  0.5276 -0.7478
 5954SOL     OW29497   1.560   2.094  16.216 -0.4917  0.3147  0.1638
 5954SOL    HW129498   1.581   2.146  16.293  0.3619  2.3828 -1.4385
 5954SOL    HW229499   1.610   2.149  16.155 -0.5030  0.1402 -0.0035
 5955SOL     OW29500   1.717   2.722   6.096 -0.2561  0.0172  0.1231
 5955SOL    HW129501   1.670   2.739   6.178 -0.6073  0.3383 -0.1440
 5955SOL    HW229502   1.747   2.810   6.075 -1.7826  0.5044 -0.0641
 5956SOL     OW29503   4.396   2.357  12.978  0.1393  0.2334  0.0148
 5956SOL    HW129504   4.322   2.404  12.939  1.7895  4.1468  1.6474
 5956SOL    HW229505   4.460   2.361  12.907  0.7828  1.6870  0.6745
 5957SOL     OW29506   2.629   3.727   4.731  0.2456 -0.8184  0.8497
 5957SOL    HW129507   2.614   3.804   4.675 -0.7339 -1.1986  0.5902
 5957SOL    HW229508   2.569   3.659   4.700  0.4739 -0.8356  0.4423
 5958SOL     OW29509   2.872   0.423  14.467 -0.1384  0.0460  0.1522
 5958SOL    HW129510   2.812   0.378  14.527 -1.6359 -2.1965 -3.0326
 5958SOL    HW229511   2.940   0.356  14.458 -0.9602 -0.4369 -2.3534
 5959SOL     OW29512   0.860   2.040   3.094  0.3655  0.2631  0.5126
 5959SOL    HW129513   0.808   1.962   3.078  0.3137  0.3201  0.4021
 5959SOL    HW229514   0.802   2.104   3.137 -2.1283 -1.4292 -0.3402
 5960SOL     OW29515   4.628   3.374   6.468  0.2693  0.4559 -0.7070
 5960SOL    HW129516   4.707   3.327   6.442  0.3377  0.6493 -0.8459
 5960SOL    HW229517   4.553   3.320   6.443  2.4198 -3.1897  0.7596
 5961SOL     OW29518   3.433   3.903  12.132  0.7189 -0.1672 -0.3231
 5961SOL    HW129519   3.398   3.924  12.045 -3.7270  2.3627  2.0842
 5961SOL    HW229520   3.521   3.941  12.126  0.9970 -0.7589 -0.0228
 5962SOL     OW29521   2.625   3.313   4.644  0.2164  0.1809 -0.5631
 5962SOL    HW129522   2.564   3.377   4.681 -0.1325 -1.3438  1.5305
 5962SOL    HW229523   2.594   3.309   4.554 -2.1083  0.1734  0.2232
 5963SOL     OW29524   2.241   1.106  16.488  0.2092  0.7868  0.2383
 5963SOL    HW129525   2.212   1.083  16.400  1.6110 -1.2228  0.3087
 5963SOL    HW229526   2.200   1.030  16.529 -0.6489  0.8743 -0.4643
 5964SOL     OW29527   2.718   4.493  11.961 -0.0455 -0.2877 -0.2866
 5964SOL    HW129528   2.755   4.562  12.015  0.3876 -0.7591  0.0268
 5964SOL    HW229529   2.713   4.420  12.023 -0.3556 -0.3261 -0.3565
 5965SOL     OW29530   2.418   4.022   1.359  0.1054  0.0360  0.0180
 5965SOL    HW129531   2.449   3.982   1.278  0.4872 -1.2201  0.7788
 5965SOL    HW229532   2.488   3.998   1.420  0.0654 -1.8505 -0.7000
 5966SOL     OW29533   3.556   3.505   6.586 -0.0296 -0.4303 -0.5069
 5966SOL    HW129534   3.604   3.463   6.514 -1.2560 -3.2425  0.3124
 5966SOL    HW229535   3.512   3.429   6.625  2.4995 -0.6221  1.9449
 5967SOL     OW29536   4.350   0.304  17.021 -0.0482  0.2086  0.4650
 5967SOL    HW129537   4.440   0.338  17.022  0.0566 -0.0617  0.1172
 5967SOL    HW229538   4.344   0.276  16.930  1.7185 -1.5309  0.8874
 5968SOL     OW29539   0.546   0.277   8.154 -0.0827 -0.3511  0.2688
 5968SOL    HW129540   0.583   0.310   8.073 -1.4149  0.2342 -0.1110
 5968SOL    HW229541   0.572   0.348   8.213 -0.0656  0.5789 -0.8588
 5969SOL     OW29542   1.644   4.380   6.132 -0.3749 -0.3654  0.3314
 5969SOL    HW129543   1.683   4.407   6.048 -3.3713 -0.0281 -0.9528
 5969SOL    HW229544   1.667   4.288   6.129 -1.1557 -0.5179 -0.9411
 5970SOL     OW29545   0.776   4.558   5.044  0.0356 -0.0875  0.6981
 5970SOL    HW129546   0.839   4.574   5.114 -0.2202  0.1502  0.8755
 5970SOL    HW229547   0.824   4.489   4.998  1.9265  0.7765  1.3490
 5971SOL     OW29548   3.283   0.114   7.763 -0.6041 -0.2941  0.1245
 5971SOL    HW129549   3.374   0.109   7.793 -0.6652 -0.4148  0.2947
 5971SOL    HW229550   3.252   0.204   7.772 -1.1992 -0.5328  0.4777
 5972SOL     OW29551   1.292   4.606   2.152  0.6246  0.8420  0.4411
 5972SOL    HW129552   1.217   4.657   2.124 -0.2069  0.3674  1.7860
 5972SOL    HW229553   1.314   4.564   2.069 -0.5304  0.7783  0.1721
 5973SOL     OW29554   3.061   0.221  11.632 -0.0935  0.4539  0.8768
 5973SOL    HW129555   3.038   0.130  11.617  0.0570  0.6911 -0.8060
 5973SOL    HW229556   3.033   0.233  11.723  0.1036 -0.4057  1.0485
 5974SOL     OW29557   4.690   1.720   5.100 -0.3720 -0.2090  0.0008
 5974SOL    HW129558   0.032   1.670   5.097  1.5282  2.8465  0.4799
 5974SOL    HW229559   4.636   1.658   5.150 -0.4243 -0.8127 -0.8104
 5975SOL     OW29560   1.213   1.166   8.039 -0.5884  0.3672  0.1504
 5975SOL    HW129561   1.255   1.153   7.954 -1.2438 -1.2629  0.0813
 5975SOL    HW229562   1.125   1.132   8.025 -0.3554 -0.8958  1.7451
 5976SOL     OW29563   4.518   0.753   7.796 -0.2803  0.0072  0.0304
 5976SOL    HW129564   4.537   0.694   7.869 -2.2445 -1.5030 -0.6827
 5976SOL    HW229565   4.552   0.709   7.717 -1.2683 -1.0553  0.1891
 5977SOL     OW29566   1.907   3.329   2.370 -0.2833  0.2044  0.1821
 5977SOL    HW129567   1.987   3.358   2.414  0.7316 -1.1941 -0.7335
 5977SOL    HW229568   1.875   3.288   2.451 -0.0417  2.8365  1.6044
 5978SOL     OW29569   1.271   0.627   7.671  0.2213 -0.0083  0.3763
 5978SOL    HW129570   1.183   0.664   7.673  0.4381  0.4047  2.1080
 5978SOL    HW229571   1.323   0.708   7.667 -1.9393  1.4172  1.1419
 5979SOL     OW29572   1.278   2.841   2.642 -0.4656 -0.3445  0.1042
 5979SOL    HW129573   1.267   2.818   2.550  1.2360 -0.9115  0.0483
 5979SOL    HW229574   1.336   2.917   2.640 -0.5380 -0.3161 -0.8102
 5980SOL     OW29575   3.005   2.494  14.035  0.2729 -0.5919  0.1676
 5980SOL    HW129576   3.028   2.512  14.126 -0.7634 -0.6210  0.4317
 5980SOL    HW229577   2.919   2.454  14.046 -0.2008  0.3718 -0.0524
 5981SOL     OW29578   1.802   1.086   8.330 -0.1704  0.1377 -0.0423
 5981SOL    HW129579   1.823   1.136   8.409 -0.8014  2.5133 -1.3837
 5981SOL    HW229580   1.884   1.040   8.308 -0.3767  0.3630 -1.2924
 5982SOL     OW29581   2.828   2.563   2.135  0.4545 -0.1194 -0.5590
 5982SOL    HW129582   2.763   2.604   2.192  0.3880 -0.8311 -0.1231
 5982SOL    HW229583   2.792   2.478   2.111  2.3167 -1.0898  0.0750
 5983SOL     OW29584   0.775   3.990   8.078 -0.0550  0.9458 -0.5482
 5983SOL    HW129585   0.802   3.899   8.079 -0.4636  0.8330  0.4212
 5983SOL    HW229586   0.719   3.991   8.000  0.2404  0.1379 -0.7671
 5984SOL     OW29587   3.070   1.841  17.639 -0.1133 -0.3565  0.3114
 5984SOL    HW129588   3.114   1.776  17.693 -1.2377 -1.9457 -0.6922
 5984SOL    HW229589   3.135   1.870  17.574 -0.3546  0.1151  0.2752
 5985SOL     OW29590   0.596   4.040   2.852  0.0035  0.2855 -0.2034
 5985SOL    HW129591   0.533   4.112   2.861  2.4802  2.5750 -1.2691
 5985SOL    HW229592   0.596   4.039   2.756 -0.1239  0.1334 -0.2015
 5986SOL     OW29593   3.444   2.561   1.317 -0.2620 -0.0023 -0.4772
 5986SOL    HW129594   3.352   2.533   1.316  0.0877 -1.1766  0.9278
 5986SOL    HW229595   3.484   2.475   1.303  1.0566  0.8279 -1.8044
 5987SOL     OW29596   1.145   3.225   3.599  0.9103  0.2711 -0.3204
 5987SOL    HW129597   1.193   3.145   3.577  0.1041 -0.2400 -0.1761
 5987SOL    HW229598   1.198   3.279   3.539 -0.2043  1.2542 -0.4096
 5988SOL     OW29599   4.270   1.279   4.344 -0.5706 -0.6176 -0.6249
 5988SOL    HW129600   4.335   1.269   4.274 -0.0087  0.4655 -0.2536
 5988SOL    HW229601   4.190   1.278   4.291 -0.5484  0.3668 -0.6630
 5989SOL     OW29602   4.428   0.571   1.861 -0.3916  0.2385 -0.6212
 5989SOL    HW129603   4.353   0.555   1.919  1.3867 -1.9215  1.0959
 5989SOL    HW229604   4.393   0.562   1.773  0.3026  0.0143 -0.8760
 5990SOL     OW29605   3.924   0.832  15.124  0.0038 -0.0778  0.5080
 5990SOL    HW129606   3.870   0.790  15.057  0.6246  0.7762 -0.5213
 5990SOL    HW229607   3.956   0.752  15.166 -0.0854  0.4261  1.5324
 5991SOL     OW29608   3.348   3.618   4.101  0.0206 -0.2599 -0.1985
 5991SOL    HW129609   3.262   3.575   4.100 -0.2955  0.4482 -2.7875
 5991SOL    HW229610   3.323   3.671   4.177 -1.4045 -0.5011 -0.4930
 5992SOL     OW29611   0.363   2.446   6.429 -0.1143  0.0547  0.3520
 5992SOL    HW129612   0.329   2.366   6.469 -1.3667  0.1581 -0.4976
 5992SOL    HW229613   0.336   2.512   6.492 -1.1494  0.1976 -0.2523
 5993SOL     OW29614   2.498   0.641  10.789 -0.3847 -0.8173  0.4778
 5993SOL    HW129615   2.462   0.597  10.866 -1.3215  0.2256  0.6429
 5993SOL    HW229616   2.584   0.667  10.821 -0.6719  1.1143 -0.3124
 5994SOL     OW29617   4.426   4.458  17.276 -0.1524  0.6648  0.6516
 5994SOL    HW129618   4.429   4.426  17.366 -0.5443  2.9744  1.5057
 5994SOL    HW229619   4.471   4.387  17.230  0.8620  1.5220  0.3010
 5995SOL     OW29620   2.386   1.855  17.100 -0.2623 -0.5968 -0.1932
 5995SOL    HW129621   2.380   1.885  17.190  0.6203 -0.3730 -0.2094
 5995SOL    HW229622   2.478   1.879  17.089 -0.4110 -0.3586 -0.9333
 5996SOL     OW29623   0.910   3.316   7.688 -0.4641 -0.2110 -0.0001
 5996SOL    HW129624   0.965   3.393   7.674 -1.1598  0.2472 -0.1991
 5996SOL    HW229625   0.978   3.248   7.688 -0.5252 -0.2696 -1.3947
 5997SOL     OW29626   2.982   2.022   1.873 -0.3932 -0.2009 -0.3571
 5997SOL    HW129627   3.059   2.067   1.839  0.4562 -1.0511  0.4493
 5997SOL    HW229628   2.972   2.050   1.964  0.3860  2.1922 -1.0259
 5998SOL     OW29629   2.475   0.234  17.297 -0.3087  0.1064  0.3330
 5998SOL    HW129630   2.567   0.237  17.325 -0.6560  0.2178  1.4432
 5998SOL    HW229631   2.481   0.283  17.215 -1.1686  0.5232  0.5216
 5999SOL     OW29632   3.443   1.557  14.705  0.4483  0.2672  0.2311
 5999SOL    HW129633   3.482   1.635  14.743 -0.2850  0.6537  0.2015
 5999SOL    HW229634   3.506   1.485  14.710 -0.1976 -0.2743  0.5031
 6000SOL     OW29635   4.395   4.621   6.733  0.1938 -0.0682  0.2756
 6000SOL    HW129636   4.414   4.698   6.679  2.5395 -0.8291 -0.0099
 6000SOL    HW229637   4.321   4.575   6.692  0.3178  0.4510 -0.5342
 6001SOL     OW29638   2.273   1.755   3.669 -0.8568 -0.3708 -0.7064
 6001SOL    HW129639   2.287   1.844   3.702 -2.0836 -0.9240  1.3239
 6001SOL    HW229640   2.219   1.729   3.743  0.1548 -0.9465 -0.1693
 6002SOL     OW29641   3.928   2.381  15.909  0.1004  0.5637  0.0745
 6002SOL    HW129642   3.980   2.413  15.835  0.0555 -1.0920 -0.6653
 6002SOL    HW229643   3.854   2.440  15.895 -0.7411 -0.1372  1.6486
 6003SOL     OW29644   1.659   3.508   2.908  0.4516 -0.4616  0.1082
 6003SOL    HW129645   1.640   3.486   2.999  2.2284 -1.4095  0.2435
 6003SOL    HW229646   1.600   3.447   2.862 -0.4083  1.4683 -1.3597
 6004SOL     OW29647   4.593   3.072   5.558 -0.1773 -0.0460 -0.2482
 6004SOL    HW129648   4.504   3.096   5.586  0.5012 -1.7781  3.4321
 6004SOL    HW229649   4.619   3.158   5.525  1.7820  0.0550  1.5530
 6005SOL     OW29650   4.647   2.474   4.672  0.5143 -0.5507 -0.1050
 6005SOL    HW129651   4.582   2.525   4.719 -1.2507 -1.5648 -1.4580
 6005SOL    HW229652   4.597   2.455   4.593  0.8932  0.3889 -0.5670
 6006SOL     OW29653   2.689   4.698   0.641 -0.3839  0.6188  0.3897
 6006SOL    HW129654   2.702   4.641   0.716  1.0821  2.0401  1.2229
 6006SOL    HW229655   2.780   4.729   0.633 -0.0349  0.3398  3.0946
 6007SOL     OW29656   1.785   4.040  12.871  0.1617 -0.1949 -0.4253
 6007SOL    HW129657   1.859   4.097  12.888 -0.0947  0.1150 -0.3542
 6007SOL    HW229658   1.722   4.049  12.943 -2.2276  0.3817 -2.5810
 6008SOL     OW29659   4.019   0.350   4.535 -0.1995  0.2053  0.2984
 6008SOL    HW129660   3.960   0.335   4.462  1.9143  0.3741 -1.4728
 6008SOL    HW229661   4.101   0.370   4.489 -1.1523  0.5854 -1.2639
 6009SOL     OW29662   3.404   3.549   7.643  0.1340 -0.5719 -0.9243
 6009SOL    HW129663   3.341   3.614   7.612 -1.8554 -1.7994  0.5448
 6009SOL    HW229664   3.354   3.489   7.698 -0.2030 -1.3932 -2.1313
 6010SOL     OW29665   1.558   3.093   4.412 -0.0618 -0.3813 -0.2773
 6010SOL    HW129666   1.511   3.112   4.330 -1.0467 -0.4540  0.2690
 6010SOL    HW229667   1.621   3.026   4.387 -0.4637 -0.9778  0.3049
 6011SOL     OW29668   4.392   1.277   2.330  0.1978  0.0042 -0.0000
 6011SOL    HW129669   4.354   1.241   2.250  3.1498 -0.3933 -1.2249
 6011SOL    HW229670   4.427   1.201   2.376  1.0678  0.9853  0.9625
 6012SOL     OW29671   0.283   0.298   2.926 -0.1399  0.1226  0.8211
 6012SOL    HW129672   0.344   0.225   2.916 -2.4019 -1.6284 -0.0660
 6012SOL    HW229673   0.346   0.371   2.927 -0.6475  0.5719 -2.3420
 6013SOL     OW29674   0.914   0.360   6.208  0.2492 -0.6027 -0.1969
 6013SOL    HW129675   1.001   0.338   6.175  0.2170 -0.5614 -0.3096
 6013SOL    HW229676   0.925   0.439   6.261 -1.1010 -0.0390 -0.7733
 6014SOL     OW29677   2.640   1.581   6.779 -0.0392 -0.0226  0.3222
 6014SOL    HW129678   2.647   1.491   6.746 -0.5295  0.7114 -1.7596
 6014SOL    HW229679   2.549   1.569   6.805 -0.4902 -0.8942 -1.6903
 6015SOL     OW29680   2.902   3.778  17.063  0.5981 -0.1720 -0.6813
 6015SOL    HW129681   2.987   3.816  17.081 -0.9853  2.0029  2.1306
 6015SOL    HW229682   2.918   3.690  17.096 -1.1642 -0.0229  0.5766
 6016SOL     OW29683   3.943   2.981   4.707  0.0928  0.1381 -0.2437
 6016SOL    HW129684   4.024   2.933   4.729 -1.1168 -0.7577  2.2965
 6016SOL    HW229685   3.896   2.907   4.669  0.1466  0.3327 -0.6895
 6017SOL     OW29686   2.301   2.680   4.770  0.1092 -0.8885  0.7944
 6017SOL    HW129687   2.236   2.724   4.826  1.2912 -0.0685  1.5160
 6017SOL    HW229688   2.376   2.678   4.829 -0.3064 -1.6261  1.3022
 6018SOL     OW29689   4.653   2.784   4.799  0.1294 -0.0493  0.1455
 6018SOL    HW129690   4.579   2.724   4.809  2.0249 -2.3628  0.5282
 6018SOL    HW229691   4.666   2.810   4.890  0.6643 -0.0201  0.0616
 6019SOL     OW29692   3.147   0.248   5.866 -0.0462  0.4578  0.3451
 6019SOL    HW129693   3.055   0.228   5.880  0.0692  0.7446  1.5757
 6019SOL    HW229694   3.172   0.262   5.957 -0.3958 -2.7408  0.9219
 6020SOL     OW29695   1.305   1.145   2.253 -0.0041 -0.0662 -0.4242
 6020SOL    HW129696   1.327   1.232   2.286 -0.5722  0.2451 -0.8752
 6020SOL    HW229697   1.283   1.175   2.165  0.0224  1.9027  0.2448
 6021SOL     OW29698   2.575   3.973   1.586 -0.4871 -0.3823  0.0024
 6021SOL    HW129699   2.668   3.952   1.595 -0.6254 -0.6168  0.8745
 6021SOL    HW229700   2.525   3.893   1.599 -0.0275 -0.7581 -0.5492
 6022SOL     OW29701   1.467   2.979   7.898  0.0220  0.4373 -0.4186
 6022SOL    HW129702   1.430   3.044   7.957 -1.0291 -1.1259  0.6330
 6022SOL    HW229703   1.399   2.912   7.902  0.2810  0.3073  1.8496
 6023SOL     OW29704   2.689   0.631  15.347 -0.7124 -0.0868 -0.3450
 6023SOL    HW129705   2.683   0.721  15.377 -1.4747 -1.0304  2.3248
 6023SOL    HW229706   2.679   0.585  15.431  2.8959  1.2213  0.8017
 6024SOL     OW29707   0.826   2.097  12.089 -0.4135 -0.0979  0.1786
 6024SOL    HW129708   0.903   2.151  12.080 -0.6837  0.1372 -0.7321
 6024SOL    HW229709   0.857   2.010  12.063  0.7858  0.7898 -1.3102
 6025SOL     OW29710   2.642   3.773   8.797  0.2954 -0.4311  0.1962
 6025SOL    HW129711   2.708   3.708   8.774 -0.6529 -1.2321 -0.2339
 6025SOL    HW229712   2.628   3.801   8.707  0.7848 -2.0094 -0.3537
 6026SOL     OW29713   1.896   0.636  16.594 -0.1921  0.1188  0.0131
 6026SOL    HW129714   1.804   0.658  16.606  0.3612  2.5246 -0.1990
 6026SOL    HW229715   1.923   0.668  16.508  1.3969  0.4580  0.6302
 6027SOL     OW29716   2.189   1.867  14.329  0.0783 -0.0719 -0.5254
 6027SOL    HW129717   2.118   1.820  14.372 -1.8611  1.4776 -2.0313
 6027SOL    HW229718   2.164   1.854  14.237 -2.7420  1.8399 -0.0252
 6028SOL     OW29719   1.333   3.900   5.200  0.1692  0.0254  0.0498
 6028SOL    HW129720   1.304   3.808   5.197  2.1782 -0.6352  0.8667
 6028SOL    HW229721   1.283   3.933   5.275 -0.4725  1.2101 -0.9096
 6029SOL     OW29722   0.134   1.154  10.758  0.1884 -0.4769  0.2629
 6029SOL    HW129723   0.136   1.249  10.774  0.5010 -0.7503  1.8797
 6029SOL    HW229724   0.067   1.139  10.825 -0.2390  3.3839  0.6946
 6030SOL     OW29725   2.982   3.182   7.807 -0.9783 -0.2905 -0.1057
 6030SOL    HW129726   2.992   3.274   7.832 -0.0105 -0.4093 -0.0623
 6030SOL    HW229727   3.007   3.140   7.889 -0.8380 -0.2058 -0.1054
 6031SOL     OW29728   1.758   0.873   2.572 -0.5489 -0.6867  0.3467
 6031SOL    HW129729   1.771   0.938   2.503 -1.6111 -3.3341 -2.3420
 6031SOL    HW229730   1.817   0.800   2.555 -0.2727 -0.4552  0.3165
 6032SOL     OW29731   0.599   0.530   2.308 -0.1331  0.4577  0.6832
 6032SOL    HW129732   0.671   0.489   2.260 -0.5342  1.4140 -0.7407
 6032SOL    HW229733   0.577   0.603   2.251  2.4142  0.2090 -0.6424
 6033SOL     OW29734   3.962   0.949   8.287  0.4663 -0.0507  0.4016
 6033SOL    HW129735   3.930   0.900   8.212 -1.3088  0.3554  0.8981
 6033SOL    HW229736   3.890   0.927   8.346 -0.2090  0.3085 -0.2899
 6034SOL     OW29737   4.719   4.249   9.776 -0.0120 -0.4454 -0.0036
 6034SOL    HW129738   0.060   4.204   9.753  0.0110 -0.3168 -0.1684
 6034SOL    HW229739   0.017   4.323   9.822  0.2001 -1.3242  1.2264
 6035SOL     OW29740   1.834   4.358   1.986 -0.4473 -0.0674 -0.0982
 6035SOL    HW129741   1.886   4.282   1.961 -0.9089  0.3265 -2.2293
 6035SOL    HW229742   1.748   4.316   1.985 -1.2026  1.3884  1.7125
 6036SOL     OW29743   1.958   3.541   8.940 -0.1051 -0.5488  1.0282
 6036SOL    HW129744   2.048   3.546   8.908 -0.3029 -1.0761  0.4073
 6036SOL    HW229745   1.951   3.628   8.979  3.0881 -0.2952  1.0788
 6037SOL     OW29746   4.704   1.390   4.838 -0.0840 -0.1559  0.4865
 6037SOL    HW129747   4.623   1.372   4.886 -1.1983 -1.0627 -1.7402
 6037SOL    HW229748   0.027   1.375   4.909  1.9426  0.1054 -1.2540
 6038SOL     OW29749   3.663   4.553  17.504 -0.1004  0.1811 -0.4482
 6038SOL    HW129750   3.573   4.582  17.521 -0.0237  0.5647 -0.7151
 6038SOL    HW229751   3.673   4.573  17.411 -1.0454  2.3373 -0.0682
 6039SOL     OW29752   1.564   0.083   2.865  0.2358  0.0637  0.4401
 6039SOL    HW129753   1.585   0.044   2.950 -0.8806 -0.1410  0.6242
 6039SOL    HW229754   1.558   0.176   2.887  0.2295  0.4423 -1.2272
 6040SOL     OW29755   0.767   0.780   6.130  0.1939 -0.5960 -0.4330
 6040SOL    HW129756   0.737   0.721   6.199  0.4673  0.7031  0.7779
 6040SOL    HW229757   0.815   0.712   6.083  0.3417 -0.8679  0.1119
 6041SOL     OW29758   2.072   3.388   3.023 -0.3025 -0.6736 -0.0049
 6041SOL    HW129759   2.056   3.300   3.054 -1.1038 -0.3005  0.6300
 6041SOL    HW229760   2.078   3.362   2.931 -0.0422 -0.5169 -0.0324
 6042SOL     OW29761   2.349   4.348   9.077 -0.5643 -0.6489  0.3501
 6042SOL    HW129762   2.281   4.364   9.012  0.6255  2.0175 -0.2314
 6042SOL    HW229763   2.412   4.406   9.035  0.7636 -2.5055 -0.2140
 6043SOL     OW29764   4.175   2.145  14.943  0.0099  0.5055 -0.4945
 6043SOL    HW129765   4.158   2.084  15.016  1.9804 -0.3716 -0.7828
 6043SOL    HW229766   4.268   2.152  14.962  0.6579 -2.5385 -2.4821
 6044SOL     OW29767   2.694   3.475   8.705 -0.6462  0.1344 -0.1669
 6044SOL    HW129768   2.713   3.491   8.613  1.7212  2.4680  0.7313
 6044SOL    HW229769   2.604   3.444   8.694 -0.6078  0.5495 -1.6343
 6045SOL     OW29770   3.154   2.219   3.618 -0.0376 -0.2034 -0.0570
 6045SOL    HW129771   3.189   2.217   3.529  0.5459  0.9152  0.1500
 6045SOL    HW229772   3.083   2.283   3.615  0.8878  0.7359 -1.5836
 6046SOL     OW29773   4.670   2.933   6.666  0.6047  0.0364  0.4447
 6046SOL    HW129774   4.687   2.859   6.723  1.2138  0.1582  0.4162
 6046SOL    HW229775   4.739   2.926   6.600  0.3430  2.5044 -0.1006
 6047SOL     OW29776   1.483   4.353   8.917  0.3397  0.0653 -0.1511
 6047SOL    HW129777   1.505   4.292   8.846  4.4154  1.5979 -0.2038
 6047SOL    HW229778   1.443   4.289   8.975  3.6231 -2.3059 -0.4888
 6048SOL     OW29779   1.185   4.492   8.792 -0.3219  0.4757  0.2731
 6048SOL    HW129780   1.092   4.512   8.794 -0.0138  2.0059 -0.9589
 6048SOL    HW229781   1.204   4.455   8.879 -0.3595  0.8702  0.4466
 6049SOL     OW29782   0.675   3.460   2.354  0.5447  0.1766 -0.1242
 6049SOL    HW129783   0.643   3.386   2.302 -1.7769  0.0489  1.5188
 6049SOL    HW229784   0.751   3.475   2.297  0.4003  0.5146 -0.2301
 6050SOL     OW29785   1.845   1.256   6.873 -0.2763 -0.4265  0.0083
 6050SOL    HW129786   1.823   1.291   6.787  0.2443  0.3292  0.1867
 6050SOL    HW229787   1.834   1.337   6.923 -2.1941  0.7950 -2.3540
 6051SOL     OW29788   3.249   0.300   2.832  0.9837  0.2281  0.6754
 6051SOL    HW129789   3.192   0.346   2.893  0.8187 -3.2128  3.0902
 6051SOL    HW229790   3.273   0.223   2.882  1.3854  0.2654  0.5391
 6052SOL     OW29791   3.827   2.679   9.808 -0.0196  0.6920 -0.2899
 6052SOL    HW129792   3.750   2.669   9.752  0.4315 -3.0022 -0.2532
 6052SOL    HW229793   3.897   2.644   9.753  1.0933  0.6563  1.1461
 6053SOL     OW29794   1.262   2.063   8.291 -0.2944 -0.8892  1.0189
 6053SOL    HW129795   1.239   1.980   8.331 -0.8759 -2.0533 -1.6895
 6053SOL    HW229796   1.236   2.062   8.198  0.1311  1.6032  0.8625
 6054SOL     OW29797   2.796   2.272   7.380 -0.0437 -0.2785  0.0105
 6054SOL    HW129798   2.768   2.363   7.369 -2.1976 -1.0391 -0.8590
 6054SOL    HW229799   2.713   2.228   7.395  0.2603 -1.3583 -1.3916
 6055SOL     OW29800   1.993   2.168   7.061 -0.3622  0.0486  0.2194
 6055SOL    HW129801   1.948   2.247   7.092 -0.0030  0.3613 -0.0425
 6055SOL    HW229802   2.063   2.200   7.004  0.4122 -1.7057  0.2038
 6056SOL     OW29803   2.739   1.715  15.000 -0.2231 -0.1261  0.0917
 6056SOL    HW129804   2.709   1.750  15.083 -2.8110 -1.7408 -0.1692
 6056SOL    HW229805   2.776   1.628  15.020 -0.9591 -0.0163  1.8632
 6057SOL     OW29806   2.922   0.680   8.661 -0.4351  0.1453  0.3667
 6057SOL    HW129807   2.886   0.632   8.587  2.2724 -0.5903 -0.4574
 6057SOL    HW229808   2.873   0.641   8.733  0.0003 -1.8937 -0.4468
 6058SOL     OW29809   2.466   3.078   3.042  0.0008 -0.1989 -0.1787
 6058SOL    HW129810   2.459   2.985   3.020 -0.3969 -0.0624 -0.6244
 6058SOL    HW229811   2.530   3.089   3.112 -0.1581 -1.0420  0.0956
 6059SOL     OW29812   0.899   3.476  15.494 -0.2843 -0.1685 -0.5133
 6059SOL    HW129813   0.880   3.568  15.513 -1.7082 -0.5460 -0.1724
 6059SOL    HW229814   0.889   3.470  15.399 -0.8258  1.9259 -0.5961
 6060SOL     OW29815   3.360   2.809  12.991  0.5458 -0.5405  0.0684
 6060SOL    HW129816   3.347   2.756  13.069  1.2002 -0.1774  0.4265
 6060SOL    HW229817   3.439   2.858  13.013 -0.9782  1.0807  2.0009
 6061SOL     OW29818   2.338   0.124   0.289  0.4903  0.4448 -0.6785
 6061SOL    HW129819   2.368   0.063   0.221  1.7890  1.6363 -1.1617
 6061SOL    HW229820   2.420   0.151   0.330  0.2184  3.4646 -2.1512
 6062SOL     OW29821   3.746   0.738  14.951 -0.3875 -0.2464 -0.5433
 6062SOL    HW129822   3.694   0.818  14.954 -0.0716 -0.0227 -1.0198
 6062SOL    HW229823   3.718   0.693  14.872  1.4351 -1.6202 -0.4271
 6063SOL     OW29824   4.514   0.565   0.194 -0.4749 -0.1144  0.6337
 6063SOL    HW129825   4.480   0.482   0.227 -0.7810 -0.3572 -0.2855
 6063SOL    HW229826   4.556   0.604   0.271 -0.7572  0.6949  0.3782
 6064SOL     OW29827   2.837   2.008  11.703  0.0333  0.4399  0.0190
 6064SOL    HW129828   2.824   2.101  11.718  2.3453  1.0650 -1.8295
 6064SOL    HW229829   2.756   1.969  11.736 -0.0632  0.0449 -0.6931
 6065SOL     OW29830   2.339   4.144   2.438  0.1878  0.7691  0.6423
 6065SOL    HW129831   2.353   4.219   2.380 -0.1371  0.5765  0.3137
 6065SOL    HW229832   2.256   4.108   2.405  1.0807 -0.6834 -0.0175
 6066SOL     OW29833   3.038   0.289   8.410 -0.1434 -0.4092  0.2606
 6066SOL    HW129834   3.091   0.212   8.430  1.1273  1.0279  2.4119
 6066SOL    HW229835   2.982   0.254   8.480 -0.2123  0.2221  0.5233
 6067SOL     OW29836   0.195   0.546   8.120 -1.1242  0.1296 -0.3043
 6067SOL    HW129837   0.114   0.498   8.102 -0.1677 -1.9142  0.7943
 6067SOL    HW229838   0.232   0.500   8.195  0.4889  0.2111 -1.0644
 6068SOL     OW29839   0.570   0.942  12.831  0.1758  0.0774 -0.1098
 6068SOL    HW129840   0.631   0.880  12.790 -1.1701 -0.5046 -1.2171
 6068SOL    HW229841   0.551   1.007  12.764  0.9721 -1.1740 -1.5513
 6069SOL     OW29842   1.267   0.254   8.118 -0.0884 -0.5368 -0.2481
 6069SOL    HW129843   1.222   0.221   8.197 -1.8834  1.8061 -0.2745
 6069SOL    HW229844   1.272   0.176   8.063  0.0962  1.4907 -3.0759
 6070SOL     OW29845   3.334   1.086   6.421 -0.0504 -0.1218 -0.1196
 6070SOL    HW129846   3.327   1.160   6.360 -2.9344  1.1723  1.7410
 6070SOL    HW229847   3.319   1.141   6.498  4.2765 -0.9126  1.2387
 6071SOL     OW29848   1.622   1.601   4.360  0.2933  0.2131 -0.0768
 6071SOL    HW129849   1.669   1.553   4.292  1.5518  2.0921 -0.5326
 6071SOL    HW229850   1.658   1.558   4.437 -1.1372  1.4261  1.2618
 6072SOL     OW29851   1.690   3.210  17.674  0.6569 -0.1997  0.0354
 6072SOL    HW129852   1.764   3.225  17.734 -0.7973  1.2148  1.4825
 6072SOL    HW229853   1.745   3.188  17.599 -0.5120 -1.2177 -0.5078
 6073SOL     OW29854   2.030   2.875   6.905  0.1124 -0.0795 -0.6830
 6073SOL    HW129855   2.080   2.949   6.874 -0.2779 -0.2578 -1.7536
 6073SOL    HW229856   2.038   2.815   6.830  1.0527  0.0059 -0.6417
 6074SOL     OW29857   2.190   1.577   1.587  0.1481  0.1325  0.7248
 6074SOL    HW129858   2.139   1.497   1.573 -0.2700  0.2730  1.4383
 6074SOL    HW229859   2.173   1.597   1.679  0.3287 -1.1198  1.0385
 6075SOL     OW29860   4.271   0.859   7.330 -0.1110 -0.4094  0.3254
 6075SOL    HW129861   4.325   0.780   7.342 -1.8714 -1.5387  0.8204
 6075SOL    HW229862   4.183   0.823   7.340 -0.0424 -0.5271  0.5149
 6076SOL     OW29863   4.728   4.142   2.382  0.0041 -0.6400 -0.1382
 6076SOL    HW129864   4.650   4.197   2.370  0.2804 -0.3373 -0.5419
 6076SOL    HW229865   0.059   4.186   2.335  0.3660 -0.6233  0.4297
 6077SOL     OW29866   3.626   2.318   7.606  0.1356 -0.2663  0.6639
 6077SOL    HW129867   3.657   2.255   7.671 -0.2669 -0.6679  0.4662
 6077SOL    HW229868   3.577   2.369   7.670  0.6886  1.5324 -0.3352
 6078SOL     OW29869   3.501   2.289   4.856 -0.0919 -0.3941 -0.0095
 6078SOL    HW129870   3.513   2.198   4.830 -0.4560 -0.7960  1.2188
 6078SOL    HW229871   3.413   2.284   4.894  0.8180  1.9249  2.4439
 6079SOL     OW29872   4.686   4.200  12.758  0.1933  0.4586  0.1334
 6079SOL    HW129873   4.661   4.269  12.819 -3.8009 -0.5605 -0.3645
 6079SOL    HW229874   4.675   4.242  12.673  3.7353  1.1730  0.0073
 6080SOL     OW29875   0.493   4.382   9.864 -0.0212  0.1594 -0.4454
 6080SOL    HW129876   0.470   4.339   9.947 -0.4719  0.4195 -0.4370
 6080SOL    HW229877   0.409   4.421   9.843 -1.3627 -0.7301  3.1903
 6081SOL     OW29878   4.648   2.788   5.103 -0.3614 -0.2580 -0.4964
 6081SOL    HW129879   4.592   2.840   5.161  0.3497  1.6840 -1.5567
 6081SOL    HW229880   4.600   2.706   5.102  0.0415 -0.5244  1.2188
 6082SOL     OW29881   4.353   3.402   5.335 -0.1946 -0.2685 -0.0622
 6082SOL    HW129882   4.271   3.451   5.343 -0.9434 -0.9259 -4.0695
 6082SOL    HW229883   4.318   3.313   5.333  2.1350 -1.1458 -1.1060
 6083SOL     OW29884   1.683   3.849  17.176  0.4189  0.4489  0.3582
 6083SOL    HW129885   1.760   3.900  17.202  1.3171 -1.4019  1.3711
 6083SOL    HW229886   1.716   3.802  17.099  0.6087 -0.0713  0.7531
 6084SOL     OW29887   2.438   0.015   7.803 -0.1529  0.0196  0.2756
 6084SOL    HW129888   2.452   0.091   7.859  1.5488 -0.1585  0.1055
 6084SOL    HW229889   2.364   0.050   7.754 -1.8674  0.1273  2.9485
 6085SOL     OW29890   2.494   2.203   9.648  0.5434  0.0336  0.1268
 6085SOL    HW129891   2.415   2.155   9.624 -0.6894  1.9170  0.4500
 6085SOL    HW229892   2.467   2.291   9.675 -3.3737 -0.4914 -2.0645
 6086SOL     OW29893   2.995   4.719  16.492  0.2547  0.0900  0.2255
 6086SOL    HW129894   2.980   0.068  16.459 -0.1058 -0.3698 -0.8726
 6086SOL    HW229895   2.940   4.722  16.570 -0.1988  0.2060 -0.0907
 6087SOL     OW29896   4.305   1.153   9.453  0.2786 -0.1787  0.2406
 6087SOL    HW129897   4.225   1.168   9.502  0.2369 -1.9793  0.7079
 6087SOL    HW229898   4.345   1.082   9.502 -1.9693 -0.7909  1.1928
 6088SOL     OW29899   1.755   4.542   0.302  0.5455  0.2400 -0.4839
 6088SOL    HW129900   1.681   4.504   0.349 -0.2075  0.7513 -1.2464
 6088SOL    HW229901   1.701   4.570   0.227  1.1220 -1.3042 -1.4627
 6089SOL     OW29902   3.193   4.030  14.084 -0.1785  0.4039  0.1803
 6089SOL    HW129903   3.235   4.025  13.998 -1.4598 -0.9312 -0.3798
 6089SOL    HW229904   3.263   4.003  14.143 -0.0006  2.3434  0.8277
 6090SOL     OW29905   0.474   4.180   8.871  0.0411 -0.1868 -0.2253
 6090SOL    HW129906   0.478   4.163   8.966 -2.0081 -2.3807 -0.5344
 6090SOL    HW229907   0.560   4.222   8.867  0.4540 -1.0627 -0.4605
 6091SOL     OW29908   2.770   2.931   3.397 -1.2717 -0.1508  0.0431
 6091SOL    HW129909   2.817   2.969   3.323  0.0196  1.1193  1.5011
 6091SOL    HW229910   2.787   2.840   3.375  1.2953  0.0293  1.3180
 6092SOL     OW29911   2.756   0.907   5.308  0.2444  0.3442 -0.1747
 6092SOL    HW129912   2.668   0.909   5.344 -0.2520  0.0812 -1.3816
 6092SOL    HW229913   2.745   0.849   5.232  3.0101 -0.2637 -0.1449
 6093SOL     OW29914   3.902   2.671   4.358 -0.5490  0.0260  0.3814
 6093SOL    HW129915   3.966   2.628   4.301 -0.6713  1.6938 -1.0197
 6093SOL    HW229916   3.879   2.599   4.417  3.2905  0.0973  1.9680
 6094SOL     OW29917   2.325   4.526   7.283  0.6397 -0.5512  0.8017
 6094SOL    HW129918   2.334   4.613   7.321  1.1725 -0.0469 -0.4650
 6094SOL    HW229919   2.409   4.485   7.302  0.2694 -1.7330 -0.0686
 6095SOL     OW29920   1.202   0.547   5.977  0.3838 -0.1727 -0.2793
 6095SOL    HW129921   1.273   0.537   5.914  2.6990  2.5960  1.9306
 6095SOL    HW229922   1.200   0.475   6.040 -0.9565  0.5946  0.5592
 6096SOL     OW29923   0.335   3.972   8.639 -0.2552 -0.4816 -0.1572
 6096SOL    HW129924   0.368   4.029   8.569  1.6233  0.3353  1.4127
 6096SOL    HW229925   0.315   4.035   8.709 -0.2503 -1.1675  0.4604
 6097SOL     OW29926   2.483   3.919  16.791 -0.0470 -0.5927  0.7887
 6097SOL    HW129927   2.559   3.903  16.848  0.5078 -0.1815  0.1619
 6097SOL    HW229928   2.408   3.910  16.849 -0.3992  1.2244  0.6079
 6098SOL     OW29929   0.003   2.769   4.438  0.4105  0.0680  0.3915
 6098SOL    HW129930   0.063   2.803   4.371  0.4681  0.4471  0.6367
 6098SOL    HW229931   4.714   2.684   4.404 -0.0338 -1.2631  4.1419
 6099SOL     OW29932   0.391   1.013  10.759  0.2833  0.0886 -0.9458
 6099SOL    HW129933   0.363   0.945  10.821  0.5592 -1.0634 -2.0877
 6099SOL    HW229934   0.309   1.062  10.750  0.7254  1.0777  0.3628
 6100SOL     OW29935   2.187   0.779   4.810  0.0557 -0.5257  0.2706
 6100SOL    HW129936   2.121   0.726   4.765 -2.4892  0.3596  2.9678
 6100SOL    HW229937   2.171   0.856   4.755 -1.2184 -2.0913 -1.5578
 6101SOL     OW29938   1.187   2.073  11.911 -0.2867 -0.5393 -0.2954
 6101SOL    HW129939   1.157   2.161  11.887 -1.8534 -0.4968  1.9172
 6101SOL    HW229940   1.121   2.047  11.975  1.8897 -0.4002  1.9949
 6102SOL     OW29941   0.134   3.387   8.571  0.2010 -0.0881  0.2106
 6102SOL    HW129942   0.158   3.480   8.565 -0.3472  0.0601  0.3227
 6102SOL    HW229943   0.045   3.391   8.606  0.2953 -1.6435  0.6162
 6103SOL     OW29944   1.900   4.348   4.176 -0.3131 -0.3376 -0.0251
 6103SOL    HW129945   1.880   4.288   4.105  0.7108 -0.6864 -0.0166
 6103SOL    HW229946   1.860   4.302   4.249 -0.5383 -0.4534 -0.2217
 6104SOL     OW29947   0.186   4.089  12.815  0.1114  0.2400  0.2251
 6104SOL    HW129948   0.092   4.106  12.814  0.2120  0.6849 -1.4946
 6104SOL    HW229949   0.223   4.149  12.750 -0.6869  0.4271 -0.0534
 6105SOL     OW29950   4.091   2.859   5.282 -1.1038  0.6259 -0.5466
 6105SOL    HW129951   4.175   2.859   5.328 -0.2743  0.4378 -2.0548
 6105SOL    HW229952   4.089   2.950   5.254 -0.8247  1.0465  0.8109
 6106SOL     OW29953   3.989   2.518   3.676 -0.0488 -0.2915  0.5733
 6106SOL    HW129954   3.960   2.598   3.632  0.2996  0.2121  1.2413
 6106SOL    HW229955   4.032   2.468   3.607 -1.8218  0.6999 -1.2415
 6107SOL     OW29956   2.951   3.639   8.411 -0.4316 -0.1679  0.2455
 6107SOL    HW129957   2.871   3.635   8.359  1.5040 -0.3617 -2.7187
 6107SOL    HW229958   2.950   3.549   8.443 -1.1673 -0.0720  0.4829
 6108SOL     OW29959   3.356   1.848  10.063 -0.4343  0.4731  0.4616
 6108SOL    HW129960   3.413   1.908  10.111  0.8029 -0.2731 -0.0618
 6108SOL    HW229961   3.392   1.861   9.975 -0.6333 -0.6872  0.2100
 6109SOL     OW29962   3.251   1.509   3.069  0.5904  0.4673  0.0399
 6109SOL    HW129963   3.235   1.543   2.981 -1.5391 -0.8525 -0.0692
 6109SOL    HW229964   3.317   1.444   3.045  0.4217  0.6761 -0.9978
 6110SOL     OW29965   0.021   0.856   1.815  0.0633 -0.0218 -0.1989
 6110SOL    HW129966   0.059   0.770   1.831  0.2265  0.3401  1.3326
 6110SOL    HW229967   4.719   0.855   1.729 -0.7116  1.7507  0.1446
 6111SOL     OW29968   1.065   1.467  14.421 -0.6223  0.6691  0.0492
 6111SOL    HW129969   1.056   1.456  14.515  1.3314 -3.3337 -0.2638
 6111SOL    HW229970   1.146   1.513  14.401  0.4974 -1.6701 -0.6693
 6112SOL     OW29971   2.930   2.885  11.268 -0.1483 -0.0714  0.4707
 6112SOL    HW129972   3.021   2.870  11.243 -0.1082 -2.3270  2.0173
 6112SOL    HW229973   2.888   2.806  11.236 -0.5936  1.3407 -2.4094
 6113SOL     OW29974   0.042   0.585   4.168 -0.2783 -0.1675  0.3813
 6113SOL    HW129975   0.005   0.673   4.157 -0.9015 -0.3899  0.6469
 6113SOL    HW229976   0.109   0.580   4.100 -0.5312 -0.6629  0.1709
 6114SOL     OW29977   3.676   3.648   3.829  0.1598 -0.1602  0.1355
 6114SOL    HW129978   3.744   3.668   3.893 -0.4555  0.1120  0.7033
 6114SOL    HW229979   3.602   3.690   3.874  0.7498  0.6668  0.3267
 6115SOL     OW29980   3.963   0.757   5.584 -0.4370  0.0265  0.2383
 6115SOL    HW129981   3.948   0.666   5.560 -0.9448  0.9920 -3.0729
 6115SOL    HW229982   3.929   0.756   5.674  0.1943  0.0901  0.4803
 6116SOL     OW29983   0.835   1.381   8.408 -0.3412  0.1064  0.2422
 6116SOL    HW129984   0.901   1.431   8.458  0.6560 -0.3349 -0.6422
 6116SOL    HW229985   0.771   1.373   8.479 -1.0732 -1.3338 -0.5942
 6117SOL     OW29986   0.693   1.763   4.283 -0.4195 -0.1810 -0.0345
 6117SOL    HW129987   0.609   1.782   4.325 -0.2868  0.6220 -0.1219
 6117SOL    HW229988   0.749   1.740   4.357 -0.6858 -1.6802 -0.3011
 6118SOL     OW29989   0.920   0.389   4.941  0.9679  0.3459 -0.3154
 6118SOL    HW129990   0.981   0.362   5.009 -0.2862 -2.0994 -0.1429
 6118SOL    HW229991   0.890   0.305   4.906 -1.2916  0.8687  0.3724
 6119SOL     OW29992   3.571   4.026   4.466  0.2724  0.0482 -0.3169
 6119SOL    HW129993   3.537   4.114   4.449 -2.3420 -0.7033  1.0765
 6119SOL    HW229994   3.542   4.018   4.557  0.2329 -0.9048 -0.4061
 6120SOL     OW29995   3.080   4.186   3.639  0.1892 -0.3033  0.3800
 6120SOL    HW129996   3.120   4.170   3.554  0.7033  1.7158  0.2441
 6120SOL    HW229997   3.075   4.099   3.679  0.3225 -1.0999 -1.3071
 6121SOL     OW29998   4.195   4.396   5.017 -0.4209  0.4199 -0.5620
 6121SOL    HW129999   4.129   4.389   5.086  1.4004 -2.5568  0.8951
 6121SOL    HW230000   4.134   4.410   4.945 -0.0976 -0.2222 -0.9635
 6122SOL     OW30001   2.823   3.710   2.107 -0.1151 -0.4401  0.4318
 6122SOL    HW130002   2.833   3.765   2.029  1.9319 -1.4104  0.0172
 6122SOL    HW230003   2.913   3.720   2.139  0.4244 -1.9661 -0.6561
 6123SOL     OW30004   2.503   3.443   6.264  0.0349  0.3883  0.6680
 6123SOL    HW130005   2.510   3.414   6.173 -2.5771  2.6070 -0.2530
 6123SOL    HW230006   2.498   3.362   6.314 -2.4058  0.5769  0.7319
 6124SOL     OW30007   2.278   1.008  11.269 -0.0519  0.3207 -0.2121
 6124SOL    HW130008   2.219   0.934  11.256  1.6513 -0.6266 -2.4263
 6124SOL    HW230009   2.225   1.088  11.263  0.5610  0.6824 -0.8680
 6125SOL     OW30010   2.691   2.634   4.248  0.0477 -0.3375 -0.1143
 6125SOL    HW130011   2.634   2.562   4.224 -1.9919  1.0426  0.5518
 6125SOL    HW230012   2.776   2.595   4.270  0.6103  1.7453  1.5030
 6126SOL     OW30013   4.060   1.297   4.021  0.0487 -0.6983  0.0675
 6126SOL    HW130014   4.137   1.343   3.987  2.2919 -2.8443  2.2076
 6126SOL    HW230015   4.081   1.209   3.991 -0.6539 -1.6739  2.4557
 6127SOL     OW30016   3.768   4.705  17.713 -0.5246 -0.0694  0.5031
 6127SOL    HW130017   3.747   4.637  17.649  4.6761 -1.2623  0.0584
 6127SOL    HW230018   3.751   4.646   0.028  0.7858 -2.3081 -1.0147
 6128SOL     OW30019   3.330   1.763  16.698  0.7339  0.3040  0.4198
 6128SOL    HW130020   3.370   1.701  16.759 -1.8302 -0.0442  1.7644
 6128SOL    HW230021   3.294   1.827  16.759  1.3698  1.3199 -0.2698
 6129SOL     OW30022   2.798   2.524   4.718 -0.1117 -0.3739 -0.1345
 6129SOL    HW130023   2.803   2.584   4.643  1.2179 -0.4286 -0.1059
 6129SOL    HW230024   2.784   2.439   4.676 -0.7940 -0.0404 -0.5813
 6130SOL     OW30025   2.555   0.247   7.926 -0.3508 -0.3094 -0.5427
 6130SOL    HW130026   2.639   0.251   7.881  0.0378 -0.8180  0.1517
 6130SOL    HW230027   2.556   0.330   7.975 -1.6619  0.3242 -1.5786
 6131SOL     OW30028   0.822   2.046   4.861  0.5478  0.0011  0.3137
 6131SOL    HW130029   0.810   2.027   4.768 -1.8731 -1.5799  0.9559
 6131SOL    HW230030   0.918   2.042   4.869  0.4248  0.0119  1.8296
 6132SOL     OW30031   4.670   1.997   2.506 -0.3883  0.1925 -0.1535
 6132SOL    HW130032   4.724   2.076   2.510  1.3399 -0.9653 -0.5863
 6132SOL    HW230033   4.672   1.954   2.591 -0.4370  0.7553  0.1379
 6133SOL     OW30034   3.110   2.955   9.005  0.0404 -0.6443  0.5941
 6133SOL    HW130035   3.162   2.994   8.935 -0.6814 -2.0645 -0.7360
 6133SOL    HW230036   3.141   3.003   9.082 -0.2307 -1.0210  0.9439
 6134SOL     OW30037   0.397   4.363   8.556 -0.0553 -0.0757  0.0304
 6134SOL    HW130038   0.305   4.364   8.530 -0.2870  0.1035  0.8404
 6134SOL    HW230039   0.421   4.272   8.539 -0.5349 -0.2984  0.5352
 6135SOL     OW30040   2.614   4.380   7.725  0.0582 -0.1357  0.1246
 6135SOL    HW130041   2.687   4.442   7.719 -1.2817  1.4292  0.0114
 6135SOL    HW230042   2.549   4.431   7.773  0.9222  1.8150 -0.7725
 6136SOL     OW30043   1.899   1.290   8.040  0.4165 -0.9189 -0.3416
 6136SOL    HW130044   1.844   1.235   8.095 -0.7829  1.1410  0.5032
 6136SOL    HW230045   1.881   1.241   7.959  0.0253 -0.8385 -0.2996
 6137SOL     OW30046   0.682   4.120  14.385  0.6820  0.1992  0.2073
 6137SOL    HW130047   0.687   4.025  14.395 -0.4586  0.0190 -0.8157
 6137SOL    HW230048   0.728   4.139  14.466  3.3426 -0.2181 -1.2186
 6138SOL     OW30049   0.966   0.962   5.165  0.4280 -0.3445  0.0660
 6138SOL    HW130050   1.048   0.934   5.124  1.2581 -0.4814  1.8308
 6138SOL    HW230051   0.975   1.057   5.162 -0.8134 -0.2219  0.3502
 6139SOL     OW30052   3.978   4.008   7.996 -0.3028  0.4626  0.4798
 6139SOL    HW130053   3.904   3.949   7.983 -0.6674  0.8988  0.5415
 6139SOL    HW230054   4.032   3.960   8.059  0.6077 -0.3305 -0.9280
 6140SOL     OW30055   4.122   3.311   8.017  0.2561 -0.0585 -0.6629
 6140SOL    HW130056   4.205   3.266   8.035 -0.6073 -0.8835  1.2633
 6140SOL    HW230057   4.129   3.384   8.079  0.0006 -2.6834  2.4668
 6141SOL     OW30058   4.438   1.643   3.673  0.4542  0.3445 -0.1930
 6141SOL    HW130059   4.385   1.650   3.753  1.1440  0.6988  0.2257
 6141SOL    HW230060   4.513   1.598   3.712  0.6292  0.8169  0.0050
 6142SOL     OW30061   0.168   3.098   8.203 -0.2466  0.6882  0.2204
 6142SOL    HW130062   0.204   3.121   8.289  1.9334  0.5361 -0.6523
 6142SOL    HW230063   0.249   3.101   8.152 -1.2336 -0.1347 -1.3528
 6143SOL     OW30064   0.700   4.317   4.609 -0.2066 -0.2878 -0.2432
 6143SOL    HW130065   0.617   4.340   4.652 -0.0311 -1.6264  0.8123
 6143SOL    HW230066   0.747   4.312   4.692 -0.4668  0.5731 -0.0469
 6144SOL     OW30067   1.649   0.328   4.434 -0.8978 -0.5559 -0.3147
 6144SOL    HW130068   1.742   0.317   4.413 -1.3139 -2.8509 -0.9224
 6144SOL    HW230069   1.626   0.247   4.480  1.5118 -1.7229 -1.1218
 6145SOL     OW30070   0.783   2.399   7.602 -0.4831  0.1540  0.4472
 6145SOL    HW130071   0.764   2.418   7.510 -3.4047  1.6344  1.3179
 6145SOL    HW230072   0.874   2.427   7.602 -0.0068 -1.4112  0.9224
 6146SOL     OW30073   0.045   2.477   9.616  0.1540  0.5556  0.1571
 6146SOL    HW130074   4.699   2.504   9.650 -0.3200  0.4136 -0.9341
 6146SOL    HW230075   0.106   2.523   9.673  1.4342 -0.0822 -0.6976
 6147SOL     OW30076   4.358   3.606   2.202  0.3157  0.7397  0.5117
 6147SOL    HW130077   4.414   3.572   2.133  1.1897 -0.0355  1.5988
 6147SOL    HW230078   4.346   3.533   2.263  1.5080  1.0131  1.0690
 6148SOL     OW30079   2.153   2.373   0.607  0.5118  0.1790  0.2581
 6148SOL    HW130080   2.231   2.320   0.598 -0.2534 -0.9964  0.6002
 6148SOL    HW230081   2.088   2.348   0.541  2.1216 -0.4401 -1.0686
 6149SOL     OW30082   2.554   4.140  12.261  0.1394  0.0852 -0.1634
 6149SOL    HW130083   2.546   4.129  12.167  3.6865  0.8552 -0.5731
 6149SOL    HW230084   2.610   4.068  12.292  0.4953  0.3444 -0.1944
 6150SOL     OW30085   3.360   0.253   8.180  0.2232  0.2079  0.3225
 6150SOL    HW130086   3.332   0.235   8.270 -0.3021  1.0579  0.3249
 6150SOL    HW230087   3.365   0.165   8.142  1.4545  0.0121  0.9375
 6151SOL     OW30088   3.586   3.485  10.930 -0.0473 -0.3685  0.0640
 6151SOL    HW130089   3.623   3.488  11.018  1.5895  1.8907 -0.6989
 6151SOL    HW230090   3.648   3.440  10.872  1.8136  1.0372  0.9661
 6152SOL     OW30091   0.213   4.525   4.099 -0.8548  0.4621  0.5128
 6152SOL    HW130092   0.193   4.567   4.182 -0.0729  2.7197 -0.4385
 6152SOL    HW230093   0.304   4.552   4.083 -0.7249 -1.4473 -1.9698
 6153SOL     OW30094   0.509   2.104   1.793  0.5725  0.6495  0.2318
 6153SOL    HW130095   0.474   2.129   1.878  0.9817  2.7178 -0.2007
 6153SOL    HW230096   0.430   2.082   1.745  1.1109 -0.8061  0.0073
 6154SOL     OW30097   2.456   3.529   4.673 -0.3102 -0.8280 -0.1162
 6154SOL    HW130098   2.406   3.515   4.593 -2.1620 -0.2501  0.9370
 6154SOL    HW230099   2.380   3.541   4.730  1.0453  2.7392  0.9276
 6155SOL     OW30100   1.839   4.028  13.770 -0.2506 -0.5293  0.2020
 6155SOL    HW130101   1.781   4.100  13.792  2.8827  1.1047  3.1912
 6155SOL    HW230102   1.781   3.966  13.727  1.6099 -1.3676 -1.1026
 6156SOL     OW30103   4.422   3.658  15.701 -0.4846 -0.2875 -0.1099
 6156SOL    HW130104   4.509   3.623  15.684 -0.1715 -0.4148  1.7629
 6156SOL    HW230105   4.405   3.639  15.793 -3.0114 -1.2123 -0.7599
 6157SOL     OW30106   1.915   0.576   0.338 -1.1442  0.4213 -0.6452
 6157SOL    HW130107   2.004   0.573   0.302 -0.9133 -0.7606  0.0346
 6157SOL    HW230108   1.871   0.616   0.263 -1.3142  0.7420 -0.3754
 6158SOL     OW30109   1.735   2.380  16.698 -0.2858  0.8163  0.2030
 6158SOL    HW130110   1.656   2.349  16.742 -0.3178  1.0595  0.3157
 6158SOL    HW230111   1.795   2.324  16.747  0.0645 -0.3822 -1.5906
 6159SOL     OW30112   0.026   0.724  14.596 -0.4157 -0.4000  0.2800
 6159SOL    HW130113   0.021   0.777  14.675  1.5724  1.6521 -0.9475
 6159SOL    HW230114   0.089   0.659  14.628  0.7642 -0.0685 -1.3485
 6160SOL     OW30115   3.552   1.853   5.107 -0.2968  0.5625  0.4065
 6160SOL    HW130116   3.539   1.758   5.107  1.9687  0.2462  2.4595
 6160SOL    HW230117   3.611   1.860   5.182  1.0524  0.4034 -0.6577
 6161SOL     OW30118   1.640   4.571   3.733  0.8365  0.3435  0.2346
 6161SOL    HW130119   1.669   4.530   3.652 -1.0186 -0.1802 -0.1516
 6161SOL    HW230120   1.707   4.640   3.730  1.3818 -0.1987  0.0072
 6162SOL     OW30121   0.024   4.367   4.317 -0.7100 -0.5681  0.3194
 6162SOL    HW130122   0.109   4.341   4.352  0.3745  2.8614  0.2076
 6162SOL    HW230123   0.014   4.288   4.264 -1.0748  0.0529 -0.5419
 6163SOL     OW30124   1.825   0.559  16.276  0.4137  1.0447  0.5379
 6163SOL    HW130125   1.769   0.629  16.243 -1.3010 -0.9514 -0.8094
 6163SOL    HW230126   1.913   0.594  16.262  1.2111 -1.2928 -0.4453
 6164SOL     OW30127   4.102   2.041   4.226 -0.1593  0.1411 -0.2016
 6164SOL    HW130128   4.039   1.999   4.169 -0.8676 -0.6403  1.1532
 6164SOL    HW230129   4.163   2.078   4.162 -1.3104 -1.5458 -2.2185
 6165SOL     OW30130   1.167   1.329   6.027 -0.1840  0.4233  0.4937
 6165SOL    HW130131   1.257   1.296   6.032 -0.0811  0.3644 -1.7667
 6165SOL    HW230132   1.136   1.309   6.115  0.8969 -0.1131  0.7626
 6166SOL     OW30133   1.729   2.228   7.647 -0.2176  0.0721  0.4276
 6166SOL    HW130134   1.723   2.170   7.723 -2.1490  2.3054  1.9626
 6166SOL    HW230135   1.688   2.310   7.674 -1.0753 -0.1089 -0.3242
 6167SOL     OW30136   1.413   0.482   7.261 -0.1880 -0.1174  0.4320
 6167SOL    HW130137   1.405   0.407   7.201  0.0588 -0.1885  0.4877
 6167SOL    HW230138   1.357   0.549   7.222  1.9429  1.0459 -0.6387
 6168SOL     OW30139   0.157   1.274   2.039  0.1582 -0.5024 -0.1108
 6168SOL    HW130140   0.134   1.182   2.052  1.3860 -0.8095 -0.0857
 6168SOL    HW230141   0.250   1.270   2.014  0.5964  1.2801  1.2329
 6169SOL     OW30142   2.618   0.809   1.203 -0.0850 -0.3828 -0.1441
 6169SOL    HW130143   2.555   0.759   1.255  1.0081  1.0495  2.5162
 6169SOL    HW230144   2.558   0.822   1.129 -0.3023 -1.0724 -0.0911
 6170SOL     OW30145   0.754   1.725   7.485  0.4496  0.0351  0.1299
 6170SOL    HW130146   0.766   1.682   7.400 -1.5633 -1.6716  0.7194
 6170SOL    HW230147   0.659   1.728   7.484  0.5161  1.7070 -0.3590
 6171SOL     OW30148   4.165   3.790   7.523  0.1489  0.3736  0.1526
 6171SOL    HW130149   4.120   3.867   7.558  2.1965  1.9837 -0.7868
 6171SOL    HW230150   4.112   3.731   7.576 -0.9042  1.8660  0.7766
 6172SOL     OW30151   4.414   2.122   7.153  0.0342  0.5100 -0.3204
 6172SOL    HW130152   4.417   2.218   7.156  2.4685  0.4261 -0.0116
 6172SOL    HW230153   4.493   2.099   7.106 -0.9241 -1.4006 -0.9796
 6173SOL     OW30154   0.336   1.804   9.158  0.0923 -0.4830  0.2878
 6173SOL    HW130155   0.254   1.769   9.196  2.1493 -1.6121  3.7617
 6173SOL    HW230156   0.352   1.882   9.211  0.1478  0.5034 -1.2156
 6174SOL     OW30157   1.719   2.009   2.610 -0.8170 -0.0738 -0.5440
 6174SOL    HW130158   1.781   1.987   2.540 -2.2280 -1.0079 -1.4990
 6174SOL    HW230159   1.652   1.943   2.590 -0.2613 -1.0404  0.7839
 6175SOL     OW30160   4.282   0.560   0.833  0.0360  0.2165 -0.0789
 6175SOL    HW130161   4.207   0.528   0.782  0.0144  0.6163 -0.2964
 6175SOL    HW230162   4.341   0.488   0.810  0.4395  0.5945 -0.2147
 6176SOL     OW30163   3.624   4.221   5.629  0.0153 -0.4087 -0.3659
 6176SOL    HW130164   3.555   4.287   5.640  0.6353  0.4148 -1.4676
 6176SOL    HW230165   3.675   4.238   5.708  0.4238  0.5894 -0.8553
 6177SOL     OW30166   1.934   0.071   2.932 -0.0158  0.1538  0.7852
 6177SOL    HW130167   1.865   0.106   2.989  0.0191  1.8116 -0.1877
 6177SOL    HW230168   1.903   0.118   2.855  1.2719 -2.2889 -1.2380
 6178SOL     OW30169   3.938   3.633   9.761 -1.0484 -0.4239 -0.0876
 6178SOL    HW130170   3.975   3.550   9.729  1.1723  0.7586 -0.6183
 6178SOL    HW230171   4.009   3.649   9.824  1.1221 -0.5570 -2.5012
 6179SOL     OW30172   3.335   1.372   9.482 -0.8150 -0.2399  0.3952
 6179SOL    HW130173   3.257   1.417   9.449 -0.8520  1.5294  2.9509
 6179SOL    HW230174   3.385   1.438   9.530  0.3417 -0.6913 -0.2157
 6180SOL     OW30175   4.629   0.673   3.249  0.5242  0.1979 -0.0999
 6180SOL    HW130176   4.572   0.653   3.175 -1.6375  3.5685  0.6321
 6180SOL    HW230177   4.612   0.599   3.308  1.0663  1.2445  1.3742
 6181SOL     OW30178   3.727   3.279   0.886  0.1949  0.0153 -0.9176
 6181SOL    HW130179   3.673   3.240   0.816 -1.9858  1.2434  0.0840
 6181SOL    HW230180   3.718   3.227   0.965 -0.7366  0.6893 -0.5853
 6182SOL     OW30181   3.598   0.963   3.850  0.9385 -0.1170  0.0822
 6182SOL    HW130182   3.557   1.047   3.869  0.9109  0.1429 -1.1309
 6182SOL    HW230183   3.559   0.911   3.921  1.1144 -1.1246 -0.5587
 6183SOL     OW30184   3.981   1.169   9.973 -0.5033  0.3613 -0.1950
 6183SOL    HW130185   3.973   1.250   9.922 -1.5265  0.5334  0.2352
 6183SOL    HW230186   3.904   1.174  10.029 -1.4983  2.9203 -1.7937
 6184SOL     OW30187   0.286   3.520   5.498  0.1475 -0.5397 -0.2258
 6184SOL    HW130188   0.284   3.533   5.404 -0.9261 -1.7570 -0.3722
 6184SOL    HW230189   0.314   3.428   5.507  0.4345 -0.3865  0.4356
 6185SOL     OW30190   1.330   0.687  15.738  0.2903 -0.0978  0.4338
 6185SOL    HW130191   1.359   0.778  15.746 -2.9545  1.0943 -1.6930
 6185SOL    HW230192   1.397   0.660  15.675  0.2547  0.1495  0.2895
 6186SOL     OW30193   0.973   4.409   8.497 -0.5147  0.7933  0.5141
 6186SOL    HW130194   1.057   4.368   8.478 -1.0948  0.0994 -0.5402
 6186SOL    HW230195   0.923   4.339   8.537 -0.6873  0.3396 -0.4977
 6187SOL     OW30196   1.481   1.886  10.689  0.3266 -0.1736  0.3388
 6187SOL    HW130197   1.523   1.912  10.771  0.1540  1.3296 -0.0409
 6187SOL    HW230198   1.416   1.957  10.689  1.9245  1.3024  1.5007
 6188SOL     OW30199   3.052   3.930   2.426  0.2891  0.1617  0.3906
 6188SOL    HW130200   2.971   3.908   2.472  0.9084 -0.7537  1.0659
 6188SOL    HW230201   3.107   3.947   2.502  0.4116  0.9728  0.1140
 6189SOL     OW30202   4.435   3.043   5.294 -0.1742  0.1237 -0.1273
 6189SOL    HW130203   4.398   2.955   5.304 -0.0224 -0.2694 -2.9799
 6189SOL    HW230204   4.358   3.101   5.297 -0.3701 -0.1159 -0.4959
 6190SOL     OW30205   0.417   2.875  12.265  0.5765 -1.0527  1.2479
 6190SOL    HW130206   0.417   2.789  12.306 -3.0074 -2.2274 -1.2755
 6190SOL    HW230207   0.325   2.882  12.242  0.9488  0.0128  0.0785
 6191SOL     OW30208   2.334   3.950   3.814 -0.6239 -0.2757  0.1035
 6191SOL    HW130209   2.311   3.961   3.722  0.8986  0.9121 -0.1168
 6191SOL    HW230210   2.389   4.026   3.830 -2.8753  1.3146  0.3481
 6192SOL     OW30211   0.848   1.157  14.211  0.4027  0.0270 -0.4774
 6192SOL    HW130212   0.897   1.095  14.265 -0.7007 -0.9493 -0.5881
 6192SOL    HW230213   0.759   1.129  14.233  0.5877 -2.3934 -2.8560
 6193SOL     OW30214   2.808   3.090   2.567 -0.2844 -0.1450  0.1481
 6193SOL    HW130215   2.755   3.112   2.490 -0.8306  0.2865  0.6512
 6193SOL    HW230216   2.780   2.999   2.582  0.3060 -0.2508  0.6019
 6194SOL     OW30217   1.826   1.686   3.621 -0.3980  0.0265  0.0304
 6194SOL    HW130218   1.762   1.722   3.560 -0.2502  0.1631 -0.0414
 6194SOL    HW230219   1.902   1.703   3.566 -0.4045 -0.4168 -0.1180
 6195SOL     OW30220   2.527   3.980   9.350  0.1604 -0.1240  0.1497
 6195SOL    HW130221   2.567   3.937   9.274 -1.1263 -0.6388 -0.2276
 6195SOL    HW230222   2.598   3.988   9.414  0.4731  0.5396 -0.2773
 6196SOL     OW30223   1.166   4.236   4.072 -0.3385  0.3625  0.2855
 6196SOL    HW130224   1.194   4.261   4.160  0.2132  0.3687  0.1097
 6196SOL    HW230225   1.106   4.304   4.043  0.0058  0.9247  0.9171
 6197SOL     OW30226   0.299   3.351   8.964  0.1922  0.2796  0.2668
 6197SOL    HW130227   0.219   3.298   8.956  0.2106  0.3053 -0.1112
 6197SOL    HW230228   0.352   3.294   9.020  2.0501  1.7685  0.0171
 6198SOL     OW30229   1.065   0.653   4.925  0.4449  0.5090  0.1254
 6198SOL    HW130230   1.111   0.569   4.930 -1.1168 -0.2593  1.5320
 6198SOL    HW230231   0.976   0.628   4.946  0.9251 -0.0118  1.5380
 6199SOL     OW30232   2.487   3.211   1.838  0.0050 -0.3715 -0.0452
 6199SOL    HW130233   2.425   3.284   1.835 -0.2748 -0.8166 -5.0690
 6199SOL    HW230234   2.535   3.224   1.756  0.5405 -1.1004  0.1489
 6200SOL     OW30235   3.698   4.610   8.207  0.5898 -0.0841 -0.1452
 6200SOL    HW130236   3.763   4.663   8.162  0.1063  0.4861 -0.1573
 6200SOL    HW230237   3.746   4.599   8.290  0.1859 -2.7108 -0.2637
 6201SOL     OW30238   4.049   1.942   8.377 -0.4255 -0.1089  0.1307
 6201SOL    HW130239   4.038   2.037   8.375  0.2472 -0.0032  1.6228
 6201SOL    HW230240   3.976   1.913   8.432 -1.9677  0.1184 -1.7891
 6202SOL     OW30241   1.202   3.109   5.304 -0.1556 -0.2262 -0.0904
 6202SOL    HW130242   1.252   3.126   5.224 -2.6778  1.0703 -1.3584
 6202SOL    HW230243   1.136   3.046   5.276  0.1201 -0.4016 -0.3472
 6203SOL     OW30244   1.078   0.426   5.441 -0.2718  0.6217 -0.1379
 6203SOL    HW130245   1.073   0.516   5.473  0.9222  0.2290  1.1070
 6203SOL    HW230246   1.132   0.393   5.512  0.2699  1.8648  0.0208
 6204SOL     OW30247   0.980   4.427   0.727  0.0320  0.7257  0.2053
 6204SOL    HW130248   0.910   4.489   0.706  1.1622  2.0510  0.3530
 6204SOL    HW230249   1.049   4.492   0.739  0.9581 -0.3919  1.0128
 6205SOL     OW30250   1.672   1.361   6.185  0.2992  0.3073  0.5129
 6205SOL    HW130251   1.767   1.370   6.173 -0.0033  2.8376 -0.0364
 6205SOL    HW230252   1.648   1.270   6.168 -2.1550  1.1108 -0.3404
 6206SOL     OW30253   2.861   3.357   6.050 -0.1210  0.1499  0.2572
 6206SOL    HW130254   2.838   3.417   6.122  1.8050  1.4454 -0.1981
 6206SOL    HW230255   2.792   3.294   6.071  0.3349 -0.7059 -0.8111
 6207SOL     OW30256   4.454   4.334  14.877 -0.0367  0.3171 -0.3860
 6207SOL    HW130257   4.402   4.352  14.798 -2.4014 -0.5245  0.9770
 6207SOL    HW230258   4.396   4.277  14.927 -0.1926  1.7635  1.1068
 6208SOL     OW30259   0.099   0.068   7.004  0.1349  0.1946  0.1663
 6208SOL    HW130260   0.180   0.028   6.973 -0.1727  0.6628 -1.2348
 6208SOL    HW230261   0.034   0.024   6.949 -1.0721  0.7492  1.1219
 6209SOL     OW30262   1.078   3.689  16.951  0.2156 -0.0833 -0.2772
 6209SOL    HW130263   1.143   3.685  17.022 -1.5767 -0.9034  1.3188
 6209SOL    HW230264   1.068   3.784  16.946 -3.0562 -0.4573 -0.5052
 6210SOL     OW30265   2.707   4.709   7.545  0.1597 -0.3599  0.3353
 6210SOL    HW130266   2.625   4.733   7.503 -0.6640  1.1711  2.7959
 6210SOL    HW230267   2.668   4.676   7.626 -0.3796  0.8527  0.5632
 6211SOL     OW30268   1.051   0.754  15.675  0.3850  0.1493 -0.3299
 6211SOL    HW130269   1.044   0.719  15.586  1.4908 -0.1655 -0.2888
 6211SOL    HW230270   1.129   0.702  15.692  0.7685  0.9764  0.4247
 6212SOL     OW30271   0.120   3.466   2.656 -0.2158  0.2689 -0.4848
 6212SOL    HW130272   0.133   3.543   2.601  2.7557 -0.7071 -1.1195
 6212SOL    HW230273   0.106   3.515   2.737  0.0295  0.7986 -0.7582
 6213SOL     OW30274   1.568   1.433   5.100  0.3158  0.0704  0.1966
 6213SOL    HW130275   1.603   1.505   5.153  2.6598 -1.5229  0.7936
 6213SOL    HW230276   1.540   1.373   5.168  0.9932 -1.5277 -0.9510
 6214SOL     OW30277   4.094   4.479   8.733  0.6018  0.3364 -0.3591
 6214SOL    HW130278   4.084   4.573   8.721  2.6828  0.3324 -2.1823
 6214SOL    HW230279   4.116   4.459   8.824  0.9317 -1.7487 -0.8957
 6215SOL     OW30280   4.128   4.230   2.809 -0.6040 -0.2286 -0.3013
 6215SOL    HW130281   4.036   4.256   2.801 -1.1773 -1.7779  1.1393
 6215SOL    HW230282   4.116   4.144   2.849  0.6504 -0.0570  0.4487
 6216SOL     OW30283   1.584   0.289   3.556  0.9929  0.1168  0.3693
 6216SOL    HW130284   1.560   0.374   3.593  1.9357  0.4226  0.2865
 6216SOL    HW230285   1.640   0.254   3.625  2.9052 -0.4771 -1.4757
 6217SOL     OW30286   3.665   2.960   3.609 -0.0844  0.1010  0.3944
 6217SOL    HW130287   3.629   3.039   3.648 -1.5648  0.4925 -1.7861
 6217SOL    HW230288   3.666   2.891   3.675 -0.4762 -0.4118 -0.1390
 6218SOL     OW30289   0.475   2.848   3.667  0.0917  0.1568  0.4267
 6218SOL    HW130290   0.496   2.788   3.738 -0.9428  0.9478  1.3850
 6218SOL    HW230291   0.435   2.921   3.713 -0.7269  0.4168 -0.7035
 6219SOL     OW30292   2.242   4.204   1.895 -0.0507 -0.2165  0.3083
 6219SOL    HW130293   2.287   4.123   1.869  0.6988 -0.3481  2.0454
 6219SOL    HW230294   2.149   4.184   1.901  0.1254 -1.0731  0.1336
 6220SOL     OW30295   2.221   2.190   1.820  0.2428  0.4137  0.5304
 6220SOL    HW130296   2.160   2.171   1.891  1.3869 -1.6894  0.9336
 6220SOL    HW230297   2.289   2.124   1.836  0.4097  0.1516 -1.3434
 6221SOL     OW30298   2.477   1.842   9.277 -0.5982 -0.2688 -0.1177
 6221SOL    HW130299   2.521   1.842   9.192  2.0587  2.0949  1.2602
 6221SOL    HW230300   2.552   1.853   9.335 -0.3776  1.5538 -0.7665
 6222SOL     OW30301   4.365   2.935   7.106  0.7812  0.3632  0.6079
 6222SOL    HW130302   4.412   2.896   7.180 -0.6513  0.6870  1.6917
 6222SOL    HW230303   4.414   2.900   7.032 -0.9747  2.4784 -1.5480
 6223SOL     OW30304   2.972   0.675   7.178  0.2183 -0.2009  0.4187
 6223SOL    HW130305   2.965   0.619   7.255  0.0985  0.4858  0.9180
 6223SOL    HW230306   3.067   0.690   7.182  0.1267  0.2676  0.9955
 6224SOL     OW30307   0.350   2.003   1.605  0.3476  0.3061  0.0767
 6224SOL    HW130308   0.298   1.998   1.526  1.2418  1.4207 -0.5865
 6224SOL    HW230309   0.428   1.951   1.586  0.3180 -0.6034  2.4005
 6225SOL     OW30310   3.204   2.876  11.188  0.3224  0.3970 -0.3564
 6225SOL    HW130311   3.239   2.796  11.228 -0.5733  0.4008  0.4179
 6225SOL    HW230312   3.287   2.922  11.176  1.5468 -0.9139  3.1756
 6226SOL     OW30313   3.951   0.846   1.407  0.0925  0.0245 -0.2344
 6226SOL    HW130314   3.876   0.833   1.465  1.3534  0.2089  1.4445
 6226SOL    HW230315   4.020   0.871   1.470  1.0423 -1.5730 -0.6415
 6227SOL     OW30316   2.301   0.962   5.316  0.4956  0.6336 -0.1005
 6227SOL    HW130317   2.282   0.901   5.245 -0.1587  0.9587 -0.2089
 6227SOL    HW230318   2.365   0.916   5.370 -3.0992 -0.1865  3.5355
 6228SOL     OW30319   3.987   1.749   5.114 -0.3872 -0.3833 -0.4086
 6228SOL    HW130320   4.061   1.776   5.059 -2.2901  2.9551 -1.3499
 6228SOL    HW230321   3.926   1.822   5.103  0.4966  0.5395  0.7592
 6229SOL     OW30322   1.666   2.916   1.964  0.4362  0.0003 -0.4012
 6229SOL    HW130323   1.674   2.906   1.869  0.0853  3.0935 -0.7612
 6229SOL    HW230324   1.675   3.011   1.971 -1.7655  0.4724 -3.6023
 6230SOL     OW30325   3.178   0.776   3.709 -0.2013  0.1437  0.1254
 6230SOL    HW130326   3.115   0.821   3.653 -1.6576 -0.1800  1.5301
 6230SOL    HW230327   3.192   0.837   3.781 -0.2107 -0.9044  1.0145
 6231SOL     OW30328   3.078   4.305   4.081 -0.4072 -0.5281  0.3458
 6231SOL    HW130329   3.002   4.311   4.023 -0.5465 -0.4321  0.5338
 6231SOL    HW230330   3.064   4.386   4.130 -0.4848 -0.9802  1.0774
 6232SOL     OW30331   4.601   1.538   2.904 -0.4295  0.1321  0.5378
 6232SOL    HW130332   4.688   1.556   2.940 -0.7836 -2.3411  2.5559
 6232SOL    HW230333   4.564   1.624   2.927 -0.4751  0.4541 -0.6933
 6233SOL     OW30334   3.747   4.569   1.915  0.2797 -0.3510 -0.2668
 6233SOL    HW130335   3.699   4.486   1.907 -1.7789  0.7501  0.8580
 6233SOL    HW230336   3.701   4.618   1.847 -1.1598 -0.8564  0.3445
 6234SOL     OW30337   3.534   2.569   5.219  0.4509 -0.2015 -0.6370
 6234SOL    HW130338   3.453   2.601   5.259  1.2509  1.1906 -0.1339
 6234SOL    HW230339   3.510   2.479   5.195  0.9410 -0.0690 -1.6058
 6235SOL     OW30340   1.186   0.205   4.766 -0.2922  0.3854 -0.1484
 6235SOL    HW130341   1.218   0.295   4.779 -2.8883  1.1540  0.8006
 6235SOL    HW230342   1.236   0.190   4.685  0.7156  1.9044  0.1733
 6236SOL     OW30343   0.931   1.659   5.483 -0.4125  0.5849 -0.1975
 6236SOL    HW130344   0.914   1.685   5.393  2.1606  0.5046 -0.7176
 6236SOL    HW230345   0.890   1.732   5.529  0.1100  0.0205  1.1854
 6237SOL     OW30346   0.688   3.362  17.749  0.7555 -0.3387 -0.0579
 6237SOL    HW130347   0.781   3.371   0.012  0.7538 -0.8766  0.1759
 6237SOL    HW230348   0.657   3.451   0.010  0.0338 -0.2629 -1.6478
 6238SOL     OW30349   1.000   3.412  15.005  0.0880  0.5903 -0.2081
 6238SOL    HW130350   0.914   3.411  14.963  0.5714  1.9338 -1.2798
 6238SOL    HW230351   1.043   3.457  14.931 -2.0963  1.5455 -0.9169
 6239SOL     OW30352   2.309   1.522   4.999 -0.0272  1.1299 -0.1469
 6239SOL    HW130353   2.377   1.471   4.954  0.3280  0.7157  0.8455
 6239SOL    HW230354   2.229   1.489   4.959  0.6301 -1.7708  0.9444
 6240SOL     OW30355   0.188   1.365   6.939 -0.1220  0.4431 -0.3903
 6240SOL    HW130356   0.186   1.348   6.845 -1.6696  0.0837 -0.2884
 6240SOL    HW230357   0.216   1.457   6.934  0.6278  0.3375  1.9012
 6241SOL     OW30358   3.389   3.804   1.219 -0.0378 -0.1463  1.1202
 6241SOL    HW130359   3.454   3.834   1.156  0.0728 -0.4806  1.0733
 6241SOL    HW230360   3.329   3.754   1.165 -0.0964  0.0046  1.0461
 6242SOL     OW30361   0.084   1.060  16.584 -0.0990 -0.2077  0.2069
 6242SOL    HW130362   0.065   1.126  16.650  0.1739 -0.3596  0.4380
 6242SOL    HW230363   0.008   1.067  16.527  1.5511  0.4708 -1.9189
 6243SOL     OW30364   1.223   3.942   3.193  0.7838  0.4411 -0.3887
 6243SOL    HW130365   1.193   3.928   3.283  1.5241  0.3133 -0.1597
 6243SOL    HW230366   1.210   4.036   3.176  0.0291  0.3322 -0.3875
 6244SOL     OW30367   3.162   0.348   6.520 -0.4299  0.3045 -0.6248
 6244SOL    HW130368   3.187   0.419   6.579  0.0089  0.3912 -0.9208
 6244SOL    HW230369   3.186   0.282   6.586 -1.9757 -0.6602 -1.0395
 6245SOL     OW30370   1.864   3.059   7.221 -0.5941  0.3183  0.4133
 6245SOL    HW130371   1.951   3.098   7.226  1.1914 -3.2608 -2.6122
 6245SOL    HW230372   1.826   3.130   7.169  0.2818  0.2742 -0.2884
 6246SOL     OW30373   0.857   1.303   9.283  0.1046 -0.0410 -0.2359
 6246SOL    HW130374   0.834   1.395   9.291 -0.6150 -0.1041 -1.5288
 6246SOL    HW230375   0.850   1.272   9.373 -2.9145  2.5698  0.4324
 6247SOL     OW30376   2.569   2.618  12.248 -0.4910  0.2151 -0.2854
 6247SOL    HW130377   2.665   2.612  12.255 -0.4515  0.9354 -0.1679
 6247SOL    HW230378   2.553   2.538  12.298  1.3001 -0.6582 -1.0822
 6248SOL     OW30379   0.447   1.187   3.974  0.1918  0.6294 -0.0746
 6248SOL    HW130380   0.498   1.175   4.054 -2.0064 -0.5405  1.1731
 6248SOL    HW230381   0.512   1.161   3.910  0.4793  0.8426  0.1320
 6249SOL     OW30382   2.146   1.506   2.617  0.4384 -0.1726  0.0600
 6249SOL    HW130383   2.219   1.568   2.614  1.0995 -0.9365  0.6043
 6249SOL    HW230384   2.111   1.514   2.706 -0.5723 -2.2563 -0.1648
 6250SOL     OW30385   2.573   1.829   7.918 -0.1332 -0.2062 -0.0602
 6250SOL    HW130386   2.588   1.735   7.916 -0.9567 -0.3789  2.0445
 6250SOL    HW230387   2.501   1.833   7.856 -0.2538 -2.1626 -0.0311
 6251SOL     OW30388   3.544   0.182   2.280  0.6060  0.2155  0.0582
 6251SOL    HW130389   3.535   0.229   2.363  0.1142 -4.7879  2.8467
 6251SOL    HW230390   3.539   0.090   2.307 -0.5923  0.7768  1.7213
 6252SOL     OW30391   0.089   3.896   2.366  0.2945 -0.5483  0.1820
 6252SOL    HW130392   0.062   3.987   2.378 -1.3675 -0.4485 -4.2893
 6252SOL    HW230393   0.137   3.904   2.284  0.4210 -0.5354  0.2577
 6253SOL     OW30394   0.211   4.433   7.216 -0.2523  0.0728 -0.3832
 6253SOL    HW130395   0.178   4.355   7.261  1.0069  0.6564  1.5338
 6253SOL    HW230396   0.234   4.389   7.134 -0.5925  0.6987 -0.8088
 6254SOL     OW30397   2.271   2.080   7.906 -0.0422  0.2695  0.1080
 6254SOL    HW130398   2.337   2.132   7.859 -1.0704  0.8330 -0.7004
 6254SOL    HW230399   2.227   2.028   7.839 -0.3186  0.2518  0.3050
 6255SOL     OW30400   4.226   0.546   2.045  0.2899 -0.3418 -0.2079
 6255SOL    HW130401   4.160   0.483   2.073 -1.1517  2.2414  2.2350
 6255SOL    HW230402   4.169   0.617   2.013  1.8807  0.4639 -1.2826
 6256SOL     OW30403   0.962   2.506  12.986  0.3776 -0.1460  0.1695
 6256SOL    HW130404   0.905   2.437  12.952 -1.7329  1.4436  0.5016
 6256SOL    HW230405   0.994   2.533  12.900 -0.1329 -1.6464 -0.4940
 6257SOL     OW30406   3.024   1.147   4.382 -0.6097 -0.5620  0.1166
 6257SOL    HW130407   2.991   1.204   4.313 -0.9947  0.1890  0.9153
 6257SOL    HW230408   3.073   1.205   4.440 -3.0588 -0.0304  1.6938
 6258SOL     OW30409   2.348   3.475  10.532  0.2753 -0.1054 -0.3532
 6258SOL    HW130410   2.260   3.498  10.505 -0.4503 -1.9703  0.4016
 6258SOL    HW230411   2.363   3.536  10.605  0.5905  1.1770 -1.4890
 6259SOL     OW30412   3.474   1.899   1.663  0.2261  0.1557 -0.0833
 6259SOL    HW130413   3.427   1.818   1.643  0.9865 -0.7546  1.7860
 6259SOL    HW230414   3.505   1.883   1.753 -0.9170  1.1585  0.4827
 6260SOL     OW30415   0.079   3.708   7.145  0.2337  0.4760 -0.0042
 6260SOL    HW130416   0.172   3.712   7.124  0.2055 -1.0573 -0.4942
 6260SOL    HW230417   0.075   3.626   7.195  2.2016  0.8307  0.7090
 6261SOL     OW30418   1.873   1.077  12.535  0.8987 -0.4184  0.3247
 6261SOL    HW130419   1.954   1.097  12.489  0.2012 -0.8271 -1.0680
 6261SOL    HW230420   1.904   0.997  12.579 -0.9636 -0.8259  0.9094
 6262SOL     OW30421   4.624   4.668   1.950 -0.0885  0.3079  0.6582
 6262SOL    HW130422   4.626   4.731   1.878 -1.4449  0.7794  1.0481
 6262SOL    HW230423   4.656   4.593   1.899 -1.7055  0.3625 -0.4389
 6263SOL     OW30424   4.153   3.467   4.710 -0.2031  0.8054 -0.1491
 6263SOL    HW130425   4.161   3.435   4.800  1.2783  0.9273 -0.2291
 6263SOL    HW230426   4.167   3.382   4.668 -0.2566  0.5417  0.3685
 6264SOL     OW30427   3.144   3.386   6.648  0.5981 -0.2401 -0.1304
 6264SOL    HW130428   3.151   3.325   6.575  0.2166 -0.7826  0.2853
 6264SOL    HW230429   3.135   3.328   6.724 -1.0831 -0.2628 -0.3435
 6265SOL     OW30430   0.422   3.361   6.564  0.4148 -0.0060 -0.1853
 6265SOL    HW130431   0.392   3.439   6.518  0.3189 -0.1069 -0.2981
 6265SOL    HW230432   0.514   3.369   6.538  0.2175  0.8077 -0.6154
 6266SOL     OW30433   0.289   4.298   6.996 -0.0263 -0.1462 -0.5903
 6266SOL    HW130434   0.245   4.220   7.031 -0.7239  0.1089 -0.8944
 6266SOL    HW230435   0.381   4.275   7.006 -0.1216  0.2319  1.1031
 6267SOL     OW30436   1.286   4.004   7.266  0.3746  0.0912 -0.1526
 6267SOL    HW130437   1.243   3.923   7.239 -1.1379  1.1482 -0.8404
 6267SOL    HW230438   1.333   3.971   7.344  1.3930  0.4889 -0.5991
 6268SOL     OW30439   1.901   3.221   0.079 -0.0373 -0.5066  0.2555
 6268SOL    HW130440   1.932   3.249   0.165 -1.3547 -1.7529  1.1249
 6268SOL    HW230441   1.977   3.242   0.024 -0.5859 -0.8426 -0.6406
 6269SOL     OW30442   3.569   0.187   7.754 -0.4573  0.1491 -0.0563
 6269SOL    HW130443   3.614   0.194   7.838  2.5241 -0.0226 -1.6509
 6269SOL    HW230444   3.638   0.223   7.698  0.1163 -2.8313 -1.2412
 6270SOL     OW30445   2.596   0.203  16.689  0.1000  0.0891  0.3798
 6270SOL    HW130446   2.522   0.145  16.705  0.8230 -1.2165 -1.0297
 6270SOL    HW230447   2.668   0.140  16.697  0.8641  0.7011 -1.8591
 6271SOL     OW30448   3.230   1.590   1.944 -0.2870  0.3947  0.7984
 6271SOL    HW130449   3.273   1.505   1.954 -0.7165 -0.0522 -1.1264
 6271SOL    HW230450   3.143   1.570   1.909  0.1597  2.1957 -1.4040
 6272SOL     OW30451   0.577   0.441  14.850  0.4099  0.1777 -0.0565
 6272SOL    HW130452   0.583   0.485  14.765 -3.1489 -1.5571 -1.1793
 6272SOL    HW230453   0.485   0.459  14.870  0.1805 -0.6276 -0.4017
 6273SOL     OW30454   4.344   4.493   3.802  0.7249 -0.0967 -0.1447
 6273SOL    HW130455   4.390   4.454   3.876  2.4884  0.0574 -1.1599
 6273SOL    HW230456   4.397   4.461   3.729  1.0157  1.3967 -0.6024
 6274SOL     OW30457   2.485   1.208  11.918 -0.0105  0.0884  0.1541
 6274SOL    HW130458   2.491   1.197  11.823 -1.1254 -1.7697  0.2816
 6274SOL    HW230459   2.415   1.146  11.939  0.0088  0.1302  0.3347
 6275SOL     OW30460   1.856   3.476   3.269 -0.0175 -0.0462 -0.1891
 6275SOL    HW130461   1.920   3.508   3.333 -0.4318  0.2371  0.0835
 6275SOL    HW230462   1.856   3.553   3.212  3.1189 -0.1633 -0.3421
 6276SOL     OW30463   2.650   0.507  11.175 -0.0102  0.5896 -0.4189
 6276SOL    HW130464   2.634   0.413  11.183  1.6227  0.3361 -0.1434
 6276SOL    HW230465   2.734   0.508  11.220 -0.6881  0.9673  0.8260
 6277SOL     OW30466   3.675   0.071   9.193  0.2209 -0.3464 -0.2833
 6277SOL    HW130467   3.674   0.041   9.284  0.9233  1.8420  0.4527
 6277SOL    HW230468   3.725   0.000   9.154  0.9635  0.7612 -1.3160
 6278SOL     OW30469   0.323   4.198   5.713 -0.5582 -0.7911 -0.1885
 6278SOL    HW130470   0.407   4.156   5.695 -0.7508 -1.5826  0.7783
 6278SOL    HW230471   0.354   4.288   5.720  0.1703 -1.1662  1.3079
 6279SOL     OW30472   2.300   3.928   3.128 -0.4880 -0.3522 -0.3536
 6279SOL    HW130473   2.342   3.961   3.208 -2.7138 -1.5013  1.3039
 6279SOL    HW230474   2.304   3.833   3.117  0.2398 -0.2361 -1.0555
 6280SOL     OW30475   0.653   2.625   5.753 -0.1388 -0.1466 -0.6986
 6280SOL    HW130476   0.719   2.662   5.812  0.2670 -0.2326 -1.1041
 6280SOL    HW230477   0.621   2.704   5.710 -0.0671 -0.1382 -0.7366
 6281SOL     OW30478   4.316   1.572   4.400 -0.7098  0.1030  0.5445
 6281SOL    HW130479   4.225   1.545   4.403 -0.7504  0.4442  2.0622
 6281SOL    HW230480   4.361   1.502   4.352  0.2959 -0.4567  2.3010
 6282SOL     OW30481   1.586   2.763   3.542  0.0662 -0.3803  0.2677
 6282SOL    HW130482   1.594   2.853   3.513 -0.2964 -0.0690  1.1418
 6282SOL    HW230483   1.680   2.745   3.548  0.3207  0.3776 -1.4640
 6283SOL     OW30484   2.902   3.830   1.880  0.1943  0.4724  0.4443
 6283SOL    HW130485   2.876   3.801   1.793 -1.4692  0.1722  1.0380
 6283SOL    HW230486   2.949   3.909   1.853 -0.0153 -0.8057 -3.6288
 6284SOL     OW30487   3.375   4.450   6.725 -0.1243  0.2514 -0.2613
 6284SOL    HW130488   3.306   4.450   6.791 -2.1020  1.1588 -2.3429
 6284SOL    HW230489   3.351   4.375   6.671  1.1617  0.8307 -1.6320
 6285SOL     OW30490   2.420   0.135   2.068 -0.0013 -0.0058  0.6014
 6285SOL    HW130491   2.468   0.169   1.993 -2.2912  2.1782  0.1291
 6285SOL    HW230492   2.352   0.083   2.025 -0.3840 -0.5288  1.8217
 6286SOL     OW30493   2.532   0.971  14.196  0.2697  0.0069 -0.2827
 6286SOL    HW130494   2.590   0.895  14.186 -0.1359 -0.5777  1.6939
 6286SOL    HW230495   2.511   1.002  14.109 -1.2542  3.1914  1.2513
 6287SOL     OW30496   0.757   3.986   0.609  0.2008  0.2208  0.5396
 6287SOL    HW130497   0.852   4.000   0.607  0.5582 -2.3194 -0.3676
 6287SOL    HW230498   0.731   4.040   0.534 -0.6556 -0.4898  0.3216
 6288SOL     OW30499   0.169   0.795  16.914 -0.2270 -0.1566  0.0256
 6288SOL    HW130500   0.158   0.881  16.875  0.5599 -0.2099 -0.3033
 6288SOL    HW230501   0.105   0.799  16.986 -1.0638 -0.7671 -0.6787
 6289SOL     OW30502   1.690   2.215  12.927 -0.5391 -0.5438 -0.3602
 6289SOL    HW130503   1.695   2.290  12.987  1.6858 -0.8835 -0.1264
 6289SOL    HW230504   1.596   2.219  12.912 -0.6689  1.4373  0.9185
 6290SOL     OW30505   0.978   4.073   3.551  0.4229 -0.1654  0.0187
 6290SOL    HW130506   0.999   4.160   3.518 -0.5722 -0.0087 -0.1870
 6290SOL    HW230507   0.975   4.091   3.645  0.5331 -1.4813  0.2732
 6291SOL     OW30508   4.706   1.223   6.477 -0.2723  0.3708  0.4228
 6291SOL    HW130509   4.622   1.189   6.445 -1.5649  1.0997  3.0484
 6291SOL    HW230510   4.694   1.315   6.452  1.9434 -0.0191 -2.1307
 6292SOL     OW30511   0.336   2.709   9.099  0.3135 -0.1651 -0.0747
 6292SOL    HW130512   0.420   2.700   9.143  0.6648 -2.3260 -1.1779
 6292SOL    HW230513   0.307   2.619   9.118  0.5230  0.1087  1.4626
 6293SOL     OW30514   2.686   1.381   4.437 -0.6251  0.2950 -0.7350
 6293SOL    HW130515   2.623   1.430   4.490  1.5835 -0.6249  2.7389
 6293SOL    HW230516   2.723   1.330   4.509 -0.0862  1.1682 -0.3989
 6294SOL     OW30517   2.844   0.764   1.379 -0.5354 -0.1356 -0.3188
 6294SOL    HW130518   2.798   0.762   1.295 -1.8418  4.5194  0.2889
 6294SOL    HW230519   2.809   0.842   1.422 -2.4403 -0.6943 -0.8543
 6295SOL     OW30520   1.384   3.327   3.513  0.2946 -0.3889 -0.1742
 6295SOL    HW130521   1.381   3.413   3.471 -1.2612 -1.7145 -2.7831
 6295SOL    HW230522   1.420   3.269   3.446 -0.8706  0.6070 -1.6614
 6296SOL     OW30523   3.621   1.042   7.593  0.0335 -0.0002 -0.5542
 6296SOL    HW130524   3.673   1.023   7.515  0.1589 -0.1184 -0.4423
 6296SOL    HW230525   3.535   1.015   7.561 -0.5950  0.0422  1.1084
 6297SOL     OW30526   2.893   4.360   3.891  0.1928 -0.1216 -0.0913
 6297SOL    HW130527   2.862   4.277   3.855 -0.9252  0.4881 -0.5424
 6297SOL    HW230528   2.910   4.403   3.807  1.2802  1.4493  0.9257
 6298SOL     OW30529   4.091   4.636  13.797 -0.1307  0.1862 -0.2711
 6298SOL    HW130530   4.039   4.596  13.727 -2.1776 -0.1623  1.4001
 6298SOL    HW230531   4.026   4.657  13.865  0.3738  1.6022 -0.2461
 6299SOL     OW30532   0.549   2.035   5.512 -0.0932 -0.5289 -0.6482
 6299SOL    HW130533   0.472   1.983   5.489 -0.1496  1.1008 -4.0767
 6299SOL    HW230534   0.515   2.102   5.571 -0.0365 -1.1036  0.0436
 6300SOL     OW30535   0.025   3.448  11.561  0.1375 -0.2363 -0.1976
 6300SOL    HW130536   0.099   3.395  11.532 -1.2588 -0.5671 -3.2306
 6300SOL    HW230537   4.702   3.426  11.492 -0.9974  0.8896  0.4924
 6301SOL     OW30538   2.906   3.188   9.236  0.4879 -0.1124  0.3035
 6301SOL    HW130539   2.965   3.131   9.286  0.6905  0.2962  0.5231
 6301SOL    HW230540   2.967   3.249   9.195  0.5447 -0.9202 -0.8473
 6302SOL     OW30541   4.497   2.665   6.658 -0.1047 -0.0428 -0.3513
 6302SOL    HW130542   4.535   2.626   6.737 -2.1809  0.7363  1.0592
 6302SOL    HW230543   4.436   2.729   6.697 -0.0722 -0.7703  0.9042
 6303SOL     OW30544   3.516   0.828   3.630 -0.1354  0.1991 -0.3256
 6303SOL    HW130545   3.485   0.904   3.581 -3.3859 -0.0139  1.4200
 6303SOL    HW230546   3.532   0.860   3.719  1.2144 -3.0118  0.5856
 6304SOL     OW30547   2.347   2.259  10.466 -0.4509  0.2495 -0.1243
 6304SOL    HW130548   2.336   2.350  10.437  0.0196  0.3651  0.0504
 6304SOL    HW230549   2.416   2.261  10.533  0.7831  0.3415 -1.3981
 6305SOL     OW30550   2.459   2.214   8.136  0.2568  0.0664 -0.1967
 6305SOL    HW130551   2.414   2.158   8.074  0.3919  0.5990 -0.7808
 6305SOL    HW230552   2.401   2.289   8.123  0.4812  0.0724 -1.1810
 6306SOL     OW30553   3.600   2.385   6.681  0.0397  0.1764 -0.1231
 6306SOL    HW130554   3.694   2.370   6.669 -0.4446 -2.7008 -0.1858
 6306SOL    HW230555   3.566   2.341   6.603  0.7903 -1.2883  0.3665
 6307SOL     OW30556   0.900   3.049   3.031 -0.5745 -0.2871 -0.1759
 6307SOL    HW130557   0.861   3.068   2.945 -0.0224 -0.9311 -0.5705
 6307SOL    HW230558   0.982   3.011   2.999 -0.6320  1.4497 -2.4293
 6308SOL     OW30559   1.483   4.549   6.738 -0.2500  0.1486 -1.2000
 6308SOL    HW130560   1.404   4.515   6.696  0.4068  0.4439 -2.6992
 6308SOL    HW230561   1.548   4.479   6.734  0.5074  0.7557  0.7144
 6309SOL     OW30562   1.549   4.293   2.551 -0.2424  0.2880 -0.8983
 6309SOL    HW130563   1.522   4.329   2.467 -3.1198  3.4174  1.3885
 6309SOL    HW230564   1.637   4.325   2.572 -0.7173  0.5513  0.6845
 6310SOL     OW30565   3.070   3.304  10.017 -0.0867  0.3102 -0.0429
 6310SOL    HW130566   3.082   3.389   9.975  1.5267 -0.3322 -0.8714
 6310SOL    HW230567   3.082   3.238   9.948 -1.2358  1.5643 -1.4517
 6311SOL     OW30568   4.239   3.537   4.397  0.3695 -0.0506 -0.4456
 6311SOL    HW130569   4.235   3.604   4.328 -0.2759  0.6745  0.3097
 6311SOL    HW230570   4.171   3.472   4.378 -1.6507  2.0550 -0.4070
 6312SOL     OW30571   4.279   0.145   4.060  0.2628 -0.1185 -0.5234
 6312SOL    HW130572   4.339   0.214   4.031  1.5584 -0.2950  1.7520
 6312SOL    HW230573   4.262   0.081   3.991 -1.9078  0.0277 -0.1431
 6313SOL     OW30574   0.687   2.699   8.171 -0.3303  0.2390 -0.2296
 6313SOL    HW130575   0.622   2.689   8.101  1.5240  1.4138 -2.1206
 6313SOL    HW230576   0.624   2.706   8.243  1.7135  0.4888  1.5351
 6314SOL     OW30577   3.354   1.282   5.728  0.4831  0.0423  0.7246
 6314SOL    HW130578   3.295   1.337   5.778 -0.1600 -0.1749  0.2046
 6314SOL    HW230579   3.423   1.342   5.700  0.4149 -1.0352 -1.7735
 6315SOL     OW30580   0.311   2.310  16.471 -0.0543 -0.2704  0.0964
 6315SOL    HW130581   0.222   2.318  16.504  0.0407  0.7474  0.1059
 6315SOL    HW230582   0.296   2.322  16.377 -1.0087 -0.2424  0.2586
 6316SOL     OW30583   1.086   0.442   2.405 -0.2517 -0.0731  0.1081
 6316SOL    HW130584   1.066   0.510   2.469  1.7410 -0.8371  1.5398
 6316SOL    HW230585   1.112   0.495   2.329 -0.9200 -1.7838 -1.3221
 6317SOL     OW30586   3.554   1.448   9.667  0.2455  0.0851  0.6240
 6317SOL    HW130587   3.634   1.501   9.666  1.0404 -1.1345 -1.4321
 6317SOL    HW230588   3.555   1.427   9.760 -0.0572  0.8073  0.7870
 6318SOL     OW30589   0.173   4.187   5.297  0.0116 -0.5881 -0.0429
 6318SOL    HW130590   0.102   4.175   5.360 -0.9101  1.1360 -0.7432
 6318SOL    HW230591   0.222   4.105   5.304 -1.4182 -1.4274  0.0566
 6319SOL     OW30592   4.053   2.945   4.070 -0.2515  0.3054 -1.0319
 6319SOL    HW130593   4.052   2.982   4.158 -0.3247 -0.3380 -0.7679
 6319SOL    HW230594   4.049   2.853   4.095 -4.9272 -0.1909 -3.5887
 6320SOL     OW30595   4.599   3.585   4.464  0.3766  0.0056 -0.7989
 6320SOL    HW130596   4.542   3.554   4.395  0.0774 -0.3519 -0.3914
 6320SOL    HW230597   4.636   3.668   4.433  0.4180 -0.1354 -1.1225
 6321SOL     OW30598   3.896   0.750   9.236  0.0638 -0.3259  0.5733
 6321SOL    HW130599   3.856   0.772   9.152  1.7668 -2.6432 -0.8730
 6321SOL    HW230600   3.883   0.826   9.292 -0.5840  0.7788 -1.1031
 6322SOL     OW30601   3.859   2.398   7.455 -0.3137  0.3531  0.1390
 6322SOL    HW130602   3.780   2.391   7.508 -0.1373 -1.7014  0.1571
 6322SOL    HW230603   3.890   2.307   7.455 -0.4772  0.2928  2.9594
 6323SOL     OW30604   3.071   1.588   7.010 -0.0562  0.6191 -0.0797
 6323SOL    HW130605   2.985   1.618   6.981 -0.7086 -0.9712  0.1849
 6323SOL    HW230606   3.124   1.624   6.939  0.8958 -2.2002 -0.8179
 6324SOL     OW30607   0.864   3.733   8.141  0.1045  0.0598 -0.2108
 6324SOL    HW130608   0.813   3.664   8.099  2.6100 -0.5218 -2.2965
 6324SOL    HW230609   0.945   3.727   8.090  0.3461  0.6748  0.1017
 6325SOL     OW30610   2.683   3.424  10.277  0.1863 -0.4667  0.7877
 6325SOL    HW130611   2.668   3.338  10.316  0.8038  0.2615  2.6378
 6325SOL    HW230612   2.779   3.423  10.280  0.2372 -1.2717 -1.4837
 6326SOL     OW30613   1.042   0.130   9.038 -0.4554 -0.3737 -0.2457
 6326SOL    HW130614   1.006   0.051   8.997 -2.7145 -0.0141  1.0899
 6326SOL    HW230615   1.120   0.105   9.088 -0.6501 -1.0092 -0.2633
 6327SOL     OW30616   1.423   2.213  12.888 -0.1845 -0.4740 -0.1243
 6327SOL    HW130617   1.368   2.257  12.824  1.0239  0.0786 -0.7796
 6327SOL    HW230618   1.432   2.275  12.960 -0.2828 -0.5412 -0.0537
 6328SOL     OW30619   1.539   2.891   6.559  0.8012 -0.0647 -0.7737
 6328SOL    HW130620   1.545   2.885   6.464 -0.6071  2.6352 -1.0348
 6328SOL    HW230621   1.531   2.985   6.575 -2.5253 -0.8253  2.2263
 6329SOL     OW30622   2.045   3.249  14.302  0.5941  0.4233 -0.3140
 6329SOL    HW130623   1.952   3.226  14.306  0.3285  1.2979 -1.4647
 6329SOL    HW230624   2.040   3.311  14.374 -0.5318 -0.2200  0.1667
 6330SOL     OW30625   0.068   1.363   7.437 -0.1644 -0.3615 -0.0369
 6330SOL    HW130626   0.109   1.449   7.439  0.0289 -0.4853  1.0860
 6330SOL    HW230627   0.028   1.365   7.350 -0.7018 -1.8967  0.1733
 6331SOL     OW30628   3.189   2.263   6.627  0.2793  0.5297  0.3057
 6331SOL    HW130629   3.106   2.307   6.643  0.0253  0.4818 -0.8987
 6331SOL    HW230630   3.242   2.310   6.691 -0.6962  1.6260  0.2926
 6332SOL     OW30631   3.665   0.748   3.400 -0.1014  0.6746  0.9801
 6332SOL    HW130632   3.619   0.802   3.465 -0.8379  0.9447  0.2419
 6332SOL    HW230633   3.684   0.812   3.331  0.9148  0.2739  0.8899
 6333SOL     OW30634   0.842   4.311   7.469 -0.0612 -0.3081 -0.3116
 6333SOL    HW130635   0.759   4.328   7.424  0.0581  2.8462  0.6519
 6333SOL    HW230636   0.856   4.226   7.428 -2.3504 -1.2228  0.8212
 6334SOL     OW30637   3.586   3.252   8.714 -0.0002  0.1090 -0.6617
 6334SOL    HW130638   3.514   3.196   8.742  0.8442  1.1020  3.6677
 6334SOL    HW230639   3.644   3.176   8.704  0.0757  0.0020  0.5103
 6335SOL     OW30640   0.958   2.402  11.593 -0.3146  0.6591  0.6023
 6335SOL    HW130641   1.014   2.380  11.520 -1.1612  0.2419  0.0808
 6335SOL    HW230642   0.932   2.491  11.570 -1.6459 -0.0005 -0.4441
 6336SOL     OW30643   3.250   1.397   6.540 -0.5032 -0.3349 -0.1524
 6336SOL    HW130644   3.210   1.434   6.460  1.0301 -2.5256 -1.9259
 6336SOL    HW230645   3.315   1.462   6.566  0.1862 -0.2657 -1.9927
 6337SOL     OW30646   2.169   0.915  17.314  0.2731  0.0782  0.1873
 6337SOL    HW130647   2.232   0.986  17.308  0.9340 -0.5729 -0.5040
 6337SOL    HW230648   2.116   0.949  17.387  2.2292 -0.4822  1.8708
 6338SOL     OW30649   2.395   0.750   6.012  0.3086 -0.0033 -0.1896
 6338SOL    HW130650   2.332   0.726   6.081 -1.3560  0.2346 -1.6310
 6338SOL    HW230651   2.464   0.705   6.062  1.5886  1.1845 -0.8881
 6339SOL     OW30652   3.009   4.107   5.478  0.7245 -0.1684 -0.3370
 6339SOL    HW130653   3.053   4.191   5.494  2.4926 -1.0894 -0.3045
 6339SOL    HW230654   3.073   4.043   5.508  0.1832 -0.7095 -0.3555
 6340SOL     OW30655   2.462   3.862  10.716  0.2847 -0.2528  0.2276
 6340SOL    HW130656   2.534   3.803  10.736 -0.3097 -1.8307 -2.2977
 6340SOL    HW230657   2.484   3.902  10.632  0.3664  0.4141  0.5688
 6341SOL     OW30658   1.613   4.197  13.785  0.3837  0.2028 -0.9888
 6341SOL    HW130659   1.587   4.271  13.729 -1.2887  0.7727  0.5516
 6341SOL    HW230660   1.529   4.178  13.826  1.6210  0.1141  1.4725
 6342SOL     OW30661   4.382   2.411   7.156  0.0161  0.1780 -0.6844
 6342SOL    HW130662   4.468   2.427   7.117 -1.3487  0.2903 -3.6395
 6342SOL    HW230663   4.339   2.492   7.129  0.9777  0.7958 -0.3770
 6343SOL     OW30664   4.155   0.722   6.922 -0.1075 -0.1810  0.4055
 6343SOL    HW130665   4.153   0.722   7.018 -1.7658  0.0252  0.3776
 6343SOL    HW230666   4.233   0.776   6.908 -0.4860  0.6032  1.3275
 6344SOL     OW30667   3.199   0.619   4.497  0.3665  0.3966  0.0937
 6344SOL    HW130668   3.271   0.560   4.472  0.3748  0.6789 -0.5685
 6344SOL    HW230669   3.172   0.649   4.410 -0.0401 -1.9100 -0.5838
 6345SOL     OW30670   0.999   0.073   3.165  0.1304 -0.1146 -0.7693
 6345SOL    HW130671   0.996   4.730   3.118  1.1508 -0.2167 -0.6587
 6345SOL    HW230672   1.057   0.044   3.235 -1.7770  0.2514  0.9600
 6346SOL     OW30673   1.328   3.394   1.058  0.8488 -0.9468  0.1725
 6346SOL    HW130674   1.233   3.386   1.047  1.0850  0.1224 -2.7373
 6346SOL    HW230675   1.330   3.490   1.062 -0.8395 -0.9421  0.9909
 6347SOL     OW30676   4.020   0.424   2.855  0.3575  0.0580  0.1147
 6347SOL    HW130677   3.937   0.448   2.896  0.1060 -0.5505 -0.0455
 6347SOL    HW230678   4.024   0.328   2.847 -1.6139 -0.0090 -0.0128
 6348SOL     OW30679   4.583   4.458  15.271  0.0547  0.1469  0.6508
 6348SOL    HW130680   4.608   4.366  15.262  1.1221  0.6131 -1.0398
 6348SOL    HW230681   4.562   4.488  15.183 -3.9269 -0.8241  1.2587
 6349SOL     OW30682   0.121   3.645   4.924  0.3796  0.5581 -0.1457
 6349SOL    HW130683   0.096   3.729   4.886  2.9644  1.8498  1.0433
 6349SOL    HW230684   0.100   3.651   5.018  0.1234  0.3083 -0.1868
 6350SOL     OW30685   2.128   2.672   7.934  0.1838 -0.0030  0.1891
 6350SOL    HW130686   2.055   2.681   7.872  1.1657 -0.3175 -1.0206
 6350SOL    HW230687   2.197   2.711   7.880  1.0683 -0.2366  1.1412
 6351SOL     OW30688   4.010   4.730  13.444 -0.3080 -0.2878 -0.3433
 6351SOL    HW130689   4.043   0.006  13.356 -2.8488  0.7613 -1.1016
 6351SOL    HW230690   4.050   0.058  13.498 -0.7576 -1.2114  1.1489
 6352SOL     OW30691   0.189   2.988   8.530 -0.3594 -0.7004  0.1036
 6352SOL    HW130692   0.115   3.034   8.490  0.8406  0.3413 -0.9350
 6352SOL    HW230693   0.268   3.043   8.524 -1.0276  0.6302  3.8624
 6353SOL     OW30694   4.570   0.101   9.087 -0.4863 -0.1833  0.0164
 6353SOL    HW130695   4.624   0.147   9.023  0.1645 -0.1432  0.6001
 6353SOL    HW230696   4.566   0.169   9.155  0.7810 -0.8442  0.7307
 6354SOL     OW30697   3.247   2.194   1.259 -0.4156 -0.1713  0.4161
 6354SOL    HW130698   3.231   2.287   1.277 -2.6990 -0.3843 -0.6117
 6354SOL    HW230699   3.231   2.158   1.346  0.5596  2.3909  1.6684
 6355SOL     OW30700   1.930   2.168   8.473  0.0969 -0.3001 -0.3677
 6355SOL    HW130701   1.993   2.102   8.502 -0.4239 -0.7598 -0.2828
 6355SOL    HW230702   1.909   2.138   8.384 -1.5316  1.2376 -0.4911
 6356SOL     OW30703   2.096   4.740   2.316 -0.2390  0.6720  0.3183
 6356SOL    HW130704   2.056   4.737   2.403  1.2046  0.8492  0.9875
 6356SOL    HW230705   2.133   0.088   2.310 -1.3136  1.0794 -0.2026
 6357SOL     OW30706   3.433   3.521   5.040 -0.5125 -0.4217  0.0899
 6357SOL    HW130707   3.370   3.575   4.992  1.1552  1.5954  0.1727
 6357SOL    HW230708   3.393   3.437   5.058 -0.6200 -0.3740  0.0725
 6358SOL     OW30709   0.614   3.945   8.990  0.2014 -0.1472 -0.0823
 6358SOL    HW130710   0.532   3.964   9.036  1.8150 -0.6543  2.9881
 6358SOL    HW230711   0.606   3.850   8.984  3.1179 -0.5042  1.8902
 6359SOL     OW30712   3.135   2.131   5.697 -0.1440  0.1870 -0.1156
 6359SOL    HW130713   3.125   2.137   5.792  0.0244  0.7272 -0.1297
 6359SOL    HW230714   3.127   2.037   5.681 -0.4795  0.2371 -0.2511
 6360SOL     OW30715   3.257   1.987   7.483  0.1575 -0.4979  0.3472
 6360SOL    HW130716   3.244   1.922   7.552 -0.6710  0.5068  1.1617
 6360SOL    HW230717   3.317   2.042   7.535  1.3110 -1.0437 -0.4207
 6361SOL     OW30718   0.089   4.642   1.308  0.4812  0.6481  0.4940
 6361SOL    HW130719   0.070   4.619   1.399 -1.2561  0.1525 -0.0011
 6361SOL    HW230720   0.156   4.577   1.289 -1.0911 -0.4881 -1.0989
 6362SOL     OW30721   2.326   1.780   0.734  0.2591 -0.5642 -0.1389
 6362SOL    HW130722   2.268   1.855   0.746 -1.7526 -2.1571  0.1254
 6362SOL    HW230723   2.305   1.724   0.809  1.3165  0.7283  1.1177
 6363SOL     OW30724   4.624   3.039  17.064 -0.6502 -0.2263  0.0749
 6363SOL    HW130725   4.554   3.090  17.024 -1.4547 -2.4962 -1.3764
 6363SOL    HW230726   4.595   3.055  17.153  1.2930  1.7828  0.3695
 6364SOL     OW30727   1.845   1.119   5.113  0.4528 -0.3822  0.6468
 6364SOL    HW130728   1.882   1.031   5.105  3.3980  1.0707 -1.7487
 6364SOL    HW230729   1.909   1.159   5.171  1.0374 -3.1197  1.8917
 6365SOL     OW30730   3.299   0.481   7.556 -0.2141 -0.7060  0.0146
 6365SOL    HW130731   3.291   0.455   7.647 -0.1381 -0.2906  0.1375
 6365SOL    HW230732   3.264   0.400   7.518 -1.2051 -0.1961 -0.1367
 6366SOL     OW30733   1.790   2.032   3.689 -0.2326  0.4493  0.2458
 6366SOL    HW130734   1.741   2.062   3.612 -1.1527 -1.3982  0.1227
 6366SOL    HW230735   1.721   2.043   3.755 -1.3956  0.0177 -0.9064
 6367SOL     OW30736   3.393   3.705   9.060  0.0769  0.0530  0.1401
 6367SOL    HW130737   3.432   3.623   9.092 -1.1300 -0.2442  0.8455
 6367SOL    HW230738   3.465   3.742   9.008  1.1550 -0.3462  1.3269
 6368SOL     OW30739   2.232   3.761   6.622 -0.0028 -0.3380  0.1410
 6368SOL    HW130740   2.235   3.681   6.569  0.1371 -0.3930  0.2327
 6368SOL    HW230741   2.137   3.774   6.622  0.1352  0.5950  1.1190
 6369SOL     OW30742   2.464   3.482   1.691 -0.1944  0.2953 -0.0494
 6369SOL    HW130743   2.521   3.415   1.655 -1.1841 -1.3287  1.4113
 6369SOL    HW230744   2.385   3.444   1.654 -0.3012 -1.4782  2.0099
 6370SOL     OW30745   0.363   3.308   4.969 -0.3748  0.9113  0.4664
 6370SOL    HW130746   0.352   3.229   4.917 -1.2610  2.2144 -1.3184
 6370SOL    HW230747   0.325   3.371   4.909  1.8057  0.3893 -1.4625
 6371SOL     OW30748   3.015   4.036   6.110  0.0530 -0.2368 -0.3886
 6371SOL    HW130749   2.980   3.967   6.167  0.2433 -0.3869 -0.4546
 6371SOL    HW230750   2.989   3.998   6.026  0.0559 -1.2017  0.0471
 6372SOL     OW30751   1.872   2.023   5.223  0.2054  0.0635  0.4466
 6372SOL    HW130752   1.951   2.058   5.182 -0.1936  0.6401  0.1567
 6372SOL    HW230753   1.837   2.106   5.256 -0.9358 -0.3203  0.2015
 6373SOL     OW30754   3.620   1.812   5.841 -1.5344 -0.1660 -0.2035
 6373SOL    HW130755   3.622   1.716   5.845 -1.5128 -0.1219  0.8479
 6373SOL    HW230756   3.539   1.815   5.789 -0.9061  0.2824 -1.1492
 6374SOL     OW30757   1.242   3.611   7.814 -0.0750 -0.2127  0.2427
 6374SOL    HW130758   1.288   3.674   7.869  0.8138  0.9593 -1.8698
 6374SOL    HW230759   1.318   3.569   7.774  1.1348  2.2180  0.0526
 6375SOL     OW30760   3.338   1.282   9.175  0.1551  0.1526  0.4762
 6375SOL    HW130761   3.375   1.220   9.238 -0.4553 -0.4458  0.2395
 6375SOL    HW230762   3.246   1.279   9.200  0.2181 -0.7139  0.5743
 6376SOL     OW30763   2.674   4.621   7.814  0.2226 -1.2025  0.0424
 6376SOL    HW130764   2.684   4.611   7.909  1.7437 -0.9341 -0.0921
 6376SOL    HW230765   2.593   4.672   7.811  1.4716  0.6708 -1.6734
 6377SOL     OW30766   2.703   3.558   9.571 -0.5428 -0.0303 -0.2431
 6377SOL    HW130767   2.729   3.566   9.663 -2.0217  1.3214  0.0680
 6377SOL    HW230768   2.630   3.620   9.581 -0.2186  0.3784 -0.4279
 6378SOL     OW30769   3.687   0.421   8.911 -0.1931  0.4558  0.0821
 6378SOL    HW130770   3.710   0.392   8.999  0.3095  3.3619  0.9285
 6378SOL    HW230771   3.743   0.499   8.903  0.5428  0.0970  1.7875
 6379SOL     OW30772   0.504   2.737   3.212  0.4892 -0.4376 -0.3650
 6379SOL    HW130773   0.540   2.818   3.174  0.9609  0.4197  1.9114
 6379SOL    HW230774   0.586   2.689   3.227 -0.6648 -2.7494 -1.4672
 6380SOL     OW30775   2.089   3.679   4.591  0.1436 -0.3888 -0.3118
 6380SOL    HW130776   2.155   3.674   4.660  1.8602 -1.2453 -2.0075
 6380SOL    HW230777   2.112   3.601   4.541  0.9987 -1.8731  2.3944
 6381SOL     OW30778   0.646   3.584   8.077 -0.0131 -0.2840  0.3176
 6381SOL    HW130779   0.557   3.602   8.109  0.0452  1.4694 -0.5117
 6381SOL    HW230780   0.627   3.611   7.988  0.7438 -0.0022  0.2422
 6382SOL     OW30781   0.639   3.814   8.315  0.0615  0.0757  0.5366
 6382SOL    HW130782   0.716   3.787   8.265 -1.7013 -2.3012 -0.8704
 6382SOL    HW230783   0.584   3.863   8.255 -0.4127  0.3155  1.1719
 6383SOL     OW30784   3.476   1.870  11.608  0.0603 -0.1122  0.1420
 6383SOL    HW130785   3.389   1.904  11.628 -0.7118 -1.4330 -0.8977
 6383SOL    HW230786   3.505   1.931  11.541  1.3280  1.6155  2.2821
 6384SOL     OW30787   4.413   1.905   8.691  0.1020  0.2940  0.0528
 6384SOL    HW130788   4.383   1.983   8.644  1.6498  0.0801 -1.2915
 6384SOL    HW230789   4.489   1.888   8.635  1.0077 -1.1085  1.7038
 6385SOL     OW30790   3.753   2.801   1.700  0.5800 -0.2749  0.0102
 6385SOL    HW130791   3.794   2.724   1.658  1.2924  0.4225 -0.5764
 6385SOL    HW230792   3.739   2.862   1.628  1.7919 -0.0654 -0.0563
 6386SOL     OW30793   1.411   2.565   3.606 -0.3216  0.5338  0.3603
 6386SOL    HW130794   1.330   2.613   3.625  0.0281  1.9019 -1.6384
 6386SOL    HW230795   1.464   2.640   3.578 -0.0586 -0.3460 -1.4685
 6387SOL     OW30796   4.238   0.147   3.754  0.2503 -0.2885  0.1472
 6387SOL    HW130797   4.308   0.102   3.708  0.4099  0.6633 -0.5416
 6387SOL    HW230798   4.294   0.223   3.772 -0.0217 -0.0650  0.0413
 6388SOL     OW30799   4.120   2.089  15.568  0.1809 -0.0118  0.6093
 6388SOL    HW130800   4.140   1.997  15.551  2.0940  0.5731 -0.2378
 6388SOL    HW230801   4.162   2.138  15.497 -0.3133 -3.3773 -1.9981
 6389SOL     OW30802   0.867   0.452   2.216  0.3262  0.2067 -0.1044
 6389SOL    HW130803   0.920   0.524   2.252 -0.0644  0.8010 -0.7041
 6389SOL    HW230804   0.932   0.399   2.170 -0.3684 -1.0670  0.4146
 6390SOL     OW30805   3.218   3.147   5.856  0.8940  0.2317  0.7809
 6390SOL    HW130806   3.207   3.102   5.772 -0.1773  1.1588  0.4215
 6390SOL    HW230807   3.312   3.165   5.856  1.2426 -1.6200 -1.2789
 6391SOL     OW30808   3.426   3.981   9.174  0.0165  0.1097 -0.0488
 6391SOL    HW130809   3.382   3.931   9.242  0.2671  2.4248  1.8060
 6391SOL    HW230810   3.502   3.928   9.150 -1.9552 -1.5100 -2.7574
 6392SOL     OW30811   0.218   4.683   3.214 -0.5238  0.1752 -0.1210
 6392SOL    HW130812   0.129   4.686   3.248 -0.6726 -1.0761 -0.3981
 6392SOL    HW230813   0.224   4.588   3.201 -0.1615  0.4303 -1.8687
 6393SOL     OW30814   1.251   2.116   9.715 -0.0680 -0.0313  0.2709
 6393SOL    HW130815   1.246   2.086   9.806 -2.3298 -0.0444  0.1426
 6393SOL    HW230816   1.340   2.098   9.686 -0.0401 -1.3087  1.1479
 6394SOL     OW30817   4.337   4.097   8.714 -0.0906  0.3370 -0.0502
 6394SOL    HW130818   4.427   4.110   8.744 -0.3238 -1.3978  1.4430
 6394SOL    HW230819   4.283   4.163   8.758  0.5269  0.0809  1.0960
 6395SOL     OW30820   2.455   2.015   1.615  0.1276 -0.1127  0.1724
 6395SOL    HW130821   2.456   1.919   1.608  0.0901 -0.3800  3.7746
 6395SOL    HW230822   2.400   2.039   1.541  0.8784  0.5549 -0.1734
 6396SOL     OW30823   1.476   3.572   6.558 -0.4738 -0.0167 -0.1707
 6396SOL    HW130824   1.414   3.512   6.600  0.1033 -0.4213  0.1038
 6396SOL    HW230825   1.423   3.615   6.491 -1.1084 -0.5186  0.0134
 6397SOL     OW30826   3.429   2.540   1.714 -0.0696 -0.0727 -0.3297
 6397SOL    HW130827   3.456   2.617   1.663  0.1691  0.5503  0.7402
 6397SOL    HW230828   3.453   2.466   1.658 -0.3025  0.2880 -0.9103
 6398SOL     OW30829   4.460   0.938   9.594  0.1358  0.4396  0.8710
 6398SOL    HW130830   4.521   0.925   9.522 -2.0513 -1.1043 -0.7110
 6398SOL    HW230831   4.466   0.852   9.637 -0.5228 -0.6324 -1.1444
 6399SOL     OW30832   0.022   3.099  11.606  0.6634 -0.9531  0.3292
 6399SOL    HW130833   4.720   3.125  11.524 -0.5637 -3.1551  0.2703
 6399SOL    HW230834   4.690   3.112  11.667 -1.0140 -0.4912 -1.7590
 6400SOL     OW30835   2.141   1.828  14.037  0.5300  0.2517  0.1316
 6400SOL    HW130836   2.098   1.870  13.962 -2.2590 -1.5527  0.7346
 6400SOL    HW230837   2.187   1.757  13.993  0.4880 -0.1339  0.7137
 6401SOL     OW30838   0.613   3.114  16.344 -0.3399 -0.1086 -0.5767
 6401SOL    HW130839   0.549   3.089  16.278 -1.0838 -0.5279  0.2995
 6401SOL    HW230840   0.664   3.167  16.283 -0.5574 -0.2591 -0.8860
 6402SOL     OW30841   3.929   3.937   5.012  0.5700  0.4179  0.3367
 6402SOL    HW130842   3.860   3.934   5.078  0.7156  0.5669  0.4962
 6402SOL    HW230843   3.996   3.885   5.056 -0.2942  1.0886  2.4181
 6403SOL     OW30844   1.894   3.010  12.609 -0.1269  0.7237  0.0247
 6403SOL    HW130845   1.941   3.057  12.678  2.0396  0.9108 -1.5691
 6403SOL    HW230846   1.949   2.932  12.608 -0.7496  0.3096 -1.0943
 6404SOL     OW30847   2.366   1.439   4.188 -0.2140 -0.7859 -0.3194
 6404SOL    HW130848   2.277   1.473   4.182 -0.2025 -0.2289  2.9038
 6404SOL    HW230849   2.357   1.345   4.175  1.7117 -1.2574  1.6913
 6405SOL     OW30850   2.771   2.114   3.236 -0.0820 -0.2904  0.3455
 6405SOL    HW130851   2.686   2.094   3.197 -1.0291  0.4949  1.9911
 6405SOL    HW230852   2.753   2.103   3.330  0.6065 -1.2943  0.3559
 6406SOL     OW30853   3.659   3.761   7.445  0.1780  0.1401  0.8683
 6406SOL    HW130854   3.571   3.774   7.410  0.4281  1.2707  0.6672
 6406SOL    HW230855   3.637   3.694   7.510 -1.1493 -1.7953 -1.5345
 6407SOL     OW30856   3.917   2.569   1.154  0.0800 -0.4823  0.2364
 6407SOL    HW130857   3.983   2.573   1.084 -0.9688 -0.4868 -0.7597
 6407SOL    HW230858   3.944   2.485   1.189 -0.6200  0.4652  3.0137
 6408SOL     OW30859   1.394   1.256   7.450  0.5071 -0.5760 -0.2066
 6408SOL    HW130860   1.436   1.203   7.517  0.0169 -0.4024  0.2353
 6408SOL    HW230861   1.467   1.318   7.447 -0.1587  0.2510  0.6387
 6409SOL     OW30862   3.798   2.936  10.850  0.0133 -0.4741 -0.2659
 6409SOL    HW130863   3.871   2.874  10.849 -0.1534 -0.6706  0.9715
 6409SOL    HW230864   3.726   2.877  10.872 -0.5003  0.6173  0.9203
 6410SOL     OW30865   0.552   2.160   3.207 -0.7390  0.3009  0.3930
 6410SOL    HW130866   0.586   2.224   3.145  0.2684 -0.2243  0.4053
 6410SOL    HW230867   0.459   2.186   3.207 -0.8999 -0.2840  2.4498
 6411SOL     OW30868   3.164   1.724   2.265 -0.1067 -0.8576 -0.1141
 6411SOL    HW130869   3.178   1.630   2.262 -0.2163 -0.8775  0.0423
 6411SOL    HW230870   3.167   1.749   2.172  0.8555 -0.0206  0.1369
 6412SOL     OW30871   2.870   0.394   0.158  0.1979 -0.3153  0.0066
 6412SOL    HW130872   2.816   0.318   0.180  0.5569 -0.0380  1.8798
 6412SOL    HW230873   2.872   0.383   0.063  1.5980 -2.4568  0.2951
 6413SOL     OW30874   4.685   1.286   2.645  0.0664 -0.3272  0.1859
 6413SOL    HW130875   4.706   1.281   2.738  0.0412  1.8451  0.3240
 6413SOL    HW230876   4.702   1.376   2.617 -0.0984 -0.9984 -2.0493
 6414SOL     OW30877   4.213   1.131   8.922 -0.1932 -0.3905 -0.5157
 6414SOL    HW130878   4.187   1.149   8.832 -2.5315 -2.0261 -0.1572
 6414SOL    HW230879   4.309   1.137   8.917 -0.1350 -0.7612  0.1728
 6415SOL     OW30880   4.439   1.042  16.693 -0.0758  0.2239  0.2969
 6415SOL    HW130881   4.382   0.979  16.737 -0.7019 -0.3283 -1.3105
 6415SOL    HW230882   4.439   1.015  16.602 -0.0107 -0.0353  0.3728
 6416SOL     OW30883   3.175   1.319  10.532  0.2860  0.7040  0.7694
 6416SOL    HW130884   3.091   1.352  10.498 -0.7206 -4.4389 -1.8716
 6416SOL    HW230885   3.169   1.227  10.506  0.7291  0.0134  3.1617
 6417SOL     OW30886   0.236   1.783  13.877  0.2041 -0.2194 -0.0422
 6417SOL    HW130887   0.235   1.866  13.831 -0.2333 -1.5598 -2.4636
 6417SOL    HW230888   0.325   1.755  13.855  0.0566 -1.8487  1.3517
 6418SOL     OW30889   3.002   4.373   0.425 -0.1924 -0.4489  0.0713
 6418SOL    HW130890   2.998   4.466   0.404  0.7988 -0.4277 -0.0321
 6418SOL    HW230891   2.987   4.382   0.519  1.1230 -1.6202  0.3990
 6419SOL     OW30892   3.251   3.775   1.987  0.2111  0.0552 -0.4153
 6419SOL    HW130893   3.163   3.759   2.022  1.6297 -3.1561  1.6357
 6419SOL    HW230894   3.223   3.796   1.898  1.1779  1.4400 -0.3946
 6420SOL     OW30895   0.429   4.377  16.439  0.0595 -0.1041  0.2664
 6420SOL    HW130896   0.466   4.451  16.487  1.5744 -0.6183 -0.0971
 6420SOL    HW230897   0.383   4.329  16.508 -0.9114  3.3068  1.9593
 6421SOL     OW30898   0.143   0.957  11.044 -0.0217 -0.2730  0.4015
 6421SOL    HW130899   0.084   0.908  10.987 -0.4000  0.1923  0.3944
 6421SOL    HW230900   0.089   0.987  11.118 -1.0517  0.7054 -0.7541
 6422SOL     OW30901   2.723   0.603  17.306 -0.2326  0.6180  0.6657
 6422SOL    HW130902   2.712   0.534  17.241  0.7227 -2.8690  4.1801
 6422SOL    HW230903   2.679   0.558  17.378 -1.2415 -1.2232 -1.0883
 6423SOL     OW30904   3.707   1.988   7.551 -0.3388  0.5396  0.4989
 6423SOL    HW130905   3.638   1.921   7.552  1.0816 -0.9391  0.3185
 6423SOL    HW230906   3.696   2.023   7.639  0.6103 -0.2287  0.9268
 6424SOL     OW30907   3.644   3.266   5.659 -0.3393  0.2851  0.3928
 6424SOL    HW130908   3.733   3.263   5.693 -0.2851  1.8853  0.3976
 6424SOL    HW230909   3.647   3.354   5.621 -0.2509 -0.0606 -0.3998
 6425SOL     OW30910   4.187   0.895   5.194  0.8409 -0.0986 -0.1794
 6425SOL    HW130911   4.201   0.811   5.237  0.0441 -0.1837 -0.0871
 6425SOL    HW230912   4.129   0.930   5.261 -0.3596  0.5469 -1.5699
 6426SOL     OW30913   2.128   0.027   6.000  0.6917  0.6084 -0.4867
 6426SOL    HW130914   2.132   0.101   6.061 -1.3365  0.0279  0.3255
 6426SOL    HW230915   2.053   0.050   5.945  0.1552 -2.4755 -1.0533
 6427SOL     OW30916   0.855   2.864   8.292 -0.7536 -0.1529  0.2621
 6427SOL    HW130917   0.934   2.811   8.277 -0.7617  0.0340 -0.4705
 6427SOL    HW230918   0.790   2.809   8.248 -1.9814  2.8109 -1.5854
 6428SOL     OW30919   1.868   2.579  12.610 -0.3278  0.2421  0.1354
 6428SOL    HW130920   1.872   2.484  12.620  2.3585  0.0266 -3.2135
 6428SOL    HW230921   1.815   2.589  12.689 -2.8321  0.1774 -1.5561
 6429SOL     OW30922   4.090   2.895   3.385 -0.4893  0.5469 -0.3056
 6429SOL    HW130923   4.101   2.805   3.418  4.3662  0.5212 -1.9491
 6429SOL    HW230924   4.019   2.931   3.438 -0.7316 -0.6872  0.2290
 6430SOL     OW30925   1.766   4.059   9.472  0.3236 -0.0666 -0.2160
 6430SOL    HW130926   1.745   3.975   9.514  1.3021 -1.1587 -1.9105
 6430SOL    HW230927   1.768   4.113   9.551  0.7040 -1.2720  0.6139
 6431SOL     OW30928   2.549   1.057   2.605 -0.1620  0.0388  0.1372
 6431SOL    HW130929   2.544   0.974   2.652  2.8457 -0.7760 -0.9813
 6431SOL    HW230930   2.480   1.105   2.650  0.6269 -0.4857  1.8821
 6432SOL     OW30931   2.859   0.293   9.779 -0.1649 -0.5017 -0.2565
 6432SOL    HW130932   2.855   0.369   9.838  0.0894 -0.9169  0.2983
 6432SOL    HW230933   2.947   0.304   9.745 -1.0296  1.4944 -1.8453
 6433SOL     OW30934   3.127   1.719   3.936 -0.8352 -0.2885  0.1035
 6433SOL    HW130935   3.190   1.766   3.881 -1.1436 -0.3514 -0.3033
 6433SOL    HW230936   3.119   1.784   4.004 -0.6877 -0.4963  0.3202
 6434SOL     OW30937   4.509   3.979   6.653  0.2179  0.0324 -0.1634
 6434SOL    HW130938   4.512   3.959   6.746 -0.6540  1.2252  0.1202
 6434SOL    HW230939   4.455   4.057   6.639 -2.6481 -2.3232 -2.1178
 6435SOL     OW30940   1.661   2.778   3.210 -0.1713  0.0856  0.3290
 6435SOL    HW130941   1.661   2.693   3.166  2.0509 -1.1692  2.7458
 6435SOL    HW230942   1.566   2.787   3.219 -0.1597 -0.0931  0.6249
 6436SOL     OW30943   2.574   3.813   2.186 -0.0108  0.2802 -0.4395
 6436SOL    HW130944   2.650   3.756   2.178 -0.2745 -0.1099 -0.1523
 6436SOL    HW230945   2.521   3.780   2.259  0.1288 -0.5556 -0.7153
 6437SOL     OW30946   3.825   4.112   7.431  0.0011  0.0251 -0.0628
 6437SOL    HW130947   3.906   4.129   7.383  0.7770 -1.7042  0.6234
 6437SOL    HW230948   3.852   4.042   7.491 -0.3640  0.0343  0.1115
 6438SOL     OW30949   3.826   1.431   2.425 -0.2659 -0.4435 -0.1976
 6438SOL    HW130950   3.906   1.384   2.404  0.8012  0.8103  1.0812
 6438SOL    HW230951   3.762   1.374   2.383  0.6253 -0.3638 -1.6640
 6439SOL     OW30952   3.140   0.112  15.042  0.0226 -0.4940 -0.3876
 6439SOL    HW130953   3.178   0.105  15.129  2.2386  0.3930 -1.2901
 6439SOL    HW230954   3.149   0.207  15.029 -0.2919 -0.4331 -0.1717
 6440SOL     OW30955   0.112   3.424  10.586  0.0392 -0.2623 -0.4261
 6440SOL    HW130956   0.163   3.374  10.649  1.1270 -1.3616 -2.1589
 6440SOL    HW230957   0.112   3.511  10.626 -1.4274 -1.2424  1.6961
 6441SOL     OW30958   1.069   0.932   2.016 -0.4151  0.2895  0.4574
 6441SOL    HW130959   1.088   0.924   1.922 -1.6569 -1.4190  0.3711
 6441SOL    HW230960   1.159   0.950   2.046 -1.0246  1.3473  1.6377
 6442SOL     OW30961   0.919   1.869   6.813 -0.5442  0.3458  0.1925
 6442SOL    HW130962   0.955   1.941   6.865 -1.7045 -0.0742  1.6146
 6442SOL    HW230963   0.980   1.876   6.741  0.2625 -0.2507  0.8155
 6443SOL     OW30964   4.099   2.889   3.009 -0.0289  0.1756 -0.6782
 6443SOL    HW130965   4.029   2.859   3.067  0.7628  0.6526  0.5015
 6443SOL    HW230966   4.159   2.949   3.052 -0.2417  0.7049 -1.1151
 6444SOL     OW30967   1.935   0.818  17.100 -0.2090 -0.7010 -0.2630
 6444SOL    HW130968   1.940   0.775  17.014 -0.4602 -0.4840 -0.3840
 6444SOL    HW230969   1.972   0.752  17.159  1.4774  3.5663  3.4109
 6445SOL     OW30970   2.518   3.427  12.025 -0.4684  0.3205 -0.7112
 6445SOL    HW130971   2.522   3.453  12.117  0.5776  0.9540 -0.9402
 6445SOL    HW230972   2.504   3.332  12.023  2.1937 -0.1758  4.3797
 6446SOL     OW30973   1.806   4.682  17.331  0.5669 -0.2111  0.1341
 6446SOL    HW130974   1.738   4.717  17.274  1.0256 -2.1773 -1.6455
 6446SOL    HW230975   1.861   0.019  17.346  3.2664 -1.5707 -2.7435
 6447SOL     OW30976   2.023   2.633   8.920  0.1437 -0.1369  0.1632
 6447SOL    HW130977   2.093   2.699   8.923  1.3412 -1.3845  0.0578
 6447SOL    HW230978   2.022   2.595   9.007  0.9192 -0.3974  0.0643
 6448SOL     OW30979   2.247   0.819   0.014 -0.5419 -0.0491  0.3760
 6448SOL    HW130980   2.254   0.759  17.698  1.3709 -0.2730  0.7229
 6448SOL    HW230981   2.338   0.825   0.045 -0.2364  0.3791 -0.5903
 6449SOL     OW30982   4.106   1.632   7.108  0.4485 -0.4494 -0.0943
 6449SOL    HW130983   4.039   1.668   7.166  1.3114  1.0294 -0.0194
 6449SOL    HW230984   4.172   1.638   7.178  0.1480  1.4144  0.0264
 6450SOL     OW30985   3.002   1.672   7.616  0.0363 -0.3846 -0.2564
 6450SOL    HW130986   2.915   1.711   7.629 -0.0010  0.2484 -2.3540
 6450SOL    HW230987   3.057   1.749   7.629  0.1697 -0.6057  0.4957
 6451SOL     OW30988   2.260   2.945   5.411  0.5781  0.0497 -0.3125
 6451SOL    HW130989   2.223   2.862   5.443 -2.7745  1.5525 -0.3025
 6451SOL    HW230990   2.352   2.922   5.399  0.5385  0.1725 -0.8520
 6452SOL     OW30991   3.898   1.664  16.139  0.7111  0.1230 -0.5583
 6452SOL    HW130992   3.864   1.723  16.071 -0.4811 -1.3885 -1.3015
 6452SOL    HW230993   3.852   1.581  16.125 -2.3997  1.7868 -0.2624
 6453SOL     OW30994   4.326   2.088  15.751  0.2231 -0.0862  0.4745
 6453SOL    HW130995   4.244   2.118  15.713 -1.1924 -1.4793  2.4382
 6453SOL    HW230996   4.381   2.087  15.672 -2.7597 -0.9140 -1.5665
 6454SOL     OW30997   2.396   1.370   6.931  0.2962  0.5101 -0.1010
 6454SOL    HW130998   2.331   1.382   7.000  2.0879  1.2407  1.4548
 6454SOL    HW230999   2.339   1.338   6.861  0.2641  0.3507 -0.0006
 6455SOL     OW31000   4.657   3.415   7.126 -0.3379 -0.5066  0.2542
 6455SOL    HW131001   4.711   3.336   7.135  0.1950 -0.0590  0.9742
 6455SOL    HW231002   4.704   3.469   7.062  0.3507 -2.3105 -0.7650
 6456SOL     OW31003   0.821   0.641   8.851  0.2606  0.2209  0.4488
 6456SOL    HW131004   0.795   0.679   8.767  0.0844 -0.2550  0.2897
 6456SOL    HW231005   0.855   0.719   8.896 -2.1687  1.0330  0.8639
 6457SOL     OW31006   2.711   4.661  10.408  0.1717  0.1368 -0.1149
 6457SOL    HW131007   2.726   4.592  10.344 -2.0856 -0.7559  0.3154
 6457SOL    HW231008   2.701   4.734  10.347 -1.0390 -1.7193 -2.1116
 6458SOL     OW31009   4.451   1.320   2.925  0.4110  0.4136  0.6372
 6458SOL    HW131010   4.395   1.335   2.849  2.2984  0.4198 -0.7531
 6458SOL    HW231011   4.514   1.391   2.925  1.1028 -0.2010  0.4429
 6459SOL     OW31012   1.963   0.899   5.000 -0.0723  0.6568  0.6450
 6459SOL    HW131013   2.050   0.894   4.961 -0.2562  0.7276  0.2294
 6459SOL    HW231014   1.893   0.913   4.936  0.1359 -0.4620  0.1613
 6460SOL     OW31015   4.542   1.683   2.459 -0.0395 -0.6520  0.8747
 6460SOL    HW131016   4.569   1.602   2.417 -0.3059 -1.3110  1.9788
 6460SOL    HW231017   4.475   1.719   2.400  0.9920 -2.0252 -1.1467
 6461SOL     OW31018   3.105   3.507   4.123 -0.5259 -0.2059 -0.0335
 6461SOL    HW131019   3.090   3.535   4.213  2.3952  0.5403  0.2029
 6461SOL    HW231020   3.058   3.423   4.128  0.0295 -0.4614  0.8819
 6462SOL     OW31021   2.353   1.341  16.406 -0.3712  0.2150 -0.8098
 6462SOL    HW131022   2.343   1.378  16.494  1.6740  0.1062 -0.5467
 6462SOL    HW231023   2.319   1.251  16.408  1.0225 -0.3278 -1.6802
 6463SOL     OW31024   0.790   1.962   8.123 -0.4214  0.4589 -0.6128
 6463SOL    HW131025   0.757   1.964   8.033 -0.4274 -1.0422 -0.6352
 6463SOL    HW231026   0.818   1.871   8.134  0.0511  0.3445 -2.6495
 6464SOL     OW31027   1.655   2.481   8.503  0.1178  0.1731  0.3527
 6464SOL    HW131028   1.619   2.569   8.490 -0.6767  0.0179  1.5476
 6464SOL    HW231029   1.683   2.482   8.594  2.3686  3.1154 -0.3688
 6465SOL     OW31030   3.281   2.045  14.957 -0.3329 -0.3458 -0.1832
 6465SOL    HW131031   3.206   1.986  14.957  0.3616 -1.2431  2.8438
 6465SOL    HW231032   3.261   2.098  14.880  1.0042  0.3966 -0.0211
 6466SOL     OW31033   4.184   0.099   8.640  0.0484 -0.1477 -0.0838
 6466SOL    HW131034   4.100   0.131   8.672  0.1872 -0.7719  0.9035
 6466SOL    HW231035   4.240   0.135   8.709 -0.3909 -0.1067  0.2484
 6467SOL     OW31036   0.031   3.571   5.182  0.0441  0.2140 -0.3535
 6467SOL    HW131037   0.010   3.636   5.249  1.0875  0.8384 -0.6378
 6467SOL    HW231038   4.682   3.540   5.165 -0.4546  1.0794  0.6401
 6468SOL     OW31039   1.727   0.690  14.815  0.3443  0.7356 -0.0495
 6468SOL    HW131040   1.724   0.606  14.768 -1.0938  0.9055 -0.2355
 6468SOL    HW231041   1.634   0.704  14.832  0.0078 -1.4608 -0.0324
 6469SOL     OW31042   4.045   3.284  14.800  0.0470  0.3242 -0.4081
 6469SOL    HW131043   4.138   3.278  14.777  0.4691 -0.1942  1.4002
 6469SOL    HW231044   4.058   3.314  14.890  1.7967 -1.0643 -0.1858
 6470SOL     OW31045   1.308   4.253   7.143 -0.1833  0.2428 -0.0674
 6470SOL    HW131046   1.275   4.177   7.190 -0.5528  1.4563  1.6529
 6470SOL    HW231047   1.402   4.248   7.162 -0.0490  0.5702 -0.6284
 6471SOL     OW31048   3.057   0.216   0.828 -0.2994 -0.5789 -0.0690
 6471SOL    HW131049   3.016   0.261   0.754 -1.1452  2.1393  2.0867
 6471SOL    HW231050   3.133   0.179   0.783 -0.9341 -2.6779  0.6003
 6472SOL     OW31051   3.340   2.761   0.529  0.1840  0.3208  0.6593
 6472SOL    HW131052   3.395   2.839   0.532  2.4952 -1.3085  0.2583
 6472SOL    HW231053   3.271   2.811   0.575  0.1028  0.7956  0.0153
 6473SOL     OW31054   4.283   2.295   4.698 -0.2485  0.1719 -0.8051
 6473SOL    HW131055   4.253   2.215   4.741  0.2385  1.3466  1.6928
 6473SOL    HW231056   4.246   2.360   4.757 -0.4497 -2.7068  2.2639
 6474SOL     OW31057   0.983   2.388   2.751  0.0803  0.4795  0.0395
 6474SOL    HW131058   1.041   2.464   2.749 -0.5371  1.0091  2.3820
 6474SOL    HW231059   1.033   2.311   2.776  0.7059  1.2114  1.0422
 6475SOL     OW31060   1.199   4.049   7.552  0.1120  0.3795  0.2843
 6475SOL    HW131061   1.132   3.985   7.527  0.0723 -0.4854  2.5707
 6475SOL    HW231062   1.203   4.107   7.476 -2.5928 -0.2690 -0.3504
 6476SOL     OW31063   0.288   3.752   1.304 -1.0156 -0.2784 -0.0897
 6476SOL    HW131064   0.291   3.799   1.221  1.7924  1.0465  0.7929
 6476SOL    HW231065   0.204   3.783   1.337 -1.3489 -0.0906 -1.1045
 6477SOL     OW31066   4.539   3.571   6.639 -0.2780 -0.4594 -0.4261
 6477SOL    HW131067   4.576   3.503   6.583  1.0478 -2.1654  2.5208
 6477SOL    HW231068   4.531   3.524   6.722 -1.4689  1.7600  0.7325
 6478SOL     OW31069   1.416   2.441   8.079 -0.4773 -0.7317 -0.1666
 6478SOL    HW131070   1.471   2.510   8.041 -0.9209 -0.3166 -0.0613
 6478SOL    HW231071   1.481   2.377   8.106 -0.6160 -0.9962 -0.4640
 6479SOL     OW31072   1.139   2.881   8.968  0.2553 -0.3022 -0.2773
 6479SOL    HW131073   1.159   2.833   8.888  0.1679  0.1037 -0.5409
 6479SOL    HW231074   1.046   2.903   8.957  0.4517  0.7787  0.2195
 6480SOL     OW31075   0.503   0.348   5.316 -0.4536 -0.2634  0.6128
 6480SOL    HW131076   0.481   0.441   5.319  0.5562 -0.0227  0.5616
 6480SOL    HW231077   0.422   0.301   5.297 -0.9057  0.2531  1.2778
 6481SOL     OW31078   2.225   2.521   5.583 -0.0743 -0.2807  0.5746
 6481SOL    HW131079   2.239   2.584   5.512  1.3030 -0.2561  0.8636
 6481SOL    HW231080   2.311   2.487   5.609  1.7428  1.1368 -3.5125
 6482SOL     OW31081   3.103   3.381   2.122  0.4410 -0.2823  0.4736
 6482SOL    HW131082   3.109   3.457   2.180  0.4820  0.6263 -0.7286
 6482SOL    HW231083   3.120   3.316   2.190 -0.3182 -1.1873 -0.2073
 6483SOL     OW31084   4.396   2.918  11.665 -0.1346  0.3759 -0.0705
 6483SOL    HW131085   4.312   2.909  11.711 -1.0064  3.4540 -1.0910
 6483SOL    HW231086   4.453   2.853  11.707 -0.5621  2.0910  3.2022
 6484SOL     OW31087   1.591   1.950   2.942  0.8363  0.0474 -0.5758
 6484SOL    HW131088   1.665   1.974   2.886 -0.3702 -0.3943 -2.3528
 6484SOL    HW231089   1.619   1.990   3.025 -0.0355  0.4610 -0.4806
 6485SOL     OW31090   1.071   4.135  13.505  0.1697 -0.1923  0.2262
 6485SOL    HW131091   1.023   4.210  13.541  1.1982  0.3824  0.3833
 6485SOL    HW231092   1.061   4.077  13.580 -0.7364  1.1545  1.1385
 6486SOL     OW31093   2.814   3.091   4.601  0.0025 -0.4465  0.3371
 6486SOL    HW131094   2.824   3.033   4.526  2.3804 -0.2450  0.4835
 6486SOL    HW231095   2.734   3.139   4.582  0.6259 -0.0054 -1.2128
 6487SOL     OW31096   3.994   1.327   9.537  0.6028 -0.0871  0.5286
 6487SOL    HW131097   3.955   1.343   9.623 -1.3585  1.9223 -0.7188
 6487SOL    HW231098   3.956   1.240   9.532 -0.7214  0.4589  1.0302
 6488SOL     OW31099   3.698   2.989   7.524 -0.1377 -0.5760 -0.2679
 6488SOL    HW131100   3.634   3.048   7.484 -2.3813 -0.4330  3.4449
 6488SOL    HW231101   3.648   2.908   7.515 -1.7318  0.2992  0.6933
 6489SOL     OW31102   1.222   1.668   2.651 -0.0319  0.1096 -0.0964
 6489SOL    HW131103   1.284   1.662   2.578  0.1980 -0.1149  0.1184
 6489SOL    HW231104   1.138   1.656   2.606 -0.0151  0.2495 -0.1649
 6490SOL     OW31105   2.386   3.753   9.439  0.0216  0.0636 -0.1502
 6490SOL    HW131106   2.469   3.758   9.486 -0.5268  1.0476  0.6999
 6490SOL    HW231107   2.380   3.844   9.409  0.6441  0.3216  0.5248
 6491SOL     OW31108   2.338   2.591   9.186 -0.3948  0.1643 -0.2674
 6491SOL    HW131109   2.287   2.542   9.122  1.5284 -0.5076 -1.2866
 6491SOL    HW231110   2.407   2.526   9.200 -2.3829 -1.7197  0.8143
 6492SOL     OW31111   1.418   1.236   4.959 -0.1094  0.2307  0.2501
 6492SOL    HW131112   1.359   1.203   5.026  1.6597  0.0386  1.6983
 6492SOL    HW231113   1.468   1.305   5.002  0.5681 -0.0447 -0.1038
 6493SOL     OW31114   3.039   4.332   3.210  0.8750 -0.2422 -0.4286
 6493SOL    HW131115   3.062   4.397   3.276  0.1927  1.3859 -1.8005
 6493SOL    HW231116   3.077   4.368   3.130  1.0735  0.4543 -0.0278
 6494SOL     OW31117   2.994   2.648   8.191 -0.1023 -0.2656 -0.8163
 6494SOL    HW131118   3.073   2.669   8.141 -0.2070  0.3296 -0.7394
 6494SOL    HW231119   2.965   2.733   8.225  1.8011  1.0725 -2.5199
 6495SOL     OW31120   0.506   0.886   4.405  0.1452 -0.8105 -0.4259
 6495SOL    HW131121   0.466   0.892   4.318 -0.9057  0.7185  0.1732
 6495SOL    HW231122   0.424   0.898   4.453  1.2088 -2.4061  1.8007
 6496SOL     OW31123   1.193   1.018   5.860  0.0625  0.6707  0.6142
 6496SOL    HW131124   1.265   1.061   5.905 -0.9539  0.8809  2.0525
 6496SOL    HW231125   1.142   0.992   5.937  0.6179 -1.1485  0.3556
 6497SOL     OW31126   0.712   0.883   4.592  0.2396  0.6575 -0.1083
 6497SOL    HW131127   0.671   0.912   4.674 -1.1288  0.5362 -0.7484
 6497SOL    HW231128   0.642   0.884   4.527  0.5691  0.2275 -0.4659
 6498SOL     OW31129   1.103   1.475   9.760 -0.5692  0.7765 -0.6447
 6498SOL    HW131130   1.083   1.383   9.776  0.1219  0.7587  0.0910
 6498SOL    HW231131   1.058   1.511   9.837 -1.2850 -0.5681 -0.4270
 6499SOL     OW31132   4.541   4.418   3.592 -0.1950  0.4594  0.0822
 6499SOL    HW131133   4.580   4.476   3.526  1.8099 -0.0814  0.7998
 6499SOL    HW231134   4.620   4.376   3.624 -0.9484  0.2026  1.5915
 6500SOL     OW31135   2.007   1.623   8.578 -0.6914  0.7647 -0.0446
 6500SOL    HW131136   2.073   1.590   8.639 -0.3889  0.5782 -0.4735
 6500SOL    HW231137   2.065   1.674   8.521 -0.5080 -1.3269 -1.7464
 6501SOL     OW31138   0.209   1.168   1.451  0.6709 -0.1693 -0.5162
 6501SOL    HW131139   0.156   1.149   1.528  2.6135 -2.9873  0.0910
 6501SOL    HW231140   0.202   1.081   1.412  0.0350 -0.1345 -0.4847
 6502SOL     OW31141   4.102   1.727   9.578 -0.6173  0.4821  0.3233
 6502SOL    HW131142   4.032   1.674   9.540 -0.4449 -1.4437  2.7396
 6502SOL    HW231143   4.069   1.740   9.667 -0.2940  2.6946  0.1389
 6503SOL     OW31144   2.737   0.387   2.652 -0.2856 -0.0279 -0.3194
 6503SOL    HW131145   2.744   0.322   2.722 -2.1449  0.4292  0.2770
 6503SOL    HW231146   2.827   0.386   2.618 -0.2020  0.8002 -0.1057
 6504SOL     OW31147   1.422   0.067  13.762  0.6552  0.8393 -0.2640
 6504SOL    HW131148   1.372   0.132  13.811  0.1035  0.9921 -1.0179
 6504SOL    HW231149   1.358   0.052  13.691 -0.1172 -1.5373  0.9298
 6505SOL     OW31150   2.299   4.521   2.390 -0.7559 -0.0297 -0.2714
 6505SOL    HW131151   2.235   4.588   2.367 -1.1898 -0.2235  0.3756
 6505SOL    HW231152   2.301   4.455   2.320 -0.3711  0.1309 -0.4163
 6506SOL     OW31153   4.562   4.619   5.525  0.2681 -0.3021  0.1559
 6506SOL    HW131154   4.541   4.646   5.436 -0.5090  0.1347  0.4764
 6506SOL    HW231155   4.643   4.568   5.515  0.3231 -0.4860  1.4551
 6507SOL     OW31156   0.123   3.971  14.756  0.4079  0.5136  0.1427
 6507SOL    HW131157   0.200   4.027  14.759  0.2797  0.6469  1.0986
 6507SOL    HW231158   0.061   4.037  14.787  1.5143  0.3533  2.7347
 6508SOL     OW31159   1.292   3.449   8.099  0.2656 -0.1264  0.3135
 6508SOL    HW131160   1.353   3.523   8.108 -2.4570  2.3233 -1.6256
 6508SOL    HW231161   1.234   3.460   8.174  1.0826 -1.0082  1.0811
 6509SOL     OW31162   1.361   0.185   5.554 -0.0009 -0.1775  0.0036
 6509SOL    HW131163   1.336   0.240   5.628  1.4046  1.5582 -0.7909
 6509SOL    HW231164   1.355   0.095   5.586 -1.9154  0.2110  0.7517
 6510SOL     OW31165   0.570   0.104   1.878 -0.2816 -0.4161 -0.2626
 6510SOL    HW131166   0.642   0.072   1.823 -1.7320 -0.8820 -1.8743
 6510SOL    HW231167   0.609   0.109   1.965 -0.4645  0.9719 -0.2614
 6511SOL     OW31168   0.364   0.575   5.257  0.2067  0.4847  0.0584
 6511SOL    HW131169   0.287   0.627   5.235 -0.4536 -0.2666  0.5854
 6511SOL    HW231170   0.429   0.646   5.258 -0.0265  0.6611  2.1480
 6512SOL     OW31171   3.773   1.873   8.960 -1.0459 -0.3456  0.0865
 6512SOL    HW131172   3.828   1.803   8.924 -0.2514 -0.2288  1.0679
 6512SOL    HW231173   3.847   1.929   8.984 -1.6561  0.1567  0.7848
 6513SOL     OW31174   3.964   4.339  15.584  0.1431 -0.3017  0.0761
 6513SOL    HW131175   4.044   4.288  15.570  0.7588  0.6203  0.2549
 6513SOL    HW231176   3.982   4.430  15.562  1.8211 -0.1924  1.9589
 6514SOL     OW31177   1.676   0.566  11.132 -0.7874  0.0918  0.3253
 6514SOL    HW131178   1.732   0.571  11.209  1.0832  0.5204 -1.0676
 6514SOL    HW231179   1.740   0.543  11.064  2.2852  0.3469  3.1203
 6515SOL     OW31180   2.092   3.547   8.034 -0.6605  0.0350 -0.0548
 6515SOL    HW131181   2.040   3.481   8.080  1.4550 -2.0559 -0.6716
 6515SOL    HW231182   2.180   3.511   8.035  1.3058  4.7272 -2.3579
 6516SOL     OW31183   1.109   1.982   4.531  0.0976 -0.0835  0.3878
 6516SOL    HW131184   1.204   1.973   4.534 -0.1890 -2.5184  1.9531
 6516SOL    HW231185   1.107   2.024   4.445 -0.8021  0.4597  0.6629
 6517SOL     OW31186   0.044   3.850   1.386 -0.3173 -0.4034 -0.4774
 6517SOL    HW131187   4.690   3.843   1.373 -0.3102  0.3919 -0.9344
 6517SOL    HW231188   0.042   3.879   1.478  0.1772  1.6421 -1.1292
 6518SOL     OW31189   0.049   1.701  15.739 -0.1155 -0.0195  0.5402
 6518SOL    HW131190   0.140   1.699  15.768  0.8440  2.9799 -2.2281
 6518SOL    HW231191   0.018   1.611  15.744 -3.0442  0.8370 -2.0120
 6519SOL     OW31192   1.281   3.499  12.299 -0.2335  0.1936 -0.1028
 6519SOL    HW131193   1.244   3.431  12.354  1.0137 -1.2721 -1.0661
 6519SOL    HW231194   1.341   3.542  12.361  0.1927 -1.1418  0.4113
 6520SOL     OW31195   2.819   0.542   8.432 -0.6388 -0.0817 -1.1402
 6520SOL    HW131196   2.728   0.564   8.409 -0.8960  0.3109  0.2541
 6520SOL    HW231197   2.811   0.449   8.411 -0.9126 -1.0261  3.0769
 6521SOL     OW31198   3.391   4.584  16.643  0.0357  0.4786  0.0299
 6521SOL    HW131199   3.471   4.604  16.691 -1.0932 -3.2342  3.5312
 6521SOL    HW231200   3.401   4.491  16.621  2.1554  0.8384 -0.5663
 6522SOL     OW31201   4.295   2.193  15.338 -0.1261  0.2762 -0.6027
 6522SOL    HW131202   4.362   2.163  15.400 -2.4699  0.4659  2.0140
 6522SOL    HW231203   4.315   2.287  15.332 -0.7256  0.4454  0.0465
 6523SOL     OW31204   3.438   2.873   7.751  0.2530  0.5410  0.2398
 6523SOL    HW131205   3.523   2.899   7.786  0.5224  0.1976 -0.1780
 6523SOL    HW231206   3.468   2.826   7.674  0.4892  1.1587 -0.0403
 6524SOL     OW31207   0.349   0.710   7.368 -0.2931  0.1078  0.5164
 6524SOL    HW131208   0.375   0.779   7.307  0.6357 -1.1227 -0.4696
 6524SOL    HW231209   0.300   0.651   7.311 -2.5445  1.6312  0.8266
 6525SOL     OW31210   3.390   2.048   5.561  0.7069 -0.2581  0.1260
 6525SOL    HW131211   3.316   2.103   5.587 -0.3698 -1.1067 -1.1615
 6525SOL    HW231212   3.385   2.045   5.465  2.1549  0.5162  0.0263
 6526SOL     OW31213   2.023   0.426   5.896  0.2037 -0.2096  0.3916
 6526SOL    HW131214   2.002   0.337   5.927  0.2407  0.2781  1.8111
 6526SOL    HW231215   2.117   0.416   5.883  0.0212  1.8889 -2.4754
 6527SOL     OW31216   2.558   4.551  13.058 -0.5121  0.4989  0.0631
 6527SOL    HW131217   2.479   4.567  13.007 -0.7506 -1.9498 -0.3351
 6527SOL    HW231218   2.603   4.632  13.034  0.7540 -0.3385 -0.3726
 6528SOL     OW31219   1.386   1.245   7.183  0.1633  0.2823  0.3482
 6528SOL    HW131220   1.337   1.163   7.182 -0.1731  0.5252 -2.8492
 6528SOL    HW231221   1.390   1.273   7.275  2.3260  0.4615  0.2087
 6529SOL     OW31222   1.880   4.132   5.887  0.1909 -0.0311  0.3527
 6529SOL    HW131223   1.844   4.084   5.813  1.5962  0.6603 -0.7781
 6529SOL    HW231224   1.943   4.189   5.843  1.4273 -1.3053  0.4508
 6530SOL     OW31225   1.101   1.487  14.689 -0.9731 -0.4648 -0.0185
 6530SOL    HW131226   1.014   1.523  14.708 -0.2888  0.6481  0.9154
 6530SOL    HW231227   1.158   1.547  14.736 -4.2586  4.4458 -2.3475
 6531SOL     OW31228   2.873   1.474   2.125  0.2704  0.5472 -0.6347
 6531SOL    HW131229   2.861   1.395   2.073  1.4906  0.4880 -0.8303
 6531SOL    HW231230   2.904   1.437   2.207 -2.1953  2.9453  1.3678
 6532SOL     OW31231   2.185   1.706   8.407 -0.5012  0.7023  0.0582
 6532SOL    HW131232   2.228   1.767   8.347 -0.1152  2.6857  2.3355
 6532SOL    HW231233   2.167   1.635   8.345  2.1224 -1.5904  1.9188
 6533SOL     OW31234   4.405   2.409  12.068  0.2293  0.3464 -0.2068
 6533SOL    HW131235   4.347   2.338  12.096 -1.6495  1.1824 -2.0051
 6533SOL    HW231236   4.462   2.427  12.143 -0.1867 -0.2131  0.2500
 6534SOL     OW31237   1.961   0.036   4.958  0.3314 -0.2271 -0.3557
 6534SOL    HW131238   1.971   4.691   5.000  0.8387  0.7689  1.5356
 6534SOL    HW231239   1.882   0.068   5.001  0.3266  1.6462 -1.7530
 6535SOL     OW31240   1.579   1.535  12.601 -0.3118  0.1166 -0.0812
 6535SOL    HW131241   1.586   1.580  12.516  0.3747  2.7531  1.3789
 6535SOL    HW231242   1.639   1.462  12.587  1.8458  1.7076  0.9177
 6536SOL     OW31243   1.602   3.880   4.516 -0.7748  0.0831 -0.0068
 6536SOL    HW131244   1.591   3.789   4.490  0.0236 -0.0670  0.1662
 6536SOL    HW231245   1.698   3.882   4.509 -0.8222 -3.2368 -1.6580
 6537SOL     OW31246   3.157   2.731   8.844 -0.2070  0.2640 -0.1842
 6537SOL    HW131247   3.074   2.684   8.848  1.1651 -2.2612 -1.7047
 6537SOL    HW231248   3.145   2.795   8.914  2.2863  1.3270 -0.7285
 6538SOL     OW31249   0.080   2.856   5.714  0.0436 -0.4552  0.3524
 6538SOL    HW131250   0.160   2.805   5.724  0.3205 -0.1639 -0.4711
 6538SOL    HW231251   0.090   2.900   5.630 -0.2370 -0.1941  0.4562
 6539SOL     OW31252   1.460   1.862   0.522 -1.0589 -0.2519  0.3908
 6539SOL    HW131253   1.543   1.864   0.474 -0.2909 -0.4977  1.7128
 6539SOL    HW231254   1.491   1.825   0.604  0.7159 -2.6598 -1.3487
 6540SOL     OW31255   1.058   2.694   8.218  0.0607  0.6700  0.1518
 6540SOL    HW131256   1.092   2.605   8.218  1.7028  1.2899  0.5209
 6540SOL    HW231257   1.136   2.741   8.187  1.1376 -0.5059  1.0695
 6541SOL     OW31258   1.647   3.344   7.358  0.2399 -0.1943  0.2634
 6541SOL    HW131259   1.579   3.411   7.361  1.1546  0.7334  0.3104
 6541SOL    HW231260   1.602   3.260   7.365 -1.3047  0.8091  2.2639
 6542SOL     OW31261   0.448   1.786   4.432 -0.1358  0.0855  0.3649
 6542SOL    HW131262   0.379   1.783   4.367  0.9633  0.8044 -0.8417
 6542SOL    HW231263   0.410   1.860   4.481 -1.0939 -1.4083  1.8709
 6543SOL     OW31264   2.133   3.810   7.255 -0.1696 -0.2992 -0.1640
 6543SOL    HW131265   2.219   3.773   7.274 -0.2572  0.5559  1.8644
 6543SOL    HW231266   2.128   3.890   7.306  2.3983 -0.6409  0.5927
 6544SOL     OW31267   2.849   3.540   9.799 -0.1061  0.3976 -0.1473
 6544SOL    HW131268   2.802   3.489   9.865 -1.3578  0.7678 -0.7438
 6544SOL    HW231269   2.937   3.539   9.836 -1.3534 -0.0172  2.7643
 6545SOL     OW31270   0.465   2.267   5.663 -0.4925  0.2456  0.0184
 6545SOL    HW131271   0.446   2.322   5.740 -2.7441  0.1818 -0.4842
 6545SOL    HW231272   0.550   2.307   5.647 -0.2081 -1.5838 -3.1348
 6546SOL     OW31273   3.076   2.310   4.247 -0.0575 -0.3579 -0.3922
 6546SOL    HW131274   3.139   2.281   4.313  1.9898 -0.3769 -2.3426
 6546SOL    HW231275   3.075   2.232   4.192 -2.3087 -2.1743  2.2364
 6547SOL     OW31276   1.226   0.358  11.217  0.1981 -0.5121  0.1246
 6547SOL    HW131277   1.184   0.272  11.211  1.6054 -1.1947  0.1244
 6547SOL    HW231278   1.317   0.331  11.213  0.0473 -0.5194 -3.1945
 6548SOL     OW31279   4.225   3.316   6.405 -0.5456  0.0128 -0.3365
 6548SOL    HW131280   4.282   3.256   6.453 -0.7458  0.2293  0.1745
 6548SOL    HW231281   4.280   3.334   6.329 -0.5220 -0.5192 -0.4444
 6549SOL     OW31282   3.193   0.231   2.173 -0.2520 -0.1291  0.4138
 6549SOL    HW131283   3.161   0.296   2.236 -0.8832  1.7641 -1.8496
 6549SOL    HW231284   3.261   0.280   2.126 -0.5415  0.3335  0.4745
 6550SOL     OW31285   2.076   1.503  15.937 -0.0216  0.1878  0.6249
 6550SOL    HW131286   2.071   1.426  15.994 -2.3808 -1.7663 -2.2205
 6550SOL    HW231287   2.122   1.559  16.001  0.9092  0.8377 -0.6224
 6551SOL     OW31288   3.202   4.168   3.394 -0.2102  0.7025  0.0529
 6551SOL    HW131289   3.165   4.205   3.314 -1.7442 -0.5971  0.1623
 6551SOL    HW231290   3.217   4.077   3.366  0.5039  0.4609  1.2448
 6552SOL     OW31291   2.619   1.884   1.836 -0.7976 -0.0334 -0.1168
 6552SOL    HW131292   2.639   1.887   1.929 -0.7922 -2.3943 -0.0387
 6552SOL    HW231293   2.608   1.976   1.812 -2.2356 -0.0445  0.4791
 6553SOL     OW31294   3.956   3.114   5.201  0.9140 -0.2947  0.9301
 6553SOL    HW131295   3.865   3.105   5.230  0.9712 -0.2614  1.1222
 6553SOL    HW231296   3.945   3.126   5.107 -1.5361 -1.8913  1.0245
 6554SOL     OW31297   1.833   4.437   7.293  0.7475 -0.2539 -0.0797
 6554SOL    HW131298   1.925   4.444   7.266  1.3692 -3.1283  1.2352
 6554SOL    HW231299   1.831   4.344   7.318 -0.0064 -0.5180 -1.0960
 6555SOL     OW31300   2.069   1.292   3.278  0.3231 -0.2624  0.3076
 6555SOL    HW131301   2.030   1.243   3.205  1.5645 -1.1312  0.2127
 6555SOL    HW231302   2.015   1.371   3.272  1.6085  0.6094  0.1100
 6556SOL     OW31303   2.578   3.715  14.475  0.1333 -0.1047  0.1070
 6556SOL    HW131304   2.547   3.728  14.385  0.2614  1.6271  0.3042
 6556SOL    HW231305   2.627   3.794  14.498 -0.4545  0.6480 -1.1954
 6557SOL     OW31306   1.881   2.394   1.809 -0.2557  0.4015  0.9573
 6557SOL    HW131307   1.828   2.388   1.730  0.1246 -1.3712  0.8342
 6557SOL    HW231308   1.841   2.473   1.846  0.0750  1.6049 -1.2658
 6558SOL     OW31309   1.225   1.442   2.134 -0.0031  0.0679  0.3910
 6558SOL    HW131310   1.268   1.472   2.213  0.1208 -1.4012  0.8883
 6558SOL    HW231311   1.250   1.515   2.077  1.9502 -0.9121  0.0022
 6559SOL     OW31312   2.682   2.019   0.808 -0.4114 -0.3950 -0.3305
 6559SOL    HW131313   2.775   2.042   0.800 -0.0996 -0.7293  2.2207
 6559SOL    HW231314   2.675   1.967   0.728  1.3851 -0.9124 -0.1790
 6560SOL     OW31315   4.326   2.224   8.317  0.2021  0.3447 -0.4831
 6560SOL    HW131316   4.354   2.315   8.329  1.4595 -0.2533  1.0447
 6560SOL    HW231317   4.260   2.228   8.247  0.1178  3.6826 -0.2423
 6561SOL     OW31318   0.329   3.210  13.562  0.2688  0.0128 -0.0607
 6561SOL    HW131319   0.402   3.270  13.573 -0.7018  1.3170 -0.7069
 6561SOL    HW231320   0.263   3.276  13.540  0.4583  0.9773  2.2802
 6562SOL     OW31321   3.225   0.783  10.380  0.1176  0.0178 -0.1041
 6562SOL    HW131322   3.261   0.696  10.399  1.0520  0.9567  2.4428
 6562SOL    HW231323   3.302   0.829  10.346  1.2135  0.2142  2.6241
 6563SOL     OW31324   3.020   3.728  15.052  0.0858 -0.3652  0.2139
 6563SOL    HW131325   3.042   3.639  15.025  2.5942  0.4685 -0.4801
 6563SOL    HW231326   2.966   3.709  15.129  0.0922 -1.4708 -0.0555
 6564SOL     OW31327   3.843   2.533   1.449 -0.2278  0.4029  0.6478
 6564SOL    HW131328   3.811   2.589   1.379  0.4361 -0.7876 -0.5954
 6564SOL    HW231329   3.891   2.468   1.398 -1.4601 -0.2829  0.3876
 6565SOL     OW31330   1.338   0.848   3.308 -0.4235  0.2564  0.2119
 6565SOL    HW131331   1.288   0.917   3.265 -0.0230  0.2061 -0.3357
 6565SOL    HW231332   1.294   0.770   3.274 -0.3031  0.7234 -0.9899
 6566SOL     OW31333   4.533   2.310   8.802  0.0940  0.6127  0.4105
 6566SOL    HW131334   4.438   2.309   8.795 -0.0111  0.3187  1.9190
 6566SOL    HW231335   4.550   2.395   8.843 -4.1119  0.8553  1.6335
 6567SOL     OW31336   2.711   0.651   6.121  0.5775  0.1803 -0.2866
 6567SOL    HW131337   2.758   0.634   6.203  1.7865  0.2524 -0.9592
 6567SOL    HW231338   2.721   0.574   6.065  0.5780  0.9521 -1.3310
 6568SOL     OW31339   3.986   3.337   3.465 -0.6261 -0.0213  0.5134
 6568SOL    HW131340   4.017   3.275   3.400  0.7590 -1.2313  2.3263
 6568SOL    HW231341   4.071   3.350   3.508  1.0695 -1.0692 -2.5668
 6569SOL     OW31342   2.204   4.732   2.693 -0.1282 -0.0729  0.2642
 6569SOL    HW131343   2.158   4.696   2.617  1.3403 -0.7407 -0.3085
 6569SOL    HW231344   2.149   0.064   2.725 -0.2389  0.1896 -0.5138
 6570SOL     OW31345   1.170   4.453   6.630 -0.2982  0.7004 -0.2323
 6570SOL    HW131346   1.102   4.407   6.582  1.6987 -0.8690 -1.5501
 6570SOL    HW231347   1.166   4.401   6.710  0.0508  0.5643 -0.3033
 6571SOL     OW31348   2.329   2.071  15.344  0.9618  0.1728 -0.8074
 6571SOL    HW131349   2.303   2.141  15.404  0.7688 -0.8378  0.2846
 6571SOL    HW231350   2.286   2.101  15.264 -0.1008  2.1967  0.5230
 6572SOL     OW31351   3.606   1.884   1.937  0.2217 -0.0764  0.3206
 6572SOL    HW131352   3.526   1.844   1.972  1.2217 -1.0633  1.4842
 6572SOL    HW231353   3.669   1.815   1.958  0.3686 -0.0859 -0.1529
 6573SOL     OW31354   3.339   2.716  11.355  0.6281 -0.4175 -0.2934
 6573SOL    HW131355   3.341   2.637  11.408  1.4589  0.1419  0.5173
 6573SOL    HW231356   3.409   2.770  11.393  1.5897 -1.2875 -0.8312
 6574SOL     OW31357   3.301   4.696   7.538  0.0886 -0.0132 -0.3842
 6574SOL    HW131358   3.374   4.739   7.494 -0.9904  4.0448  1.8509
 6574SOL    HW231359   3.293   0.005   7.619  2.9374  0.2500 -0.2615
 6575SOL     OW31360   4.286   0.954   0.966 -0.3889 -0.6602 -0.2554
 6575SOL    HW131361   4.253   1.042   0.983 -0.2584 -0.8228  0.8835
 6575SOL    HW231362   4.210   0.897   0.959 -0.9790  0.0128  0.6723
 6576SOL     OW31363   2.524   4.196  13.489 -0.4726  0.6969  0.0297
 6576SOL    HW131364   2.599   4.151  13.450 -0.3783  1.3204 -0.5011
 6576SOL    HW231365   2.489   4.117  13.531  4.6140 -1.2982  0.5266
 6577SOL     OW31366   2.861   1.001   1.112 -0.4015  0.3502 -0.6634
 6577SOL    HW131367   2.826   1.025   1.197 -0.0688  2.0571 -0.9934
 6577SOL    HW231368   2.809   0.928   1.078  0.8746 -0.3050 -1.2221
 6578SOL     OW31369   3.700   4.694   6.024 -0.3291  0.6523 -0.0913
 6578SOL    HW131370   3.632   4.644   5.978 -1.4159  2.2266 -0.2465
 6578SOL    HW231371   3.658   4.695   6.110 -0.3565 -1.1437 -0.0887
 6579SOL     OW31372   2.969   4.680   1.004  0.1353  0.4077 -0.6398
 6579SOL    HW131373   3.015   4.598   0.984  1.6725  1.8130 -3.0178
 6579SOL    HW231374   3.033   0.010   0.989 -0.9321  1.1366 -1.8146
 6580SOL     OW31375   3.226   4.496   0.668 -0.3911  0.5701 -0.7984
 6580SOL    HW131376   3.131   4.492   0.651 -0.2811 -1.5998 -0.8601
 6580SOL    HW231377   3.252   4.573   0.618 -0.0522  1.4248  0.6982
 6581SOL     OW31378   0.360   1.800   5.261 -0.9652  0.1869 -0.1702
 6581SOL    HW131379   0.285   1.776   5.206 -2.3937 -0.1983  1.9314
 6581SOL    HW231380   0.323   1.771   5.345 -2.5568  1.1062 -0.5468
 6582SOL     OW31381   1.187   1.783  15.476 -0.3021  0.4275  0.3484
 6582SOL    HW131382   1.281   1.778  15.494 -0.2519 -1.6255 -0.4901
 6582SOL    HW231383   1.189   1.766  15.382 -3.1267  1.3222  0.1096
 6583SOL     OW31384   2.069   1.572   0.637 -0.4585  0.2030 -0.4377
 6583SOL    HW131385   2.133   1.642   0.654 -0.5012 -0.0678  0.7923
 6583SOL    HW231386   2.134   1.505   0.618 -0.5406  0.5017 -1.7769
 6584SOL     OW31387   1.774   0.895   7.686  0.1265 -0.2344 -0.2501
 6584SOL    HW131388   1.782   0.893   7.781 -0.0232  0.0060 -0.2351
 6584SOL    HW231389   1.783   0.804   7.657  0.9642 -0.8685  1.9777
 6585SOL     OW31390   2.729   2.076   7.955 -0.0829 -0.2048 -0.1706
 6585SOL    HW131391   2.689   2.097   8.040  0.0791 -0.8732  0.0758
 6585SOL    HW231392   2.659   2.048   7.896  0.8740 -0.4524 -1.1756
 6586SOL     OW31393   0.561   4.074   2.570 -0.2916  0.0653 -0.0191
 6586SOL    HW131394   0.470   4.070   2.539  0.5138 -1.9353 -2.0547
 6586SOL    HW231395   0.591   4.156   2.532 -2.1375  0.9455  0.4050
 6587SOL     OW31396   0.993   1.004  15.601  0.5813  0.5656  0.2367
 6587SOL    HW131397   1.019   0.917  15.631 -2.9462 -1.0773 -1.4296
 6587SOL    HW231398   0.955   0.975  15.517  0.3389 -0.6970  0.7833
 6588SOL     OW31399   3.693   1.215   1.574 -0.1710  0.4758  0.2845
 6588SOL    HW131400   3.644   1.263   1.640 -0.6360 -2.4552  2.0209
 6588SOL    HW231401   3.743   1.148   1.620 -0.0253  0.9787  0.8565
 6589SOL     OW31402   0.577   1.211   1.711  0.4511  0.4134 -0.4661
 6589SOL    HW131403   0.671   1.226   1.712  0.7021 -1.1512 -1.0840
 6589SOL    HW231404   0.548   1.235   1.799  1.4210  1.0084 -0.3094
 6590SOL     OW31405   2.000   2.998   5.395 -0.4649 -0.0152 -0.3449
 6590SOL    HW131406   2.006   2.973   5.487 -0.6220  3.0226  0.5146
 6590SOL    HW231407   2.092   2.986   5.374 -0.0499  1.9787  0.3178
 6591SOL     OW31408   3.835   0.638   8.916 -0.1066  0.1114  0.0124
 6591SOL    HW131409   3.799   0.723   8.889  2.8380  1.5008  0.4929
 6591SOL    HW231410   3.924   0.662   8.940  1.0417 -2.1366 -2.0144
 6592SOL     OW31411   1.277   1.199   4.700 -0.5409 -0.0575  0.2079
 6592SOL    HW131412   1.304   1.290   4.684  1.2494 -0.3212  1.7527
 6592SOL    HW231413   1.310   1.187   4.789  2.4408  0.8076 -0.7831
 6593SOL     OW31414   4.337   1.601   9.805 -0.6447 -0.1563 -0.8389
 6593SOL    HW131415   4.254   1.646   9.790  0.1527  1.5904 -0.0625
 6593SOL    HW231416   4.373   1.581   9.719  2.5243 -0.2128  0.4772
 6594SOL     OW31417   3.467   2.360   4.385  0.2234  0.2543  0.1582
 6594SOL    HW131418   3.391   2.309   4.413  0.1605 -1.0136 -2.3430
 6594SOL    HW231419   3.493   2.411   4.462 -0.9294  2.0414 -0.6244
 6595SOL     OW31420   4.385   2.431   3.864  0.3032 -0.5045  0.8715
 6595SOL    HW131421   4.437   2.454   3.788 -1.7612 -1.1448 -0.7414
 6595SOL    HW231422   4.445   2.372   3.910  1.1392 -0.8687 -0.6994
 6596SOL     OW31423   3.911   1.741   6.177  0.1926  0.0281 -0.4009
 6596SOL    HW131424   3.846   1.812   6.172  1.4963  1.0862 -1.9259
 6596SOL    HW231425   3.976   1.797   6.219 -0.5179 -0.7482  1.7854
 6597SOL     OW31426   3.494   1.947   8.317 -0.4166 -0.1840  0.9542
 6597SOL    HW131427   3.538   1.960   8.233 -2.1345 -0.3181  0.0387
 6597SOL    HW231428   3.451   1.862   8.301  1.4948 -0.7835 -1.0381
 6598SOL     OW31429   3.222   4.127   8.681 -0.7296 -0.4003  0.5215
 6598SOL    HW131430   3.245   4.085   8.598 -1.9248  0.8008 -0.4086
 6598SOL    HW231431   3.139   4.083   8.697 -1.5856  1.3302  0.8081
 6599SOL     OW31432   3.124   2.198   7.397  0.6746  0.2961  0.2022
 6599SOL    HW131433   3.099   2.217   7.487  0.7022 -1.2439  0.5421
 6599SOL    HW231434   3.175   2.117   7.408 -0.7042 -0.3780  1.6978
 6600SOL     OW31435   1.358   1.291  14.414 -0.1760  0.4445 -0.1770
 6600SOL    HW131436   1.338   1.384  14.407 -0.5669  0.5092  1.8561
 6600SOL    HW231437   1.284   1.252  14.460 -1.9702  1.5286 -2.1481
 6601SOL     OW31438   2.856   1.728   2.259 -0.3225 -0.3200  0.2511
 6601SOL    HW131439   2.845   1.645   2.213 -0.9483 -0.0661 -0.0558
 6601SOL    HW231440   2.942   1.714   2.300 -1.0904 -0.1831  1.9322
 6602SOL     OW31441   1.439   4.197   6.805  0.1220 -0.6369 -1.0108
 6602SOL    HW131442   1.366   4.244   6.846  1.1903 -1.0378  1.2980
 6602SOL    HW231443   1.469   4.136   6.872  1.5902  1.3301  0.1061
 6603SOL     OW31444   1.991   3.612   5.663  0.1926 -0.6422  0.1687
 6603SOL    HW131445   2.064   3.646   5.715  1.4158 -0.6788 -1.5194
 6603SOL    HW231446   2.016   3.519   5.660 -1.5840 -1.0345 -2.1468
 6604SOL     OW31447   2.755   1.747   0.217 -0.0455  0.2027 -0.1060
 6604SOL    HW131448   2.783   1.777   0.303 -0.5315  0.7572 -0.1382
 6604SOL    HW231449   2.841   1.747   0.174  0.6531  1.0618  1.3075
 6605SOL     OW31450   3.432   4.270   4.460 -0.6570  0.4856  0.4728
 6605SOL    HW131451   3.426   4.357   4.500  1.8306 -0.3102  2.6252
 6605SOL    HW231452   3.339   4.250   4.452 -0.7188  0.3184  1.5924
 6606SOL     OW31453   3.891   3.735   2.244 -0.2563  0.6415  0.0631
 6606SOL    HW131454   3.937   3.656   2.271 -3.9852 -1.8801 -1.0832
 6606SOL    HW231455   3.829   3.699   2.181 -0.1326 -2.4968  1.7923
 6607SOL     OW31456   3.290   2.851   4.994  0.7512 -0.5456 -0.7947
 6607SOL    HW131457   3.203   2.846   5.034  1.2119  0.3770  0.3521
 6607SOL    HW231458   3.283   2.939   4.958  0.5938 -0.6419 -0.9954
 6608SOL     OW31459   4.652   3.120  16.465  0.3055  0.4610 -0.0522
 6608SOL    HW131460   4.661   3.029  16.491  1.0281  0.8463  1.0507
 6608SOL    HW231461   4.615   3.114  16.377  4.0229 -0.5205 -1.5559
 6609SOL     OW31462   0.540   3.446  12.949  0.1921  0.0356 -0.1847
 6609SOL    HW131463   0.449   3.473  12.957  0.5738  1.3158 -0.1595
 6609SOL    HW231464   0.564   3.483  13.034 -0.5496 -0.4894  0.2584
 6610SOL     OW31465   0.139   2.555   7.472 -0.0178  0.1940 -0.1925
 6610SOL    HW131466   0.217   2.559   7.417  0.7349  0.9772  0.9151
 6610SOL    HW231467   0.070   2.540   7.407 -0.4601 -2.1884  0.8349
 6611SOL     OW31468   2.112   4.253   1.181 -0.1282 -0.0644  0.3008
 6611SOL    HW131469   2.162   4.253   1.263 -1.5788 -1.5660  1.1792
 6611SOL    HW231470   2.122   4.334   1.132  0.3849  0.0386  0.5657
 6612SOL     OW31471   3.643   1.879   3.825 -0.3209  0.2376  0.3872
 6612SOL    HW131472   3.700   1.911   3.755  0.0887  0.7520  0.9537
 6612SOL    HW231473   3.648   1.936   3.902 -1.7578  0.1363  0.5521
 6613SOL     OW31474   3.772   0.058   3.353 -0.0379  0.5028  0.3988
 6613SOL    HW131475   3.815   0.030   3.434 -0.1134 -2.5320 -0.6112
 6613SOL    HW231476   3.745   0.147   3.373 -0.1736  0.0663  2.1193
 6614SOL     OW31477   2.587   1.902  11.744 -0.0031 -1.2762  0.1120
 6614SOL    HW131478   2.501   1.939  11.724  1.0279  1.0639  0.0066
 6614SOL    HW231479   2.563   1.879  11.833 -1.0271  0.4332  0.2761
 6615SOL     OW31480   0.227   4.571   2.393 -0.5671  0.2835  0.2513
 6615SOL    HW131481   0.310   4.610   2.418 -0.6723  0.2865  0.5867
 6615SOL    HW231482   0.187   4.627   2.326  0.8668 -1.0704 -1.7312
 6616SOL     OW31483   3.725   3.383   3.756  0.1064 -0.1491  0.3586
 6616SOL    HW131484   3.698   3.463   3.802 -0.4421 -0.4322  0.5366
 6616SOL    HW231485   3.816   3.374   3.783  0.4283  0.4719 -0.5025
 6617SOL     OW31486   0.543   4.145   4.887 -0.1337  0.1121  0.1250
 6617SOL    HW131487   0.478   4.215   4.879  1.5186  1.7578  0.9517
 6617SOL    HW231488   0.497   4.087   4.948 -2.2120  2.1881  0.5322
 6618SOL     OW31489   0.494   0.161  14.819  0.4077 -0.7132  0.4976
 6618SOL    HW131490   0.535   0.244  14.844 -1.7167 -0.0301  1.7286
 6618SOL    HW231491   0.568   0.101  14.828  1.0250  0.0657  0.5709
 6619SOL     OW31492   2.263   4.072   8.392 -0.4160 -0.2880 -0.2167
 6619SOL    HW131493   2.300   4.035   8.311  1.6794 -0.9829  1.0771
 6619SOL    HW231494   2.241   3.992   8.439 -0.6695 -0.3116 -0.3771
 6620SOL     OW31495   2.225   2.094   2.712  0.1021 -0.4057  0.4655
 6620SOL    HW131496   2.291   2.132   2.654  0.1137  0.3249  0.9609
 6620SOL    HW231497   2.202   2.015   2.662 -1.6915 -0.1709  0.9151
 6621SOL     OW31498   0.265   0.304   6.775 -0.3014  1.1106  0.3408
 6621SOL    HW131499   0.306   0.223   6.806 -1.3950 -0.4848 -2.3577
 6621SOL    HW231500   0.238   0.299   6.684 -2.9145 -1.0555  1.2256
 6622SOL     OW31501   0.454   1.410   2.229 -0.3683  0.1401  0.1923
 6622SOL    HW131502   0.490   1.486   2.276 -0.4415  0.5659 -0.4297
 6622SOL    HW231503   0.369   1.407   2.274 -0.8755 -3.8330 -1.0508
 6623SOL     OW31504   4.595   3.110   1.138 -0.6005 -0.1161 -0.3060
 6623SOL    HW131505   4.624   3.076   1.222 -1.1430  1.9714  0.7327
 6623SOL    HW231506   4.577   3.201   1.161  0.5521  0.1397 -0.4127
 6624SOL     OW31507   4.570   4.636   6.333  0.0678  0.0248 -0.2278
 6624SOL    HW131508   4.571   4.663   6.242  0.2415  2.3628  0.4739
 6624SOL    HW231509   4.566   4.717   6.384  1.0939 -1.1516  1.7596
 6625SOL     OW31510   0.396   4.314   7.959 -0.1218  0.3931  0.4115
 6625SOL    HW131511   0.486   4.299   7.986  0.0594 -1.5411 -1.2791
 6625SOL    HW231512   0.411   4.382   7.893  0.6763 -0.9432 -0.7842
 6626SOL     OW31513   2.696   3.668   8.298 -0.3982  0.4719  0.1754
 6626SOL    HW131514   2.652   3.588   8.325 -0.4604  0.6763  0.6774
 6626SOL    HW231515   2.669   3.728   8.367 -1.4648 -2.3822  2.2411
 6627SOL     OW31516   4.728   2.225   7.464  0.3471  0.1147  0.1403
 6627SOL    HW131517   4.718   2.153   7.403  0.6001 -0.4246  0.7328
 6627SOL    HW231518   0.076   2.196   7.487 -0.1837 -2.8979 -1.6559
 6628SOL     OW31519   0.663   0.633   7.659 -0.0534  0.2766 -0.0396
 6628SOL    HW131520   0.607   0.709   7.676 -1.9971 -0.7581 -1.7586
 6628SOL    HW231521   0.726   0.629   7.731 -1.9812  1.7566  1.6982
 6629SOL     OW31522   0.147   0.823   7.586 -0.2346 -0.3890 -0.0644
 6629SOL    HW131523   0.197   0.904   7.593 -0.2940 -0.1445 -2.6045
 6629SOL    HW231524   0.224   0.769   7.606 -1.2472 -1.3958  1.1764
 6630SOL     OW31525   2.263   2.501   6.338  0.1528  0.0123 -0.3028
 6630SOL    HW131526   2.226   2.445   6.270 -1.5806 -1.5757  1.9189
 6630SOL    HW231527   2.222   2.585   6.320 -0.2555  0.1302  1.1945
 6631SOL     OW31528   0.042   1.121   5.927  0.1364 -0.1511  0.3614
 6631SOL    HW131529   0.088   1.182   5.870  0.3230  0.3616  1.0633
 6631SOL    HW231530   0.052   1.166   6.011 -0.4863 -2.5734  1.7357
 6632SOL     OW31531   1.780   0.591   3.751  0.3750 -0.2933  0.1163
 6632SOL    HW131532   1.843   0.589   3.679  1.1299  0.2377  0.7677
 6632SOL    HW231533   1.747   0.680   3.744  1.4281  0.1063  0.1931
 6633SOL     OW31534   4.649   1.104   2.038  0.1063 -0.3510 -0.5133
 6633SOL    HW131535   4.637   1.019   1.996 -2.9968  1.0992 -2.5015
 6633SOL    HW231536   4.649   1.079   2.131  0.7778 -1.2553 -0.7597
 6634SOL     OW31537   3.678   2.816   4.990  0.5837  0.1811 -0.4820
 6634SOL    HW131538   3.631   2.747   5.037  0.4749 -0.0784 -0.9757
 6634SOL    HW231539   3.721   2.869   5.058  0.1735 -0.8531  0.5685
 6635SOL     OW31540   0.891   3.327  12.059  0.8445 -0.4255  0.0603
 6635SOL    HW131541   0.844   3.337  12.142  2.3087  2.7501  0.4950
 6635SOL    HW231542   0.821   3.273  12.022  0.5840 -0.2792  0.3447
 6636SOL     OW31543   2.179   0.328  16.341  1.1660 -0.1298  0.1448
 6636SOL    HW131544   2.263   0.285  16.356  1.3620  0.2175  0.0370
 6636SOL    HW231545   2.151   0.364  16.425  1.3050  0.7707 -0.2013
 6637SOL     OW31546   2.593   3.545   4.402 -0.1770  0.5505  0.2762
 6637SOL    HW131547   2.544   3.478   4.354  0.6725  0.4669 -0.4974
 6637SOL    HW231548   2.525   3.608   4.427 -1.0566  0.7469 -2.5662
 6638SOL     OW31549   3.634   2.477   2.568  0.1751  0.1838  0.0296
 6638SOL    HW131550   3.677   2.563   2.566  2.0411 -0.7110  1.3731
 6638SOL    HW231551   3.600   2.467   2.479 -0.7299 -3.5260  0.7863
 6639SOL     OW31552   2.142   4.082  17.540 -0.8527  0.1820  0.1229
 6639SOL    HW131553   2.046   4.077  17.540 -0.8576  0.2162  1.7485
 6639SOL    HW231554   2.145   4.176  17.522  1.6501  0.5511  2.4392
 6640SOL     OW31555   3.071   2.447  13.732  0.0898  0.0315 -0.4120
 6640SOL    HW131556   3.127   2.371  13.748  0.5233  0.3814 -0.2801
 6640SOL    HW231557   3.057   2.474  13.823  3.0777  3.2133 -0.8921
 6641SOL     OW31558   4.187   0.926   9.660 -0.1372  0.1597  0.1412
 6641SOL    HW131559   4.281   0.926   9.643 -0.0758 -1.8208  0.4728
 6641SOL    HW231560   4.168   0.832   9.665 -0.5606  0.3376  1.8401
 6642SOL     OW31561   3.253   1.006   6.971 -0.7404  0.0942  0.0043
 6642SOL    HW131562   3.321   0.945   7.002 -0.3462 -0.0647 -1.1585
 6642SOL    HW231563   3.302   1.065   6.913  1.9239 -0.9214  1.1877
 6643SOL     OW31564   2.222   3.356   1.619  0.0425 -0.2330 -0.1241
 6643SOL    HW131565   2.215   3.270   1.579  2.1111 -0.8296  0.7887
 6643SOL    HW231566   2.142   3.393   1.582  1.2101  1.7381 -0.6334
 6644SOL     OW31567   3.234   3.673   4.950  0.3781  0.1450 -0.2543
 6644SOL    HW131568   3.162   3.701   5.007  0.8561 -2.9501  1.8272
 6644SOL    HW231569   3.204   3.699   4.862  2.0917  0.8682 -0.6158
 6645SOL     OW31570   2.159   3.120   3.833 -0.0303 -0.0778 -0.4442
 6645SOL    HW131571   2.237   3.175   3.824 -0.2175  0.8982  3.9199
 6645SOL    HW231572   2.088   3.167   3.789 -0.0689 -0.2794 -0.6005
 6646SOL     OW31573   2.953   2.258   9.450  0.4233 -0.4311  0.0072
 6646SOL    HW131574   3.019   2.233   9.515  0.5274  0.2009  0.1417
 6646SOL    HW231575   2.979   2.202   9.376 -0.0061 -0.2894 -0.2513
 6647SOL     OW31576   4.411   4.029   5.586  0.0811  0.0627  0.4925
 6647SOL    HW131577   4.452   4.100   5.636 -0.9009  0.6716  0.4253
 6647SOL    HW231578   4.364   4.075   5.517  0.7062  0.5289  0.3810
 6648SOL     OW31579   0.381   4.103   7.698 -0.5764  0.4972  0.7325
 6648SOL    HW131580   0.332   4.179   7.728 -1.3627  0.9658 -1.7238
 6648SOL    HW231581   0.314   4.036   7.700 -0.8278  0.6924 -0.9620
 6649SOL     OW31582   1.583   4.102   9.053  0.2613 -0.1108 -0.3793
 6649SOL    HW131583   1.591   4.024   9.108 -0.1696  0.1892  0.1052
 6649SOL    HW231584   1.605   4.071   8.965 -1.3171 -0.9826 -0.4703
 6650SOL     OW31585   0.083   2.605   7.132 -0.6253 -0.2869 -0.1432
 6650SOL    HW131586   0.154   2.617   7.194 -1.7774  4.0114  0.4064
 6650SOL    HW231587   0.040   2.527   7.167 -0.1823  0.4495  2.0359
 6651SOL     OW31588   0.322   0.869   8.359  0.0506 -0.1438  0.3466
 6651SOL    HW131589   0.241   0.916   8.376  0.2801  1.0849 -2.0379
 6651SOL    HW231590   0.318   0.869   8.264 -0.9205 -1.2829  0.3852
 6652SOL     OW31591   3.233   3.556   8.618 -0.7826  0.0008 -0.2093
 6652SOL    HW131592   3.243   3.490   8.687 -1.8785 -2.4710 -2.4173
 6652SOL    HW231593   3.269   3.519   8.538  0.3239  0.2481  0.1801
 6653SOL     OW31594   1.801   3.792   7.614 -0.1627  0.2344 -0.5508
 6653SOL    HW131595   1.842   3.840   7.685 -3.1594 -0.0625  1.3931
 6653SOL    HW231596   1.778   3.712   7.663  0.4901  1.3905  1.6349
 6654SOL     OW31597   4.138   3.527  13.815  0.6378 -0.0366 -0.1252
 6654SOL    HW131598   4.182   3.576  13.746 -0.7408 -0.0576 -1.0272
 6654SOL    HW231599   4.069   3.593  13.826 -0.2327 -0.7207 -1.4204
 6655SOL     OW31600   1.228   0.394  10.506  0.2687 -0.1182 -0.8016
 6655SOL    HW131601   1.164   0.453  10.467 -2.2161 -1.9704  0.4484
 6655SOL    HW231602   1.217   0.409  10.600 -1.2811  3.5806 -1.5978
 6656SOL     OW31603   1.261   3.009   3.483 -0.4828 -0.0916 -0.1784
 6656SOL    HW131604   1.340   3.004   3.429  0.6451  0.2299  1.4430
 6656SOL    HW231605   1.192   2.965   3.433 -1.9568  1.0299  0.8685
 6657SOL     OW31606   1.022   1.237  16.385 -0.1516  0.0930  0.5358
 6657SOL    HW131607   1.109   1.217  16.419  0.0920  0.3954  0.0926
 6657SOL    HW231608   1.030   1.330  16.365  0.3736 -0.4929 -1.9017
 6658SOL     OW31609   2.100   4.218  13.547 -0.0356  0.0201  0.2602
 6658SOL    HW131610   2.018   4.235  13.501  0.5206  0.0330 -0.7339
 6658SOL    HW231611   2.106   4.122  13.550 -3.2901 -0.2546 -1.8328
 6659SOL     OW31612   3.465   4.507   4.640  0.2586  0.2746 -0.0561
 6659SOL    HW131613   3.422   4.473   4.718 -0.0943  0.2799 -0.2458
 6659SOL    HW231614   3.557   4.524   4.661 -0.1385  2.5649 -0.2123
 6660SOL     OW31615   4.495   4.561  14.081  0.0994 -0.2269 -0.2280
 6660SOL    HW131616   4.400   4.569  14.069 -0.1673 -3.3206 -0.3964
 6660SOL    HW231617   4.501   4.617  14.158 -1.0969  0.7519 -0.8329
 6661SOL     OW31618   1.929   2.083   9.829  0.1462 -0.3068  0.7279
 6661SOL    HW131619   1.969   2.020   9.770  1.6465 -0.5810  2.0350
 6661SOL    HW231620   2.003   2.123   9.876 -0.6987 -0.1134  1.8865
 6662SOL     OW31621   2.262   0.860   7.234 -0.7710 -0.4722 -0.2898
 6662SOL    HW131622   2.239   0.865   7.326  1.0770  0.3050  0.1391
 6662SOL    HW231623   2.356   0.880   7.237 -0.5221 -0.9910 -4.0553
 6663SOL     OW31624   3.804   1.265   1.948 -0.9510 -0.0358 -0.3487
 6663SOL    HW131625   3.778   1.350   1.986  0.6545  0.3568 -0.1221
 6663SOL    HW231626   3.721   1.225   1.923  0.1348 -1.9473 -0.8663
 6664SOL     OW31627   3.880   0.978   2.416 -0.3591 -0.2829  0.0476
 6664SOL    HW131628   3.924   0.898   2.387 -1.2247  0.6872 -3.9089
 6664SOL    HW231629   3.804   0.989   2.359 -0.0022 -0.0347 -0.3796
 6665SOL     OW31630   3.446   1.369   2.171  0.3491 -0.2814  0.4370
 6665SOL    HW131631   3.418   1.362   2.080 -1.9632 -1.3887  1.2588
 6665SOL    HW231632   3.439   1.463   2.188  0.1395 -0.2003 -0.0844
 6666SOL     OW31633   3.823   1.151   5.543  0.3587 -0.5755  0.1718
 6666SOL    HW131634   3.760   1.107   5.600  0.4451 -0.0742  0.6562
 6666SOL    HW231635   3.805   1.245   5.542  1.0395 -0.4224  1.5019
 6667SOL     OW31636   2.983   1.288   7.422  0.5361  0.3629  0.3772
 6667SOL    HW131637   3.045   1.357   7.399  1.0252 -0.1922  0.0434
 6667SOL    HW231638   3.020   1.203   7.399  0.3511  0.0328  1.2976
 6668SOL     OW31639   0.017   4.170   6.375  0.0762 -0.2515 -0.4579
 6668SOL    HW131640   4.720   4.204   6.456  1.4923 -0.2489  0.1932
 6668SOL    HW231641   0.033   4.251   6.327 -1.4014 -0.2654 -0.9890
 6669SOL     OW31642   3.202   0.503  12.457  0.2528 -0.1435  0.3121
 6669SOL    HW131643   3.186   0.483  12.549  0.0127  2.0904  0.7623
 6669SOL    HW231644   3.221   0.416  12.423 -2.6464  0.4699 -2.8808
 6670SOL     OW31645   1.867   0.558  11.320 -0.5091  0.0895  0.0238
 6670SOL    HW131646   1.849   0.532  11.410  0.5016 -2.4248 -0.4983
 6670SOL    HW231647   1.914   0.483  11.282  0.1219 -0.0421  1.0651
 6671SOL     OW31648   1.401   3.815   9.610 -0.0133 -0.2408  0.2059
 6671SOL    HW131649   1.417   3.778   9.524  0.3978  0.9468 -0.2313
 6671SOL    HW231650   1.364   3.897   9.576 -0.5082 -0.4504  0.2394
 6672SOL     OW31651   3.256   3.517   5.970 -0.3025  0.3212 -0.1024
 6672SOL    HW131652   3.183   3.568   6.006  0.6459  1.1558  0.6626
 6672SOL    HW231653   3.250   3.433   6.015 -0.8526  1.1390  1.3795
 6673SOL     OW31654   2.031   2.364  16.634 -0.5725  0.1223  0.3536
 6673SOL    HW131655   1.979   2.435  16.597 -1.4011  0.5065  2.2347
 6673SOL    HW231656   2.114   2.396  16.601 -1.0425 -1.2424 -2.1216
 6674SOL     OW31657   0.478   3.110   4.737 -0.4301 -0.3690  0.4608
 6674SOL    HW131658   0.398   3.148   4.700 -2.0143 -3.0550  1.0331
 6674SOL    HW231659   0.446   3.027   4.773 -0.5827  0.1994  1.6368
 6675SOL     OW31660   4.104   2.208   8.774  0.2385  0.0987  0.4183
 6675SOL    HW131661   4.176   2.260   8.737  0.0546 -0.6924 -1.0715
 6675SOL    HW231662   4.136   2.211   8.864  1.8952  2.0458 -0.2350
 6676SOL     OW31663   3.123   0.347  12.676  0.0446  0.0214  0.0275
 6676SOL    HW131664   3.140   0.381  12.765 -0.0812 -1.3579  0.5795
 6676SOL    HW231665   3.035   0.383  12.664 -0.3550 -0.5294  1.2629
 6677SOL     OW31666   3.591   1.855  17.539  0.4199 -0.4923 -0.5471
 6677SOL    HW131667   3.508   1.902  17.544  0.4883 -0.3343 -0.9102
 6677SOL    HW231668   3.650   1.900  17.600  0.7509 -0.8992 -0.5647
 6678SOL     OW31669   4.307   2.356   8.647  0.1227  0.3961  0.0881
 6678SOL    HW131670   4.370   2.428   8.656 -0.9006  0.7898  4.1653
 6678SOL    HW231671   4.247   2.398   8.586  0.4848 -1.0382 -1.2391
 6679SOL     OW31672   3.895   1.051   4.151  0.2231 -0.1192  0.3388
 6679SOL    HW131673   3.954   1.028   4.079 -0.9558  1.9647 -1.3064
 6679SOL    HW231674   3.898   1.146   4.139  2.0885  0.1040  2.5694
 6680SOL     OW31675   1.244   0.448   4.944 -0.5252 -0.3685  0.1850
 6680SOL    HW131676   1.338   0.428   4.943 -0.5332 -0.5191  1.8161
 6680SOL    HW231677   1.230   0.436   5.038  1.9511  1.3200  0.7927
 6681SOL     OW31678   4.093   1.531   4.674  0.0148  0.1093 -0.6782
 6681SOL    HW131679   4.130   1.443   4.671  0.0960  0.1194  0.0401
 6681SOL    HW231680   4.138   1.560   4.753  1.2466 -0.1780 -1.2822
 6682SOL     OW31681   3.484   3.402   3.969  0.1472 -0.0810  0.4977
 6682SOL    HW131682   3.430   3.477   3.993 -3.1244 -2.1013 -0.5583
 6682SOL    HW231683   3.455   3.382   3.881  1.1890  3.1223 -0.5946
 6683SOL     OW31684   1.053   0.166   0.629  0.3401  0.1659 -0.3848
 6683SOL    HW131685   1.052   0.074   0.655  0.3820 -0.0084 -1.0222
 6683SOL    HW231686   1.076   0.162   0.536  1.9116 -2.8536  0.1248
 6684SOL     OW31687   0.113   3.824   7.519  0.4194 -0.4571 -0.0837
 6684SOL    HW131688   0.068   3.746   7.488 -0.1485  0.2691 -1.0755
 6684SOL    HW231689   0.173   3.793   7.587 -1.2120 -2.8600  0.2670
 6685SOL     OW31690   2.341   4.312   2.195 -0.7934 -0.7475  0.2869
 6685SOL    HW131691   2.306   4.305   2.106 -1.0059  1.9245  0.1634
 6685SOL    HW231692   2.431   4.283   2.180 -0.7013  0.4858 -1.5423
 6686SOL     OW31693   0.442   3.165  12.195 -0.0976  0.4528 -0.3560
 6686SOL    HW131694   0.373   3.135  12.136 -2.1289 -0.6493  2.5694
 6686SOL    HW231695   0.471   3.087  12.243 -0.6943  0.8569  0.6486
 6687SOL     OW31696   1.128   2.434   8.214 -0.0448  0.1070  0.3469
 6687SOL    HW131697   1.141   2.424   8.120 -0.8303  0.3702  0.2141
 6687SOL    HW231698   1.101   2.345   8.238  0.2923 -0.4506 -1.3489
 6688SOL     OW31699   4.477   4.109   4.556 -0.3096  0.4202 -0.4460
 6688SOL    HW131700   4.540   4.180   4.568  1.1573 -0.8683 -0.4780
 6688SOL    HW231701   4.394   4.155   4.553  0.6517  2.0477 -1.6628
 6689SOL     OW31702   2.875   2.152   2.670  1.0622  0.1627  0.1263
 6689SOL    HW131703   2.785   2.170   2.697  0.8873 -1.8280  0.9036
 6689SOL    HW231704   2.856   2.120   2.582  3.0775  0.0053 -0.2493
 6690SOL     OW31705   2.171   2.481  10.019 -0.1941 -0.3269 -0.0812
 6690SOL    HW131706   2.224   2.458   9.943  0.0747 -1.4771  0.4501
 6690SOL    HW231707   2.221   2.483  10.101 -0.2563 -0.9994 -0.0219
 6691SOL     OW31708   4.040   3.946   7.739  0.4725  0.2650 -0.0619
 6691SOL    HW131709   3.955   3.920   7.703  0.7049  0.9163 -1.0607
 6691SOL    HW231710   4.020   3.993   7.821 -1.5184  1.6221 -1.3346
 6692SOL     OW31711   2.025   0.547   3.609  0.1521  0.5014 -0.1243
 6692SOL    HW131712   2.071   0.585   3.535  1.8528  0.8426  1.1130
 6692SOL    HW231713   2.067   0.604   3.673  0.0004 -0.5673  0.9282
 6693SOL     OW31714   2.946   0.178   3.037 -1.0446  0.0491  0.3703
 6693SOL    HW131715   3.022   0.122   3.023 -0.2076  0.9124  1.3992
 6693SOL    HW231716   2.873   0.118   3.047 -1.3882  0.7729  2.1586
 6694SOL     OW31717   4.191   0.672   2.890 -0.2263 -0.0480  0.0906
 6694SOL    HW131718   4.107   0.698   2.930 -1.4755 -1.5281 -1.5720
 6694SOL    HW231719   4.168   0.588   2.850 -0.7294  0.8632 -1.5313
 6695SOL     OW31720   4.530   3.937   3.220  0.1304  0.4939 -0.0856
 6695SOL    HW131721   4.576   4.019   3.241 -1.5947  1.4957 -0.2434
 6695SOL    HW231722   4.455   3.948   3.279 -0.1201  1.3634 -0.5756
 6696SOL     OW31723   1.195   0.433   3.160 -0.1478 -0.1123  0.2710
 6696SOL    HW131724   1.156   0.518   3.177 -0.5123 -0.6404  2.0771
 6696SOL    HW231725   1.276   0.444   3.209 -0.3198 -1.7523  0.9249
 6697SOL     OW31726   2.708   1.467   0.136 -0.5584 -0.0810  0.0271
 6697SOL    HW131727   2.759   1.544   0.164 -1.2607  0.5534 -0.4310
 6697SOL    HW231728   2.755   1.446   0.056 -1.5227 -0.4733 -0.4254
 6698SOL     OW31729   4.470   0.436   4.548  0.5699  0.1936  0.6246
 6698SOL    HW131730   4.451   0.447   4.641  0.1763  0.3469  0.5252
 6698SOL    HW231731   4.475   0.526   4.516 -1.1955 -0.1336 -0.5523
 6699SOL     OW31732   0.117   4.094  16.154  0.4911  0.2343  0.6101
 6699SOL    HW131733   0.055   4.090  16.082  1.2827 -0.2695 -0.0317
 6699SOL    HW231734   0.164   4.169  16.117 -1.6302  0.3225 -1.9013
 6700SOL     OW31735   2.329   0.449   5.483  0.2189  0.3814  0.1010
 6700SOL    HW131736   2.343   0.363   5.443  0.8817  0.8689 -0.7166
 6700SOL    HW231737   2.413   0.494   5.480  0.2958  0.1384 -1.1416
 6701SOL     OW31738   4.502   4.075   5.130  0.2009  0.5918  0.9244
 6701SOL    HW131739   4.510   4.125   5.212  1.3319  3.5400 -1.0041
 6701SOL    HW231740   4.412   4.097   5.105  0.5057  1.0675  0.2466
 6702SOL     OW31741   1.309   1.697   3.951 -0.5178 -0.1843  0.1138
 6702SOL    HW131742   1.306   1.713   4.045  2.9336 -0.8916  0.3732
 6702SOL    HW231743   1.318   1.603   3.938  3.6521  0.2804 -0.4523
 6703SOL     OW31744   1.152   0.545   2.177 -0.3605 -0.6329 -0.7796
 6703SOL    HW131745   1.112   0.503   2.100  0.5317 -1.7214 -0.6507
 6703SOL    HW231746   1.221   0.590   2.127  0.8915  1.4424  2.8125
 6704SOL     OW31747   3.114   1.680  10.353  0.2769 -0.6315  0.0108
 6704SOL    HW131748   3.193   1.693  10.405 -0.4506 -1.3144  1.2777
 6704SOL    HW231749   3.151   1.636  10.277 -1.5730  0.9805 -1.8281
 6705SOL     OW31750   1.273   2.319  14.551  0.2920 -0.1193  0.6886
 6705SOL    HW131751   1.209   2.383  14.519  1.4359 -0.0376 -1.4894
 6705SOL    HW231752   1.348   2.331  14.492  0.6708  0.7681  1.3467
 6706SOL     OW31753   2.579   4.688  15.379 -0.6314 -0.1404  0.7556
 6706SOL    HW131754   2.625   4.711  15.298 -0.7318 -0.8731  0.4877
 6706SOL    HW231755   2.593   4.594  15.390  1.6428  0.1069  0.0488
 6707SOL     OW31756   2.530   2.770   6.902 -0.3130  0.0690 -0.0576
 6707SOL    HW131757   2.539   2.816   6.819  0.7605  0.9893  0.5672
 6707SOL    HW231758   2.597   2.800   6.964  0.7573  1.0130 -1.6836
 6708SOL     OW31759   0.032   4.661   5.306 -0.5038  0.0551 -0.2328
 6708SOL    HW131760   0.058   4.690   5.219  0.3393  0.8281  0.2737
 6708SOL    HW231761   0.012   4.569   5.288  0.7171  0.2312 -2.4338
 6709SOL     OW31762   1.253   0.353   3.497  0.4466  0.6946 -0.1949
 6709SOL    HW131763   1.302   0.352   3.579 -0.6662 -0.6942  0.4657
 6709SOL    HW231764   1.216   0.265   3.491  1.3312  0.3053  0.1636
 6710SOL     OW31765   3.873   2.412  16.180  0.2632 -0.4692  0.0448
 6710SOL    HW131766   3.927   2.372  16.112  1.7791  0.5027  0.6674
 6710SOL    HW231767   3.797   2.355  16.168 -1.1449  1.4818 -0.2893
 6711SOL     OW31768   2.729   4.734   9.045  0.2895 -0.8203  0.0609
 6711SOL    HW131769   2.734   4.689   9.129 -3.7146  0.3320  0.9391
 6711SOL    HW231770   2.642   4.710   9.014 -0.3669  1.2196  0.2996
 6712SOL     OW31771   3.829   2.244   3.807  0.0428  0.7119 -0.4273
 6712SOL    HW131772   3.868   2.267   3.891 -2.0401  0.2002  0.6713
 6712SOL    HW231773   3.737   2.234   3.833  0.4337 -1.9561 -0.1615
 6713SOL     OW31774   3.419   1.666   9.566 -0.2180  0.0391  0.1637
 6713SOL    HW131775   3.489   1.720   9.529 -0.7774  0.9606  0.4515
 6713SOL    HW231776   3.471   1.595   9.603  0.5767 -0.2881 -1.5892
 6714SOL     OW31777   0.934   0.920   6.998 -0.0207 -0.2589  0.1194
 6714SOL    HW131778   0.915   0.926   7.092  1.0975 -0.1031  0.3404
 6714SOL    HW231779   0.999   0.990   6.996 -0.2221 -0.1502 -1.7405
 6715SOL     OW31780   4.430   3.352   8.888 -0.2457 -0.0384  0.1298
 6715SOL    HW131781   4.426   3.302   8.970 -2.5193  0.0968  0.0781
 6715SOL    HW231782   4.522   3.377   8.902 -0.0330  0.2829 -1.8623
 6716SOL     OW31783   1.669   3.770  12.974 -0.6545 -0.4274  0.2968
 6716SOL    HW131784   1.696   3.846  13.026  1.6283 -0.5010 -0.7719
 6716SOL    HW231785   1.576   3.777  12.992 -0.6913 -3.8596  1.5257
 6717SOL     OW31786   1.851   3.725   4.422  0.3092 -0.3155 -0.6220
 6717SOL    HW131787   1.842   3.632   4.400  0.8341 -0.5216  0.0355
 6717SOL    HW231788   1.921   3.714   4.486  0.0336  0.4178 -0.1917
 6718SOL     OW31789   1.778   2.614   5.717  0.7419  0.4834 -0.4325
 6718SOL    HW131790   1.862   2.648   5.749 -0.0991  2.4315 -0.2910
 6718SOL    HW231791   1.719   2.689   5.726  0.0846 -0.1315  0.3757
 6719SOL     OW31792   3.654   3.856   3.299 -0.2511 -0.9814 -0.4916
 6719SOL    HW131793   3.591   3.838   3.370  0.1614 -1.0951 -0.1511
 6719SOL    HW231794   3.709   3.912   3.354  0.7769 -2.2867 -0.1913
 6720SOL     OW31795   3.492   3.597  13.461  0.0577 -0.3898 -0.1882
 6720SOL    HW131796   3.542   3.517  13.447  0.7307  0.1233 -0.6886
 6720SOL    HW231797   3.455   3.570  13.545 -1.8773  2.7246 -0.0370
 6721SOL     OW31798   0.027   2.416   3.750 -0.4791 -0.1778  0.2152
 6721SOL    HW131799   0.078   2.392   3.673  0.7613  3.2978 -0.0452
 6721SOL    HW231800   4.677   2.429   3.719  0.3606  2.5568 -1.0977
 6722SOL     OW31801   0.755   4.004   6.198  0.1827  0.3807 -0.8893
 6722SOL    HW131802   0.814   4.073   6.229  1.3930 -0.5035 -1.2164
 6722SOL    HW231803   0.758   4.006   6.103 -0.0658 -0.0779 -0.9070
 6723SOL     OW31804   3.610   4.620   5.745 -0.0052  0.3060 -0.0044
 6723SOL    HW131805   3.591   4.694   5.686  0.4054  1.2866  1.1095
 6723SOL    HW231806   3.526   4.577   5.727  0.1500  0.4736 -1.1774
 6724SOL     OW31807   2.505   3.767  11.789  0.0164 -0.1816 -0.5602
 6724SOL    HW131808   2.581   3.824  11.779 -1.2602  1.4337 -1.1834
 6724SOL    HW231809   2.454   3.821  11.727  0.0593  1.1157  0.5454
 6725SOL     OW31810   2.927   1.349  10.403  0.0757 -0.1446 -0.7952
 6725SOL    HW131811   2.899   1.283  10.340 -0.7683  0.2121 -0.7973
 6725SOL    HW231812   2.873   1.426  10.384 -0.7643 -0.1520  1.5502
 6726SOL     OW31813   4.455   3.370   4.314  0.6489  0.6662 -0.2565
 6726SOL    HW131814   4.385   3.421   4.355  0.2467  0.7963 -1.1047
 6726SOL    HW231815   4.465   3.296   4.374  1.6799  0.1110 -1.1015
 6727SOL     OW31816   1.486   1.718   4.562 -0.6806 -0.0915  0.2173
 6727SOL    HW131817   1.522   1.645   4.612 -1.3357 -0.5961 -0.0430
 6727SOL    HW231818   1.537   1.705   4.482  1.5328 -0.0409  1.6133
 6728SOL     OW31819   1.644   4.463  11.726  0.4643 -0.2266 -0.0486
 6728SOL    HW131820   1.558   4.478  11.767  0.4408 -1.2729  0.2689
 6728SOL    HW231821   1.644   4.530  11.657  0.6475  0.5282  0.6896
 6729SOL     OW31822   1.990   1.743   3.386 -0.9466 -0.1097  0.1845
 6729SOL    HW131823   2.010   1.821   3.334 -1.2112 -0.2919 -0.1944
 6729SOL    HW231824   2.077   1.704   3.386  0.3670  2.8643  2.0766
 6730SOL     OW31825   3.680   4.553  11.640  0.4118 -0.1168 -0.4019
 6730SOL    HW131826   3.595   4.577  11.675  1.0279  1.3776  0.0746
 6730SOL    HW231827   3.644   4.529  11.555  1.5528 -0.7343 -0.7154
 6731SOL     OW31828   0.024   1.439   8.507 -0.2966 -0.1739 -0.2122
 6731SOL    HW131829   4.676   1.472   8.489  0.2860  1.3116 -0.3342
 6731SOL    HW231830   0.030   1.358   8.456 -1.6851 -0.7353  0.5224
 6732SOL     OW31831   3.290   1.170   5.485  0.6374  0.4333  0.0124
 6732SOL    HW131832   3.351   1.189   5.556  0.9481 -1.8835  0.3742
 6732SOL    HW231833   3.206   1.160   5.531  1.0060 -0.8540  0.4167
 6733SOL     OW31834   1.348   1.786  11.929 -0.6613 -0.6192 -0.2546
 6733SOL    HW131835   1.285   1.848  11.893 -2.0830 -1.2672  1.1361
 6733SOL    HW231836   1.432   1.832  11.921 -0.8550 -0.5428 -1.7901
 6734SOL     OW31837   2.603   1.507   3.998 -0.3601 -0.2531 -1.0180
 6734SOL    HW131838   2.517   1.491   4.036 -0.3452  1.5034 -0.2876
 6734SOL    HW231839   2.653   1.542   4.071 -1.8967  0.1135 -0.1404
 6735SOL     OW31840   1.907   1.347   9.796  0.8224 -0.7280 -0.4118
 6735SOL    HW131841   1.903   1.413   9.865 -0.5675 -0.3069 -0.8823
 6735SOL    HW231842   1.834   1.291   9.821  0.9701 -0.7643 -0.0639
 6736SOL     OW31843   0.373   3.354   9.518  0.0863 -0.1543  0.0434
 6736SOL    HW131844   0.409   3.400   9.441  1.0413  1.5351  1.4864
 6736SOL    HW231845   0.311   3.417   9.554 -1.5258 -1.8346  0.1487
 6737SOL     OW31846   3.573   2.569   1.960 -0.1307  0.0541 -0.2329
 6737SOL    HW131847   3.513   2.607   2.024 -1.5658  0.4453 -1.8109
 6737SOL    HW231848   3.514   2.535   1.892 -1.8865  0.9572  0.8441
 6738SOL     OW31849   4.242   3.101  16.012  0.0993  0.3477 -0.7601
 6738SOL    HW131850   4.178   3.042  16.053 -2.3055  0.9590 -3.5744
 6738SOL    HW231851   4.286   3.037  15.955 -1.0313 -0.4822 -0.7118
 6739SOL     OW31852   3.748   4.588   6.416 -0.4866  0.3868  0.2844
 6739SOL    HW131853   3.840   4.611   6.403 -1.0799  2.1858 -0.6255
 6739SOL    HW231854   3.744   4.531   6.493  1.4936 -0.7593 -0.4327
 6740SOL     OW31855   4.730   4.297   2.775  0.2914 -0.2050 -0.6700
 6740SOL    HW131856   0.036   4.217   2.750 -1.2293 -1.2684 -0.0905
 6740SOL    HW231857   4.657   4.294   2.713 -0.3899 -0.0817  0.1275
 6741SOL     OW31858   3.401   4.192  15.380 -0.1893  0.1334  0.0453
 6741SOL    HW131859   3.469   4.125  15.386 -0.5980 -0.2767  0.1114
 6741SOL    HW231860   3.455   4.270  15.388  3.5351 -2.5384  0.8327
 6742SOL     OW31861   3.571   2.358   8.755  0.4061  0.4191 -0.1958
 6742SOL    HW131862   3.605   2.269   8.749  1.4376  0.6899  1.5908
 6742SOL    HW231863   3.480   2.347   8.784  0.2852  1.7072 -0.0904
 6743SOL     OW31864   3.178   2.724   6.301  0.4583  0.4501 -0.2982
 6743SOL    HW131865   3.237   2.733   6.375  0.5046 -0.0270 -0.2754
 6743SOL    HW231866   3.134   2.651   6.345 -0.0842 -0.3170 -2.1067
 6744SOL     OW31867   0.234   0.143  13.037 -0.2834 -0.0552 -0.4822
 6744SOL    HW131868   0.261   0.176  13.123 -0.9096  1.2231 -0.7832
 6744SOL    HW231869   0.246   0.048  13.042 -0.1088  0.1263  2.6251
 6745SOL     OW31870   0.266   0.407   8.343 -0.1690  0.4700  0.4357
 6745SOL    HW131871   0.208   0.331   8.347 -0.5144  0.6634 -0.9954
 6745SOL    HW231872   0.342   0.358   8.375 -1.2621 -1.2012  0.4568
 6746SOL     OW31873   4.229   0.945  15.044  0.2048 -0.8079  0.0089
 6746SOL    HW131874   4.296   1.013  15.053  0.8504 -1.9264  3.4457
 6746SOL    HW231875   4.278   0.863  15.045 -0.5465 -1.2218  2.2139
 6747SOL     OW31876   2.768   4.286   4.527 -0.2293  0.0327  0.5076
 6747SOL    HW131877   2.678   4.286   4.561 -0.9829  0.2458 -1.4653
 6747SOL    HW231878   2.771   4.192   4.508  1.4229  0.4550 -1.3213
 6748SOL     OW31879   3.764   3.289  10.707 -0.4461 -0.3148  0.7278
 6748SOL    HW131880   3.785   3.350  10.636  1.6658  0.8770  2.3712
 6748SOL    HW231881   3.826   3.219  10.683 -0.7846 -0.1029 -0.7933
 6749SOL     OW31882   2.199   4.360   4.170 -0.0048  0.3712  0.0926
 6749SOL    HW131883   2.246   4.440   4.147 -0.2251  0.8171  1.1627
 6749SOL    HW231884   2.128   4.369   4.107  0.0989  0.2992 -0.0325
 6750SOL     OW31885   2.591   0.560   9.491  0.5038 -0.2613  0.2047
 6750SOL    HW131886   2.558   0.473   9.515 -0.3430 -0.7263 -2.6454
 6750SOL    HW231887   2.609   0.542   9.399 -3.7093 -0.0726 -0.6366
 6751SOL     OW31888   3.534   4.618   7.839  0.0618 -0.0171 -0.1153
 6751SOL    HW131889   3.582   4.553   7.788  0.5815 -0.0029  0.3564
 6751SOL    HW231890   3.544   4.697   7.786  0.6172  0.3367  0.5150
 6752SOL     OW31891   3.197   2.054  10.296 -0.1749 -0.4153  0.2085
 6752SOL    HW131892   3.186   2.128  10.235  1.5078  2.1175  2.9909
 6752SOL    HW231893   3.111   2.014  10.280  0.8348 -1.5802 -2.2794
 6753SOL     OW31894   1.901   3.661   2.335 -0.7499 -0.7308 -0.1064
 6753SOL    HW131895   1.968   3.678   2.401  0.4795  0.1316 -1.5648
 6753SOL    HW231896   1.856   3.584   2.369  2.3444 -1.9650  1.2126
 6754SOL     OW31897   2.515   1.212   8.378  0.1587  0.1997 -0.2709
 6754SOL    HW131898   2.511   1.219   8.283  0.4940  2.8418 -0.0782
 6754SOL    HW231899   2.575   1.283   8.398 -2.6356  2.3478  0.4664
 6755SOL     OW31900   0.131   2.732   0.422  0.2167 -0.2688  0.3753
 6755SOL    HW131901   0.118   2.665   0.489 -0.9094  0.8327  1.2477
 6755SOL    HW231902   0.171   2.802   0.474  0.8279 -1.2212  1.2051
 6756SOL     OW31903   4.162   4.671   8.965 -0.3610 -0.1961 -0.2979
 6756SOL    HW131904   4.219   4.734   8.920 -0.2817 -1.5294 -2.0534
 6756SOL    HW231905   4.150   4.714   9.049  0.4768 -2.7819  1.1591
 6757SOL     OW31906   4.307   4.723   7.496 -0.1924  0.1853 -0.4330
 6757SOL    HW131907   4.346   4.648   7.450 -2.0727 -0.2954 -1.2521
 6757SOL    HW231908   4.246   4.682   7.557 -0.1151 -2.8854 -2.3845
 6758SOL     OW31909   1.469   4.211   5.646  0.1737 -0.0549 -0.0330
 6758SOL    HW131910   1.515   4.128   5.637 -0.2090 -0.4195  1.3921
 6758SOL    HW231911   1.539   4.277   5.649  0.1524 -0.0144 -0.4398
 6759SOL     OW31912   2.724   0.172  14.564 -0.0573  0.3891 -0.0330
 6759SOL    HW131913   2.791   0.146  14.627 -0.7736 -0.3616  0.4204
 6759SOL    HW231914   2.737   0.107  14.496 -2.3897 -0.3680  0.2364
 6760SOL     OW31915   1.308   2.902  15.192 -0.8518 -0.2867 -0.6309
 6760SOL    HW131916   1.393   2.859  15.189 -0.4095  0.6910 -2.1706
 6760SOL    HW231917   1.263   2.855  15.122  0.3706  0.2371 -1.7638
 6761SOL     OW31918   0.840   0.768  15.835  0.3376 -0.4828  0.3111
 6761SOL    HW131919   0.923   0.789  15.793 -0.4680  1.3218 -0.3286
 6761SOL    HW231920   0.836   0.674  15.818 -1.2596 -0.3596  0.0365
 6762SOL     OW31921   0.334   3.369  13.855 -0.3869 -0.1839 -0.5639
 6762SOL    HW131922   0.351   3.422  13.777  1.9245 -2.5261 -1.6551
 6762SOL    HW231923   0.275   3.301  13.825 -0.9454  0.1547 -0.2284
 6763SOL     OW31924   1.524   4.231  11.962 -0.6506  0.0922 -1.0227
 6763SOL    HW131925   1.516   4.293  12.035 -0.2822 -0.8100 -0.2198
 6763SOL    HW231926   1.432   4.240  11.937 -0.6195  0.5358 -0.9765
 6764SOL     OW31927   0.789   2.225  14.948  0.4666  0.2373 -0.5182
 6764SOL    HW131928   0.763   2.294  15.009 -0.7486  0.2416 -1.0363
 6764SOL    HW231929   0.747   2.150  14.990 -1.5366  1.1436 -0.9282
 6765SOL     OW31930   2.148   0.929  12.469  0.1290 -0.1355  0.8573
 6765SOL    HW131931   2.144   1.016  12.430  2.1474 -0.4168  0.0123
 6765SOL    HW231932   2.103   0.890  12.395  2.0491  1.1528 -0.9728
 6766SOL     OW31933   2.704   3.233  11.030 -0.0793  0.0531  0.4659
 6766SOL    HW131934   2.680   3.317  10.992 -1.7384  0.9250  3.5093
 6766SOL    HW231935   2.714   3.187  10.946 -2.3447 -0.8710  0.7031
 6767SOL     OW31936   0.843   3.666   4.531  0.5300 -0.0184 -0.0751
 6767SOL    HW131937   0.769   3.725   4.518  0.8542  0.4039  0.0208
 6767SOL    HW231938   0.906   3.690   4.463 -0.6826 -0.6645 -1.4214
 6768SOL     OW31939   4.740   4.388   5.248  0.1118 -0.2493 -0.4979
 6768SOL    HW131940   4.723   4.382   5.154  0.1191 -0.0130 -0.5155
 6768SOL    HW231941   0.073   4.327   5.250  0.3435  0.0742  0.4671
 6769SOL     OW31942   3.528   4.684   8.530  0.0433  0.0382  0.0026
 6769SOL    HW131943   3.509   4.738   8.607 -0.2806  0.7937 -0.6087
 6769SOL    HW231944   3.622   4.700   8.517  0.2877 -0.3945  1.2415
 6770SOL     OW31945   0.884   2.433  14.114 -0.5406 -0.1066 -0.6882
 6770SOL    HW131946   0.891   2.347  14.155  2.6504  0.3465 -0.2970
 6770SOL    HW231947   0.789   2.436  14.121 -0.6448  0.3553 -2.2601
 6771SOL     OW31948   1.826   3.079   3.710  0.0368 -0.0997 -0.4230
 6771SOL    HW131949   1.886   3.054   3.640 -0.7989 -1.1688 -0.7578
 6771SOL    HW231950   1.863   3.163   3.737  0.5763 -0.1987 -0.8438
 6772SOL     OW31951   0.861   4.408   8.110 -0.2538  0.2554  0.0016
 6772SOL    HW131952   0.890   4.417   8.019 -0.4998 -1.9751 -0.2850
 6772SOL    HW231953   0.899   4.482   8.158  1.8464 -1.2484  0.6460
 6773SOL     OW31954   1.567   1.644  12.869  0.7758 -0.6886  0.4040
 6773SOL    HW131955   1.559   1.620  12.777  0.7488 -0.7552  0.4238
 6773SOL    HW231956   1.539   1.736  12.875 -1.0644 -1.1931 -0.5696
 6774SOL     OW31957   4.218   3.011   9.255 -0.1560 -0.1583 -0.4599
 6774SOL    HW131958   4.243   2.930   9.211  1.6405  0.6215 -0.8682
 6774SOL    HW231959   4.250   2.991   9.343  2.6311 -1.5583 -1.8075
 6775SOL     OW31960   1.636   2.564   9.331 -0.5770  0.0765 -0.0481
 6775SOL    HW131961   1.638   2.574   9.426  2.0470  0.0192 -0.0723
 6775SOL    HW231962   1.645   2.653   9.296  1.8839  0.2323  0.9816
 6776SOL     OW31963   2.349   1.989   3.774 -0.2092 -0.1317  0.0495
 6776SOL    HW131964   2.435   2.008   3.737 -1.0316 -0.7497 -2.1799
 6776SOL    HW231965   2.326   2.081   3.782 -1.4495 -0.4013 -0.5112
 6777SOL     OW31966   0.774   4.109  13.626  0.3282 -0.3595 -0.0686
 6777SOL    HW131967   0.842   4.175  13.640 -0.8111  0.8722 -0.2964
 6777SOL    HW231968   0.742   4.091  13.714 -1.0017  0.1927 -0.4349
 6778SOL     OW31969   1.831   2.920   3.038 -0.1225  0.4855  0.2548
 6778SOL    HW131970   1.745   2.948   3.070 -0.1597  0.1695  0.4284
 6778SOL    HW231971   1.859   2.848   3.094 -2.1003 -0.7505 -0.3376
 6779SOL     OW31972   2.219   4.276   6.967  0.7803 -0.5706  0.1376
 6779SOL    HW131973   2.129   4.259   6.994  0.4587  1.1062  0.0847
 6779SOL    HW231974   2.203   4.350   6.909  0.0758  1.2358  2.6638
 6780SOL     OW31975   4.728   4.425   1.795 -0.2273  0.0764  0.7341
 6780SOL    HW131976   0.051   4.413   1.866 -0.7221 -0.9987  0.9986
 6780SOL    HW231977   4.661   4.365   1.827 -3.0099  2.6787 -0.2294
 6781SOL     OW31978   4.615   0.993  14.167 -0.6865  0.0495  0.1867
 6781SOL    HW131979   4.706   0.964  14.164 -0.7713 -0.3201  1.2409
 6781SOL    HW231980   4.564   0.912  14.164  0.6023 -0.7722  0.7319
 6782SOL     OW31981   3.726   0.771   0.750 -0.4997 -0.2072  0.2124
 6782SOL    HW131982   3.681   0.803   0.829  2.4488  0.5500  1.5843
 6782SOL    HW231983   3.768   0.852   0.721 -1.6332  0.7019  1.0868
 6783SOL     OW31984   0.960   0.210   2.517  0.4217  0.1020 -0.3141
 6783SOL    HW131985   1.049   0.202   2.550  0.0050  0.0461  0.7791
 6783SOL    HW231986   0.966   0.298   2.479  0.1464  0.7579  1.1603
 6784SOL     OW31987   2.131   4.205   3.419  0.2030 -0.4161  0.1836
 6784SOL    HW131988   2.102   4.252   3.497 -1.5838  1.0539 -1.3562
 6784SOL    HW231989   2.084   4.257   3.354  3.2906  1.0667 -0.8318
 6785SOL     OW31990   1.469   0.305   6.008  0.1841 -0.3278  0.4347
 6785SOL    HW131991   1.438   0.349   6.087  1.3472 -0.0595  0.7362
 6785SOL    HW231992   1.427   0.361   5.942 -2.7999 -1.4307  1.3900
 6786SOL     OW31993   0.667   3.877  12.287 -0.2679 -0.3563 -0.2677
 6786SOL    HW131994   0.612   3.838  12.219  0.1387 -0.2817 -0.6399
 6786SOL    HW231995   0.704   3.803  12.335 -0.3330 -1.4865 -1.9367
 6787SOL     OW31996   3.296   2.475  11.497  0.4023  0.3000 -0.1100
 6787SOL    HW131997   3.206   2.476  11.528  0.8861 -1.4414  1.3826
 6787SOL    HW231998   3.346   2.459  11.577 -0.4462 -0.3948  0.2786
 6788SOL     OW31999   1.750   3.224   5.707  0.6255 -0.2006  0.6097
 6788SOL    HW132000   1.816   3.158   5.726 -0.5111 -1.5862 -0.2346
 6788SOL    HW232001   1.722   3.195   5.620 -1.2064 -1.9051  1.7420
 6789SOL     OW32002   4.565   3.614   8.786 -0.0375  0.2770 -0.0517
 6789SOL    HW132003   4.597   3.699   8.756  2.0206 -0.3806  0.3185
 6789SOL    HW232004   4.476   3.631   8.817  0.6546  3.2790  0.2916
 6790SOL     OW32005   1.937   1.685   7.336  0.0980 -0.2961  0.3310
 6790SOL    HW132006   1.936   1.593   7.311  0.2369 -0.3635  0.5799
 6790SOL    HW232007   1.904   1.668   7.424 -0.8698  0.0626  0.0422
 6791SOL     OW32008   1.362   3.174   0.188 -0.0994  0.3439  0.2562
 6791SOL    HW132009   1.444   3.218   0.212  0.5921  1.1839 -3.5359
 6791SOL    HW232010   1.394   3.084   0.176  0.3204  0.7265 -1.5762
 6792SOL     OW32011   4.728   4.592   3.370  0.1411 -0.2960  0.1722
 6792SOL    HW132012   4.675   4.672   3.375  0.1444 -0.2060 -1.2306
 6792SOL    HW232013   0.026   4.598   3.458 -1.0785  2.3708  0.5453
 6793SOL     OW32014   0.682   2.726   4.094 -0.1286 -0.3702 -0.1549
 6793SOL    HW132015   0.727   2.654   4.138 -1.0646  0.6344  2.4352
 6793SOL    HW232016   0.622   2.760   4.160 -1.0920 -0.2256 -1.1077
 6794SOL     OW32017   1.894   4.086  17.583 -0.3189 -0.2901 -0.0954
 6794SOL    HW132018   1.802   4.104  17.566 -1.2816 -1.9496  3.3780
 6794SOL    HW232019   1.890   3.994  17.608  1.4018  0.2331  2.1278
 6795SOL     OW32020   3.680   3.014   5.590 -0.1098 -0.0540 -0.3682
 6795SOL    HW132021   3.664   3.107   5.604  1.5946  0.6111 -2.7628
 6795SOL    HW232022   3.593   2.977   5.577  0.2018 -0.5689 -0.9929
 6796SOL     OW32023   3.353   2.675   2.128 -0.2248  0.5809  0.0758
 6796SOL    HW132024   3.324   2.766   2.120  1.2468  1.0095 -0.4772
 6796SOL    HW232025   3.263   2.647   2.146  0.8772 -3.5150 -0.8075
 6797SOL     OW32026   0.890   3.183   8.953 -0.5429  0.2352  0.2847
 6797SOL    HW132027   0.985   3.193   8.942 -0.3878 -2.1650 -0.6358
 6797SOL    HW232028   0.873   3.094   8.922 -1.1935  0.7553 -0.8414
 6798SOL     OW32029   2.453   1.455   1.077  0.2122  0.0647  0.4943
 6798SOL    HW132030   2.502   1.528   1.041  1.3286 -1.3293 -0.8159
 6798SOL    HW232031   2.485   1.452   1.167 -1.4837  0.6102  1.1298
 6799SOL     OW32032   0.727   2.797   1.467  0.3907  0.0146  0.0387
 6799SOL    HW132033   0.755   2.750   1.389 -0.2185  0.7050 -0.5896
 6799SOL    HW232034   0.793   2.866   1.478 -0.5369  0.9209 -0.1629
 6800SOL     OW32035   1.869   2.306  12.656 -0.1161  0.2578 -0.2109
 6800SOL    HW132036   1.894   2.214  12.647 -0.8679  0.1447 -1.1343
 6800SOL    HW232037   1.859   2.309  12.751 -1.1379 -1.8333 -0.2600
 6801SOL     OW32038   3.922   2.268  14.237  0.1263 -0.2422 -0.5249
 6801SOL    HW132039   3.995   2.232  14.186  0.1909 -2.1419  0.9013
 6801SOL    HW232040   3.971   2.283  14.318 -2.1516  1.0072  0.6199
 6802SOL     OW32041   3.653   0.713  12.845  0.4475 -0.2450 -0.0834
 6802SOL    HW132042   3.714   0.678  12.781 -0.3662 -0.3841 -0.7734
 6802SOL    HW232043   3.590   0.644  12.868  0.7547 -0.7267 -0.6909
 6803SOL     OW32044   2.968   0.252  16.449 -0.1491  0.1921 -1.0541
 6803SOL    HW132045   3.029   0.301  16.393 -0.3978  1.8284  0.0984
 6803SOL    HW232046   2.945   0.313  16.519 -2.0254 -0.6022 -0.9884
 6804SOL     OW32047   1.413   1.774   2.208  0.0798 -0.2726  1.1475
 6804SOL    HW132048   1.425   1.869   2.206 -0.3898 -0.2272  0.7587
 6804SOL    HW232049   1.448   1.748   2.123  0.8709  1.1961  1.0341
 6805SOL     OW32050   3.652   3.838   9.125 -0.3153 -0.7983 -0.2823
 6805SOL    HW132051   3.714   3.909   9.139 -0.9415 -0.4107  0.5493
 6805SOL    HW232052   3.716   3.769   9.141  0.3620 -0.2800 -0.7555
 6806SOL     OW32053   1.981   1.154   4.183 -0.5113 -0.5095 -0.0752
 6806SOL    HW132054   1.938   1.143   4.098  0.0300  0.1733 -0.4413
 6806SOL    HW232055   1.913   1.131   4.246  1.5010  1.7919  2.8983
 6807SOL     OW32056   3.038   4.649   6.510  0.3228 -0.2233 -0.3084
 6807SOL    HW132057   3.087   4.580   6.554  1.5362  2.3032  2.3098
 6807SOL    HW232058   3.062   4.721   6.568  1.1365 -0.6535 -0.1114
 6808SOL     OW32059   3.473   1.126  10.138 -0.3310  0.3527 -0.5037
 6808SOL    HW132060   3.455   1.044  10.184 -3.9412  2.3340  1.5506
 6808SOL    HW232061   3.443   1.193  10.200 -0.0646  0.6179 -0.6618
 6809SOL     OW32062   0.513   1.981   6.109 -0.8159 -0.2129  0.1976
 6809SOL    HW132063   0.452   2.052   6.128  0.0506  0.8170 -0.9099
 6809SOL    HW232064   0.527   1.994   6.016  0.6709 -0.3686  0.3907
 6810SOL     OW32065   3.314   3.375   7.347 -0.0031 -0.4877 -0.4296
 6810SOL    HW132066   3.298   3.418   7.431  0.3403 -0.1258 -0.5501
 6810SOL    HW232067   3.399   3.333   7.357 -0.0863 -0.9550 -1.7788
 6811SOL     OW32068   2.724   3.954  11.792  0.1535  0.2096  1.3962
 6811SOL    HW132069   2.785   3.880  11.797  0.6388  0.4836 -0.4096
 6811SOL    HW232070   2.788   4.025  11.799 -1.0989  1.7071 -2.0952
 6812SOL     OW32071   4.446   1.898  15.269 -0.0258 -0.3011 -0.6357
 6812SOL    HW132072   4.470   1.852  15.188 -2.4483 -0.6302 -1.1824
 6812SOL    HW232073   4.524   1.884  15.323  0.9779  0.3616 -1.9300
 6813SOL     OW32074   2.619   0.174  16.143 -0.2877  0.3588 -0.7426
 6813SOL    HW132075   2.642   0.192  16.234  3.4571  0.6353 -1.7432
 6813SOL    HW232076   2.671   0.095  16.125  0.1163  0.4361  0.0887
 6814SOL     OW32077   3.001   2.596   9.485  0.3695  0.6207 -0.1487
 6814SOL    HW132078   2.961   2.679   9.513 -2.4159 -0.7526  0.0181
 6814SOL    HW232079   2.930   2.536   9.508  1.2334 -0.5150 -0.4549
 6815SOL     OW32080   0.678   2.219  16.496  0.7085 -0.4705  0.3737
 6815SOL    HW132081   0.639   2.300  16.529 -0.2948 -0.2625 -1.3070
 6815SOL    HW232082   0.716   2.264  16.421 -0.6453  0.8068  0.4500
 6816SOL     OW32083   2.947   1.657   9.612 -0.4242  0.0741 -0.2673
 6816SOL    HW132084   3.037   1.660   9.645 -0.5771  1.1648  0.0501
 6816SOL    HW232085   2.887   1.656   9.687 -0.0285  1.6896  0.0704
 6817SOL     OW32086   0.220   2.683   5.013 -0.2076  0.3204 -0.5530
 6817SOL    HW132087   0.204   2.639   5.097  1.1721  1.8082  0.4955
 6817SOL    HW232088   0.210   2.774   5.041  2.9141 -0.1603  2.1884
 6818SOL     OW32089   2.131   4.195   9.399 -0.6671 -0.0404 -0.2099
 6818SOL    HW132090   2.163   4.156   9.481 -0.0727  0.3500 -0.2628
 6818SOL    HW232091   2.215   4.197   9.354  0.2002 -0.8746  1.3473
 6819SOL     OW32092   1.144   1.165   7.326 -0.8213 -0.1435  0.3836
 6819SOL    HW132093   1.134   1.071   7.341 -0.0030 -0.4202 -0.8249
 6819SOL    HW232094   1.221   1.190   7.377 -1.1709  0.7941  0.4461
 6820SOL     OW32095   2.026   1.942   3.798  0.2295 -0.0531 -0.0366
 6820SOL    HW132096   1.952   1.968   3.744 -0.3221  2.2358  1.8099
 6820SOL    HW232097   2.003   1.852   3.818 -0.0804 -0.1622 -0.9114
 6821SOL     OW32098   3.401   1.387   1.895 -0.5018 -0.1617 -0.1829
 6821SOL    HW132099   3.330   1.333   1.860 -1.5117  0.2257  1.2386
 6821SOL    HW232100   3.457   1.393   1.818 -0.1777 -0.4777  0.0274
 6822SOL     OW32101   4.350   1.639   5.147  0.2912 -0.4063  0.0304
 6822SOL    HW132102   4.420   1.577   5.127  1.9182  1.4058  0.0506
 6822SOL    HW232103   4.345   1.628   5.242  3.7678 -0.5370  0.1940
 6823SOL     OW32104   4.722   0.844   4.135 -0.9541  0.2201 -0.3698
 6823SOL    HW132105   4.644   0.856   4.081 -0.5342  0.3971 -0.9359
 6823SOL    HW232106   0.012   0.935   4.133 -2.3161  0.6448 -1.7654
 6824SOL     OW32107   4.391   1.095   7.322  0.1087  0.0095  0.0270
 6824SOL    HW132108   4.363   1.012   7.359  1.7804 -0.2375  0.7115
 6824SOL    HW232109   4.320   1.106   7.259  1.6056 -1.9018 -2.0127
 6825SOL     OW32110   4.642   2.554  10.540  0.2336 -0.3334  0.5644
 6825SOL    HW132111   4.622   2.495  10.613  0.9622 -0.5805  0.5639
 6825SOL    HW232112   4.731   2.527  10.517  0.2216 -1.6741  2.0734
 6826SOL     OW32113   4.671   3.887   9.447  0.6211 -0.3843  0.0836
 6826SOL    HW132114   4.623   3.811   9.479 -0.4880  0.9794  1.6486
 6826SOL    HW232115   4.649   3.949   9.516 -0.9154 -1.0976  0.2288
 6827SOL     OW32116   3.245   2.230  13.835  0.3665  0.3857  0.2552
 6827SOL    HW132117   3.316   2.218  13.898  1.0288  1.2729 -0.3240
 6827SOL    HW232118   3.262   2.166  13.765 -4.3543  0.4113 -0.9397
 6828SOL     OW32119   0.017   0.606  16.552 -0.6371  0.5715 -0.1270
 6828SOL    HW132120   0.037   0.517  16.522  1.1015  0.6971  0.6521
 6828SOL    HW232121   4.740   0.638  16.464  0.0633  2.1272  0.3033
 6829SOL     OW32122   1.668   2.916   7.349 -0.3974  1.0123 -0.4541
 6829SOL    HW132123   1.740   2.975   7.326 -0.3429  0.6520 -1.1956
 6829SOL    HW232124   1.601   2.981   7.369 -0.1862  1.4803 -1.2773
 6830SOL     OW32125   3.201   1.645   9.712  0.1692 -0.2118  0.0218
 6830SOL    HW132126   3.226   1.563   9.754 -1.0016 -0.7551 -0.3534
 6830SOL    HW232127   3.268   1.649   9.643 -1.2283  0.2199 -1.3196
 6831SOL     OW32128   3.107   2.715   6.766 -0.3870  0.2296  0.0028
 6831SOL    HW132129   3.058   2.739   6.845  0.0704  1.6458 -0.1350
 6831SOL    HW232130   3.183   2.672   6.806  0.4312  0.5288 -1.2249
 6832SOL     OW32131   4.682   2.939   9.632 -0.1341  0.0681  0.1379
 6832SOL    HW132132   4.608   2.878   9.632  0.1212 -0.2411 -0.9862
 6832SOL    HW232133   4.734   2.911   9.708 -0.6587 -0.6988  0.2118
 6833SOL     OW32134   2.427   4.297   5.758  0.2822  0.1246  0.2854
 6833SOL    HW132135   2.431   4.208   5.723  0.6921  1.3630 -2.7357
 6833SOL    HW232136   2.495   4.299   5.825  0.0899  0.6702  0.4621
 6834SOL     OW32137   3.811   2.387   3.137  0.1879 -0.2125  0.4169
 6834SOL    HW132138   3.769   2.354   3.058  1.2059  0.0443 -0.2379
 6834SOL    HW232139   3.855   2.307   3.168 -0.0662 -0.9320 -1.0496
 6835SOL     OW32140   2.710   4.451   4.067 -0.2151  0.5332  0.3508
 6835SOL    HW132141   2.658   4.512   4.014 -1.0421 -0.9676 -0.5808
 6835SOL    HW232142   2.753   4.410   3.992 -2.6049 -0.1862 -0.6346
 6836SOL     OW32143   3.195   1.308   4.539 -0.4818 -0.0569  0.0591
 6836SOL    HW132144   3.173   1.237   4.600  0.7498 -0.7304 -0.2862
 6836SOL    HW232145   3.285   1.279   4.520  0.0045  1.5655 -0.1524
 6837SOL     OW32146   3.557   1.878   6.425 -0.0158  0.1214 -0.1903
 6837SOL    HW132147   3.652   1.891   6.430 -0.1382  0.5994  0.7305
 6837SOL    HW232148   3.521   1.939   6.488  1.2161  1.9961 -1.2955
 6838SOL     OW32149   4.464   3.668  12.541 -0.2993  0.7751  0.0622
 6838SOL    HW132150   4.489   3.714  12.460 -1.1647 -0.3022 -0.8161
 6838SOL    HW232151   4.558   3.658  12.559 -0.3052 -1.9270 -1.4305
 6839SOL     OW32152   1.269   2.825  13.656 -0.4499  0.1575 -0.2863
 6839SOL    HW132153   1.245   2.816  13.749 -1.6860  2.8107 -0.3571
 6839SOL    HW232154   1.244   2.917  13.647  0.0050  0.4879  1.9026
 6840SOL     OW32155   1.200   3.691  17.630 -0.1804 -0.5279 -0.1715
 6840SOL    HW132156   1.215   3.684  17.724 -0.6894 -0.8930 -0.1135
 6840SOL    HW232157   1.111   3.655  17.625  0.4809 -2.4108  1.6232
 6841SOL     OW32158   2.534   2.900   5.330 -0.9016 -0.4963 -0.5507
 6841SOL    HW132159   2.620   2.880   5.369 -0.1081  2.5845 -0.6693
 6841SOL    HW232160   2.541   2.994   5.313  1.2848  0.0832  3.5254
 6842SOL     OW32161   2.240   4.146   7.244  0.2854 -0.0556 -0.1125
 6842SOL    HW132162   2.313   4.156   7.305 -0.6212  0.0134  0.9473
 6842SOL    HW232163   2.238   4.235   7.210  2.6901 -0.4774 -1.3973
 6843SOL     OW32164   1.380   2.795   4.836  0.5139 -0.3281  0.4466
 6843SOL    HW132165   1.312   2.748   4.789  1.5900 -1.3044 -0.1363
 6843SOL    HW232166   1.354   2.755   4.919  1.0653  2.3985  1.9349
 6844SOL     OW32167   1.097   2.637   6.134  0.0275  0.3361  0.3013
 6844SOL    HW132168   1.009   2.609   6.111 -0.0367  0.9259 -0.1778
 6844SOL    HW232169   1.097   2.615   6.227 -1.8471 -0.7318  0.0446
 6845SOL     OW32170   0.129   1.358  12.975  0.7082 -0.3450  0.6814
 6845SOL    HW132171   0.164   1.362  13.064  0.8878 -0.0552  0.5977
 6845SOL    HW232172   0.061   1.423  12.992  2.0391  1.1028  0.4840
 6846SOL     OW32173   0.478   1.512  14.779 -0.2321  0.9688  0.2212
 6846SOL    HW132174   0.517   1.590  14.738  1.9407 -0.7395 -0.9860
 6846SOL    HW232175   0.503   1.451  14.709  0.4803  2.1799 -0.5889
 6847SOL     OW32176   3.598   4.719   3.137 -0.0383  0.1196  0.1702
 6847SOL    HW132177   3.569   4.640   3.183 -0.7203  1.0120  1.2742
 6847SOL    HW232178   3.653   0.023   3.202  1.2436  1.2107 -1.6729
 6848SOL     OW32179   3.503   3.427   3.034 -0.1719  0.1214 -0.2819
 6848SOL    HW132180   3.415   3.454   3.059 -0.5095 -2.1271  0.9483
 6848SOL    HW232181   3.503   3.332   3.022  0.6051 -0.0197  0.8893
 6849SOL     OW32182   3.085   3.873   5.580 -0.5049 -1.0714  0.1310
 6849SOL    HW132183   3.119   3.802   5.635 -0.8683  0.4022  2.2517
 6849SOL    HW232184   2.995   3.845   5.563 -1.1800  2.9052 -2.8226
 6850SOL     OW32185   3.129   2.686  17.293 -0.1806 -0.0793 -0.3546
 6850SOL    HW132186   3.043   2.654  17.268 -0.1026  0.3131 -1.1115
 6850SOL    HW232187   3.126   2.672  17.388 -0.6081 -2.1259 -0.6555
 6851SOL     OW32188   4.488   0.593   8.197  0.2672 -0.0651  0.4795
 6851SOL    HW132189   4.553   0.625   8.260  1.3398 -1.4902  0.1115
 6851SOL    HW232190   4.418   0.565   8.256 -0.3801 -0.1771 -0.3486
 6852SOL     OW32191   1.413   3.181   1.723  0.0979  0.0140 -0.6949
 6852SOL    HW132192   1.500   3.201   1.758 -0.2628 -0.4764  0.4800
 6852SOL    HW232193   1.431   3.098   1.679 -1.9498 -0.6053 -0.3392
 6853SOL     OW32194   4.570   1.361   2.005 -0.5726 -0.7679 -0.3924
 6853SOL    HW132195   4.589   1.269   2.024  0.5612 -0.3028  0.7301
 6853SOL    HW232196   4.637   1.376   1.938 -2.3029 -0.2072 -1.9761
 6854SOL     OW32197   4.035   0.535   6.797  0.0381  0.1050 -0.0904
 6854SOL    HW132198   4.047   0.598   6.725  2.5546 -1.8475 -1.3797
 6854SOL    HW232199   4.068   0.598   6.861  0.5140 -0.8298  0.5809
 6855SOL     OW32200   1.720   4.186  16.275 -0.4157 -0.0978  0.3492
 6855SOL    HW132201   1.643   4.225  16.316  0.2050 -1.3980  2.7405
 6855SOL    HW232202   1.723   4.100  16.317 -1.8685 -1.0865 -1.5438
 6856SOL     OW32203   0.172   3.062   2.958  0.0492  0.2541  0.8668
 6856SOL    HW132204   0.108   3.100   2.897  1.2183 -0.6892 -0.9658
 6856SOL    HW232205   0.175   2.980   2.908 -1.1761 -0.9011  2.7297
 6857SOL     OW32206   3.940   3.571   3.930  0.0068  0.0219  0.2473
 6857SOL    HW132207   3.955   3.603   3.841 -0.2843 -1.4726 -0.3384
 6857SOL    HW232208   4.029   3.544   3.953  0.1534 -0.0545 -0.3993
 6858SOL     OW32209   2.240   2.075   9.580 -0.1582 -0.0674 -0.7242
 6858SOL    HW132210   2.170   2.024   9.619  0.5547 -1.4773 -1.2807
 6858SOL    HW232211   2.179   2.144   9.552 -0.6082  0.2912  1.1239
 6859SOL     OW32212   1.178   1.159   0.476 -0.2614  0.3973  0.1233
 6859SOL    HW132213   1.234   1.234   0.459  0.0890  0.7658  2.8300
 6859SOL    HW232214   1.097   1.188   0.435 -1.0224 -2.0960 -0.1517
 6860SOL     OW32215   4.579   2.737   7.050 -0.0101 -0.4607 -0.2706
 6860SOL    HW132216   4.558   2.671   6.984  0.0816 -0.2371 -0.5203
 6860SOL    HW232217   4.656   2.694   7.085 -0.0289 -1.0211 -0.9268
 6861SOL     OW32218   0.242   3.943  15.222  0.1679  0.2590 -0.3969
 6861SOL    HW132219   0.235   3.852  15.251  0.1574  1.1528  2.4095
 6861SOL    HW232220   0.155   3.975  15.246  0.3688  0.0903  0.5624
 6862SOL     OW32221   3.701   1.865  12.696 -0.0811  0.4006 -0.2382
 6862SOL    HW132222   3.650   1.938  12.730 -0.4809 -1.2288  2.6532
 6862SOL    HW232223   3.707   1.806  12.772  0.7621 -0.5902 -1.0664
 6863SOL     OW32224   3.239   2.594   4.921 -0.2458  0.2071  0.0315
 6863SOL    HW132225   3.289   2.675   4.921  0.0732  0.0039  0.6509
 6863SOL    HW232226   3.228   2.580   5.015 -0.5993  0.2768  0.0030
 6864SOL     OW32227   2.618   4.618   3.860 -0.3413 -0.3397 -0.0621
 6864SOL    HW132228   2.696   4.670   3.837 -1.0593  0.7762  0.0402
 6864SOL    HW232229   2.559   4.667   3.803 -0.0969 -0.5399 -0.4872
 6865SOL     OW32230   4.184   3.189   5.317 -0.2505  0.1491  0.2472
 6865SOL    HW132231   4.115   3.190   5.251  0.6954  1.0719 -0.7419
 6865SOL    HW232232   4.138   3.213   5.398  2.9872 -2.4648  2.8679
 6866SOL     OW32233   3.434   2.187   1.018  0.7075 -0.3082 -0.3789
 6866SOL    HW132234   3.376   2.131   1.071  1.6191 -1.2792 -0.4072
 6866SOL    HW232235   3.362   2.232   0.973 -0.3456  0.7563  2.3524
 6867SOL     OW32236   4.734   0.563   4.659 -0.7592 -0.3965 -0.0858
 6867SOL    HW132237   0.043   0.622   4.601 -0.9347 -1.7511 -1.6040
 6867SOL    HW232238   0.010   0.481   4.614 -0.6506 -1.9434  2.7366
 6868SOL     OW32239   2.411   0.749   2.037 -0.2466 -0.4173 -0.5618
 6868SOL    HW132240   2.477   0.737   2.105 -0.1312  2.1907 -0.2302
 6868SOL    HW232241   2.464   0.756   1.957  0.3077 -0.3769 -0.1899
 6869SOL     OW32242   0.050   3.826   9.742  0.1722  0.2187  0.3126
 6869SOL    HW132243   0.070   3.909   9.700  1.1851 -1.1462 -1.8892
 6869SOL    HW232244   0.136   3.789   9.763  1.5338  1.6240 -2.7422
 6870SOL     OW32245   1.503   4.203  11.597  0.2642  0.2702  0.7460
 6870SOL    HW132246   1.496   4.277  11.658  0.2265  0.9117 -0.0260
 6870SOL    HW232247   1.526   4.131  11.655  0.2401 -0.1889  0.1865
 6871SOL     OW32248   1.315   1.339   5.779  0.7163  0.1229  0.0140
 6871SOL    HW132249   1.272   1.420   5.806  0.8453 -0.3050  1.5065
 6871SOL    HW232250   1.344   1.318   5.868 -0.0053  0.7458  0.3897
 6872SOL     OW32251   4.443   0.060   3.634  0.2912 -0.3832 -0.3107
 6872SOL    HW132252   4.488   0.046   3.551  1.0532 -1.1546  0.2269
 6872SOL    HW232253   4.516   0.045   3.694  1.0640  3.8629 -0.2607
 6873SOL     OW32254   0.368   4.628   7.132 -0.3802  0.5303  0.3623
 6873SOL    HW132255   0.373   4.601   7.040  0.8312 -0.5979  0.7568
 6873SOL    HW232256   0.310   4.559   7.164  3.3562 -2.7647  0.1266
 6874SOL     OW32257   2.899   1.566   7.237 -0.4850  0.3681 -0.2625
 6874SOL    HW132258   2.964   1.589   7.170 -0.4815  0.6039 -0.1797
 6874SOL    HW232259   2.957   1.555   7.313  0.1727  1.0968 -0.6597
 6875SOL     OW32260   0.881   1.823   2.359  0.9245 -0.3778 -0.2720
 6875SOL    HW132261   0.875   1.917   2.339  0.4908 -0.5728 -1.0736
 6875SOL    HW232262   0.936   1.800   2.284  1.1390  1.3776 -0.6498
 6876SOL     OW32263   4.707   3.944   7.288  1.1953  0.6254  0.1827
 6876SOL    HW132264   0.013   3.938   7.372 -0.1617 -1.9044  0.7359
 6876SOL    HW232265   4.707   3.852   7.264  3.5449  0.3889  1.1542
 6877SOL     OW32266   1.970   1.663   7.915  0.2737  0.3540 -0.8321
 6877SOL    HW132267   1.881   1.630   7.923  1.0004 -1.4940 -0.3167
 6877SOL    HW232268   1.969   1.712   7.833 -0.8504 -0.2099 -1.1408
 6878SOL     OW32269   3.023   2.259   3.214 -0.0109 -0.0532  0.3367
 6878SOL    HW132270   2.943   2.210   3.233  1.8840 -2.2281  2.7657
 6878SOL    HW232271   3.074   2.228   3.289 -1.6947  0.8025  1.8326
 6879SOL     OW32272   4.131   4.606   5.234  0.1987  0.5188  0.2230
 6879SOL    HW132273   4.095   4.670   5.173 -0.3337  0.3800  0.4000
 6879SOL    HW232274   4.212   4.597   5.183  0.0543 -0.6803  0.1955
 6880SOL     OW32275   1.067   2.242  12.174  0.6420  0.2106 -0.1744
 6880SOL    HW132276   1.095   2.172  12.233 -1.9108  0.3114  1.1305
 6880SOL    HW232277   1.091   2.318  12.227  0.2651 -0.8035  1.4479
 6881SOL     OW32278   1.795   1.244   0.917 -0.2923 -0.5302 -0.4092
 6881SOL    HW132279   1.825   1.246   0.826 -1.1962  0.0904 -0.6938
 6881SOL    HW232280   1.787   1.338   0.935  0.3971 -0.5436 -0.0325
 6882SOL     OW32281   4.379   0.222   9.394 -0.0320  0.5094  0.8821
 6882SOL    HW132282   4.456   0.238   9.339 -0.7001 -3.0224 -1.0807
 6882SOL    HW232283   4.420   0.230   9.480  1.7262  0.0072  0.0917
 6883SOL     OW32284   2.648   4.538   5.508  0.0965 -0.4778  0.1748
 6883SOL    HW132285   2.569   4.496   5.541 -2.3411  2.2823 -2.2139
 6883SOL    HW232286   2.691   4.465   5.463  1.6756 -0.2921  1.3842
 6884SOL     OW32287   3.622   3.256   6.265  0.1087 -0.3084 -0.1860
 6884SOL    HW132288   3.647   3.164   6.268  0.3869 -0.2498 -0.6076
 6884SOL    HW232289   3.648   3.285   6.352 -0.2185  0.0196 -0.1982
 6885SOL     OW32290   0.646   0.947   2.513 -0.8117  0.4070 -0.5285
 6885SOL    HW132291   0.662   0.988   2.427 -1.5969 -0.6254 -1.1753
 6885SOL    HW232292   0.567   0.993   2.543 -1.6551 -1.8883  0.7542
 6886SOL     OW32293   4.599   2.064   4.963 -0.2192 -0.0401  0.2062
 6886SOL    HW132294   4.540   2.024   4.898 -1.3380  1.1299  0.4900
 6886SOL    HW232295   4.668   2.100   4.907  0.6792 -1.1808  0.5933
 6887SOL     OW32296   3.082   2.316   4.806 -0.0106 -0.0054  0.3049
 6887SOL    HW132297   3.006   2.325   4.863 -0.7097 -1.2799 -0.4220
 6887SOL    HW232298   3.145   2.366   4.858  0.2041 -1.3043  1.3150
 6888SOL     OW32299   1.758   4.589   4.419  0.4841  0.0466 -0.3988
 6888SOL    HW132300   1.677   4.540   4.428  0.7945 -0.5958 -1.1312
 6888SOL    HW232301   1.772   4.602   4.513 -1.9874  0.2967 -0.0597
 6889SOL     OW32302   0.646   2.901  12.145  0.2358  0.2764  0.4049
 6889SOL    HW132303   0.677   2.883  12.233 -3.7428 -0.6318  1.6486
 6889SOL    HW232304   0.555   2.874  12.162  0.5375 -2.8773 -2.8117
 6890SOL     OW32305   4.081   2.638   9.332  0.4785  0.3051  0.2585
 6890SOL    HW132306   4.126   2.679   9.406 -1.3881  1.3129  0.8405
 6890SOL    HW232307   4.051   2.554   9.368 -1.0516  0.1638 -1.3565
 6891SOL     OW32308   1.948   0.692   5.155  0.2103  0.3338  0.0441
 6891SOL    HW132309   1.951   0.773   5.104 -1.1019  0.5454  0.3152
 6891SOL    HW232310   1.859   0.694   5.188  0.0655 -0.0253 -0.3278
 6892SOL     OW32311   0.759   4.230   5.148 -0.3230 -0.4145 -0.3311
 6892SOL    HW132312   0.687   4.168   5.135 -0.8787 -0.5072  3.4570
 6892SOL    HW232313   0.761   4.248   5.242  0.9543 -0.8294 -0.2887
 6893SOL     OW32314   1.013   3.030  15.538 -0.2521 -0.2679 -0.0694
 6893SOL    HW132315   1.073   3.052  15.468  1.0538 -4.0283 -0.1237
 6893SOL    HW232316   1.071   3.023  15.614 -1.1206 -0.6390  0.5655
 6894SOL     OW32317   1.022   3.930  16.729  0.7380 -0.0198  0.2026
 6894SOL    HW132318   0.939   3.884  16.723  0.4724  0.3465  0.9801
 6894SOL    HW232319   1.013   3.984  16.651  1.7725  0.6306  0.5235
 6895SOL     OW32320   2.558   2.111  11.435 -0.3484  1.1286 -0.1976
 6895SOL    HW132321   2.585   2.170  11.505  0.2395  0.6466 -0.0153
 6895SOL    HW232322   2.472   2.088  11.470  0.7164 -0.2881  1.5080
 6896SOL     OW32323   4.357   4.257   4.859  0.3994  0.1424  0.1687
 6896SOL    HW132324   4.291   4.304   4.909 -0.3279 -1.6269  0.8589
 6896SOL    HW232325   4.320   4.246   4.771 -0.0856 -1.2707  0.5414
 6897SOL     OW32326   0.551   1.309  17.307 -0.0161  0.2596 -0.2406
 6897SOL    HW132327   0.534   1.389  17.357  0.9620  0.1733  0.2234
 6897SOL    HW232328   0.597   1.343  17.230  0.4855 -0.7822 -0.3960
 6898SOL     OW32329   1.834   1.305   7.575  0.1368 -0.0753 -0.0693
 6898SOL    HW132330   1.817   1.258   7.656  0.6802  0.2762  0.2433
 6898SOL    HW232331   1.799   1.392   7.593  0.0012 -0.1718  0.1327
 6899SOL     OW32332   4.296   4.474   9.964 -0.0808 -0.3183  0.3814
 6899SOL    HW132333   4.328   4.434   9.883 -0.6385  1.3099 -0.6358
 6899SOL    HW232334   4.355   4.549   9.973 -1.2221  0.7896 -1.4558
 6900SOL     OW32335   0.370   0.054   5.818  0.1368 -0.7641  0.1099
 6900SOL    HW132336   0.432   0.027   5.885  0.2429 -2.2382 -0.5921
 6900SOL    HW232337   0.393   0.144   5.793 -2.8920 -0.4453 -1.4489
 6901SOL     OW32338   0.724   1.659   3.823  0.8359  0.7996  0.1388
 6901SOL    HW132339   0.673   1.587   3.788  0.4109  0.5711  1.2158
 6901SOL    HW232340   0.696   1.656   3.915 -0.0007 -1.4951 -0.1983
 6902SOL     OW32341   1.956   2.961   1.215 -0.1314  0.1034  0.0894
 6902SOL    HW132342   2.050   2.972   1.230  0.1341  0.4941 -1.8887
 6902SOL    HW232343   1.933   2.989   1.304 -1.5202 -0.4820 -0.0947
 6903SOL     OW32344   1.209   2.359  10.473  0.2154  0.0541 -0.7597
 6903SOL    HW132345   1.249   2.291  10.420 -1.3163 -1.0598 -0.4791
 6903SOL    HW232346   1.280   2.414  10.506 -0.2429  1.7148 -2.5176
 6904SOL     OW32347   1.708   2.165  12.182 -0.2048  0.5147 -0.2828
 6904SOL    HW132348   1.791   2.184  12.226 -1.4692  0.9419  1.9393
 6904SOL    HW232349   1.646   2.167  12.255  0.0255  0.6282 -0.0895
 6905SOL     OW32350   0.236   3.522   7.283  0.5538  0.0407  0.4259
 6905SOL    HW132351   0.273   3.610   7.287 -3.3727  1.5560  3.0033
 6905SOL    HW232352   0.301   3.474   7.232 -0.9823 -2.1349  0.4971
 6906SOL     OW32353   4.436   2.838   8.085  0.8004 -0.0179 -0.0067
 6906SOL    HW132354   4.424   2.748   8.055  0.5778  0.4318 -1.3001
 6906SOL    HW232355   4.457   2.810   8.174 -1.5881  0.9221  0.8399
 6907SOL     OW32356   1.961   0.605  12.119 -0.0227 -0.3280  0.1853
 6907SOL    HW132357   1.990   0.521  12.084  0.8118  0.4847 -1.0805
 6907SOL    HW232358   1.867   0.610  12.102 -0.0428  1.2511  0.7061
 6908SOL     OW32359   2.759   2.051   6.371  0.2953  0.0077  0.0173
 6908SOL    HW132360   2.838   2.021   6.417  0.8802  1.0417 -0.3105
 6908SOL    HW232361   2.742   2.136   6.410 -0.5836 -1.3791  2.6230
 6909SOL     OW32362   0.119   3.145   4.443  0.0084 -0.4628  0.9577
 6909SOL    HW132363   0.064   3.092   4.501  1.9254 -3.1999  0.2017
 6909SOL    HW232364   0.079   3.232   4.446  0.7156 -0.0927 -0.6296
 6910SOL     OW32365   2.763   1.069   2.879  0.2344 -0.5440  0.5298
 6910SOL    HW132366   2.739   0.993   2.826  1.1544 -0.7490  0.4070
 6910SOL    HW232367   2.717   1.052   2.961  0.1721  0.1529  0.6432
 6911SOL     OW32368   1.504   2.788   7.656 -0.1141 -0.1640  0.2735
 6911SOL    HW132369   1.497   2.858   7.722  2.3647 -0.2259  0.6062
 6911SOL    HW232370   1.444   2.811   7.585 -2.4860 -1.7815  1.7277
 6912SOL     OW32371   0.151   2.408   4.761 -0.2975 -0.1980 -0.3479
 6912SOL    HW132372   0.063   2.439   4.740 -0.0256 -0.0654 -1.3099
 6912SOL    HW232373   0.199   2.485   4.731 -0.3747  0.0135  0.0698
 6913SOL     OW32374   2.343   0.953   6.817  0.0303 -0.0517  0.2801
 6913SOL    HW132375   2.408   0.995   6.873 -0.9224 -2.1831  2.9859
 6913SOL    HW232376   2.378   0.972   6.730  1.5113  1.0772  1.1101
 6914SOL     OW32377   3.081   3.281   3.859  0.2885  0.2659  0.5702
 6914SOL    HW132378   3.111   3.240   3.778  0.3416 -1.3852  1.3998
 6914SOL    HW232379   3.097   3.206   3.917  0.9338  1.1746  1.5756
 6915SOL     OW32380   2.466   2.020   6.788 -0.5363  0.0774 -0.3894
 6915SOL    HW132381   2.383   1.976   6.804  0.3032 -0.9778  1.0558
 6915SOL    HW232382   2.447   2.035   6.696  1.9026  0.0407 -0.8825
 6916SOL     OW32383   2.100   0.425  16.598 -0.4531  0.7412  0.1732
 6916SOL    HW132384   2.160   0.493  16.629 -0.4506  0.9754 -0.3478
 6916SOL    HW232385   2.011   0.450  16.625 -1.4179 -2.2755 -0.2607
 6917SOL     OW32386   4.502   0.232  16.349  0.0706  0.4942  0.1942
 6917SOL    HW132387   4.592   0.237  16.317 -0.0849 -0.1607 -0.3455
 6917SOL    HW232388   4.490   0.312  16.401 -0.4064 -0.7872  2.0706
 6918SOL     OW32389   4.382   3.216  17.096  0.0715 -0.3674 -0.4106
 6918SOL    HW132390   4.373   3.179  17.008 -0.4606 -1.2018 -0.0096
 6918SOL    HW232391   4.357   3.306  17.077  0.4167  0.0464  1.1197
 6919SOL     OW32392   0.723   2.124   2.720 -0.0863  0.4575 -0.2159
 6919SOL    HW132393   0.696   2.121   2.628  0.2231  1.7769 -0.3535
 6919SOL    HW232394   0.755   2.214   2.716 -3.3786  1.6954  1.6188
 6920SOL     OW32395   3.511   1.137   7.935 -0.0250 -0.3846  0.8168
 6920SOL    HW132396   3.476   1.082   7.865 -1.7962  2.6702 -0.7030
 6920SOL    HW232397   3.429   1.135   7.984  0.1462  1.5366  1.1737
 6921SOL     OW32398   1.320   3.746   7.465 -0.5677  0.6627  0.3580
 6921SOL    HW132399   1.235   3.756   7.508 -1.2162  0.4874 -0.8832
 6921SOL    HW232400   1.383   3.778   7.530  0.1782  1.0381 -0.5433
 6922SOL     OW32401   2.990   0.972   7.506  0.0060  0.0490  0.0450
 6922SOL    HW132402   2.974   0.882   7.535 -0.7889 -0.3210 -1.5094
 6922SOL    HW232403   2.933   0.971   7.429 -1.4778  0.4595  1.1478
 6923SOL     OW32404   0.638   1.814   6.931  0.3251  0.3084  0.0961
 6923SOL    HW132405   0.636   1.857   6.846  0.5277 -0.4404 -0.2882
 6923SOL    HW232406   0.733   1.803   6.943  0.0211 -1.8911  0.4749
 6924SOL     OW32407   4.654   1.523  13.028  0.4133  0.8075  0.1727
 6924SOL    HW132408   4.635   1.571  13.109  2.2307  0.0495  1.0490
 6924SOL    HW232409   4.621   1.591  12.969 -0.5628 -0.3454 -0.6051
 6925SOL     OW32410   0.206   1.164   5.492 -0.5118 -0.3908 -0.2663
 6925SOL    HW132411   0.201   1.075   5.527 -0.4573 -0.5299 -0.6113
 6925SOL    HW232412   0.118   1.194   5.512 -0.2128  0.0776  0.3605
 6926SOL     OW32413   2.001   2.431  16.900 -0.1696 -0.5103 -0.2381
 6926SOL    HW132414   2.017   2.393  16.813 -1.8788 -1.3605 -0.1885
 6926SOL    HW232415   1.984   2.522  16.877 -2.5286 -0.7875  0.4376
 6927SOL     OW32416   4.081   2.220   5.164 -0.1394  0.9080 -0.1657
 6927SOL    HW132417   4.016   2.264   5.109 -1.1486  0.7016  0.8618
 6927SOL    HW232418   4.025   2.191   5.235 -0.0562 -0.1396 -0.5269
 6928SOL     OW32419   1.290   1.837   2.975  0.6181 -0.2622  0.6117
 6928SOL    HW132420   1.229   1.769   3.003 -0.5944  0.2033 -0.9034
 6928SOL    HW232421   1.349   1.842   3.051 -0.7478 -2.2530  1.7876
 6929SOL     OW32422   4.147   3.401   4.960  0.1934  0.6124 -0.1652
 6929SOL    HW132423   4.056   3.431   4.972  0.4354  0.7132  1.3760
 6929SOL    HW232424   4.180   3.403   5.050 -0.3951 -0.1400  0.0688
 6930SOL     OW32425   2.576   4.459   8.929 -0.1211  0.3094  0.3163
 6930SOL    HW132426   2.663   4.471   8.890  1.3009 -0.6941  3.1699
 6930SOL    HW232427   2.561   4.368   8.901  0.3516  0.1466  0.5754
 6931SOL     OW32428   0.218   1.368   3.073 -0.1833  0.4041  0.2087
 6931SOL    HW132429   0.190   1.459   3.065 -0.5410  0.3794  1.2074
 6931SOL    HW232430   0.184   1.339   3.157  1.9329 -1.5621  0.3773
 6932SOL     OW32431   3.731   3.704   2.589  0.2736  0.2589 -0.3996
 6932SOL    HW132432   3.789   3.747   2.652 -0.8178  1.0101  0.0897
 6932SOL    HW232433   3.793   3.662   2.530  1.1549 -1.7317  1.9336
 6933SOL     OW32434   1.267   1.479  15.086  0.3986 -0.9739 -0.8112
 6933SOL    HW132435   1.297   1.523  15.007  1.2167 -4.4419 -2.4528
 6933SOL    HW232436   1.350   1.468  15.132 -1.3335  0.2973  2.5734
 6934SOL     OW32437   2.997   0.425   2.561  0.6232  0.2084  0.0232
 6934SOL    HW132438   3.030   0.421   2.472  0.3430  1.0435 -0.1168
 6934SOL    HW232439   3.028   0.341   2.594 -0.8667  0.3941  1.9011
 6935SOL     OW32440   2.582   1.669   0.937 -0.3234  0.3487  0.3054
 6935SOL    HW132441   2.557   1.734   0.871  0.0758  0.0973 -0.0944
 6935SOL    HW232442   2.674   1.694   0.941 -0.5876  0.5974  4.0779
 6936SOL     OW32443   0.073   2.157   4.095  0.3993 -0.0399  0.0276
 6936SOL    HW132444   0.146   2.193   4.046  0.3233  0.5038  0.3167
 6936SOL    HW232445   0.075   2.208   4.176 -1.1896 -0.4123  0.3041
 6937SOL     OW32446   2.281   2.483   0.792  0.1908 -0.0789  0.2308
 6937SOL    HW132447   2.211   2.460   0.731  1.3670 -2.2145 -0.3035
 6937SOL    HW232448   2.299   2.399   0.835 -0.1073  0.1690  0.8440
 6938SOL     OW32449   0.717   0.714   9.256 -0.1128  0.4996 -0.0763
 6938SOL    HW132450   0.700   0.622   9.234 -1.2596  0.9930 -1.1685
 6938SOL    HW232451   0.760   0.751   9.179  0.3117 -0.2711 -0.2183
 6939SOL     OW32452   2.093   3.146   6.209  0.6966  0.4930  0.1702
 6939SOL    HW132453   2.041   3.223   6.233 -1.7670 -1.6205  1.6398
 6939SOL    HW232454   2.118   3.169   6.119 -1.5980  1.6847 -0.1483
 6940SOL     OW32455   1.178   3.493   8.365  0.1534 -0.3669  0.2029
 6940SOL    HW132456   1.113   3.490   8.436  0.3902  1.7418  0.5117
 6940SOL    HW232457   1.245   3.428   8.385 -0.2568 -0.9499 -0.3053
 6941SOL     OW32458   2.946   2.905   1.457 -0.3524  0.4471 -0.8199
 6941SOL    HW132459   2.962   2.811   1.469 -2.0810  0.3321  0.5316
 6941SOL    HW232460   3.027   2.936   1.496  0.2060 -0.2393 -1.4341
 6942SOL     OW32461   0.018   4.104   4.189 -0.1854 -0.2455 -0.2165
 6942SOL    HW132462   0.061   4.069   4.266 -0.0892 -0.0429 -0.1766
 6942SOL    HW232463   0.095   4.127   4.137  1.0037  3.1631  3.0746
 6943SOL     OW32464   1.768   1.779   3.917 -0.1723  0.4267 -0.6764
 6943SOL    HW132465   1.686   1.829   3.918 -0.0386  0.6674 -1.8399
 6943SOL    HW232466   1.735   1.697   3.881  0.7910  0.4060 -1.4863
 6944SOL     OW32467   1.288   3.398   8.737  0.1563  0.5798 -0.2271
 6944SOL    HW132468   1.314   3.453   8.811 -0.7393  0.6155  0.0623
 6944SOL    HW232469   1.352   3.414   8.668  1.1947  0.6052  0.7364
 6945SOL     OW32470   1.357   3.771   1.279  0.3448  0.0509  0.3709
 6945SOL    HW132471   1.330   3.861   1.293  1.1024  0.4458 -0.7051
 6945SOL    HW232472   1.352   3.732   1.367 -2.2444 -1.1554 -0.3119
 6946SOL     OW32473   4.320   0.757   2.677  0.4063  0.3799 -0.3426
 6946SOL    HW132474   4.273   0.829   2.635 -0.9768  0.2623  1.0056
 6946SOL    HW232475   4.272   0.732   2.756 -0.0018 -0.6502 -0.9229
 6947SOL     OW32476   3.002   2.083   6.514 -0.1519 -0.2622 -0.5505
 6947SOL    HW132477   3.075   2.126   6.559 -1.3782 -0.6762  1.8475
 6947SOL    HW232478   3.055   2.047   6.444  0.1621 -0.2891 -0.2970
 6948SOL     OW32479   2.220   0.700   7.937 -0.2563 -0.0948 -0.1022
 6948SOL    HW132480   2.139   0.736   7.972 -0.2103  1.1723 -1.3247
 6948SOL    HW232481   2.225   0.617   7.986  0.9511 -1.2597 -2.1989
 6949SOL     OW32482   2.675   1.407   8.330  0.4536  0.1208  0.0775
 6949SOL    HW132483   2.733   1.455   8.271 -0.0839  1.2002  0.4446
 6949SOL    HW232484   2.606   1.471   8.347 -0.1873 -0.0198 -2.0280
 6950SOL     OW32485   0.411   3.380   6.859 -0.1609  0.0894  0.2769
 6950SOL    HW132486   0.466   3.456   6.846  2.1289 -1.4654  0.8969
 6950SOL    HW232487   0.397   3.349   6.770 -0.9047  0.3100  0.3154
 6951SOL     OW32488   3.381   2.031   2.942 -0.6702  0.2077 -0.3503
 6951SOL    HW132489   3.353   2.082   3.018  0.4116  0.4408 -0.1131
 6951SOL    HW232490   3.296   2.020   2.899 -0.9860  0.6465  0.1557
 6952SOL     OW32491   3.431   2.928   5.223  0.4484  0.3330 -0.4124
 6952SOL    HW132492   3.523   2.924   5.195  0.5058 -0.5759 -0.0858
 6952SOL    HW232493   3.385   2.874   5.159  1.3080  0.6439 -1.3020
 6953SOL     OW32494   3.150   4.736   2.944  0.1674 -0.1123  0.7999
 6953SOL    HW132495   3.149   4.738   2.848 -2.1033 -1.5240  0.7914
 6953SOL    HW232496   3.242   0.020   2.957  0.8776 -1.6875 -1.2283
 6954SOL     OW32497   2.024   3.080  13.373 -0.2804 -1.0722  0.0835
 6954SOL    HW132498   2.103   3.068  13.322  0.7227  0.2647  1.3199
 6954SOL    HW232499   1.966   3.043  13.306 -0.2845 -1.6122  0.3916
 6955SOL     OW32500   2.427   0.701   9.085 -0.0766  0.0147  0.2387
 6955SOL    HW132501   2.383   0.766   9.140 -0.9470  1.8329 -2.6265
 6955SOL    HW232502   2.515   0.738   9.079 -0.5841  0.9050 -1.7721
 6956SOL     OW32503   3.206   3.617   5.702 -0.6499  0.1307  0.0289
 6956SOL    HW132504   3.195   3.553   5.773  0.1416 -0.4969 -0.4148
 6956SOL    HW232505   3.302   3.620   5.710 -0.7235 -1.2248  1.4558
 6957SOL     OW32506   1.891   1.465   9.461 -0.0607  0.3172 -0.1747
 6957SOL    HW132507   1.926   1.377   9.453 -0.6700  0.1704 -1.3312
 6957SOL    HW232508   1.829   1.475   9.389  0.1470 -0.4019 -0.4448
 6958SOL     OW32509   0.032   2.910   8.750 -0.3241  0.0754 -0.5386
 6958SOL    HW132510   4.737   2.859   8.676  1.4210  1.3798 -2.2814
 6958SOL    HW232511   0.100   2.961   8.706  0.2074 -0.0463  0.1499
 6959SOL     OW32512   2.247   1.858   7.750 -0.1577 -0.5488 -0.1031
 6959SOL    HW132513   2.175   1.845   7.689 -0.7594 -0.0917  0.5125
 6959SOL    HW232514   2.258   1.768   7.784 -0.1367 -0.5305 -0.0609
 6960SOL     OW32515   1.708   0.492   2.036 -0.0428  0.0677 -0.0448
 6960SOL    HW132516   1.658   0.444   1.969 -0.0098  0.4569 -0.3499
 6960SOL    HW232517   1.666   0.463   2.117  1.0025 -0.5418  0.2850
 6961SOL     OW32518   4.310   3.447   2.414 -0.2177  0.3083  0.2384
 6961SOL    HW132519   4.258   3.484   2.485  0.4562  0.2651  0.7526
 6961SOL    HW232520   4.378   3.405   2.466 -1.3382 -2.6211 -0.6452
 6962SOL     OW32521   2.443   1.936   2.911  0.3065  0.8839  0.5126
 6962SOL    HW132522   2.402   1.996   2.849  0.2605  1.0659  0.7157
 6962SOL    HW232523   2.521   1.918   2.860  0.3438 -1.5092  1.4086
 6963SOL     OW32524   2.876   3.890   9.289  0.2022  0.3511 -0.3593
 6963SOL    HW132525   2.863   3.980   9.318  1.0988 -0.3696  2.3455
 6963SOL    HW232526   2.899   3.906   9.198 -0.7038 -4.2947 -1.4094
 6964SOL     OW32527   1.016   3.088  16.562 -0.2408 -1.0646 -0.6214
 6964SOL    HW132528   0.928   3.120  16.540 -0.3217 -0.0627  1.1584
 6964SOL    HW232529   1.037   3.170  16.607  1.1151  0.0077 -3.2167
 6965SOL     OW32530   4.050   0.293   3.648  0.1120  0.7062 -0.5156
 6965SOL    HW132531   4.073   0.226   3.583  1.1378  0.8920 -0.3425
 6965SOL    HW232532   4.097   0.261   3.724 -0.8315 -1.0198 -0.6579
 6966SOL     OW32533   1.683   0.309  15.962 -0.1055  0.7617  0.1236
 6966SOL    HW132534   1.631   0.375  15.917 -0.1885  1.7067  1.6269
 6966SOL    HW232535   1.763   0.360  15.973  0.2781  0.4536 -1.1835
 6967SOL     OW32536   1.616   3.154   8.669 -0.8098 -0.1677  0.0477
 6967SOL    HW132537   1.520   3.153   8.667 -0.7696  0.3868 -3.1786
 6967SOL    HW232538   1.623   3.102   8.749  1.0274 -1.4933 -0.9744
 6968SOL     OW32539   0.788   1.956   3.449  0.3430  0.2197 -0.1862
 6968SOL    HW132540   0.874   1.951   3.491  0.1853 -0.6981  0.0340
 6968SOL    HW232541   0.765   2.047   3.466 -1.4435 -0.2134 -0.2234
 6969SOL     OW32542   2.234   4.302   8.519 -0.0093 -0.2773  0.2418
 6969SOL    HW132543   2.329   4.311   8.512  0.2141 -1.2857  1.8379
 6969SOL    HW232544   2.218   4.218   8.477 -0.3766 -0.2438  0.3097
 6970SOL     OW32545   0.994   2.699   3.017 -0.1319  0.0888 -0.3918
 6970SOL    HW132546   1.051   2.771   2.990 -3.2180  1.8412 -2.2556
 6970SOL    HW232547   1.016   2.638   2.947 -0.3741 -1.1849  0.6535
 6971SOL     OW32548   1.389   1.960   1.926 -0.6935 -0.3536  0.6437
 6971SOL    HW132549   1.298   1.933   1.928 -0.5775 -0.8970 -1.1609
 6971SOL    HW232550   1.408   1.951   1.832 -0.7634 -0.7555  0.6694
 6972SOL     OW32551   1.475   2.013  14.219 -0.4172 -0.5235  1.0789
 6972SOL    HW132552   1.464   2.093  14.166 -0.0152 -0.8433  0.5094
 6972SOL    HW232553   1.469   2.056  14.304  0.3927 -0.2238  0.9791
 6973SOL     OW32554   0.829   0.184   9.778  0.4185 -0.0054  0.4356
 6973SOL    HW132555   0.829   0.122   9.706  2.0713  1.6788 -1.0208
 6973SOL    HW232556   0.751   0.239   9.765 -0.3106 -0.7686  1.5303
 6974SOL     OW32557   2.319   3.434  16.138 -0.0279  0.3755 -0.1275
 6974SOL    HW132558   2.271   3.516  16.149  0.8937  0.9030 -0.0523
 6974SOL    HW232559   2.292   3.411  16.050  0.1955  0.0462 -0.1079
 6975SOL     OW32560   3.950   0.796   7.684 -0.7987  0.5185  0.1699
 6975SOL    HW132561   3.858   0.814   7.705 -0.1262 -0.5396  4.0147
 6975SOL    HW232562   3.938   0.741   7.606  0.8394  0.2669  0.0887
 6976SOL     OW32563   2.820   3.531   4.188 -0.5791 -0.4521  0.0411
 6976SOL    HW132564   2.812   3.443   4.225  1.0871 -1.0425 -0.9916
 6976SOL    HW232565   2.811   3.581   4.269  0.1078 -0.3134  0.0273
 6977SOL     OW32566   0.618   4.323   3.427  0.1755 -0.1360  0.3362
 6977SOL    HW132567   0.654   4.318   3.516 -0.5995 -0.7573  0.6096
 6977SOL    HW232568   0.631   4.235   3.390 -0.3094 -0.3844  0.7531
 6978SOL     OW32569   2.291   2.084   6.274 -0.2715 -0.2520 -0.7315
 6978SOL    HW132570   2.233   2.012   6.250 -1.3908  0.9790 -1.6967
 6978SOL    HW232571   2.334   2.119   6.196  1.8311 -0.3615  0.3928
 6979SOL     OW32572   1.684   3.860   2.321 -0.4569 -0.7184  0.1688
 6979SOL    HW132573   1.619   3.817   2.376  1.1470 -2.4754  0.6983
 6979SOL    HW232574   1.759   3.801   2.330  0.7289  0.9574  1.2291
 6980SOL     OW32575   4.191   4.005   1.342 -0.5172  0.9686 -0.3039
 6980SOL    HW132576   4.182   4.066   1.415 -1.4030  0.0463  0.3593
 6980SOL    HW232577   4.099   3.991   1.319 -0.7007  0.4344  0.7874
 6981SOL     OW32578   3.483   3.481   3.480 -0.0427  0.4883  0.2447
 6981SOL    HW132579   3.518   3.406   3.431  2.5359  0.4446  2.1629
 6981SOL    HW232580   3.538   3.554   3.451  0.9994 -0.8058 -1.0611
 6982SOL     OW32581   1.016   4.125   4.439  0.5113 -0.1236 -0.3270
 6982SOL    HW132582   1.050   4.095   4.523 -1.4169 -0.9648  0.1384
 6982SOL    HW232583   1.092   4.153   4.387 -0.4600 -0.2442 -1.8258
 6983SOL     OW32584   3.678   2.315   5.535  0.0207 -0.4082  0.0063
 6983SOL    HW132585   3.640   2.283   5.617  2.4350 -1.5858  0.6692
 6983SOL    HW232586   3.772   2.302   5.547 -0.1549 -0.2170  1.6523
 6984SOL     OW32587   1.652   3.720   3.254  0.2037 -0.1889 -0.0165
 6984SOL    HW132588   1.577   3.760   3.211 -0.2019 -2.2577 -1.2688
 6984SOL    HW232589   1.728   3.777   3.239  0.6760 -0.4717  1.2803
 6985SOL     OW32590   2.070   1.421   4.564 -0.1501 -0.0728  0.2876
 6985SOL    HW132591   2.115   1.339   4.547  0.3337 -0.1328  1.8626
 6985SOL    HW232592   2.091   1.444   4.655  2.3230  1.3926 -0.6894
 6986SOL     OW32593   1.217   3.750   4.946 -0.1870  0.1970 -0.3545
 6986SOL    HW132594   1.278   3.690   4.988  1.1563  0.1677 -2.3086
 6986SOL    HW232595   1.162   3.705   4.882 -0.1229 -0.5709  0.1302
 6987SOL     OW32596   3.679   0.759   7.798  0.1512  0.5022 -0.0134
 6987SOL    HW132597   3.612   0.728   7.738  0.9950 -2.7584  0.7412
 6987SOL    HW232598   3.646   0.836   7.846  0.9469  1.4955 -1.0710
 6988SOL     OW32599   2.715   3.288  14.137  0.3325 -0.0833 -0.0019
 6988SOL    HW132600   2.701   3.374  14.098  0.9479  0.2876  0.5937
 6988SOL    HW232601   2.741   3.232  14.063 -0.2902 -1.1251  0.5686
 6989SOL     OW32602   3.301   4.589   3.649  0.5243 -0.1970 -0.4351
 6989SOL    HW132603   3.314   4.495   3.660 -0.6088 -0.6367 -3.0271
 6989SOL    HW232604   3.340   4.607   3.564  1.0217  1.9464  0.2531
 6990SOL     OW32605   0.234   2.097   7.484  0.2187  0.1911 -0.2468
 6990SOL    HW132606   0.327   2.103   7.462 -0.4512  3.5298 -2.1274
 6990SOL    HW232607   0.237   2.123   7.576 -1.3660  0.9450 -0.4092
 6991SOL     OW32608   3.172   1.473   4.022  0.0235 -0.1266 -0.4809
 6991SOL    HW132609   3.240   1.459   3.957 -0.8748 -0.2674 -1.3873
 6991SOL    HW232610   3.158   1.567   4.009 -1.3198 -0.2494  0.0803
 6992SOL     OW32611   1.394   1.229  11.440  0.7954 -0.2270 -0.0415
 6992SOL    HW132612   1.324   1.238  11.504  1.6101  0.8403  0.7080
 6992SOL    HW232613   1.352   1.168  11.379 -1.3829 -3.6108  4.8286
 6993SOL     OW32614   1.062   1.606   6.900 -0.0066  0.0747 -0.1993
 6993SOL    HW132615   1.133   1.556   6.940  0.9504 -0.4759 -2.5969
 6993SOL    HW232616   1.112   1.686   6.888  0.4881 -0.2816 -0.4836
 6994SOL     OW32617   0.066   4.663   8.486 -0.0472 -0.3503 -0.1118
 6994SOL    HW132618   0.143   4.687   8.537  0.2054 -2.3000  0.4090
 6994SOL    HW232619   0.060   4.569   8.500  1.1986 -0.2259  1.2746
 6995SOL     OW32620   3.187   4.045   2.792  0.1114 -0.3955 -0.1123
 6995SOL    HW132621   3.124   4.048   2.863 -1.0841  2.0684 -1.2741
 6995SOL    HW232622   3.212   4.137   2.800  1.2724 -0.7398  0.2808
 6996SOL     OW32623   4.071   4.350  11.562 -0.0203 -0.3723  0.3927
 6996SOL    HW132624   4.098   4.416  11.500  0.1538 -0.1936  0.6614
 6996SOL    HW232625   4.127   4.358  11.639  1.9580  1.7714 -1.3062
 6997SOL     OW32626   3.786   2.427  14.056  0.3160 -0.1633  0.5025
 6997SOL    HW132627   3.705   2.378  14.067  1.0507 -1.4506  0.2387
 6997SOL    HW232628   3.851   2.377  14.106 -1.0052 -0.7190  1.6469
 6998SOL     OW32629   3.421   1.583   1.205 -0.9760  0.7210  0.3868
 6998SOL    HW132630   3.403   1.664   1.158 -3.2023  0.2134  0.3651
 6998SOL    HW232631   3.352   1.520   1.182 -0.4037 -0.3515  1.5877
 6999SOL     OW32632   3.339   4.384   4.887 -0.5452  0.0449  0.1539
 6999SOL    HW132633   3.275   4.389   4.815  0.4603 -1.7819 -0.8570
 6999SOL    HW232634   3.294   4.332   4.953  0.4251 -0.4516  0.4160
 7000SOL     OW32635   3.255   3.446   8.874  0.3603  0.0459  0.0140
 7000SOL    HW132636   3.346   3.463   8.898 -0.0295  2.7775 -0.4733
 7000SOL    HW232637   3.211   3.482   8.951 -2.2054  0.6791 -1.7775
 7001SOL     OW32638   1.317   2.765   6.020  0.2105 -0.4229 -0.4633
 7001SOL    HW132639   1.309   2.835   6.084  1.2019 -1.3731  0.6998
 7001SOL    HW232640   1.236   2.722   6.048  0.2691 -1.1075 -1.3210
 7002SOL     OW32641   1.216   2.990  14.885  0.2458  0.1111  0.1025
 7002SOL    HW132642   1.300   2.961  14.919 -0.2618  0.5929  1.7341
 7002SOL    HW232643   1.199   3.070  14.934  2.2678  0.3721  0.3740
 7003SOL     OW32644   1.190   2.135   7.636 -0.2115  0.2871  0.4394
 7003SOL    HW132645   1.139   2.150   7.715 -0.9271  0.4302 -0.0565
 7003SOL    HW232646   1.120   2.124   7.572 -1.2488  1.0367  1.4439
 7004SOL     OW32647   4.635   1.131   1.428 -0.0444  0.5402 -0.4324
 7004SOL    HW132648   4.560   1.090   1.383  0.9805 -0.6061 -1.1095
 7004SOL    HW232649   4.664   1.195   1.363  1.0157  0.9865  0.4856
 7005SOL     OW32650   4.524   3.494   7.873 -0.0981  0.4765  0.0609
 7005SOL    HW132651   4.589   3.451   7.817 -1.7886  1.1846 -2.4578
 7005SOL    HW232652   4.438   3.465   7.843 -0.9029  2.8617  0.0792
 7006SOL     OW32653   4.394   2.062   2.598 -0.3553  0.3389  0.6628
 7006SOL    HW132654   4.324   2.057   2.532  1.0577  0.8084 -0.8680
 7006SOL    HW232655   4.465   2.013   2.558 -0.4200  1.1391 -0.4509
 7007SOL     OW32656   1.383   0.358   8.611  0.3640  0.6426 -0.5268
 7007SOL    HW132657   1.420   0.284   8.659  0.8367  1.6827  0.7015
 7007SOL    HW232658   1.289   0.342   8.601  0.9393 -2.4095 -0.9224
 7008SOL     OW32659   3.120   3.194   3.592  0.2638 -0.2882  0.4566
 7008SOL    HW132660   3.180   3.233   3.529  1.4309  0.3013  1.9198
 7008SOL    HW232661   3.035   3.230   3.567 -0.3383 -1.1434  1.2500
 7009SOL     OW32662   4.237   4.107   5.081 -0.5920  0.2573 -0.4646
 7009SOL    HW132663   4.251   4.085   4.990 -1.4238  3.1110 -1.2950
 7009SOL    HW232664   4.164   4.170   5.081  1.6601  2.8746 -1.2287
 7010SOL     OW32665   3.649   1.110   8.268 -0.2249  0.1345  0.1388
 7010SOL    HW132666   3.608   1.153   8.343  1.8153  2.6947 -0.2319
 7010SOL    HW232667   3.572   1.058   8.247  0.8532 -2.5442  2.8704
 7011SOL     OW32668   1.856   2.617  16.636 -0.6758 -0.0633  0.4607
 7011SOL    HW132669   1.803   2.544  16.668  1.2178 -0.3453  2.9487
 7011SOL    HW232670   1.835   2.619  16.542  0.4845 -1.5169  0.1606
 7012SOL     OW32671   3.806   0.182   5.888  0.1064 -0.6899 -0.0829
 7012SOL    HW132672   3.722   0.165   5.845 -0.0103  0.4860 -0.3437
 7012SOL    HW232673   3.814   0.106   5.946 -2.5587 -0.7452  0.2380
 7013SOL     OW32674   2.741   2.593   6.630  0.4682 -0.0257  0.3191
 7013SOL    HW132675   2.684   2.556   6.563 -4.0425  3.4746  2.2163
 7013SOL    HW232676   2.698   2.588   6.715  0.4605 -3.2705  0.1290
 7014SOL     OW32677   4.258   1.368   5.130  0.2523  0.0847 -0.1252
 7014SOL    HW132678   4.195   1.367   5.058 -0.0939 -0.0839  0.1827
 7014SOL    HW232679   4.219   1.418   5.201 -0.1216 -1.1416  0.5289
 7015SOL     OW32680   0.149   2.531  13.486 -0.3959 -0.3497  0.2207
 7015SOL    HW132681   0.197   2.585  13.423  0.6287  0.0864  1.3751
 7015SOL    HW232682   0.185   2.560  13.570  0.5624  0.6755 -0.5480
 7016SOL     OW32683   2.053   2.830   3.444  0.7936  0.1791 -0.6434
 7016SOL    HW132684   2.003   2.905   3.476 -1.8665 -1.0257 -2.0256
 7016SOL    HW232685   2.117   2.881   3.394  1.9484  2.0809  2.6938
 7017SOL     OW32686   0.455   3.806   5.872  0.0298 -0.3220  0.4458
 7017SOL    HW132687   0.373   3.770   5.838 -0.2564  0.5263  0.2309
 7017SOL    HW232688   0.523   3.763   5.821 -2.5464 -1.3462 -2.0970
 7018SOL     OW32689   4.442   1.343   4.926 -0.3834 -0.7443 -0.1793
 7018SOL    HW132690   4.382   1.364   4.855  0.8230 -0.3614 -1.0774
 7018SOL    HW232691   4.379   1.348   4.999  0.2917  0.2959  0.3301
 7019SOL     OW32692   3.730   2.529  15.787  0.4747  0.6117  0.1191
 7019SOL    HW132693   3.725   2.568  15.700  0.7653  0.2588 -0.0552
 7019SOL    HW232694   3.642   2.492  15.787  0.9191 -0.4206 -0.7050
 7020SOL     OW32695   1.656   4.674  11.532 -0.4437  0.1288 -1.4662
 7020SOL    HW132696   1.732   4.641  11.482  0.3709  1.8505 -1.3666
 7020SOL    HW232697   1.682   0.022  11.558 -0.0340 -0.1110 -1.0666
 7021SOL     OW32698   4.714   4.204   5.539 -0.3087 -0.3893 -0.1534
 7021SOL    HW132699   4.649   4.237   5.601  1.7800  1.9474  0.7778
 7021SOL    HW232700   0.045   4.268   5.545 -0.8948  0.2192  0.2914
 7022SOL     OW32701   4.369   1.701   8.155  0.2364  0.1880 -0.1361
 7022SOL    HW132702   4.335   1.726   8.241  1.4697 -2.4334  1.0769
 7022SOL    HW232703   4.321   1.771   8.109 -0.9052 -1.4699 -1.4664
 7023SOL     OW32704   2.943   2.018   3.001 -0.1442  0.2719 -0.1857
 7023SOL    HW132705   2.894   2.076   3.059 -0.5563 -1.0605  0.8038
 7023SOL    HW232706   2.928   1.936   3.048  0.7297  0.2096 -0.0206
 7024SOL     OW32707   0.188   4.702   2.160  0.5096 -0.5036  0.6285
 7024SOL    HW132708   0.124   0.032   2.166 -0.5636 -1.3459 -0.8078
 7024SOL    HW232709   0.270   4.736   2.123 -0.0280 -1.0901 -1.0768
 7025SOL     OW32710   2.104   1.131   5.618 -0.5572  0.6500  0.0749
 7025SOL    HW132711   2.093   1.203   5.681  0.8442  1.3747 -0.5064
 7025SOL    HW232712   2.100   1.057   5.678  1.4641 -0.0263 -0.6538
 7026SOL     OW32713   0.406   0.909   0.547 -0.3089  0.5810 -0.0519
 7026SOL    HW132714   0.446   0.901   0.460  0.7464 -2.1051  0.6682
 7026SOL    HW232715   0.360   0.992   0.544 -1.2763  0.0585  0.3544
 7027SOL     OW32716   1.766   1.875   5.689  0.1068  0.3667 -0.8585
 7027SOL    HW132717   1.775   1.875   5.594 -1.4340 -2.9203 -1.0094
 7027SOL    HW232718   1.776   1.969   5.701  0.5851  0.5823 -2.9816
 7028SOL     OW32719   2.540   0.096   4.137 -0.1029 -0.3060  0.0500
 7028SOL    HW132720   2.555   0.147   4.216  1.2648 -0.3254 -0.2008
 7028SOL    HW232721   2.492   0.156   4.079  0.3324 -0.1481 -0.1453
 7029SOL     OW32722   3.523   1.173   4.115 -0.5228 -0.0879 -0.1248
 7029SOL    HW132723   3.435   1.157   4.149  0.2934 -0.1794  1.9693
 7029SOL    HW232724   3.500   1.205   4.028  0.0029  1.1852  0.1967
 7030SOL     OW32725   4.525   1.447   3.907 -0.5897 -0.0847  0.0663
 7030SOL    HW132726   4.540   1.355   3.888  0.5239 -0.0354  0.7239
 7030SOL    HW232727   4.600   1.469   3.962 -0.1437  1.0537 -0.9878
 7031SOL     OW32728   3.810   2.856   5.232 -0.1925 -0.3230  0.3643
 7031SOL    HW132729   3.903   2.879   5.243 -0.7778  1.2452  1.9797
 7031SOL    HW232730   3.801   2.787   5.297  1.4036 -0.7551  0.1433
 7032SOL     OW32731   1.642   3.953   1.606  0.0323  0.3790  0.2926
 7032SOL    HW132732   1.681   3.976   1.522  0.9206  2.5542  1.2952
 7032SOL    HW232733   1.627   4.043   1.634  1.2565 -0.0260  2.3125
 7033SOL     OW32734   0.469   3.571   2.864  0.0663  0.0439 -0.1722
 7033SOL    HW132735   0.445   3.583   2.772  2.7406 -0.9495 -0.9928
 7033SOL    HW232736   0.476   3.476   2.872  0.5051 -0.0330 -1.6030
 7034SOL     OW32737   3.637   4.653  17.252  0.4219 -0.5496 -0.0452
 7034SOL    HW132738   3.656   4.606  17.171 -0.9799 -0.4252 -0.4427
 7034SOL    HW232739   3.638   0.004  17.223  0.6904  0.1451  2.0885
 7035SOL     OW32740   1.122   2.158   2.845 -0.0741 -0.1117 -0.6858
 7035SOL    HW132741   1.119   2.063   2.843 -2.5066 -0.0265 -2.0018
 7035SOL    HW232742   1.145   2.175   2.937  0.4569  1.5839 -1.1278
 7036SOL     OW32743   4.147   0.208   0.315 -0.2619  0.5623  0.1240
 7036SOL    HW132744   4.065   0.226   0.361 -0.8220 -2.0723  0.1967
 7036SOL    HW232745   4.117   0.171   0.232 -1.4596  1.0591  0.3420
 7037SOL     OW32746   3.204   1.337  10.183  0.1685 -0.2245 -0.0853
 7037SOL    HW132747   3.115   1.363  10.206  0.0595  0.3687 -1.1949
 7037SOL    HW232748   3.250   1.420  10.177  1.0085 -0.8910 -2.6568
 7038SOL     OW32749   0.809   3.300   1.457  0.2373 -0.3607 -0.4915
 7038SOL    HW132750   0.722   3.312   1.418  0.3798 -2.0090 -1.3206
 7038SOL    HW232751   0.813   3.208   1.483  1.1926 -0.7371 -2.0119
 7039SOL     OW32752   2.162   0.137   1.744 -0.7678  0.1593 -0.6218
 7039SOL    HW132753   2.133   0.202   1.809  0.7520 -1.9662  2.1861
 7039SOL    HW232754   2.188   0.071   1.809 -2.5415  1.2904  1.2700
 7040SOL     OW32755   2.692   1.253  13.226 -0.2721  0.5002  0.4120
 7040SOL    HW132756   2.698   1.181  13.163 -0.0323  4.1419 -3.7646
 7040SOL    HW232757   2.630   1.229  13.295 -0.0909  1.1149  0.7934
 7041SOL     OW32758   1.923   3.054   1.467  0.7215  0.2565  0.0285
 7041SOL    HW132759   1.947   3.048   1.560  0.2083  0.0903  0.1498
 7041SOL    HW232760   1.898   3.146   1.459 -0.9098 -0.3384 -1.5919
 7042SOL     OW32761   2.255   2.598   3.314  0.0501  0.3248  0.7583
 7042SOL    HW132762   2.238   2.611   3.407 -2.0803  0.8649  0.3086
 7042SOL    HW232763   2.275   2.687   3.285 -1.6445  1.1365  2.0898
 7043SOL     OW32764   1.210   1.321   6.797  0.0213 -0.3098  0.0785
 7043SOL    HW132765   1.245   1.357   6.715  1.4847 -0.8526  0.4628
 7043SOL    HW232766   1.252   1.383   6.856  0.1385 -0.1349 -0.1884
 7044SOL     OW32767   3.756   4.147  14.277  0.3019 -0.1682  0.0313
 7044SOL    HW132768   3.834   4.112  14.320 -0.3562 -0.9414  0.5804
 7044SOL    HW232769   3.744   4.229  14.324  1.0362  0.6526 -1.1898
 7045SOL     OW32770   0.285   0.851   4.211  0.2332 -0.2150 -0.1991
 7045SOL    HW132771   0.335   0.883   4.137  1.9192 -0.0635  1.0063
 7045SOL    HW232772   0.279   0.760   4.183 -2.6221 -0.6000  1.6141
 7046SOL     OW32773   3.535   2.968   6.322  0.3245 -0.0830  0.0951
 7046SOL    HW132774   3.487   2.901   6.371 -1.8307  0.7362 -0.8849
 7046SOL    HW232775   3.471   2.994   6.256 -3.7142 -1.0071  3.6482
 7047SOL     OW32776   3.777   0.274   3.678 -0.3667 -0.4506  0.1013
 7047SOL    HW132777   3.767   0.286   3.584  1.2410 -0.3588 -0.0574
 7047SOL    HW232778   3.872   0.269   3.673 -0.4566 -2.1330  0.0728
 7048SOL     OW32779   2.872   0.908  10.935  0.1341 -0.1928  0.2091
 7048SOL    HW132780   2.809   0.839  10.957  2.2649 -2.6191 -1.1793
 7048SOL    HW232781   2.891   0.946  11.020 -0.8564 -0.4424  0.5370
 7049SOL     OW32782   3.047   0.836   9.621 -0.6052 -0.2009 -0.7650
 7049SOL    HW132783   2.981   0.767   9.611 -0.8326  0.0812 -1.2045
 7049SOL    HW232784   3.125   0.792   9.656  0.2271  1.2069 -0.8494
 7050SOL     OW32785   1.877   4.063  16.037  0.1089  0.2485  0.1930
 7050SOL    HW132786   1.846   4.119  16.108 -0.4588 -1.9774  1.7005
 7050SOL    HW232787   1.911   4.131  15.979 -0.7808  0.9403  0.4896
 7051SOL     OW32788   2.313   2.157   0.919 -0.0736 -0.3643  0.0980
 7051SOL    HW132789   2.221   2.179   0.935 -0.0889 -1.7810  1.8936
 7051SOL    HW232790   2.314   2.109   0.836  0.4670 -0.0846 -0.0526
 7052SOL     OW32791   3.316   0.209   0.214  0.4649  0.6099  0.3370
 7052SOL    HW132792   3.328   0.304   0.219  2.0609  0.4661 -0.7073
 7052SOL    HW232793   3.390   0.190   0.273  0.4893 -0.2368  0.0327
 7053SOL     OW32794   0.917   3.170  15.921 -0.0442 -0.0032 -0.3380
 7053SOL    HW132795   0.905   3.208  15.834 -3.5227  0.7535  0.4616
 7053SOL    HW232796   0.999   3.207  15.952  0.0836 -0.5561 -0.0257
 7054SOL     OW32797   1.395   0.234   5.261 -0.5764 -0.4952  0.5801
 7054SOL    HW132798   1.392   0.329   5.270  0.8474 -0.7351  3.6055
 7054SOL    HW232799   1.390   0.211   5.354  2.6412 -0.2628  0.8171
 7055SOL     OW32800   0.474   2.863   2.720 -0.0818  0.2569 -0.3483
 7055SOL    HW132801   0.434   2.921   2.784  0.2567  0.9893 -0.7994
 7055SOL    HW232802   0.509   2.920   2.651 -0.6611  0.8595 -0.1420
 7056SOL     OW32803   1.789   2.637   4.781 -0.0038  0.1141 -0.2242
 7056SOL    HW132804   1.834   2.642   4.697 -0.5816  3.7393 -0.3325
 7056SOL    HW232805   1.758   2.724   4.808 -1.5966 -0.4832 -0.1176
 7057SOL     OW32806   0.337   3.624  16.962  0.1850  0.5764  0.0540
 7057SOL    HW132807   0.426   3.654  16.942  0.2142  1.5122  1.6230
 7057SOL    HW232808   0.292   3.706  16.981 -0.4551 -0.4762  3.0875
 7058SOL     OW32809   2.728   4.574   0.865 -0.2319  0.0475  0.3359
 7058SOL    HW132810   2.657   4.541   0.919 -0.0065 -0.9954 -0.0056
 7058SOL    HW232811   2.795   4.601   0.928  0.7746  0.6104 -0.9619
 7059SOL     OW32812   3.478   0.502   4.716 -0.0294 -0.4505 -0.2233
 7059SOL    HW132813   3.496   0.500   4.622  1.2483 -1.7028  0.0507
 7059SOL    HW232814   3.521   0.582   4.749  1.9363 -1.7925  0.4497
 7060SOL     OW32815   2.281   1.583  12.464  0.0529  0.7306 -0.0191
 7060SOL    HW132816   2.287   1.643  12.539  0.1278  0.5557  0.1165
 7060SOL    HW232817   2.284   1.648  12.394 -1.0860 -0.0078 -0.7649
 7061SOL     OW32818   1.914   2.732   3.234 -0.3020  0.3074 -0.2443
 7061SOL    HW132819   1.971   2.776   3.297  2.0538 -1.9570 -0.7904
 7061SOL    HW232820   1.829   2.761   3.265  0.1693  1.6986 -0.2345
 7062SOL     OW32821   0.487   2.247   4.792 -0.1553  0.1155 -0.0875
 7062SOL    HW132822   0.495   2.152   4.801 -1.3052 -0.1263 -1.6875
 7062SOL    HW232823   0.415   2.259   4.854  1.4885 -0.2599  1.9043
 7063SOL     OW32824   4.416   3.124  16.853  0.2161 -0.2331 -0.5196
 7063SOL    HW132825   4.454   3.193  16.799 -0.0216 -0.7426 -1.3260
 7063SOL    HW232826   4.456   3.046  16.815  0.3837 -0.4895  0.1730
 7064SOL     OW32827   3.872   0.550   7.240 -0.0359  0.3559  0.2278
 7064SOL    HW132828   3.843   0.604   7.166  0.2528  0.2755  0.0562
 7064SOL    HW232829   3.960   0.526   7.210  0.4714  1.5031  0.8063
 7065SOL     OW32830   4.595   3.793  14.911 -0.0987 -0.2386  0.2330
 7065SOL    HW132831   4.626   3.879  14.883  0.3884 -0.3323  0.4929
 7065SOL    HW232832   4.663   3.775  14.976 -0.2554 -0.5374  0.3150
 7066SOL     OW32833   2.465   1.455   2.722  0.0710  0.3431 -0.9107
 7066SOL    HW132834   2.465   1.549   2.739  0.5615 -0.0281  1.1138
 7066SOL    HW232835   2.542   1.424   2.770 -0.9101 -1.0520 -0.2395
 7067SOL     OW32836   4.542   2.949   4.240  0.2163 -0.4863  0.3444
 7067SOL    HW132837   4.568   2.859   4.260 -0.8446 -0.7878  0.3482
 7067SOL    HW232838   4.569   2.951   4.148 -0.7265  0.0940  0.0854
 7068SOL     OW32839   3.285   1.131   9.614  0.0396  0.0987 -0.4773
 7068SOL    HW132840   3.288   1.226   9.617  1.2807 -0.0452  3.0075
 7068SOL    HW232841   3.231   1.109   9.538 -0.2423 -0.9699  0.0236
 7069SOL     OW32842   2.782   3.591   1.667  0.1571  0.2731 -0.1928
 7069SOL    HW132843   2.753   3.661   1.609  1.3313  0.5437 -0.4481
 7069SOL    HW232844   2.708   3.560   1.720  0.1369 -0.2335 -0.5184
 7070SOL     OW32845   2.694   1.902   3.439 -0.0638 -0.1897  0.0478
 7070SOL    HW132846   2.602   1.921   3.419 -0.2318 -2.5005 -1.3291
 7070SOL    HW232847   2.681   1.808   3.440  2.0794 -0.5321 -3.5380
 7071SOL     OW32848   4.561   2.728   6.404  0.7220  0.3185 -0.7829
 7071SOL    HW132849   4.503   2.798   6.375 -0.2356  0.3439  1.1540
 7071SOL    HW232850   4.535   2.716   6.496  0.8826  0.3191 -0.7365
 7072SOL     OW32851   4.736   4.464  16.671 -0.1087 -0.0057 -0.0849
 7072SOL    HW132852   4.693   4.382  16.698  1.1285 -0.7963 -0.4957
 7072SOL    HW232853   4.692   4.540  16.709 -1.1574 -0.4597 -0.3782
 7073SOL     OW32854   3.274   2.447  10.763  0.4693  0.2324 -0.2727
 7073SOL    HW132855   3.265   2.412  10.674  1.6358 -2.0092  0.4998
 7073SOL    HW232856   3.327   2.377  10.801  0.0807 -0.9863 -1.9892
 7074SOL     OW32857   4.541   4.075   1.651 -0.7013 -0.0020 -0.0616
 7074SOL    HW132858   4.533   4.098   1.558  2.1052  1.7373  0.0988
 7074SOL    HW232859   4.473   4.009   1.660 -1.2326  0.1010 -3.2987
 7075SOL     OW32860   3.088   4.587  17.439 -0.0825  0.7856  0.3218
 7075SOL    HW132861   3.051   4.631  17.515  1.9014  0.3670  1.5034
 7075SOL    HW232862   3.067   4.496  17.458  2.2900  0.2293  0.2355
 7076SOL     OW32863   0.190   1.521  10.592  0.2757  0.9739 -0.7497
 7076SOL    HW132864   0.166   1.501  10.683  0.8909 -0.5315 -0.9175
 7076SOL    HW232865   0.279   1.554  10.604  0.5859 -0.1901  0.1943
 7077SOL     OW32866   4.271   2.037  12.554 -0.2884  0.1746 -0.1996
 7077SOL    HW132867   4.199   2.062  12.611  1.5933  0.1526  2.2089
 7077SOL    HW232868   4.308   1.970  12.611 -1.1448 -0.7420 -0.7324
 7078SOL     OW32869   0.769   4.589   2.488 -0.1883 -0.1509  0.2306
 7078SOL    HW132870   0.835   4.549   2.545 -0.9167 -2.2007 -0.3942
 7078SOL    HW232871   0.790   4.535   2.411 -2.1567 -1.7698  0.8309
 7079SOL     OW32872   1.331   2.868   7.451  0.5435 -0.7403 -0.3041
 7079SOL    HW132873   1.246   2.841   7.485  1.4037 -0.4681  2.1114
 7079SOL    HW232874   1.321   2.819   7.370  2.7972 -0.7201 -0.5917
 7080SOL     OW32875   0.584   3.502  14.729 -0.3295  0.0047 -0.2675
 7080SOL    HW132876   0.633   3.519  14.649 -0.6161  0.1209 -0.4165
 7080SOL    HW232877   0.505   3.548  14.701 -0.4269 -0.9228 -1.5049
 7081SOL     OW32878   1.047   1.062   8.636 -0.2326 -0.1386  0.2671
 7081SOL    HW132879   0.973   1.015   8.600 -1.9099  1.9745  0.9607
 7081SOL    HW232880   1.011   1.150   8.649 -1.3412 -0.3247 -1.5392
 7082SOL     OW32881   2.854   1.287  15.526  0.3575 -0.3233  0.1767
 7082SOL    HW132882   2.941   1.312  15.556 -1.0583  2.2809  2.0980
 7082SOL    HW232883   2.846   1.353  15.456 -0.9848 -1.8607 -1.1365
 7083SOL     OW32884   1.924   4.511  14.721 -0.5072 -0.9391  0.4402
 7083SOL    HW132885   1.993   4.577  14.710 -1.8792  0.3083 -0.6182
 7083SOL    HW232886   1.956   4.482  14.807  0.8567  1.0404  0.5944
 7084SOL     OW32887   3.837   1.660   2.857  0.0310  0.0010 -0.0586
 7084SOL    HW132888   3.866   1.575   2.824 -0.5562 -0.0424 -0.4632
 7084SOL    HW232889   3.744   1.642   2.872 -0.2172  0.3168 -1.1626
 7085SOL     OW32890   3.592   0.118   5.576 -0.1862 -0.3998 -0.3018
 7085SOL    HW132891   3.530   0.162   5.635  1.2782  0.3112  0.7094
 7085SOL    HW232892   3.590   0.178   5.502 -0.8496  1.7935  1.4811
 7086SOL     OW32893   3.889   0.342   6.456  0.1896 -0.3867 -0.1665
 7086SOL    HW132894   3.855   0.429   6.477  0.3071 -0.5958  0.8509
 7086SOL    HW232895   3.974   0.378   6.433  0.1997 -0.8789 -0.9094
 7087SOL     OW32896   3.420   3.552   1.961 -0.5992  0.5371 -0.1336
 7087SOL    HW132897   3.364   3.475   1.951 -0.9415  1.1336 -2.7875
 7087SOL    HW232898   3.350   3.616   1.975 -0.0075  1.0484  0.4935
 7088SOL     OW32899   2.305   3.515   7.039  0.3623 -0.0246  0.4746
 7088SOL    HW132900   2.223   3.565   7.033  0.3354  0.0768  1.6573
 7088SOL    HW232901   2.279   3.450   6.973  2.2569  0.2930 -0.6008
 7089SOL     OW32902   2.906   0.502  12.681 -0.5658  0.5082  0.0263
 7089SOL    HW132903   2.964   0.562  12.729  2.6359 -2.4219 -0.1857
 7089SOL    HW232904   2.816   0.532  12.694 -0.8113 -0.9516  1.7229
 7090SOL     OW32905   4.401   2.558   6.244  0.5528 -0.8189  0.1230
 7090SOL    HW132906   4.459   2.623   6.284 -1.5139 -0.5014  2.6721
 7090SOL    HW232907   4.454   2.516   6.177  2.4825  1.4691  0.2304
 7091SOL     OW32908   1.518   3.625   6.905  0.0828  0.2658  0.1958
 7091SOL    HW132909   1.601   3.601   6.947 -2.5887 -3.1678  3.4990
 7091SOL    HW232910   1.489   3.542   6.867 -0.4791 -0.1442  1.5479
 7092SOL     OW32911   3.020   0.550   3.704 -0.1535 -0.2261 -0.5244
 7092SOL    HW132912   3.083   0.622   3.710 -0.3138 -0.2273  1.1676
 7092SOL    HW232913   2.957   0.585   3.642 -1.8003 -1.3759  0.4916
 7093SOL     OW32914   1.504   0.177   4.227 -0.2782 -0.1111  0.6328
 7093SOL    HW132915   1.579   0.140   4.179 -1.2053  1.0858 -1.7426
 7093SOL    HW232916   1.546   0.250   4.273 -2.0150 -0.2823  2.4956
 7094SOL     OW32917   1.454   4.273   0.725  0.2017 -0.0739 -0.0446
 7094SOL    HW132918   1.534   4.243   0.766  0.5761  1.4920  0.3873
 7094SOL    HW232919   1.448   4.359   0.767  0.8880 -0.3698  0.6500
 7095SOL     OW32920   0.954   0.415   4.377  0.1830  0.0381  0.4820
 7095SOL    HW132921   1.034   0.362   4.383 -0.8421 -1.5389  0.2284
 7095SOL    HW232922   0.947   0.453   4.465 -0.8954  0.5824  0.1606
 7096SOL     OW32923   3.584   1.944   8.585  0.3157  0.4286  0.5193
 7096SOL    HW132924   3.511   1.891   8.617  1.1598 -0.8789  0.2740
 7096SOL    HW232925   3.549   1.972   8.500  2.1486  0.1197 -0.3236
 7097SOL     OW32926   4.677   1.043   5.125 -0.6596 -0.0071  0.0150
 7097SOL    HW132927   4.674   0.950   5.149 -0.2816 -0.3695 -1.3761
 7097SOL    HW232928   4.590   1.080   5.139 -0.1011  0.6256  1.9182
 7098SOL     OW32929   4.379   2.946   3.348 -0.0613  0.9386  0.3893
 7098SOL    HW132930   4.389   2.951   3.253 -1.1163 -1.6545  0.1584
 7098SOL    HW232931   4.287   2.932   3.366 -0.0052  1.6245  1.2198
 7099SOL     OW32932   1.908   2.520  13.121  0.0595  0.7656  0.7489
 7099SOL    HW132933   1.815   2.502  13.103  0.5532 -0.3336 -0.6548
 7099SOL    HW232934   1.940   2.491  13.035  0.4218 -0.9220  1.4532
 7100SOL     OW32935   2.620   3.289   7.299  0.3692 -0.0656  0.1085
 7100SOL    HW132936   2.667   3.354   7.248 -1.2762  0.4942 -0.7030
 7100SOL    HW232937   2.530   3.318   7.280  0.3487  0.1862  0.5738
 7101SOL     OW32938   2.603   1.530  11.518  0.6054 -0.3958  0.1279
 7101SOL    HW132939   2.628   1.623  11.517 -2.7641  0.4982 -1.9481
 7101SOL    HW232940   2.522   1.535  11.568  0.9771  2.7247  0.4492
 7102SOL     OW32941   3.978   3.542   6.036 -0.0521 -0.1615  0.3309
 7102SOL    HW132942   4.003   3.554   5.945  1.1008 -1.5395  0.4738
 7102SOL    HW232943   3.900   3.487   6.023  0.4911 -0.8742  0.1254
 7103SOL     OW32944   0.058   2.665   6.014 -0.1881  0.3497  0.5024
 7103SOL    HW132945   4.714   2.703   6.040  0.3168  0.8853  1.3418
 7103SOL    HW232946   0.040   2.629   5.927  1.0920 -1.0982  0.8364
 7104SOL     OW32947   2.321   4.655   4.164 -0.3699 -0.2188 -0.0495
 7104SOL    HW132948   2.326   4.697   4.250  1.2099  1.2481 -0.8408
 7104SOL    HW232949   2.406   4.678   4.125  0.3451 -0.3210  1.4590
 7105SOL     OW32950   3.349   2.348   2.012 -0.0104 -0.2255  0.0163
 7105SOL    HW132951   3.383   2.401   2.084 -0.0334 -0.7973  0.4461
 7105SOL    HW232952   3.258   2.332   2.036 -0.4880 -0.7410 -2.1599
 7106SOL     OW32953   4.005   0.075   2.012  0.0323 -0.3125 -0.1156
 7106SOL    HW132954   3.969   0.073   2.101  0.4965  1.1681  0.0933
 7106SOL    HW232955   4.048   4.729   2.001  1.5781  0.6407 -1.5968
 7107SOL     OW32956   1.114   3.302   5.664  0.0885  0.2946  0.4880
 7107SOL    HW132957   1.101   3.298   5.759 -0.7273  0.6434  0.3880
 7107SOL    HW232958   1.036   3.252   5.644  0.0648  0.9147 -0.9324
 7108SOL     OW32959   4.141   4.002   8.233  0.2041  0.1753 -0.5737
 7108SOL    HW132960   4.060   3.968   8.273 -0.3129  0.7630 -1.1275
 7108SOL    HW232961   4.147   4.094   8.259  1.2602 -1.2161  4.1425
 7109SOL     OW32962   0.470   3.451   3.992  0.3242 -0.0164  0.3224
 7109SOL    HW132963   0.559   3.478   3.969  0.8368 -0.0559  2.3386
 7109SOL    HW232964   0.472   3.472   4.085  0.8123 -2.0732  0.7709
 7110SOL     OW32965   1.942   3.069   1.762  0.5340 -0.2873 -0.3013
 7110SOL    HW132966   2.012   3.014   1.799  0.0681 -0.6621  0.0314
 7110SOL    HW232967   1.927   3.125   1.838  2.4960 -0.6386  0.3469
 7111SOL     OW32968   4.033   2.171   7.920 -0.1038  0.1377  0.2453
 7111SOL    HW132969   4.066   2.147   7.834 -1.1198  1.4746 -0.5182
 7111SOL    HW232970   3.970   2.099   7.928  0.1341  0.0389  1.2514
 7112SOL     OW32971   2.892   1.115   9.561  0.2404  0.1661  0.0579
 7112SOL    HW132972   2.896   1.110   9.466  1.3882 -0.8457  0.1709
 7112SOL    HW232973   2.920   1.024   9.570 -1.3045 -0.3431 -0.1650
 7113SOL     OW32974   1.928   2.382   7.229  0.4536  0.0940 -0.8011
 7113SOL    HW132975   1.984   2.439   7.282 -1.1364  0.1173  0.8627
 7113SOL    HW232976   1.854   2.362   7.286 -0.2553  2.1798 -0.9793
 7114SOL     OW32977   0.878   2.548   4.498 -0.1738  0.3091  0.4412
 7114SOL    HW132978   0.916   2.620   4.548 -0.5828  0.2686  0.8083
 7114SOL    HW232979   0.847   2.596   4.421 -1.1230 -0.3870  0.3872
 7115SOL     OW32980   4.249   1.496   6.405  0.0052  0.2157  0.1212
 7115SOL    HW132981   4.200   1.424   6.364  0.7929  1.1234 -2.3932
 7115SOL    HW232982   4.334   1.452   6.407 -0.6674 -1.0434  1.4059
 7116SOL     OW32983   0.792   2.008  10.610  0.3788  0.3723 -0.2741
 7116SOL    HW132984   0.757   1.934  10.562 -1.3353 -0.1456  1.7509
 7116SOL    HW232985   0.849   1.957  10.669 -0.6324 -0.0591  0.3280
 7117SOL     OW32986   4.545   0.816   1.600 -0.2489  0.2393  0.3323
 7117SOL    HW132987   4.512   0.864   1.524 -0.1656  3.4911  2.3372
 7117SOL    HW232988   4.503   0.730   1.603  0.2790 -0.0369 -0.4001
 7118SOL     OW32989   1.380   1.785   3.244  0.2534 -0.6553  0.3805
 7118SOL    HW132990   1.398   1.843   3.318 -1.6951  3.0358 -2.0139
 7118SOL    HW232991   1.339   1.712   3.289  0.0095 -0.3570  0.6495
 7119SOL     OW32992   4.623   0.899   8.601  0.4582  0.6777  0.3615
 7119SOL    HW132993   4.627   0.960   8.675 -1.6002 -0.2419  1.2335
 7119SOL    HW232994   4.534   0.916   8.571  0.6179 -2.0562 -1.6542
 7120SOL     OW32995   3.140   3.690  11.518 -0.5685 -0.3822 -0.2605
 7120SOL    HW132996   3.196   3.612  11.514  0.5649  0.4700 -0.9030
 7120SOL    HW232997   3.053   3.654  11.530 -0.8109  0.4801  0.5081
 7121SOL     OW32998   2.629   0.596   2.738 -0.2397 -0.3869  0.4090
 7121SOL    HW132999   2.592   0.549   2.813  0.1220 -0.8647  0.2876
 7121SOL    HW233000   2.698   0.534   2.714  0.8761  1.3867 -0.9395
 7122SOL     OW33001   2.887   1.034   9.302  0.1780  0.8932  0.2718
 7122SOL    HW133002   2.847   0.958   9.345 -0.0130  0.8176 -0.0352
 7122SOL    HW233003   2.845   1.027   9.216 -0.7997 -3.5759  1.0696
 7123SOL     OW33004   3.977   0.094   1.707 -0.1265  0.0630  0.2822
 7123SOL    HW133005   3.955   0.006   1.675 -2.1287  0.1424  1.4626
 7123SOL    HW233006   4.034   0.077   1.782  2.3595  0.9853 -1.3902
 7124SOL     OW33007   2.169   1.464   7.968 -0.3076 -0.3217  0.5228
 7124SOL    HW133008   2.231   1.535   7.952 -1.2591 -0.1943 -2.5521
 7124SOL    HW233009   2.086   1.508   7.953  0.3939  1.5590  2.2128
 7125SOL     OW33010   3.466   2.605   3.311 -0.7175  0.4514  0.1608
 7125SOL    HW133011   3.477   2.526   3.364 -1.6161 -0.6466 -1.2996
 7125SOL    HW233012   3.377   2.626   3.340 -1.0896 -1.1674  0.1762
 7126SOL     OW33013   3.762   0.716  10.733 -0.2771 -0.4528  0.2139
 7126SOL    HW133014   3.784   0.741  10.823 -0.0618 -1.5224  0.4628
 7126SOL    HW233015   3.688   0.773  10.716  0.3728 -0.2430 -1.9918
 7127SOL     OW33016   4.362   0.474  16.512 -0.6340 -0.5175 -0.0304
 7127SOL    HW133017   4.358   0.554  16.564 -1.9330 -1.0303  0.6653
 7127SOL    HW233018   4.334   0.501  16.424  2.0494  3.5863  0.3923
 7128SOL     OW33019   0.344   2.892   3.440  0.2954  0.1761  0.4466
 7128SOL    HW133020   0.286   2.962   3.468 -0.2431 -1.1133  2.5449
 7128SOL    HW233021   0.392   2.880   3.522  0.8428 -1.1021 -0.0424
 7129SOL     OW33022   1.202   4.424   3.663 -0.1618  0.7416  0.0570
 7129SOL    HW133023   1.206   4.506   3.712  0.7626  0.0969  1.0703
 7129SOL    HW233024   1.287   4.409   3.622  0.5143  0.7129  1.4744
 7130SOL     OW33025   2.582   2.827  11.329 -0.0838 -0.3653  0.0593
 7130SOL    HW133026   2.561   2.768  11.256  2.1945 -1.1192  0.0319
 7130SOL    HW233027   2.626   2.892  11.274  1.2909 -1.1061  0.2933
 7131SOL     OW33028   2.676   2.032   8.936 -0.5268 -0.5363 -0.1000
 7131SOL    HW133029   2.733   2.064   8.866 -0.1771 -1.5325 -0.2709
 7131SOL    HW233030   2.608   1.989   8.885  0.5185 -1.9670 -0.3040
 7132SOL     OW33031   0.037   1.698  10.998 -0.7965  0.2630  0.3997
 7132SOL    HW133032   0.117   1.729  10.955 -0.4796 -0.9734  0.1117
 7132SOL    HW233033   4.717   1.770  10.978 -1.7732 -0.0565  2.1317
 7133SOL     OW33034   0.625   2.895   5.287  0.1425 -0.6523  0.0819
 7133SOL    HW133035   0.684   2.862   5.219  0.1193  0.1661 -0.3439
 7133SOL    HW233036   0.547   2.912   5.233  1.1079  2.9590 -0.1870
 7134SOL     OW33037   1.141   1.099   3.289 -0.1763  0.7690 -0.0231
 7134SOL    HW133038   1.064   1.043   3.290  0.9720 -0.8191 -0.1580
 7134SOL    HW233039   1.095   1.179   3.315 -1.8936 -1.5565  4.1777
 7135SOL     OW33040   4.378   4.176   8.402 -0.0515 -0.0251  0.1926
 7135SOL    HW133041   4.444   4.237   8.437  0.6116 -2.4971  3.2890
 7135SOL    HW233042   4.369   4.114   8.475  0.5345 -1.2901 -0.8028
 7136SOL     OW33043   4.687   4.501   9.170 -0.0795 -0.0981  0.2705
 7136SOL    HW133044   4.682   4.461   9.257  1.2517 -1.8207 -0.4503
 7136SOL    HW233045   4.600   4.539   9.162 -0.3710 -1.2562 -2.0225
 7137SOL     OW33046   2.061   3.496   3.459  0.3975 -0.2507 -0.2561
 7137SOL    HW133047   2.120   3.570   3.448 -0.2051 -0.0108 -1.9536
 7137SOL    HW233048   2.120   3.422   3.476  0.7140 -0.5589 -2.7434
 7138SOL     OW33049   1.137   2.950  10.915  0.4032  0.2983  0.6998
 7138SOL    HW133050   1.186   2.896  10.977 -0.1211  0.4772  1.2640
 7138SOL    HW233051   1.153   3.040  10.945  0.9439 -0.0502  1.4584
 7139SOL     OW33052   3.403   2.554   9.467 -0.1966 -0.1646  0.3933
 7139SOL    HW133053   3.358   2.637   9.480 -1.1057 -0.4867 -0.6836
 7139SOL    HW233054   3.458   2.562   9.389  0.3570 -2.6798  0.5188
 7140SOL     OW33055   3.183   2.872   3.021  0.0936  0.1411 -0.3379
 7140SOL    HW133056   3.208   2.943   3.080  1.0717 -0.3372 -0.1845
 7140SOL    HW233057   3.233   2.893   2.941 -1.4864  1.7024 -0.9317
 7141SOL     OW33058   3.133   1.384  14.212 -0.4204  0.4135 -0.5275
 7141SOL    HW133059   3.060   1.355  14.268  0.6767  1.6386  1.5221
 7141SOL    HW233060   3.141   1.302  14.164 -1.1599  0.4299 -0.6769
 7142SOL     OW33061   4.115   4.126   5.644  0.4806 -0.0966 -0.1468
 7142SOL    HW133062   4.143   4.218   5.644 -0.9594  0.3461 -1.4093
 7142SOL    HW233063   4.158   4.087   5.568  0.3846  1.4395 -1.0042
 7143SOL     OW33064   0.270   2.187   7.971  0.6789  0.0389  0.1334
 7143SOL    HW133065   0.236   2.119   8.030 -0.5167  1.5681  1.2210
 7143SOL    HW233066   0.356   2.210   8.006  0.3502  3.2663 -1.2210
 7144SOL     OW33067   4.464   4.463   1.609 -0.3379  0.3035  0.4502
 7144SOL    HW133068   4.500   4.405   1.676 -1.9849 -1.0218  0.2077
 7144SOL    HW233069   4.396   4.502   1.664  0.8194  3.3787 -0.3222
 7145SOL     OW33070   1.208   1.076  12.276  0.0525 -0.0692  0.4540
 7145SOL    HW133071   1.279   1.140  12.274 -0.4593  0.3784 -2.1798
 7145SOL    HW233072   1.229   1.011  12.209  0.2610  0.5416 -0.0683
 7146SOL     OW33073   4.147   0.614   7.851  0.1493 -0.0005  0.2063
 7146SOL    HW133074   4.110   0.681   7.794 -1.0883  0.3757  1.4347
 7146SOL    HW233075   4.084   0.544   7.836 -1.6734  1.8445 -0.6770
 7147SOL     OW33076   2.906   1.769  12.222 -0.1333  1.0164 -0.4508
 7147SOL    HW133077   2.963   1.699  12.254 -1.3300 -0.0505 -0.6356
 7147SOL    HW233078   2.953   1.842  12.260 -0.2695 -0.1207  1.8706
 7148SOL     OW33079   1.292   0.855   6.178 -0.0982 -0.1436  0.2105
 7148SOL    HW133080   1.204   0.874   6.148  1.3661  2.5356 -2.4144
 7148SOL    HW233081   1.288   0.759   6.181 -0.5725 -0.0073  3.9914
 7149SOL     OW33082   2.312   4.244   6.054 -0.1879 -0.0174 -0.4595
 7149SOL    HW133083   2.380   4.220   6.116 -1.2783  2.0996  1.5633
 7149SOL    HW233084   2.245   4.293   6.103  1.4356  1.0712  0.6408
 7150SOL     OW33085   0.282   1.253   5.764 -0.6685 -0.2590  0.4137
 7150SOL    HW133086   0.359   1.198   5.753 -1.4711 -1.3035  0.0411
 7150SOL    HW233087   0.249   1.253   5.674 -0.7530  2.9321  0.4404
 7151SOL     OW33088   3.245   3.989   0.604  0.3117 -0.0787 -0.0844
 7151SOL    HW133089   3.227   3.895   0.602 -0.0097 -0.0070 -0.7751
 7151SOL    HW233090   3.192   4.023   0.676 -0.9405  1.1708 -1.5773
 7152SOL     OW33091   4.249   1.513   3.875  0.3594  0.2587  0.3490
 7152SOL    HW133092   4.252   1.596   3.922 -2.5869  0.5196  0.0698
 7152SOL    HW233093   4.336   1.477   3.888  0.7545  0.3429 -2.0077
 7153SOL     OW33094   2.891   2.506   6.955  0.0190 -0.0560  0.0642
 7153SOL    HW133095   2.803   2.467   6.959 -0.1813  0.7281  2.9996
 7153SOL    HW233096   2.935   2.444   7.013  0.4515  0.2930  0.1064
 7154SOL     OW33097   3.002   3.441   1.624 -0.3991 -0.1259  0.3746
 7154SOL    HW133098   2.947   3.382   1.677  1.8492 -2.3152  0.2777
 7154SOL    HW233099   2.933   3.507   1.616  0.8613  0.9745 -1.2222
 7155SOL     OW33100   2.089   1.729   6.298  0.2257 -0.3671 -0.0072
 7155SOL    HW133101   2.097   1.745   6.392  2.3429 -1.4938  0.0054
 7155SOL    HW233102   2.012   1.783   6.276 -2.4097 -3.1983  2.2651
 7156SOL     OW33103   0.916   3.348  13.921 -0.7688  0.0493  0.1346
 7156SOL    HW133104   0.901   3.274  13.863 -3.0783 -0.1768  1.0229
 7156SOL    HW233105   0.997   3.329  13.968 -0.0693 -0.1267 -1.1314
 7157SOL     OW33106   4.005   2.731  11.112 -0.0231  0.0800  0.2189
 7157SOL    HW133107   4.000   2.821  11.144 -2.4466  0.5260 -1.4715
 7157SOL    HW233108   3.949   2.727  11.035  1.2298  2.4646 -0.8016
 7158SOL     OW33109   3.682   0.230   4.933 -0.5916  0.0523 -0.2713
 7158SOL    HW133110   3.656   0.138   4.922 -1.9953  0.5741 -1.3275
 7158SOL    HW233111   3.699   0.251   4.841  0.0274  2.7333  0.4769
 7159SOL     OW33112   1.336   2.188   2.653  0.7385  0.1929  0.2426
 7159SOL    HW133113   1.268   2.191   2.721 -0.6779 -1.6569 -1.1103
 7159SOL    HW233114   1.367   2.098   2.659  2.6717  0.8332 -0.4532
 7160SOL     OW33115   1.887   2.609   5.033  0.3319  0.8011  0.3404
 7160SOL    HW133116   1.809   2.641   5.080 -0.5572  0.6220 -0.9997
 7160SOL    HW233117   1.856   2.604   4.943 -2.2005 -1.0409  1.2912
 7161SOL     OW33118   2.122   4.446  15.695 -0.0186  0.3559 -0.9083
 7161SOL    HW133119   2.074   4.468  15.775  1.5365 -0.4985  0.2499
 7161SOL    HW233120   2.185   4.518  15.697  1.5234 -1.0692  1.7363
 7162SOL     OW33121   0.097   0.063   5.522  0.3989  0.1948  0.0321
 7162SOL    HW133122   0.166   0.001   5.545 -0.1801  0.5783  2.7658
 7162SOL    HW233123   0.065   0.032   5.437  1.7990 -1.4081  0.1017
 7163SOL     OW33124   3.900   3.014   5.873  0.2864  0.4516  0.2862
 7163SOL    HW133125   3.970   3.015   5.938  0.9893 -2.3780 -0.4541
 7163SOL    HW233126   3.949   3.040   5.795 -1.5217 -0.5640 -1.2042
 7164SOL     OW33127   2.643   0.632   3.777  0.0353  0.4321 -0.2539
 7164SOL    HW133128   2.681   0.626   3.689 -0.0833  0.7979 -0.3329
 7164SOL    HW233129   2.716   0.657   3.833 -1.6497  1.7245  1.3420
 7165SOL     OW33130   1.699   1.642   7.903 -0.0915  0.3925 -0.0113
 7165SOL    HW133131   1.618   1.602   7.936 -1.1718  1.1294 -1.7293
 7165SOL    HW233132   1.685   1.731   7.936 -4.3321 -0.4363  0.4465
 7166SOL     OW33133   4.249   0.681   1.637  0.1350 -0.9360  0.9215
 7166SOL    HW133134   4.175   0.634   1.599  2.2781 -2.6926 -1.0922
 7166SOL    HW233135   4.195   0.758   1.656 -1.0992 -1.9021  1.2958
 7167SOL     OW33136   3.730   2.615   3.252 -0.0351  0.2689 -0.4553
 7167SOL    HW133137   3.738   2.527   3.215 -0.4282 -0.0818  0.2941
 7167SOL    HW233138   3.645   2.607   3.295 -0.2766  2.1710 -0.6041
 7168SOL     OW33139   2.383   0.267   7.543 -0.0446  0.1150 -0.2062
 7168SOL    HW133140   2.392   0.315   7.460  0.0903 -0.9104 -0.7942
 7168SOL    HW233141   2.392   0.338   7.606 -1.3364  1.3512 -1.4071
 7169SOL     OW33142   1.360   3.794   8.001  0.0142 -0.0841 -0.1620
 7169SOL    HW133143   1.454   3.794   7.988  0.3468 -2.6380  2.0985
 7169SOL    HW233144   1.357   3.770   8.094  1.7399  0.9862  0.1510
 7170SOL     OW33145   3.750   0.413   6.025  0.3268 -0.9721  0.0916
 7170SOL    HW133146   3.805   0.335   6.026 -0.7069 -1.6954 -0.6042
 7170SOL    HW233147   3.683   0.380   5.966  0.9906 -4.1978  1.1763
 7171SOL     OW33148   4.559   2.123   4.378 -0.2314  0.0770  0.0788
 7171SOL    HW133149   4.543   2.104   4.285 -1.3864 -3.1478  0.9250
 7171SOL    HW233150   4.618   2.197   4.364  0.6084 -0.6162 -0.0647
 7172SOL     OW33151   3.584   0.386   6.441  0.4144 -0.4501  0.1720
 7172SOL    HW133152   3.644   0.316   6.415  1.2691  0.0371  0.8263
 7172SOL    HW233153   3.563   0.378   6.534 -0.8248 -1.4289 -0.1802
 7173SOL     OW33154   0.329   3.350   0.412 -0.0908  0.4022  0.1716
 7173SOL    HW133155   0.342   3.364   0.319 -1.0038  0.9770  0.1272
 7173SOL    HW233156   0.234   3.363   0.406 -0.2326 -0.3657  0.5765
 7174SOL     OW33157   0.259   0.317   4.233 -0.3275 -0.2592 -0.2739
 7174SOL    HW133158   0.166   0.295   4.229  0.1630 -2.3855  0.4389
 7174SOL    HW233159   0.262   0.392   4.173 -2.0936 -0.3586 -0.4898
 7175SOL     OW33160   3.847   0.790   4.223  0.3568 -0.3125 -0.1174
 7175SOL    HW133161   3.840   0.884   4.204 -1.4608 -0.3271  0.4329
 7175SOL    HW233162   3.923   0.771   4.168  1.1819  2.0953  0.1816
 7176SOL     OW33163   3.683   4.246   7.608  0.0418  0.1807  0.1005
 7176SOL    HW133164   3.743   4.194   7.554 -1.9221 -0.5530 -1.3733
 7176SOL    HW233165   3.675   4.179   7.676 -0.2201  1.1927  1.0652
 7177SOL     OW33166   0.440   2.709  15.693 -0.3492 -0.0239  0.4532
 7177SOL    HW133167   0.504   2.723  15.623 -0.7390  0.4542  0.1972
 7177SOL    HW233168   0.353   2.718  15.654  0.2374 -0.4111 -0.9658
 7178SOL     OW33169   1.542   1.602   4.809 -0.1536  0.3030 -0.3442
 7178SOL    HW133170   1.565   1.540   4.878 -0.1782 -0.0039 -0.6109
 7178SOL    HW233171   1.530   1.683   4.858  0.7369  1.5300 -2.1438
 7179SOL     OW33172   3.510   4.128   0.897 -0.1092 -0.5903  0.2561
 7179SOL    HW133173   3.469   4.175   0.824 -0.4195 -1.9978 -0.4602
 7179SOL    HW233174   3.575   4.188   0.934 -1.3036  0.3337  0.8602
 7180SOL     OW33175   2.043   0.982   7.757  0.2289 -0.5610 -0.2376
 7180SOL    HW133176   1.951   0.985   7.731  0.6712 -1.3122 -1.8974
 7180SOL    HW233177   2.047   0.907   7.815  0.2301  0.0531  0.5562
 7181SOL     OW33178   4.246   0.886  11.172  0.0459  0.3609  0.0392
 7181SOL    HW133179   4.328   0.917  11.210 -0.5757  1.2616  0.6262
 7181SOL    HW233180   4.209   0.842  11.248 -1.4730  0.4670 -0.6322
 7182SOL     OW33181   0.360   0.957  15.507 -0.3488 -0.3211  0.4773
 7182SOL    HW133182   0.369   0.929  15.598  1.2598 -2.1969 -0.2485
 7182SOL    HW233183   0.294   1.026  15.520 -0.4058 -0.6978  2.1589
 7183SOL     OW33184   1.361   3.095   3.067  0.4333 -0.4251  1.1334
 7183SOL    HW133185   1.298   3.108   2.997  1.4603 -2.3179 -0.1430
 7183SOL    HW233186   1.346   3.003   3.088 -2.1299 -0.0353  0.9534
 7184SOL     OW33187   3.236   3.014   5.633  0.4476  0.8558  0.1047
 7184SOL    HW133188   3.261   3.056   5.550 -1.8927  0.3238 -0.8599
 7184SOL    HW233189   3.300   2.944   5.646  0.8405  1.8253  3.3531
 7185SOL     OW33190   0.424   4.719   3.969  0.9127 -0.0397  0.6022
 7185SOL    HW133191   0.416   0.062   4.015 -0.5729 -1.4405  2.8604
 7185SOL    HW233192   0.496   0.002   3.909 -0.5211 -2.1928 -1.9499
 7186SOL     OW33193   3.228   0.297   4.601 -0.6757  0.5294 -0.3781
 7186SOL    HW133194   3.192   0.219   4.560 -0.0114 -0.7117  1.4176
 7186SOL    HW233195   3.312   0.267   4.636 -0.0422  1.6744 -0.9089
 7187SOL     OW33196   0.527   3.842   2.154 -0.0845 -0.3110  0.1900
 7187SOL    HW133197   0.505   3.770   2.213  0.3471  0.1765  0.9544
 7187SOL    HW233198   0.583   3.885   2.219 -0.5770  1.9613 -0.8888
 7188SOL     OW33199   2.550   3.631   7.016  0.0631 -0.4535 -0.2522
 7188SOL    HW133200   2.463   3.603   7.048 -0.0067 -0.5552 -0.5296
 7188SOL    HW233201   2.550   3.599   6.926  1.1396  1.4323 -0.8999
 7189SOL     OW33202   2.685   0.180   0.223  0.4364  0.2963  0.2772
 7189SOL    HW133203   2.638   0.117   0.168  0.8597  0.0809  0.1601
 7189SOL    HW233204   2.661   0.153   0.312  0.6073  0.4408  0.3667
 7190SOL     OW33205   3.038   4.496   7.294 -0.8803 -0.3052 -0.4884
 7190SOL    HW133206   3.096   4.523   7.222 -0.3415 -0.1709 -0.0039
 7190SOL    HW233207   2.995   4.416   7.264 -1.6531  0.0003 -0.1821
 7191SOL     OW33208   0.058   1.284   3.648 -0.7556 -0.0751 -1.0610
 7191SOL    HW133209   4.709   1.302   3.618 -1.0383 -0.1332 -0.2668
 7191SOL    HW233210   0.095   1.371   3.660  0.8948 -1.1374  1.6088
 7192SOL     OW33211   3.198   1.239   3.708 -0.4490  0.5730  0.1571
 7192SOL    HW133212   3.166   1.225   3.619  0.2371 -0.2708  0.0466
 7192SOL    HW233213   3.122   1.237   3.766 -0.4095  0.7836  0.2148
 7193SOL     OW33214   0.006   3.898   3.451  0.3529  0.0740 -0.0610
 7193SOL    HW133215   4.697   3.902   3.369 -1.2878  0.3420  0.9337
 7193SOL    HW233216   0.073   3.964   3.437  1.0777 -0.4183  1.0886
 7194SOL     OW33217   4.634   4.698   6.075  0.4943  0.5082 -0.2061
 7194SOL    HW133218   4.597   4.675   5.990 -1.5995 -0.9071  1.0923
 7194SOL    HW233219   4.705   0.014   6.044 -0.2852  0.0416 -2.8386
 7195SOL     OW33220   4.167   4.269   8.066 -0.2258  0.1101 -0.4003
 7195SOL    HW133221   4.157   4.200   8.000  1.6147 -0.8258  0.2977
 7195SOL    HW233222   4.108   4.334   8.027 -1.4124 -0.6930  0.0511
 7196SOL     OW33223   1.014   3.372   4.918  0.9151  0.1182  0.0644
 7196SOL    HW133224   0.954   3.306   4.884  1.1218 -0.0659  0.0544
 7196SOL    HW233225   1.086   3.315   4.945  0.2303 -0.6271  0.3109
 7197SOL     OW33226   3.127   0.026   3.400 -0.1034 -0.1982  0.5989
 7197SOL    HW133227   3.123   0.098   3.463 -0.9187 -0.0556  0.3755
 7197SOL    HW233228   3.201   0.058   3.348  1.6847 -2.3357  1.8433
 7198SOL     OW33229   2.421   1.704   1.927  0.3444 -0.2250  0.9331
 7198SOL    HW133230   2.465   1.622   1.951 -0.0764 -0.1897  1.8208
 7198SOL    HW233231   2.490   1.764   1.899  0.6864 -1.4085 -0.7605
 7199SOL     OW33232   2.837   2.409   2.445  0.0328 -0.1727 -0.1246
 7199SOL    HW133233   2.855   2.338   2.506  0.6872  1.5873  1.7514
 7199SOL    HW233234   2.756   2.382   2.402 -0.4167  2.5140 -0.9985
 7200SOL     OW33235   4.200   2.972  10.003  0.4445  0.2256  0.1126
 7200SOL    HW133236   4.137   3.018  10.058 -0.7433 -0.5008 -0.6249
 7200SOL    HW233237   4.205   3.039   9.934  1.0312  2.5764  2.4156
 7201SOL     OW33238   4.074   4.006   2.926  0.1697  0.2512 -0.5630
 7201SOL    HW133239   4.026   4.014   3.009  0.6965 -0.1574 -0.2152
 7201SOL    HW233240   4.153   3.958   2.954 -0.2406 -0.2566 -0.2758
 7202SOL     OW33241   3.386   2.028   5.250  0.2100 -0.0673  0.0561
 7202SOL    HW133242   3.432   1.965   5.195  0.3533  0.8291 -0.8477
 7202SOL    HW233243   3.435   2.107   5.225 -0.6022  0.5795  0.5207
 7203SOL     OW33244   2.410   3.758   3.563  0.0497 -0.2130 -0.9025
 7203SOL    HW133245   2.450   3.844   3.567 -0.6780  0.1496 -1.4523
 7203SOL    HW233246   2.320   3.780   3.539  0.5139  0.5138 -1.9281
 7204SOL     OW33247   4.106   1.769   3.497  0.2726 -0.0791 -0.6252
 7204SOL    HW133248   4.106   1.674   3.485 -0.2826  0.0810 -1.9106
 7204SOL    HW233249   4.053   1.774   3.576  1.4427  2.0605  0.0225
 7205SOL     OW33250   4.029   0.259   8.818  0.2844 -0.3650  0.0264
 7205SOL    HW133251   3.970   0.184   8.821 -0.1003  0.0148  2.1606
 7205SOL    HW233252   4.050   0.269   8.911  0.6514 -0.1600 -0.0791
 7206SOL     OW33253   3.273   0.760   6.225  0.2772  0.1613 -0.2527
 7206SOL    HW133254   3.260   0.751   6.130 -1.8861 -0.1011  0.0662
 7206SOL    HW233255   3.253   0.671   6.255  2.5079 -0.4394 -0.5776
 7207SOL     OW33256   2.239   1.175   4.717  0.0762 -0.3980 -0.0502
 7207SOL    HW133257   2.174   1.201   4.781 -0.7267 -1.1215 -0.5737
 7207SOL    HW233258   2.293   1.109   4.762 -0.0377 -0.2253  0.3320
 7208SOL     OW33259   1.187   3.343   4.018  0.4847 -0.1786  0.4465
 7208SOL    HW133260   1.106   3.348   3.968  0.0362  0.6618  1.2574
 7208SOL    HW233261   1.152   3.285   4.085 -1.2732  1.7994  1.2205
 7209SOL     OW33262   0.636   4.734   8.564  0.3976  0.4211  0.2670
 7209SOL    HW133263   0.582   4.688   8.500 -2.0108  0.7454  2.0549
 7209SOL    HW233264   0.617   0.087   8.551 -0.4056  0.0844 -0.9847
 7210SOL     OW33265   1.291   3.053   9.096  0.3659  0.0221  1.3099
 7210SOL    HW133266   1.353   3.006   9.152  0.6576 -1.1130  0.0124
 7210SOL    HW233267   1.242   2.981   9.056 -1.8751  3.1037 -1.5293
 7211SOL     OW33268   4.737   2.842   1.699  0.4241  0.2613 -0.6354
 7211SOL    HW133269   0.043   2.835   1.783  0.1850  0.0148 -0.5248
 7211SOL    HW233270   0.004   2.936   1.687 -0.6670  0.3461 -0.6409
 7212SOL     OW33271   1.918   2.208   3.417 -0.0035 -0.0959 -0.4321
 7212SOL    HW133272   1.897   2.198   3.324 -1.7446  3.0035 -0.3577
 7212SOL    HW233273   1.828   2.211   3.449 -1.2952 -2.6544 -3.8649
 7213SOL     OW33274   0.967   0.341   2.774 -0.4729 -0.2843  1.1803
 7213SOL    HW133275   1.016   0.294   2.841 -0.2627 -1.4189  0.2248
 7213SOL    HW233276   0.944   0.273   2.710 -0.8503  0.0741  0.9319
 7214SOL     OW33277   0.844   1.463   4.099 -0.5558 -0.4792 -0.0151
 7214SOL    HW133278   0.759   1.449   4.057 -0.3121 -1.8328 -0.0640
 7214SOL    HW233279   0.826   1.395   4.164  0.7722 -0.3588  0.4886
 7215SOL     OW33280   3.585   4.205   6.893 -0.5060  0.2585  0.5253
 7215SOL    HW133281   3.553   4.188   6.805  0.9217  1.6964 -0.2628
 7215SOL    HW233282   3.549   4.130   6.941 -2.0449 -0.3863 -1.6193
 7216SOL     OW33283   2.013   3.374   1.209 -0.0464  0.2552  0.2166
 7216SOL    HW133284   1.919   3.383   1.195 -0.0605 -0.2386  0.0009
 7216SOL    HW233285   2.016   3.415   1.296  1.1336 -3.3750  1.8685
 7217SOL     OW33286   4.736   0.220  16.239 -0.7934  0.2234  0.4076
 7217SOL    HW133287   0.011   0.261  16.154 -0.7708  0.8134  0.6934
 7217SOL    HW233288   0.044   0.139  16.220 -1.0173  0.0695  0.4992
 7218SOL     OW33289   2.256   1.402  13.458 -0.2724  0.0593 -0.5064
 7218SOL    HW133290   2.278   1.392  13.365 -1.2993  0.0545 -0.7488
 7218SOL    HW233291   2.251   1.311  13.488 -2.0383  1.3757  3.1435
 7219SOL     OW33292   2.937   4.185   7.720  0.3829 -0.1351  0.1521
 7219SOL    HW133293   3.002   4.185   7.791 -1.4095  1.9130  1.7933
 7219SOL    HW233294   2.938   4.278   7.694 -0.5121 -0.2524 -0.3089
 7220SOL     OW33295   2.557   0.529   7.984 -0.6587 -0.1776 -0.1721
 7220SOL    HW133296   2.652   0.530   7.976 -0.6428 -1.3188 -0.1876
 7220SOL    HW233297   2.542   0.622   7.969 -0.8477 -0.2849 -0.6299
 7221SOL     OW33298   2.257   1.040   3.177 -0.1757 -0.3255 -0.0171
 7221SOL    HW133299   2.218   1.113   3.129 -2.2716 -1.5221 -0.1298
 7221SOL    HW233300   2.302   1.089   3.247 -2.0739  0.7985  0.4190
 7222SOL     OW33301   3.700   0.095   1.104 -0.4114  0.2842 -0.0946
 7222SOL    HW133302   3.747   0.040   1.041  0.1892 -0.2432  0.8248
 7222SOL    HW233303   3.753   0.084   1.182  2.0161  2.3506 -1.4220
 7223SOL     OW33304   1.121   0.635  15.445  0.0978  0.5968  0.4001
 7223SOL    HW133305   1.118   0.540  15.430 -0.1558  0.2788  2.5149
 7223SOL    HW233306   1.163   0.672  15.367 -1.2523 -1.0498 -1.1255
 7224SOL     OW33307   1.553   0.089   8.009  0.0583  0.0367 -0.4966
 7224SOL    HW133308   1.588   0.061   7.925  1.9706  1.4071 -0.1344
 7224SOL    HW233309   1.520   0.003   8.037  1.1352 -0.0709  0.4447
 7225SOL     OW33310   1.500   4.438  14.122  0.5209 -0.3585  0.3740
 7225SOL    HW133311   1.590   4.468  14.119  0.3777 -0.0493 -1.0791
 7225SOL    HW233312   1.477   4.471  14.209 -1.6638 -2.6537  0.6632
 7226SOL     OW33313   2.821   2.670   5.767 -0.0396  0.4568  0.3515
 7226SOL    HW133314   2.851   2.756   5.736  0.6777 -0.1625 -0.6924
 7226SOL    HW233315   2.848   2.617   5.692  0.4317 -0.3233  1.0766
 7227SOL     OW33316   0.507   2.309   3.863 -0.2934  0.7057  0.5527
 7227SOL    HW133317   0.495   2.401   3.839 -1.6562  0.3957  0.0130
 7227SOL    HW233318   0.589   2.295   3.817 -1.2048  0.3729 -0.9625
 7228SOL     OW33319   0.521   0.059   3.021  0.2689  0.5122  0.0793
 7228SOL    HW133320   0.442   0.048   2.967  1.0015  2.4497 -1.3494
 7228SOL    HW233321   0.583   0.016   2.962 -0.9692 -2.4689  0.8998
 7229SOL     OW33322   3.542   3.178   3.740  0.0786 -0.2538 -0.4313
 7229SOL    HW133323   3.470   3.236   3.714 -0.1376 -0.5711 -0.5462
 7229SOL    HW233324   3.607   3.236   3.778  1.2559 -1.6119 -0.3718
 7230SOL     OW33325   3.678   2.842  16.675 -0.1008 -0.9799 -0.1317
 7230SOL    HW133326   3.753   2.857  16.618  0.8569  0.1978  1.4434
 7230SOL    HW233327   3.667   2.934  16.699  3.3374 -0.0215 -2.1105
 7231SOL     OW33328   0.949   4.583   3.011  0.0419  0.5516  0.1077
 7231SOL    HW133329   1.024   4.537   2.975  0.2697  1.9412 -1.2056
 7231SOL    HW233330   0.883   4.562   2.946 -0.2901 -0.6637  0.8496
 7232SOL     OW33331   3.788   3.066   2.902 -0.5554  0.0072  0.3350
 7232SOL    HW133332   3.797   3.090   2.995  2.8722 -1.5702  0.4365
 7232SOL    HW233333   3.862   3.005   2.894 -1.1014 -0.6229  0.0797
 7233SOL     OW33334   1.573   1.494   6.977 -0.4148 -0.1652 -0.0783
 7233SOL    HW133335   1.663   1.521   6.994 -0.5975  1.3985 -1.6505
 7233SOL    HW233336   1.561   1.472   6.885  0.4440  0.8412 -0.4212
 7234SOL     OW33337   1.042   0.963   6.085  0.0173  0.4808 -0.3324
 7234SOL    HW133338   1.008   1.045   6.121 -0.5592 -0.5497  1.4638
 7234SOL    HW233339   0.963   0.909   6.082  1.7321 -2.1677  2.6839
 7235SOL     OW33340   1.685   3.877   3.868 -0.2671 -0.0415 -0.7016
 7235SOL    HW133341   1.643   3.813   3.810 -2.3484 -0.1048  0.8711
 7235SOL    HW233342   1.757   3.825   3.903 -1.6653 -1.2621  0.3521
 7236SOL     OW33343   0.923   3.687   4.116  0.0901  0.0476  0.2451
 7236SOL    HW133344   0.991   3.737   4.071  1.0313 -1.0355  0.4867
 7236SOL    HW233345   0.958   3.703   4.203  3.3282 -2.5162 -0.6107
 7237SOL     OW33346   0.800   4.406   3.918  0.6399 -0.0962  0.6909
 7237SOL    HW133347   0.779   4.439   4.005 -2.5220  0.5150 -0.3118
 7237SOL    HW233348   0.866   4.468   3.888  1.8470 -2.7612 -2.0899
 7238SOL     OW33349   2.076   1.813   0.356  0.2867 -0.1338  0.1712
 7238SOL    HW133350   2.062   1.838   0.448 -0.9032  0.0607 -0.0590
 7238SOL    HW233351   2.168   1.829   0.338  0.7911 -4.6181 -1.1879
 7239SOL     OW33352   1.073   2.665  16.111  0.0599 -0.3098 -0.4372
 7239SOL    HW133353   1.153   2.649  16.161 -0.1272 -0.9634 -0.3486
 7239SOL    HW233354   1.077   2.761  16.114  1.8613 -0.3825 -1.1123
 7240SOL     OW33355   4.380   1.978   1.871  0.1455 -0.4157 -0.4961
 7240SOL    HW133356   4.458   1.967   1.925  1.2407  0.8254 -1.8410
 7240SOL    HW233357   4.356   2.069   1.889  3.5355  0.0404  1.6685
 7241SOL     OW33358   4.553   1.108   2.476  0.5835  0.3833  0.1265
 7241SOL    HW133359   4.579   1.170   2.545  0.1917 -1.8741  2.3173
 7241SOL    HW233360   4.554   1.022   2.518 -0.4091 -0.0888 -0.8205
 7242SOL     OW33361   4.024   1.374   7.501 -0.0280 -0.0143  0.1170
 7242SOL    HW133362   4.082   1.331   7.564  1.1538 -1.3494 -1.8731
 7242SOL    HW233363   3.937   1.359   7.537 -0.1405  0.2289 -0.0567
 7243SOL     OW33364   1.047   1.911   3.583 -0.3533  0.1905  0.3915
 7243SOL    HW133365   1.021   1.924   3.674  3.0708  0.4491  1.3265
 7243SOL    HW233366   1.091   1.827   3.590 -2.2644 -0.8578 -0.2458
 7244SOL     OW33367   1.381   2.979   8.568  0.2318  0.3196 -0.2053
 7244SOL    HW133368   1.315   2.956   8.633  1.4219 -0.6376  0.6576
 7244SOL    HW233369   1.325   2.997   8.492 -1.5277 -1.6512  0.6011
 7245SOL     OW33370   2.845   0.974   4.288  0.3272 -0.3670  0.2452
 7245SOL    HW133371   2.888   0.889   4.285  0.2493 -0.5027  3.1002
 7245SOL    HW233372   2.902   1.034   4.336  0.8092  1.1001 -2.1317
 7246SOL     OW33373   1.629   2.267   5.134  0.5036 -0.5998  0.2306
 7246SOL    HW133374   1.636   2.353   5.174  3.7554 -0.6349 -0.2312
 7246SOL    HW233375   1.656   2.286   5.045 -1.7495 -0.2604 -0.3750
 7247SOL     OW33376   4.698   0.654   6.752  0.4960 -0.1330  0.4418
 7247SOL    HW133377   4.645   0.734   6.755  2.1081  0.9032  1.0278
 7247SOL    HW233378   4.704   0.643   6.847  0.2191  0.9967  0.5859
 7248SOL     OW33379   0.604   1.751   6.210  1.2785  0.4285  0.1594
 7248SOL    HW133380   0.568   1.836   6.187 -3.4337 -1.2465  1.2787
 7248SOL    HW233381   0.547   1.696   6.155  2.0655  0.2955 -0.5272
 7249SOL     OW33382   2.549   3.256   2.845  0.6294  0.1295 -0.1350
 7249SOL    HW133383   2.512   3.194   2.908  0.8482  0.8437  0.6932
 7249SOL    HW233384   2.643   3.242   2.856  0.3813 -1.1322  0.4217
 7250SOL     OW33385   4.166   2.709  15.830  0.3794 -0.3924 -0.4800
 7250SOL    HW133386   4.227   2.783  15.829 -1.7197  1.2965 -3.0482
 7250SOL    HW233387   4.172   2.685  15.923  1.8448  3.1900  0.3292
 7251SOL     OW33388   3.110   3.698   9.129 -0.6436 -0.1827 -0.5125
 7251SOL    HW133389   3.203   3.689   9.106 -0.4477  0.8821 -0.1448
 7251SOL    HW233390   3.108   3.786   9.168 -0.8013  0.3654 -1.7705
 7252SOL     OW33391   3.440   3.173   6.923 -0.0586 -0.3429 -0.0762
 7252SOL    HW133392   3.391   3.252   6.949 -0.6908 -1.1972  1.3467
 7252SOL    HW233393   3.515   3.188   6.980 -1.1434  3.1083  0.5145
 7253SOL     OW33394   0.211   1.031   3.716 -0.2975 -0.5194 -0.3755
 7253SOL    HW133395   0.165   1.114   3.704  1.7511  1.2072  3.4938
 7253SOL    HW233396   0.295   1.051   3.673 -0.7640  0.5993 -0.7858
 7254SOL     OW33397   3.435   3.217   2.264 -0.0523  0.3114 -0.2544
 7254SOL    HW133398   3.355   3.200   2.314 -0.4754 -0.5673 -1.2268
 7254SOL    HW233399   3.406   3.208   2.173  1.3466  0.6235 -0.7380
 7255SOL     OW33400   1.972   3.767   5.089  0.1152 -0.0688  0.3481
 7255SOL    HW133401   1.880   3.746   5.072 -0.0417  0.5608  0.4521
 7255SOL    HW233402   1.958   3.852   5.129 -0.7462 -1.1981  2.4754
 7256SOL     OW33403   0.217   3.079   4.064 -0.0761  0.2503 -0.2969
 7256SOL    HW133404   0.152   3.145   4.042  0.7047  1.4823  1.0709
 7256SOL    HW233405   0.298   3.131   4.057 -0.0294  0.3047  0.5502
 7257SOL     OW33406   2.095   0.641   8.287 -0.2362  0.4599  0.0139
 7257SOL    HW133407   2.060   0.556   8.314 -2.4431  0.4657 -2.9353
 7257SOL    HW233408   2.148   0.598   8.220 -1.6469  0.1046 -0.8675
 7258SOL     OW33409   1.310   0.974   5.429 -0.5111 -0.0926  0.4685
 7258SOL    HW133410   1.283   1.056   5.389 -1.4513  0.2924  1.9011
 7258SOL    HW233411   1.347   0.994   5.514 -0.5693  0.3441  0.3932
 7259SOL     OW33412   3.413   2.384   3.870 -0.0293 -0.3761  0.2400
 7259SOL    HW133413   3.421   2.460   3.812 -2.7706 -1.1550 -1.1496
 7259SOL    HW233414   3.409   2.435   3.952 -2.2269 -0.6912  0.3214
 7260SOL     OW33415   2.734   2.916   3.700  0.1898  0.1227  0.6550
 7260SOL    HW133416   2.664   2.971   3.734  0.3451  0.4540  0.4301
 7260SOL    HW233417   2.711   2.912   3.608  0.7375  1.5023  0.4692
 7261SOL     OW33418   2.714   1.304   3.811 -0.1702 -0.0262 -0.1887
 7261SOL    HW133419   2.681   1.260   3.890 -0.0470 -3.9266 -2.3094
 7261SOL    HW233420   2.671   1.389   3.817  0.0492 -0.0912  2.3863
 7262SOL     OW33421   3.080   0.556   5.914 -0.3526 -0.3753 -0.3383
 7262SOL    HW133422   3.170   0.536   5.939  0.3252 -0.8724 -3.1895
 7262SOL    HW233423   3.090   0.649   5.896 -1.5131 -0.0267  0.8063
 7263SOL     OW33424   1.019   2.266  10.223  0.6799 -0.1369 -0.0532
 7263SOL    HW133425   1.087   2.324  10.191 -1.4668  3.2366  1.4465
 7263SOL    HW233426   1.002   2.219  10.142  0.1943  0.2478 -0.1730
 7264SOL     OW33427   1.752   2.944   5.311  0.0763  0.0989 -0.8872
 7264SOL    HW133428   1.706   3.021   5.346  0.3313 -0.2248  0.1482
 7264SOL    HW233429   1.834   2.943   5.359 -1.4341  0.1792  1.6949
 7265SOL     OW33430   1.504   0.299   8.907 -0.4604 -0.7259 -0.4102
 7265SOL    HW133431   1.436   0.366   8.896 -1.3651 -1.0864  2.9997
 7265SOL    HW233432   1.460   0.215   8.894 -0.8469 -0.3951 -1.2344
 7266SOL     OW33433   0.515   2.695   7.458  0.1109  0.0786  0.3575
 7266SOL    HW133434   0.546   2.684   7.548  0.9710 -1.3027 -0.1123
 7266SOL    HW233435   0.450   2.766   7.463 -1.0173 -0.8754 -0.7852
 7267SOL     OW33436   1.297   0.672   5.368  0.1001  0.4394 -0.3477
 7267SOL    HW133437   1.219   0.714   5.403  0.4729  1.2075 -0.4380
 7267SOL    HW233438   1.354   0.749   5.355  0.4425  0.4531  1.2635
 7268SOL     OW33439   0.499   0.856   1.313  0.2852  0.6965  0.0689
 7268SOL    HW133440   0.417   0.898   1.287 -0.5054 -0.2964  0.9386
 7268SOL    HW233441   0.541   0.911   1.379 -1.5776  1.6622  0.4509
 7269SOL     OW33442   3.813   4.078   3.745  0.1813  0.0904  0.3011
 7269SOL    HW133443   3.877   4.035   3.802 -0.0371  1.0990  1.3047
 7269SOL    HW233444   3.727   4.058   3.781  0.5754  1.3024  1.9366
 7270SOL     OW33445   3.061   3.188  10.409 -0.1305 -0.1801  0.4519
 7270SOL    HW133446   3.073   3.132  10.485 -1.4556  1.3964  1.8200
 7270SOL    HW233447   3.110   3.142  10.341 -1.9499  0.8790 -1.5814
 7271SOL     OW33448   3.609   4.725   4.917  0.3271  0.5113 -0.1860
 7271SOL    HW133449   3.576   4.670   4.988 -0.6173  0.8514 -0.3720
 7271SOL    HW233450   3.546   4.694   4.852  0.8581  0.2113 -0.5617
 7272SOL     OW33451   1.551   0.125   7.130 -0.6717  0.2284 -0.2378
 7272SOL    HW133452   1.588   0.103   7.044 -0.8313  0.9512 -0.4958
 7272SOL    HW233453   1.464   0.084   7.122 -0.3591 -1.0400  3.0537
 7273SOL     OW33454   3.904   1.426   6.660  0.2266 -0.1792  0.0146
 7273SOL    HW133455   3.930   1.424   6.752 -0.6804 -0.6394  0.2577
 7273SOL    HW233456   3.961   1.491   6.618 -0.3468  0.0910 -0.3440
 7274SOL     OW33457   2.410   3.993   6.319 -0.6644  0.8562  0.6376
 7274SOL    HW133458   2.451   3.945   6.390 -0.2831 -1.6294 -1.2435
 7274SOL    HW233459   2.315   3.995   6.329 -0.8501 -2.2357 -0.2853
 7275SOL     OW33460   0.177   1.246   7.651  0.0211  0.1481 -0.5029
 7275SOL    HW133461   0.143   1.277   7.567 -1.0151 -0.7406 -0.4172
 7275SOL    HW233462   0.095   1.258   7.699  0.0862 -3.7126  0.5824
 7276SOL     OW33463   4.523   1.261   8.598  0.1033 -0.2797 -0.0226
 7276SOL    HW133464   4.595   1.198   8.597 -0.2446 -0.6810  0.0100
 7276SOL    HW233465   4.482   1.228   8.518  0.7308 -0.0030 -0.4536
 7277SOL     OW33466   0.720   4.708   2.830 -0.5851 -0.1683 -0.2016
 7277SOL    HW133467   0.686   0.013   2.752 -2.8083 -2.8395 -0.7575
 7277SOL    HW233468   0.790   4.656   2.791  1.1459  1.7265  0.4026
 7278SOL     OW33469   1.067   2.126   2.522  0.6959  0.0830 -0.8808
 7278SOL    HW133470   1.118   2.202   2.550  1.0235  0.3467 -2.1614
 7278SOL    HW233471   1.083   2.071   2.599 -2.2884 -1.9877 -1.7205
 7279SOL     OW33472   3.069   3.439   7.674 -0.0633  0.0201  0.5850
 7279SOL    HW133473   3.035   3.526   7.657 -0.4020 -0.6866 -2.2706
 7279SOL    HW233474   3.011   3.381   7.624 -1.1642 -0.4143  2.3614
 7280SOL     OW33475   2.429   0.296   3.271 -0.6275 -0.6737  0.5331
 7280SOL    HW133476   2.374   0.222   3.295  0.1838 -1.9373 -1.5285
 7280SOL    HW233477   2.467   0.258   3.192 -1.7932 -0.7528 -0.0015
 7281SOL     OW33478   2.582   2.737   1.444 -0.1577 -0.1030  0.0009
 7281SOL    HW133479   2.498   2.747   1.490  0.9793  1.0385  1.8355
 7281SOL    HW233480   2.608   2.828   1.431  0.7221 -0.0267  2.3082
 7282SOL     OW33481   2.796   1.775   1.166 -0.0916 -0.3461 -0.2248
 7282SOL    HW133482   2.752   1.768   1.250 -0.6282  3.2492 -0.1861
 7282SOL    HW233483   2.749   1.851   1.132 -0.7584 -0.4732  0.4295
 7283SOL     OW33484   0.290   4.077   8.048  0.9249 -0.5284 -0.1633
 7283SOL    HW133485   0.217   4.058   7.988 -0.5675 -1.7188  2.0223
 7283SOL    HW233486   0.342   4.147   8.010 -1.9100  0.9350 -1.3718
 7284SOL     OW33487   1.050   0.256  13.973  0.2956  0.8999  0.0341
 7284SOL    HW133488   1.023   0.343  14.003 -0.3360  0.2638  1.3572
 7284SOL    HW233489   0.975   0.201  13.997  2.4895 -1.8002  0.6754
 7285SOL     OW33490   3.816   0.862  12.979  0.0631 -0.1120  0.4559
 7285SOL    HW133491   3.728   0.831  12.959  0.1590 -0.2427  0.2372
 7285SOL    HW233492   3.858   0.845  12.894  0.9474  0.2956  0.8148
 7286SOL     OW33493   2.295   2.564   4.321  0.2057  0.0728 -0.1550
 7286SOL    HW133494   2.252   2.518   4.393  1.2999 -0.3953  0.1881
 7286SOL    HW233495   2.217   2.606   4.284  1.4278  3.5225  1.2407
 7287SOL     OW33496   2.623   3.729   2.723  0.1097 -0.2265 -0.2354
 7287SOL    HW133497   2.551   3.792   2.717  0.2388  0.0215  0.9092
 7287SOL    HW233498   2.658   3.743   2.811  0.7141 -0.4053 -0.4447
 7288SOL     OW33499   3.098   1.849  12.759  0.1264  0.1458  0.1309
 7288SOL    HW133500   3.163   1.864  12.690  1.0587  0.6282  1.1344
 7288SOL    HW233501   3.118   1.757  12.780  0.9202  0.3747  0.3810
 7289SOL     OW33502   0.503   4.633   4.348 -0.3759 -0.5624  0.0872
 7289SOL    HW133503   0.501   4.537   4.351  0.6372 -0.5794  0.3556
 7289SOL    HW233504   0.411   4.630   4.372 -0.1196  1.9794  1.3728
 7290SOL     OW33505   2.254   0.650  14.543 -0.5343  0.2635  0.0993
 7290SOL    HW133506   2.208   0.702  14.609 -1.3275 -0.5927  0.2244
 7290SOL    HW233507   2.314   0.719  14.515 -0.9212  0.3917 -0.4095
 7291SOL     OW33508   3.568   1.225   9.418 -0.0492 -1.0312  0.1377
 7291SOL    HW133509   3.568   1.168   9.495  0.1240  0.7274  1.4325
 7291SOL    HW233510   3.486   1.269   9.438 -0.2893 -1.6404  0.5199
 7292SOL     OW33511   3.028   1.172  12.249 -0.3913 -0.3332 -0.6333
 7292SOL    HW133512   3.088   1.122  12.305  0.7587  0.2465 -1.3544
 7292SOL    HW233513   3.088   1.221  12.192  1.1831  1.9070  2.9221
 7293SOL     OW33514   1.433   2.550   6.204 -0.7126 -0.1536 -0.0704
 7293SOL    HW133515   1.385   2.629   6.177 -0.6753 -0.8928 -2.3432
 7293SOL    HW233516   1.453   2.507   6.120 -1.7856 -0.3031 -0.2549
 7294SOL     OW33517   4.544   3.930   4.890  0.2431  0.3466 -0.3268
 7294SOL    HW133518   4.451   3.913   4.878  0.1170  1.6399 -1.1369
 7294SOL    HW233519   4.556   3.994   4.960 -1.9864 -0.0509  0.4193
 7295SOL     OW33520   1.843   4.529   6.247  0.0922 -0.0289  0.6188
 7295SOL    HW133521   1.827   4.601   6.186 -0.9816 -1.3352 -0.6694
 7295SOL    HW233522   1.763   4.481   6.223 -0.8531  0.9088  1.8946
 7296SOL     OW33523   0.728   0.383   1.045  0.2273 -0.7219  0.1888
 7296SOL    HW133524   0.667   0.389   0.971  0.0406 -0.4685  0.3622
 7296SOL    HW233525   0.692   0.453   1.100  1.6292 -0.8116  1.2130
 7297SOL     OW33526   3.516   3.238   3.336  0.5073 -0.2456  0.0411
 7297SOL    HW133527   3.596   3.241   3.388  0.8541  5.5148 -0.8010
 7297SOL    HW233528   3.525   3.152   3.296  1.5172 -0.3062  0.4023
 7298SOL     OW33529   0.011   4.611   8.893 -0.3502 -0.3684 -0.5240
 7298SOL    HW133530   0.008   4.582   8.984 -0.2112  1.3979  0.0497
 7298SOL    HW233531   0.061   4.692   8.905 -0.3555 -0.2791 -1.1043
 7299SOL     OW33532   4.251   1.722   1.803  0.0606 -0.8150 -0.0555
 7299SOL    HW133533   4.291   1.805   1.831  1.5664 -1.7702  0.5875
 7299SOL    HW233534   4.323   1.663   1.825  0.1078 -0.5952  0.3726
 7300SOL     OW33535   0.263   0.269   8.757 -0.3981  0.3462 -0.2074
 7300SOL    HW133536   0.356   0.245   8.754 -0.0992  1.4215  0.3133
 7300SOL    HW233537   0.271   0.359   8.790 -1.4079 -0.4574  2.2652
 7301SOL     OW33538   0.220   2.222   7.717  0.5465 -0.0198 -0.0992
 7301SOL    HW133539   0.238   2.222   7.811 -1.4128 -0.8952  0.2713
 7301SOL    HW233540   0.146   2.282   7.710  0.8462  0.2939 -0.5582
 7302SOL     OW33541   1.216   0.147   0.881 -0.2495 -0.5425  0.2170
 7302SOL    HW133542   1.217   0.166   0.975  0.0261  1.4481 -0.1853
 7302SOL    HW233543   1.217   0.233   0.838  0.9836 -0.2218  0.8939
 7303SOL     OW33544   3.392   2.424   6.992 -0.4023  0.4956  0.1890
 7303SOL    HW133545   3.420   2.334   6.978 -1.0819  0.1414  1.1643
 7303SOL    HW233546   3.326   2.422   7.060  0.8310 -0.8737  1.3507
 7304SOL     OW33547   1.137   0.526  11.000  0.2366  0.0300  0.6822
 7304SOL    HW133548   1.148   0.486  10.914  0.0503  2.6034 -0.5317
 7304SOL    HW233549   1.177   0.461  11.059 -1.2340 -2.0164 -0.5897
 7305SOL     OW33550   0.702   3.620   3.968  0.8120 -0.9200 -0.3043
 7305SOL    HW133551   0.772   3.623   4.033  1.2200  0.9611 -0.8222
 7305SOL    HW233552   0.745   3.615   3.883 -0.8470  0.1434 -1.2177
 7306SOL     OW33553   1.221   3.069   1.417  0.3474  0.3048 -0.4626
 7306SOL    HW133554   1.309   3.092   1.386  2.0246 -2.3763  2.3182
 7306SOL    HW233555   1.170   3.144   1.388  2.6247  1.1053 -2.4104
 7307SOL     OW33556   0.161   0.535   4.890  0.3469  0.3581 -0.3344
 7307SOL    HW133557   0.155   0.620   4.934 -0.0665  0.2672 -0.2145
 7307SOL    HW233558   0.119   0.547   4.805 -0.4675  0.5397  0.0974
 7308SOL     OW33559   1.766   2.906   6.962  0.2255  0.5265  0.3279
 7308SOL    HW133560   1.859   2.900   6.942 -0.1237 -0.5332 -1.0408
 7308SOL    HW233561   1.757   2.896   7.056  0.6375  1.2829  0.4513
 7309SOL     OW33562   2.198   1.908   4.231 -0.8279 -0.1386  0.1730
 7309SOL    HW133563   2.125   1.873   4.180 -0.2039  0.0178 -0.8365
 7309SOL    HW233564   2.188   1.863   4.314 -0.2959 -0.9648 -0.2117
 7310SOL     OW33565   4.612   4.225  17.260 -0.1660  0.3297  0.2253
 7310SOL    HW133566   4.686   4.203  17.204  0.5678 -0.8408  1.6509
 7310SOL    HW233567   4.561   4.144  17.255 -0.8871  0.5554  3.5886
 7311SOL     OW33568   4.234   2.871   7.404  0.0567 -0.4861  0.3117
 7311SOL    HW133569   4.201   2.945   7.353 -0.2189  0.2067  1.4907
 7311SOL    HW233570   4.329   2.875   7.394 -0.2683  3.4997 -1.3503
 7312SOL     OW33571   0.263   3.266   4.680 -0.7942  0.3074 -0.1227
 7312SOL    HW133572   0.179   3.288   4.640 -0.6355  1.9468  0.4762
 7312SOL    HW233573   0.306   3.350   4.694  1.3960 -0.7643 -0.4108
 7313SOL     OW33574   0.673   1.230  12.529 -0.1012 -0.1279 -0.7382
 7313SOL    HW133575   0.737   1.174  12.572  1.3059  1.8141 -0.2941
 7313SOL    HW233576   0.730   1.293  12.485 -1.2896  0.8406 -0.8889
 7314SOL     OW33577   3.649   2.146   9.452  0.3441  0.1417 -0.0794
 7314SOL    HW133578   3.744   2.131   9.447 -0.0529 -1.5981 -2.3774
 7314SOL    HW233579   3.642   2.234   9.487  1.6171  1.5072 -3.2349
 7315SOL     OW33580   1.078   1.930   4.809  0.0764  0.6691  0.3335
 7315SOL    HW133581   1.023   1.851   4.813  0.3377  0.4289 -1.0072
 7315SOL    HW233582   1.100   1.932   4.716 -2.7398 -2.6185 -0.4191
 7316SOL     OW33583   3.882   0.506   8.193 -0.3356  0.1190 -0.2374
 7316SOL    HW133584   3.948   0.437   8.201  1.5349  1.8628 -0.8750
 7316SOL    HW233585   3.833   0.486   8.113  2.8787 -1.0629 -1.8715
 7317SOL     OW33586   1.881   1.984   8.754 -0.1746 -0.3523 -0.3444
 7317SOL    HW133587   1.917   1.972   8.666  2.6087  0.3621  0.6955
 7317SOL    HW233588   1.806   2.042   8.743 -0.4996 -0.7080 -0.0026
 7318SOL     OW33589   0.433   0.194  14.274 -0.2623 -0.2655 -0.0769
 7318SOL    HW133590   0.425   0.113  14.325  1.3683 -1.0935 -1.1343
 7318SOL    HW233591   0.439   0.165  14.183 -1.0262  2.3284 -0.9442
 7319SOL     OW33592   3.477   1.901   3.266 -0.2801 -0.5338 -0.4328
 7319SOL    HW133593   3.412   1.831   3.263 -0.9128  0.0313  0.0359
 7319SOL    HW233594   3.518   1.888   3.180 -0.2906  1.8702 -0.8189
 7320SOL     OW33595   4.431   4.385   3.263 -0.1210 -0.1142  0.3820
 7320SOL    HW133596   4.437   4.419   3.173 -1.7788 -1.6597 -0.3126
 7320SOL    HW233597   4.511   4.334   3.278 -1.5002 -2.3189  0.1951
 7321SOL     OW33598   2.408   0.760   3.821  0.2230  0.2949 -0.2751
 7321SOL    HW133599   2.479   0.709   3.783  0.3284  0.1611  0.1022
 7321SOL    HW233600   2.410   0.743   3.916 -0.2413  0.8995 -0.1502
 7322SOL     OW33601   3.834   4.721   5.514  0.0686 -0.0822 -0.2223
 7322SOL    HW133602   3.775   0.038   5.563 -0.5015 -1.3348  0.5378
 7322SOL    HW233603   3.780   4.715   5.435 -0.6263  1.5411  0.1199
 7323SOL     OW33604   1.613   2.758  12.249 -0.3743 -0.2107 -0.4541
 7323SOL    HW133605   1.595   2.808  12.170  0.7642  1.7224  0.5153
 7323SOL    HW233606   1.674   2.822  12.287 -0.2516 -0.8325  0.4079
 7324SOL     OW33607   0.711   3.431   3.737 -0.1319  0.1662  0.3436
 7324SOL    HW133608   0.658   3.352   3.731 -0.5376  0.3226  1.8715
 7324SOL    HW233609   0.661   3.489   3.680 -1.2899 -1.5354 -0.3521
 7325SOL     OW33610   1.675   3.370   6.469  0.3625  0.4695 -0.8923
 7325SOL    HW133611   1.751   3.320   6.495 -1.1231 -1.4439 -0.2406
 7325SOL    HW233612   1.692   3.452   6.515  0.1381 -1.4515  2.6173
 7326SOL     OW33613   1.478   3.285   2.849 -0.0443  0.2583  0.1789
 7326SOL    HW133614   1.458   3.233   2.927 -0.4709 -1.1467 -0.8772
 7326SOL    HW233615   1.393   3.321   2.823 -0.4204 -0.3738  0.5321
 7327SOL     OW33616   4.493   0.314   3.007  0.1352  0.8564 -0.5036
 7327SOL    HW133617   4.559   0.260   3.050 -1.9448 -0.3954  1.1732
 7327SOL    HW233618   4.440   0.242   2.973  0.8902 -0.4832  1.1414
 7328SOL     OW33619   2.808   1.987   7.248 -0.1539  0.3970 -0.1053
 7328SOL    HW133620   2.889   1.936   7.247 -0.4847 -0.1054 -1.7135
 7328SOL    HW233621   2.831   2.054   7.312  0.5017  0.2902 -0.2189
 7329SOL     OW33622   4.468   4.712  16.654  0.6293  0.7116  0.1269
 7329SOL    HW133623   4.473   4.642  16.719 -2.0109 -0.2862 -0.7302
 7329SOL    HW233624   4.525   0.039  16.691 -1.8614  3.2568 -0.7446
 7330SOL     OW33625   4.417   0.928   1.369  0.8571 -0.2185  0.1261
 7330SOL    HW133626   4.391   1.008   1.323  1.6979  0.3005  0.5460
 7330SOL    HW233627   4.405   0.865   1.298  2.2466 -1.6243  1.1254
 7331SOL     OW33628   3.772   1.888   5.277 -0.4203  0.7387 -0.5181
 7331SOL    HW133629   3.863   1.883   5.307  0.3885  1.5802 -2.8948
 7331SOL    HW233630   3.765   1.984   5.279 -0.9164  0.7386 -2.5835
 7332SOL     OW33631   3.796   0.928   7.131 -0.0059 -0.4590 -0.2531
 7332SOL    HW133632   3.871   0.985   7.113  0.2156 -0.7868 -0.3547
 7332SOL    HW233633   3.821   0.843   7.096  2.0945 -0.1409  0.4986
 7333SOL     OW33634   2.160   2.033  16.718  0.0760 -0.4679 -0.0201
 7333SOL    HW133635   2.189   1.953  16.761 -2.9123 -1.7347 -0.3466
 7333SOL    HW233636   2.244   2.068  16.688 -0.9719  2.2200  0.1294
 7334SOL     OW33637   1.564   1.686  17.148  0.0799  0.6594  0.2587
 7334SOL    HW133638   1.625   1.675  17.075  2.5765  0.6940  2.3302
 7334SOL    HW233639   1.500   1.614  17.149  1.6149 -0.6979  0.5402
 7335SOL     OW33640   3.884   3.540   8.068  0.5285 -0.4304  0.1044
 7335SOL    HW133641   3.973   3.561   8.041  1.1083 -1.1465  1.4620
 7335SOL    HW233642   3.873   3.466   8.009 -1.0657 -0.7622  0.7941
 7336SOL     OW33643   0.871   2.698  13.676  0.8252  0.5477 -0.3412
 7336SOL    HW133644   0.783   2.670  13.652  0.4688  0.3885  1.1446
 7336SOL    HW233645   0.882   2.660  13.764  0.0557 -1.3736 -1.0869
 7337SOL     OW33646   2.656   3.279   4.164 -0.2711  0.4045 -0.2273
 7337SOL    HW133647   2.619   3.364   4.143 -0.8906  0.4033  0.8433
 7337SOL    HW233648   2.653   3.243   4.075 -3.4305 -1.1086  0.4924
 7338SOL     OW33649   1.292   1.658   5.106  0.0983  0.5182  0.2345
 7338SOL    HW133650   1.307   1.681   5.198 -0.4420  0.2272  0.3963
 7338SOL    HW233651   1.345   1.718   5.054 -1.2099  0.9846 -0.5645
 7339SOL     OW33652   0.665   4.201   0.417  0.3993  0.4214 -0.3998
 7339SOL    HW133653   0.653   4.254   0.338 -0.6981 -1.2426 -1.3481
 7339SOL    HW233654   0.674   4.270   0.484  0.5057  0.8574 -0.8609
 7340SOL     OW33655   3.860   4.323   3.334  0.1958  0.1238 -0.3343
 7340SOL    HW133656   3.821   4.397   3.381 -1.7651 -0.0112 -1.7173
 7340SOL    HW233657   3.915   4.291   3.405 -1.7232 -1.7091  0.3486
 7341SOL     OW33658   0.779   1.188   6.691  0.1497 -0.3803  0.1923
 7341SOL    HW133659   0.710   1.254   6.697  2.0958  1.5290  1.3541
 7341SOL    HW233660   0.846   1.250   6.663 -0.6339  0.8775  1.1048
 7342SOL     OW33661   1.046   1.342   8.690  0.5566 -0.1649  0.3286
 7342SOL    HW133662   1.136   1.315   8.709  1.2092  0.2950 -2.2107
 7342SOL    HW233663   1.064   1.425   8.646 -0.5986 -1.3142 -2.3129
 7343SOL     OW33664   2.348   1.275  17.142 -0.4295 -0.3304  0.1452
 7343SOL    HW133665   2.354   1.248  17.234 -0.9185  0.7971  0.5144
 7343SOL    HW233666   2.290   1.209  17.104 -0.7461 -0.4449  0.8240
 7344SOL     OW33667   3.763   0.873   8.489 -0.4309 -0.4139 -0.0179
 7344SOL    HW133668   3.772   0.786   8.450  1.1715  0.2049 -1.0402
 7344SOL    HW233669   3.690   0.911   8.439 -1.4398 -0.4404  1.4501
 7345SOL     OW33670   0.433   0.143   6.958  0.2246 -0.0471  0.0772
 7345SOL    HW133671   0.448   0.154   7.052  0.1095 -2.0788  0.3343
 7345SOL    HW233672   0.406   0.053   6.942 -0.0053 -0.3746  2.2428
 7346SOL     OW33673   0.542   0.066   7.211  0.0438  0.2000 -0.8238
 7346SOL    HW133674   0.499   0.091   7.293  1.8670 -1.3875  0.5865
 7346SOL    HW233675   0.476   0.001   7.185  0.8522 -1.5512  1.5314
 7347SOL     OW33676   4.578   2.795  10.067  0.1995  0.0601 -0.7013
 7347SOL    HW133677   4.541   2.882  10.056 -0.3362  0.2042  2.2160
 7347SOL    HW233678   4.611   2.810  10.155 -0.5466  1.4420 -0.6603
 7348SOL     OW33679   3.053   4.501   6.942 -0.2849  0.7197  0.0311
 7348SOL    HW133680   2.978   4.553   6.970  0.6916  1.1585  1.8341
 7348SOL    HW233681   3.081   4.563   6.874 -1.6820 -0.0565 -1.2520
 7349SOL     OW33682   4.335   1.912  12.328  0.2996 -0.3377 -0.6259
 7349SOL    HW133683   4.248   1.944  12.305 -0.1412 -0.5500  0.7521
 7349SOL    HW233684   4.333   1.934  12.422  1.1709  1.0626 -0.9312
 7350SOL     OW33685   0.260   0.924   2.826 -0.5631 -0.2859 -0.3083
 7350SOL    HW133686   0.274   1.019   2.821 -1.3338 -0.0605  1.5666
 7350SOL    HW233687   0.343   0.886   2.853 -0.7872 -1.0422 -0.7018
 7351SOL     OW33688   0.177   1.025  15.901 -0.2593 -0.2018 -0.1134
 7351SOL    HW133689   0.245   0.989  15.844 -1.2066 -0.3007 -1.1888
 7351SOL    HW233690   0.152   0.950  15.956  0.4368  0.6822  1.3744
 7352SOL     OW33691   0.336   0.952   8.631  0.1277  0.2139  0.1601
 7352SOL    HW133692   0.408   0.894   8.657  0.2456  0.4822  0.4446
 7352SOL    HW233693   0.323   0.929   8.539  1.7655 -1.4155  0.3369
 7353SOL     OW33694   1.100   0.467  11.428 -0.9305  0.4469  0.2674
 7353SOL    HW133695   1.148   0.454  11.346 -1.6496  1.1820 -0.2704
 7353SOL    HW233696   1.045   0.542  11.409 -0.6159  0.3134 -1.1547
 7354SOL     OW33697   1.747   1.279   1.414 -0.0822 -0.1331 -0.4794
 7354SOL    HW133698   1.798   1.254   1.337 -0.3598 -1.9086 -0.1038
 7354SOL    HW233699   1.784   1.366   1.427 -0.5731  0.0771 -0.5085
 7355SOL     OW33700   0.319   3.409  11.672 -0.1340  0.4333  0.2747
 7355SOL    HW133701   0.414   3.419  11.667  0.2874 -3.1800  0.9209
 7355SOL    HW233702   0.301   3.498  11.703  0.3005 -0.1594  2.2650
 7356SOL     OW33703   4.367   1.563  15.995 -0.1482 -0.1817 -0.2606
 7356SOL    HW133704   4.292   1.512  15.964 -0.1919 -1.2243  1.5415
 7356SOL    HW233705   4.324   1.646  16.014 -0.1121  0.5408 -3.3490
 7357SOL     OW33706   2.738   2.073  13.169 -0.4683  0.2356 -0.0560
 7357SOL    HW133707   2.665   2.036  13.120 -1.2685 -0.9376  2.0205
 7357SOL    HW233708   2.694   2.133  13.229  1.2663  0.9133  0.5449
 7358SOL     OW33709   4.150   4.547   3.587 -0.1793  0.1696  0.4960
 7358SOL    HW133710   4.206   4.526   3.513  1.5930  2.5160  1.1526
 7358SOL    HW233711   4.205   4.531   3.664 -1.6996  0.9958  1.7767
 7359SOL     OW33712   3.384   1.138   5.247  0.2112 -0.8123  0.0394
 7359SOL    HW133713   3.329   1.081   5.192  0.6780 -1.0807 -0.1456
 7359SOL    HW233714   3.330   1.150   5.326 -0.2422 -5.7049  0.5271
 7360SOL     OW33715   3.247   0.204   6.739  0.0523 -0.4325 -0.2806
 7360SOL    HW133716   3.218   0.257   6.813  1.2100  1.4525 -1.1853
 7360SOL    HW233717   3.318   0.152   6.778  0.5875 -0.5906 -1.4768
 7361SOL     OW33718   1.068   3.543   2.258 -0.0547 -0.3344  0.1043
 7361SOL    HW133719   1.028   3.530   2.172 -0.4025  0.1238  0.2007
 7361SOL    HW233720   1.135   3.607   2.235 -1.0304  1.7467  3.1364
 7362SOL     OW33721   3.309   0.843   3.340  0.0270 -0.1667  0.3572
 7362SOL    HW133722   3.348   0.899   3.407  0.3385 -1.6102  1.3827
 7362SOL    HW233723   3.272   0.897   3.270 -1.2646 -2.1439 -0.5027
 7363SOL     OW33724   1.201   4.634   8.206  0.1361 -0.1898 -0.9526
 7363SOL    HW133725   1.286   4.598   8.231 -0.0573  0.1525  0.2061
 7363SOL    HW233726   1.205   4.726   8.233 -0.4355 -0.7724  1.1820
 7364SOL     OW33727   1.794   0.397   1.490  0.0132 -0.0271 -0.1826
 7364SOL    HW133728   1.724   0.411   1.553  0.5041 -2.7027  0.9970
 7364SOL    HW233729   1.835   0.316   1.521  0.7425  0.8225  1.0656
 7365SOL     OW33730   4.525   0.262   0.114 -0.1659  0.5483  0.2785
 7365SOL    HW133731   4.602   0.302   0.154 -0.7251  0.6604  1.2458
 7365SOL    HW233732   4.572   0.252   0.031 -2.0518 -0.4241 -0.6701
 7366SOL     OW33733   4.256   0.058   4.613  0.1322  0.1886 -0.4564
 7366SOL    HW133734   4.351   0.065   4.626  0.1749  0.9265 -1.2386
 7366SOL    HW233735   4.258   0.080   4.520  1.3756  1.6991 -0.0648
 7367SOL     OW33736   3.535   4.241  13.124 -0.1119  0.0146  0.1385
 7367SOL    HW133737   3.523   4.170  13.060  1.9088  0.5772 -0.8651
 7367SOL    HW233738   3.524   4.199  13.209 -1.1495 -0.4814 -0.2414
 7368SOL     OW33739   2.020   1.264  11.073  0.4077 -0.6896  0.7918
 7368SOL    HW133740   2.033   1.327  11.144 -0.5119  0.7743 -0.3212
 7368SOL    HW233741   2.101   1.214  11.067  1.3732  0.6942  2.3557
 7369SOL     OW33742   0.281   2.820   7.887  0.0668 -0.2730  0.0515
 7369SOL    HW133743   0.256   2.822   7.794  1.0594 -0.5012 -0.2189
 7369SOL    HW233744   0.273   2.911   7.915 -0.1641  0.3572 -2.0160
 7370SOL     OW33745   2.927   1.554  15.927  0.3445  0.4403 -0.2201
 7370SOL    HW133746   2.835   1.572  15.908  0.6111 -0.0184 -2.0410
 7370SOL    HW233747   2.913   1.481  15.987  0.2759  0.7332  0.1163
 7371SOL     OW33748   3.215   0.776  13.800 -0.0482 -0.9740  0.4582
 7371SOL    HW133749   3.251   0.810  13.882  0.8078 -2.6464  0.7648
 7371SOL    HW233750   3.183   0.859  13.765 -0.5881 -1.9437 -1.3646
 7372SOL     OW33751   2.047   0.564   3.284  0.3109  0.0245  0.1852
 7372SOL    HW133752   2.131   0.547   3.328 -0.1479 -0.3041  0.9415
 7372SOL    HW233753   2.066   0.634   3.222  0.1635  1.2870  1.5760
 7373SOL     OW33754   0.763   0.436   6.537  0.3172  0.0948 -0.1316
 7373SOL    HW133755   0.818   0.379   6.591  0.3095  0.7848  0.6011
 7373SOL    HW233756   0.703   0.484   6.593  0.5633 -0.2298  0.4131
 7374SOL     OW33757   3.766   2.570   5.398 -0.4274  0.4036  0.6865
 7374SOL    HW133758   3.689   2.568   5.341 -2.0510 -0.8037  2.9108
 7374SOL    HW233759   3.785   2.479   5.419 -1.5416  0.5701  2.4504
 7375SOL     OW33760   2.179   1.706  16.079  0.1533 -0.0207 -0.0952
 7375SOL    HW133761   2.258   1.759  16.090  1.3053 -2.0574  1.4340
 7375SOL    HW233762   2.142   1.734  15.995 -2.4210  0.3345  1.1662
 7376SOL     OW33763   3.978   4.384   4.826  0.4504  0.3899 -0.8010
 7376SOL    HW133764   3.989   4.416   4.737 -2.7842 -0.3022 -1.4410
 7376SOL    HW233765   3.964   4.291   4.808  0.7864 -0.0866  1.3737
 7377SOL     OW33766   3.777   3.352   6.035  0.2701  1.0222  1.0394
 7377SOL    HW133767   3.759   3.297   6.111  0.1962  1.2432  1.1805
 7377SOL    HW233768   3.698   3.404   6.025 -0.7042 -0.5593  0.5195
 7378SOL     OW33769   3.441   0.457   9.529 -0.1960  0.1485  0.2818
 7378SOL    HW133770   3.394   0.538   9.549 -1.1413 -0.0731 -0.9975
 7378SOL    HW233771   3.380   0.397   9.486  2.2182  0.2543 -3.2916
 7379SOL     OW33772   4.336   0.098   2.598  0.1780 -0.7812  0.2434
 7379SOL    HW133773   4.415   0.057   2.562 -0.6576  0.7278 -3.3558
 7379SOL    HW233774   4.312   0.162   2.531 -1.0879 -0.4310  1.0383
 7380SOL     OW33775   1.618   2.646   8.031  0.0524 -0.1800 -0.2861
 7380SOL    HW133776   1.700   2.596   8.028  0.4474  0.3625  1.3229
 7380SOL    HW233777   1.627   2.707   7.957 -3.6974 -0.0273 -0.5791
 7381SOL     OW33778   1.644   3.228   8.088  0.0451  0.8815 -0.0778
 7381SOL    HW133779   1.569   3.198   8.037  0.3427 -1.0448  0.6074
 7381SOL    HW233780   1.612   3.179   8.163 -1.6677  0.2042 -1.2643
 7382SOL     OW33781   1.156   0.074  11.555 -0.3158  0.1190 -0.0746
 7382SOL    HW133782   1.089   0.127  11.511  0.6356  2.0043  0.7614
 7382SOL    HW233783   1.238   0.114  11.528 -0.5975 -0.9313 -2.5394
 7383SOL     OW33784   0.417   3.527   9.295  0.6447 -0.2776 -0.5057
 7383SOL    HW133785   0.386   3.582   9.223 -0.0890 -0.8603 -0.6347
 7383SOL    HW233786   0.438   3.584   9.369 -1.4708  0.1033 -0.2236
 7384SOL     OW33787   2.487   0.509   0.990  0.2594  0.4284 -0.5494
 7384SOL    HW133788   2.403   0.476   0.957 -1.1567  3.2351  0.1565
 7384SOL    HW233789   2.513   0.566   0.918  2.1105 -2.3179 -2.0259
 7385SOL     OW33790   3.633   1.998   4.627 -0.1083 -0.2081 -0.0568
 7385SOL    HW133791   3.606   2.008   4.718 -0.7083 -0.1539 -0.2367
 7385SOL    HW233792   3.618   1.905   4.610 -1.1106  0.2814 -1.9000
 7386SOL     OW33793   1.310   0.120  12.737  0.0360 -0.3996 -0.6542
 7386SOL    HW133794   1.313   0.130  12.832  2.6445  2.4943 -1.0251
 7386SOL    HW233795   1.357   0.201  12.719  0.4926 -0.6879 -0.7493
 7387SOL     OW33796   3.407   0.721   8.597 -0.4630 -0.0987  0.2873
 7387SOL    HW133797   3.461   0.657   8.551  1.8776  0.8832  1.6857
 7387SOL    HW233798   3.373   0.773   8.524 -2.1554 -0.1108  1.0723
 7388SOL     OW33799   1.434   3.202   4.182 -0.1826 -0.0754 -0.0222
 7388SOL    HW133800   1.373   3.270   4.151  0.5018  0.2206 -0.7312
 7388SOL    HW233801   1.467   3.157   4.104 -1.0928  1.4170 -1.2833
 7389SOL     OW33802   3.593   4.104   7.299 -0.4918  0.2220 -0.5191
 7389SOL    HW133803   3.681   4.130   7.327 -0.1999 -1.5465  0.2086
 7389SOL    HW233804   3.554   4.065   7.377 -1.0390  1.7822 -0.0330
 7390SOL     OW33805   3.476   0.383   7.078  0.0583  0.3428 -0.6902
 7390SOL    HW133806   3.527   0.453   7.038  0.8717 -0.2287 -0.6476
 7390SOL    HW233807   3.501   0.395   7.169  0.0167  0.9049 -0.7560
 7391SOL     OW33808   3.267   1.894  12.551  0.6939  0.2770  0.1876
 7391SOL    HW133809   3.313   1.821  12.509  1.6836  2.2931 -2.2061
 7391SOL    HW233810   3.311   1.970  12.514 -0.4095  0.0912 -1.5150
 7392SOL     OW33811   2.271   4.006   5.895  0.0816 -0.0832 -0.2257
 7392SOL    HW133812   2.237   4.083   5.940  0.8337  0.7938 -1.1592
 7392SOL    HW233813   2.362   4.023   5.873  0.4082 -2.1062 -0.4422
 7393SOL     OW33814   3.277   2.967  14.019 -0.4638 -0.4149 -0.5625
 7393SOL    HW133815   3.276   3.040  14.082 -0.7601  0.1216 -1.1874
 7393SOL    HW233816   3.366   2.946  13.991 -0.5607  1.5242 -2.3075
 7394SOL     OW33817   0.521   1.936   3.349  0.4838  0.4007 -0.0374
 7394SOL    HW133818   0.609   1.927   3.385  0.4532 -0.2928 -0.1494
 7394SOL    HW233819   0.529   2.013   3.293  1.1952 -0.3060 -0.8998
 7395SOL     OW33820   2.163   4.550   6.168 -0.0057  0.4502  0.7080
 7395SOL    HW133821   2.151   4.617   6.100 -1.4192  0.2149  0.7292
 7395SOL    HW233822   2.241   4.578   6.216 -1.0170  0.8223  2.1242
 7396SOL     OW33823   1.887   1.268   2.319 -0.0467 -0.0811 -0.1997
 7396SOL    HW133824   1.943   1.208   2.369 -2.3366 -1.2281  1.0028
 7396SOL    HW233825   1.929   1.353   2.333 -0.9391  0.1446  1.2075
 7397SOL     OW33826   2.909   4.461   7.633 -0.7302  0.7863  0.1371
 7397SOL    HW133827   2.925   4.520   7.706  1.9207 -2.4654  2.1768
 7397SOL    HW233828   2.913   4.529   7.566  0.4233  0.1400 -0.4501
 7398SOL     OW33829   2.722   3.524   7.211 -0.0884  0.8689  0.1518
 7398SOL    HW133830   2.795   3.535   7.150  0.3644 -0.7897  0.3934
 7398SOL    HW233831   2.645   3.547   7.159 -0.9245 -2.9031 -0.2707
 7399SOL     OW33832   4.076   1.222   1.859  0.1149 -0.0405 -0.0358
 7399SOL    HW133833   3.981   1.206   1.861 -0.1577  1.4424 -1.5869
 7399SOL    HW233834   4.093   1.268   1.777 -0.5992  0.1175 -0.0928
 7400SOL     OW33835   4.509   1.474   9.033 -0.8358  0.2664 -0.4927
 7400SOL    HW133836   4.436   1.425   9.071 -1.1393  0.0212 -1.3804
 7400SOL    HW233837   4.504   1.448   8.941 -0.8999  0.6880 -0.6062
 7401SOL     OW33838   0.033   0.097   3.999 -0.5338  0.3934 -0.3006
 7401SOL    HW133839   0.014   0.172   4.055 -0.5409 -0.1830  0.4560
 7401SOL    HW233840   4.735   0.037   4.063  0.3528  2.5401  2.2473
 7402SOL     OW33841   1.702   1.487   4.592 -0.4628  0.3448 -0.5989
 7402SOL    HW133842   1.682   1.501   4.685 -1.4152  3.5598 -1.2821
 7402SOL    HW233843   1.664   1.401   4.572 -0.0537  0.2277 -0.8767
 7403SOL     OW33844   4.592   0.388  12.021 -0.1737 -0.0286  0.4003
 7403SOL    HW133845   4.527   0.440  12.068 -0.2321  0.9943 -0.8065
 7403SOL    HW233846   4.559   0.300  12.040 -2.4352  0.3840 -1.6387
 7404SOL     OW33847   3.292   2.576   7.436 -0.3361  1.1367 -0.0347
 7404SOL    HW133848   3.385   2.557   7.426 -0.9071 -0.4362 -2.3413
 7404SOL    HW233849   3.250   2.492   7.449 -0.6915  1.7980  3.0335
 7405SOL     OW33850   2.411   1.878  16.162  0.0742  0.1229 -0.3374
 7405SOL    HW133851   2.490   1.911  16.205  0.5421  0.2995 -1.3347
 7405SOL    HW233852   2.348   1.947  16.179 -1.2080 -1.1893  0.2406
 7406SOL     OW33853   3.070   2.804   1.816  0.1177 -0.4162 -0.7624
 7406SOL    HW133854   3.041   2.730   1.870 -0.1430  0.5683  0.4589
 7406SOL    HW233855   3.112   2.760   1.742 -1.0269 -2.1918 -0.3711
 7407SOL     OW33856   0.138   1.691   5.888  0.0823 -0.4380  0.1976
 7407SOL    HW133857   0.177   1.633   5.823 -1.4915 -2.5447  1.1453
 7407SOL    HW233858   0.192   1.770   5.886  1.9515 -1.7325 -0.1984
 7408SOL     OW33859   2.513   2.052   8.693 -0.0468 -0.7984 -0.1769
 7408SOL    HW133860   2.566   2.028   8.617  0.1965  0.5517 -0.4308
 7408SOL    HW233861   2.469   2.136   8.680 -0.5766 -1.0591 -0.0862
 7409SOL     OW33862   0.704   4.592   6.745  0.9009  0.2286 -0.1412
 7409SOL    HW133863   0.782   4.646   6.753  2.5576 -2.3683  1.0436
 7409SOL    HW233864   0.735   4.518   6.797  0.5172  0.6849  0.7291
 7410SOL     OW33865   4.705   2.568  14.329 -0.3453  0.0450  0.0329
 7410SOL    HW133866   4.724   2.517  14.250  1.4635 -3.5011  2.7955
 7410SOL    HW233867   4.609   2.566  14.336 -0.3705 -1.1199 -0.5272
 7411SOL     OW33868   1.705   4.004   1.358 -0.0034 -0.4012  0.2566
 7411SOL    HW133869   1.793   4.028   1.328 -0.4141 -0.0897 -0.7036
 7411SOL    HW233870   1.647   4.055   1.302 -0.9208 -1.0348  0.6483
 7412SOL     OW33871   4.587   2.475   6.868  0.0547  0.2834  0.6985
 7412SOL    HW133872   4.673   2.493   6.830 -0.2314 -0.1616 -0.1627
 7412SOL    HW233873   4.558   2.409   6.804 -0.0833 -1.3089  2.3926
 7413SOL     OW33874   4.223   3.770  13.082  0.2772 -0.3192 -0.5369
 7413SOL    HW133875   4.218   3.807  13.170  0.8112 -1.8268  0.1220
 7413SOL    HW233876   4.175   3.687  13.092 -1.3149  0.3845 -2.2951
 7414SOL     OW33877   4.009   3.296   5.530 -0.7867  0.4157 -0.0879
 7414SOL    HW133878   3.961   3.311   5.611  0.8286 -1.1914  1.1351
 7414SOL    HW233879   3.991   3.376   5.480 -0.8530  0.5953  0.2287
 7415SOL     OW33880   0.320   1.193  17.085  0.2305  0.9563  0.3394
 7415SOL    HW133881   0.390   1.205  17.020  0.8760 -0.5120  0.7767
 7415SOL    HW233882   0.303   1.287  17.085 -2.3094  0.5249 -2.0394
 7416SOL     OW33883   0.067   1.753   8.721  0.1017 -0.1964  0.2984
 7416SOL    HW133884   4.722   1.782   8.687 -0.5472 -2.1849  0.1953
 7416SOL    HW233885   0.066   1.795   8.806 -0.5292 -0.0819  0.2349
 7417SOL     OW33886   3.803   4.378   5.333 -0.3481 -0.1124 -0.1791
 7417SOL    HW133887   3.847   4.372   5.417  0.2139  1.6685 -0.3413
 7417SOL    HW233888   3.800   4.473   5.321 -0.5565 -0.4292 -2.7163
 7418SOL     OW33889   4.051   1.603   1.680 -0.1446 -0.5936 -0.1947
 7418SOL    HW133890   4.129   1.646   1.715 -1.3344 -0.2775  2.0507
 7418SOL    HW233891   4.019   1.662   1.611  1.3223  1.6245  0.9980
 7419SOL     OW33892   1.854   1.186   4.591  0.0177  0.0971  0.3635
 7419SOL    HW133893   1.898   1.271   4.593  1.5581 -0.6290 -2.9951
 7419SOL    HW233894   1.797   1.186   4.668 -0.9883  1.6005 -0.3810
 7420SOL     OW33895   3.980   2.759   2.495  0.3381  0.0384 -0.2286
 7420SOL    HW133896   4.004   2.783   2.406 -0.0956 -0.3000 -0.4409
 7420SOL    HW233897   3.989   2.664   2.491 -1.2482 -0.0973 -0.7057
 7421SOL     OW33898   4.252   4.214   3.995 -0.7241 -0.3363  0.2530
 7421SOL    HW133899   4.248   4.228   4.090  0.1654  1.4688  0.0337
 7421SOL    HW233900   4.335   4.260   3.980  0.6929 -2.6437  1.1206
 7422SOL     OW33901   0.303   3.426   0.152 -0.5186 -0.1804  0.1176
 7422SOL    HW133902   0.277   3.359   0.089 -0.7732 -1.2855  1.3980
 7422SOL    HW233903   0.255   3.504   0.127  1.6365  1.2691  0.5404
 7423SOL     OW33904   4.220   1.118   7.069 -0.2936 -0.0324 -0.3374
 7423SOL    HW133905   4.177   1.188   7.117  0.8281  0.7518 -0.4687
 7423SOL    HW233906   4.144   1.105   7.011 -0.8572  2.1978 -0.0837
 7424SOL     OW33907   2.175   4.687   5.316  0.0362 -0.8005 -0.6352
 7424SOL    HW133908   2.247   0.003   5.287 -1.4293  1.0746 -0.6330
 7424SOL    HW233909   2.098   4.725   5.275  1.3485  0.6408 -1.7955
 7425SOL     OW33910   4.431   1.131  15.116 -0.3861  0.3728  0.1645
 7425SOL    HW133911   4.442   1.208  15.060  0.6846  0.1586  0.0812
 7425SOL    HW233912   4.495   1.149  15.186 -0.6766 -1.4614  0.8903
 7426SOL     OW33913   4.673   4.344  11.643  0.4184  1.1566  0.1416
 7426SOL    HW133914   4.727   4.285  11.590  0.7934  1.0988  0.5910
 7426SOL    HW233915   4.583   4.325  11.616  0.8401 -0.4667 -0.1019
 7427SOL     OW33916   4.677   3.465   4.810  0.3406  0.3618 -0.2763
 7427SOL    HW133917   4.732   3.535   4.846  1.9032 -1.0442  0.1051
 7427SOL    HW233918   4.594   3.511   4.801 -0.9364 -1.9624 -0.4702
 7428SOL     OW33919   0.920   3.038  12.191 -0.4897  1.0576 -0.3458
 7428SOL    HW133920   0.866   3.042  12.112  0.3823 -0.1445 -1.0156
 7428SOL    HW233921   1.001   3.029  12.141  1.3745  1.2925  2.6150
 7429SOL     OW33922   3.192   0.078   3.773 -0.1879  0.3080 -0.2177
 7429SOL    HW133923   3.191   0.158   3.721  0.7381 -0.4367 -1.3932
 7429SOL    HW233924   3.236   0.024   3.707 -0.1551  1.5716 -1.2215
 7430SOL     OW33925   3.882   2.277   0.169 -0.0547 -0.3789 -0.4270
 7430SOL    HW133926   3.852   2.357   0.127  0.3412 -1.3784 -2.5764
 7430SOL    HW233927   3.963   2.310   0.210  1.6311 -1.8355 -2.6121
 7431SOL     OW33928   0.641   2.344   3.031 -0.9726  0.1829  0.1682
 7431SOL    HW133929   0.629   2.355   2.937  0.1384  0.2935  0.0405
 7431SOL    HW233930   0.568   2.400   3.057 -1.1515 -0.0632  0.2075
 7432SOL     OW33931   2.355   0.736   4.097 -0.1512  1.0512 -0.8559
 7432SOL    HW133932   2.396   0.712   4.180 -0.8033 -3.5464 -1.8595
 7432SOL    HW233933   2.262   0.730   4.118  0.2204 -1.3629  0.0602
 7433SOL     OW33934   0.728   2.270   4.676 -0.1126 -0.5007  0.3961
 7433SOL    HW133935   0.654   2.261   4.737 -0.7553 -1.1458 -0.4826
 7433SOL    HW233936   0.678   2.274   4.594 -1.6469  1.6481  1.4145
 7434SOL     OW33937   1.721   3.543   7.731 -0.2237  0.4749 -0.1796
 7434SOL    HW133938   1.784   3.486   7.687  0.7880  0.0187  1.8271
 7434SOL    HW233939   1.733   3.537   7.826  0.5168  0.9704 -0.2408
 7435SOL     OW33940   1.169   3.080   1.694 -0.2637  0.0256  0.1389
 7435SOL    HW133941   1.190   3.064   1.602  2.0173  1.0065  0.4848
 7435SOL    HW233942   1.244   3.135   1.716  0.2650 -1.0010  0.9152
 7436SOL     OW33943   0.480   1.289   6.213  0.0697 -0.0850 -0.5441
 7436SOL    HW133944   0.571   1.315   6.206 -0.3332  1.1302 -1.3420
 7436SOL    HW233945   0.454   1.333   6.294 -1.4240 -2.0481  0.0469
 7437SOL     OW33946   0.159   1.550   3.573  0.4228 -0.4142  0.1284
 7437SOL    HW133947   0.094   1.606   3.615  1.4269  1.2213 -0.4892
 7437SOL    HW233948   0.134   1.539   3.481 -0.2382  1.1314  0.1154
 7438SOL     OW33949   2.712   0.069  11.406  0.4625  0.1579 -0.0793
 7438SOL    HW133950   2.786   0.127  11.425  0.1458  0.8992 -1.1364
 7438SOL    HW233951   2.684   0.061  11.497  2.3231  1.7573  0.6427
 7439SOL     OW33952   2.137   3.358   5.740  0.3472  0.4364 -0.4966
 7439SOL    HW133953   2.157   3.372   5.833 -1.0995  1.6418 -0.3760
 7439SOL    HW233954   2.221   3.385   5.702  1.8416 -0.8549  1.8816
 7440SOL     OW33955   0.918   0.387   0.697  0.2941 -0.0481 -0.1425
 7440SOL    HW133956   0.835   0.355   0.733  1.0801  1.8257  3.2779
 7440SOL    HW233957   0.959   0.306   0.667  1.0821  0.8182 -1.3745
 7441SOL     OW33958   2.442   4.565   6.137 -0.4946  0.2407  0.2244
 7441SOL    HW133959   2.401   4.501   6.078 -1.2511  0.9688 -0.0598
 7441SOL    HW233960   2.532   4.537   6.122  0.0036 -0.6338  4.8738
 7442SOL     OW33961   0.130   1.075   3.043 -0.1153 -0.3936 -0.3474
 7442SOL    HW133962   0.034   1.081   3.035  0.0878  0.3944 -2.0307
 7442SOL    HW233963   0.147   1.152   2.990 -1.6795 -0.1532 -0.5002
 7443SOL     OW33964   2.723   1.534   4.972 -1.1484 -0.7807  0.1769
 7443SOL    HW133965   2.767   1.520   4.888  0.6200  0.0070  0.9767
 7443SOL    HW233966   2.793   1.541   5.036 -0.9925  3.0061 -0.3873
 7444SOL     OW33967   4.082   0.012  12.236 -0.1441  0.1708 -0.5520
 7444SOL    HW133968   4.082   4.674  12.180  0.9283 -0.0622 -0.2238
 7444SOL    HW233969   4.160   4.739  12.290  1.2390 -0.3620 -2.6976
 7445SOL     OW33970   2.249   3.002   8.370 -0.0638  0.4130 -0.5320
 7445SOL    HW133971   2.269   2.941   8.299  2.3784  2.0790 -1.2595
 7445SOL    HW233972   2.268   2.948   8.446 -2.2743  0.8367  0.3261
 7446SOL     OW33973   1.132   4.326  14.442  0.0112 -0.0741  0.6127
 7446SOL    HW133974   1.193   4.289  14.506  0.7579  0.4922  0.2229
 7446SOL    HW233975   1.144   4.418  14.465  1.5153 -0.1318  0.0043
 7447SOL     OW33976   1.342   3.132  12.051  0.0691 -0.2477  0.2900
 7447SOL    HW133977   1.310   3.197  12.114 -0.2407 -0.2733  0.1570
 7447SOL    HW233978   1.260   3.091  12.023 -1.1218  1.2137  1.6235
 7448SOL     OW33979   2.199   0.456   0.919  0.1341  0.2328 -0.7790
 7448SOL    HW133980   2.151   0.402   0.982  0.4059 -0.5414 -1.2405
 7448SOL    HW233981   2.132   0.511   0.878 -0.0101 -0.9353 -2.0667
 7449SOL     OW33982   0.909   0.142  12.082 -0.7644  0.0894 -0.5686
 7449SOL    HW133983   0.960   0.208  12.129 -1.8925  0.1348  0.5695
 7449SOL    HW233984   0.938   0.157  11.992 -2.3720 -1.0535 -1.2692
 7450SOL     OW33985   4.374   4.136  12.545 -0.2543  0.0795 -0.3882
 7450SOL    HW133986   4.438   4.159  12.477 -0.1717 -0.5502 -0.5266
 7450SOL    HW233987   4.413   4.059  12.586  1.7742  0.8307 -0.9384
 7451SOL     OW33988   2.966   0.954  11.174 -0.2496  0.3033 -0.0959
 7451SOL    HW133989   3.040   0.994  11.220  0.4537 -0.9289 -0.1479
 7451SOL    HW233990   2.934   0.903  11.248 -1.6684 -0.8202 -1.4914
 7452SOL     OW33991   2.097   4.388   3.635 -0.2531  0.1459  0.2205
 7452SOL    HW133992   2.109   4.434   3.552  1.5100 -2.6151 -1.0463
 7452SOL    HW233993   2.173   4.419   3.684 -1.0677  2.3844  0.0691
 7453SOL     OW33994   0.590   1.425   5.676 -0.0624  0.7521 -0.0001
 7453SOL    HW133995   0.550   1.453   5.594  1.3283  1.4598 -0.4412
 7453SOL    HW233996   0.681   1.429   5.646 -0.5780  0.6578 -1.5764
 7454SOL     OW33997   0.123   4.213   7.421  0.0107 -0.4793  0.3812
 7454SOL    HW133998   0.151   4.245   7.507  0.0669  1.9876 -0.5451
 7454SOL    HW233999   0.036   4.175   7.436 -0.3769 -0.2074 -1.2180
 7455SOL     OW34000   0.028   3.418   0.400  0.2475 -0.1916 -0.3929
 7455SOL    HW134001   0.083   3.496   0.394 -1.3755  1.1266  1.6632
 7455SOL    HW234002   4.708   3.425   0.326  0.1158 -0.9782 -0.3606
 7456SOL     OW34003   4.376   1.761   9.474 -0.3671 -0.3189 -0.4861
 7456SOL    HW134004   4.286   1.736   9.497 -0.2207  1.2203  1.8081
 7456SOL    HW234005   4.377   1.772   9.379 -2.0031  1.5464 -0.2971
 7457SOL     OW34006   3.625   2.779   7.184 -0.3068  0.0726 -0.0001
 7457SOL    HW134007   3.537   2.743   7.188 -0.5026  0.5709  0.2623
 7457SOL    HW234008   3.668   2.730   7.254 -2.5061 -0.1765  1.1546
 7458SOL     OW34009   0.180   4.163   8.807  0.3719 -0.3458  0.4109
 7458SOL    HW134010   0.130   4.138   8.884  1.4349  0.4301  1.3518
 7458SOL    HW234011   0.264   4.193   8.841  1.5816 -0.2880 -2.6158
 7459SOL     OW34012   0.588   0.985   9.668  0.0821 -0.4268  0.0432
 7459SOL    HW134013   0.504   1.029   9.653  0.5998  0.7829  0.6797
 7459SOL    HW234014   0.646   1.061   9.667  1.3338 -1.4342 -1.8156
 7460SOL     OW34015   0.167   1.041   7.010 -0.1297 -0.0010  0.1143
 7460SOL    HW134016   0.209   0.986   6.944  1.3837  0.5476  0.5980
 7460SOL    HW234017   0.083   1.063   6.970 -0.6439 -2.0885  0.0877
 7461SOL     OW34018   3.238   1.746   6.853  0.2433  0.0614 -0.2687
 7461SOL    HW134019   3.331   1.749   6.874 -0.2181  1.8097  1.5195
 7461SOL    HW234020   3.201   1.834   6.851  1.2424  0.4925  0.4037
 7462SOL     OW34021   3.267   0.121  12.638 -0.0032 -0.2929  0.6659
 7462SOL    HW134022   3.272   0.085  12.726  0.1884  0.2837  0.8935
 7462SOL    HW234023   3.199   0.187  12.651  0.9990  1.1364 -1.3242
 7463SOL     OW34024   2.122   3.741   7.840 -0.1137  0.3256 -0.0364
 7463SOL    HW134025   2.084   3.680   7.904  0.5519 -0.2459 -0.1870
 7463SOL    HW234026   2.060   3.814   7.846 -0.5804 -0.1384  0.7305
 7464SOL     OW34027   2.263   3.114   6.841  0.4507  0.1765 -0.5485
 7464SOL    HW134028   2.338   3.173   6.842  1.3011 -0.9620  2.6860
 7464SOL    HW234029   2.274   3.103   6.935  0.9356 -0.6298 -0.7092
 7465SOL     OW34030   4.121   4.524  16.242  0.5107 -0.3646  0.3809
 7465SOL    HW134031   4.032   4.552  16.266  0.2891 -0.4182 -0.3865
 7465SOL    HW234032   4.157   4.554  16.326  0.8966  1.3463 -0.4141
 7466SOL     OW34033   1.967   0.777   7.992 -0.1554  0.2392 -0.0257
 7466SOL    HW134034   1.940   0.816   8.075  0.9920 -0.2938  0.6069
 7466SOL    HW234035   1.886   0.727   7.979  0.5545 -1.1847  0.9295
 7467SOL     OW34036   4.656   0.681  16.796 -0.3573  0.8264 -0.1681
 7467SOL    HW134037   4.682   0.639  16.714  0.9313  2.3265 -0.5344
 7467SOL    HW234038   4.732   0.737  16.815  0.6244 -0.8590  0.8657
 7468SOL     OW34039   2.676   0.151   8.160  0.2607 -0.2192  0.4023
 7468SOL    HW134040   2.764   0.170   8.129 -0.8097 -1.8413 -3.7350
 7468SOL    HW234041   2.642   0.149   8.070 -2.8909  3.1205  1.5182
 7469SOL     OW34042   3.235   2.841   3.639 -0.2247  0.1521  0.1855
 7469SOL    HW134043   3.265   2.807   3.554  0.7864 -2.2688  1.5124
 7469SOL    HW234044   3.218   2.931   3.611 -2.6259  0.7470  3.5816
 7470SOL     OW34045   1.868   4.160   9.038 -0.2825  0.1415  0.1162
 7470SOL    HW134046   1.897   4.207   9.116  0.7227 -0.2325 -0.0295
 7470SOL    HW234047   1.773   4.157   9.051 -0.6780 -0.3508 -2.9546
 7471SOL     OW34048   2.255   2.449  17.502 -0.0194 -0.0281  0.2289
 7471SOL    HW134049   2.161   2.457  17.485 -0.4551  0.9058  3.0287
 7471SOL    HW234050   2.250   2.413  17.590  1.1039 -2.4098 -0.7128
 7472SOL     OW34051   4.293   2.227   1.886  0.3268 -0.0883 -0.0606
 7472SOL    HW134052   4.308   2.317   1.915 -1.9231  0.2715  0.0211
 7472SOL    HW234053   4.200   2.230   1.860  0.4765  0.3903 -0.5538
 7473SOL     OW34054   2.664   1.684   5.832 -0.0973 -0.1347 -0.1812
 7473SOL    HW134055   2.658   1.665   5.926  0.2331  0.9015  0.0498
 7473SOL    HW234056   2.751   1.654   5.806  0.9307  0.5281  2.4404
 7474SOL     OW34057   0.861   1.989   6.536 -0.1426  0.1923 -0.1271
 7474SOL    HW134058   0.870   1.975   6.442  3.0039  0.9352  0.0603
 7474SOL    HW234059   0.946   2.029   6.557  0.9312 -0.9804 -2.2449
 7475SOL     OW34060   0.873   3.440   1.693  0.1026  0.4933  0.2984
 7475SOL    HW134061   0.943   3.500   1.668  0.3763  0.4839  1.0446
 7475SOL    HW234062   0.835   3.418   1.608 -1.3941  0.7336  0.9130
 7476SOL     OW34063   4.410   0.009   5.292  0.4377 -0.3205 -0.0228
 7476SOL    HW134064   4.408   4.657   5.268  0.8131 -0.6747  1.3314
 7476SOL    HW234065   4.433   0.056   5.211  0.8783 -0.4951  0.0014
 7477SOL     OW34066   4.368   1.358  13.344 -0.0665 -0.2419 -0.0976
 7477SOL    HW134067   4.306   1.366  13.271 -0.6302  0.1543  0.4168
 7477SOL    HW234068   4.400   1.448  13.355 -1.3326  0.2646 -0.5254
 7478SOL     OW34069   3.671   2.643   6.914 -0.0687 -0.2136 -0.6923
 7478SOL    HW134070   3.577   2.648   6.930  0.1297 -1.8629  0.9475
 7478SOL    HW234071   3.697   2.658   7.005 -0.6473 -0.4520 -0.4898
 7479SOL     OW34072   2.266   1.624   0.945 -0.5940 -0.1554 -1.0082
 7479SOL    HW134073   2.316   1.658   1.020 -1.0239 -3.7682  0.9038
 7479SOL    HW234074   2.300   1.535   0.937 -1.4177 -0.3472 -2.4028
 7480SOL     OW34075   0.006   0.847  16.356 -0.4754  0.1416 -0.4247
 7480SOL    HW134076   4.726   0.941  16.359 -4.2213 -0.7597  2.2019
 7480SOL    HW234077   0.080   0.851  16.417  1.2215 -0.5794 -2.4108
 7481SOL     OW34078   0.106   4.531   2.790 -0.1789 -0.3738  0.5625
 7481SOL    HW134079   0.125   4.552   2.698 -0.0893 -0.7377  0.4973
 7481SOL    HW234080   0.051   4.453   2.781 -1.4017  0.5595 -0.1837
 7482SOL     OW34081   0.765   2.388   2.574  0.5135  0.0493  0.2979
 7482SOL    HW134082   0.811   2.428   2.501  1.9880 -3.1849 -0.5608
 7482SOL    HW234083   0.830   2.406   2.642 -0.1870  0.7993  0.7715
 7483SOL     OW34084   3.778   0.487   3.826  0.6219 -0.1317 -0.4396
 7483SOL    HW134085   3.792   0.402   3.786  2.5305 -0.2049  0.4057
 7483SOL    HW234086   3.684   0.482   3.846  0.3666  3.7706 -0.6906
 7484SOL     OW34087   1.736   0.460   5.977 -0.3427  0.2147  0.3060
 7484SOL    HW134088   1.701   0.499   6.057  1.7252 -0.2099  1.4284
 7484SOL    HW234089   1.830   0.447   5.995  0.0048  1.0891 -0.9374
 7485SOL     OW34090   1.843   2.131   8.216  0.0692  0.1256  0.6350
 7485SOL    HW134091   1.779   2.198   8.238 -0.3048  0.3067 -1.0124
 7485SOL    HW234092   1.794   2.055   8.247  1.1713 -0.4180  1.0635
 7486SOL     OW34093   0.851   1.673   8.110  0.1963 -0.6023  0.0530
 7486SOL    HW134094   0.876   1.600   8.052  1.1628 -0.9608  0.9148
 7486SOL    HW234095   0.756   1.662   8.110  0.0370  0.7993 -0.6498
 7487SOL     OW34096   2.768   4.676   2.128 -0.1665  0.0949  0.1076
 7487SOL    HW134097   2.696   4.736   2.145  1.2945  1.9592 -0.3761
 7487SOL    HW234098   2.788   4.690   2.036  0.7731  0.1936  0.3251
 7488SOL     OW34099   2.037   4.455   4.510 -0.1657  0.1461  0.1559
 7488SOL    HW134100   2.012   4.483   4.422 -0.3176 -0.7108 -0.0760
 7488SOL    HW234101   2.003   4.366   4.512  0.7949 -0.2573 -2.3192
 7489SOL     OW34102   1.924   2.636   4.544  0.2531 -0.5300 -0.1023
 7489SOL    HW134103   2.009   2.679   4.548  0.3398 -0.5718 -1.6655
 7489SOL    HW234104   1.911   2.645   4.450 -0.4444 -2.0131 -0.1485
 7490SOL     OW34105   0.970   3.562   1.172 -0.5440  0.4348  0.5011
 7490SOL    HW134106   0.958   3.649   1.136 -2.7231 -1.2645 -2.8866
 7490SOL    HW234107   1.065   3.550   1.161 -0.6415  2.1672 -2.0879
 7491SOL     OW34108   1.492   0.473   5.371  0.5471  0.0965 -0.3700
 7491SOL    HW134109   1.493   0.423   5.452  0.1460  3.5799  1.7720
 7491SOL    HW234110   1.429   0.543   5.391 -0.6679 -0.9159 -0.6889
 7492SOL     OW34111   2.483   0.633  16.378  0.6931  0.1928 -0.6769
 7492SOL    HW134112   2.534   0.605  16.301 -0.3948 -0.1349 -1.2802
 7492SOL    HW234113   2.512   0.568  16.442 -0.2878  1.9507  1.5371
 7493SOL     OW34114   4.051   0.476   8.629  0.1770 -0.0536  0.2542
 7493SOL    HW134115   4.108   0.549   8.654  1.1198 -0.8859  0.5558
 7493SOL    HW234116   4.059   0.417   8.704  0.1123 -1.1185 -0.5737
 7494SOL     OW34117   2.252   3.229   3.529 -0.3372 -0.4428 -0.0046
 7494SOL    HW134118   2.310   3.305   3.529 -0.4241 -0.3812 -0.9628
 7494SOL    HW234119   2.319   3.168   3.499 -0.7977 -0.6026 -0.7081
 7495SOL     OW34120   4.381   0.727   6.614  0.3130  0.6416 -0.4324
 7495SOL    HW134121   4.439   0.774   6.554 -0.9036  1.1039 -1.2458
 7495SOL    HW234122   4.411   0.746   6.703  1.5978  1.7344 -1.0988
 7496SOL     OW34123   1.395   3.658   2.025 -0.0288  0.0495  0.0551
 7496SOL    HW134124   1.457   3.644   1.953  0.3562  0.1591  0.3619
 7496SOL    HW234125   1.332   3.726   2.001  0.6665  0.2395 -1.2287
 7497SOL     OW34126   0.997   4.503   4.803  0.7887  0.1614 -0.0161
 7497SOL    HW134127   0.977   4.588   4.841 -1.3176  0.4109 -1.7519
 7497SOL    HW234128   1.053   4.532   4.731 -0.9187  2.5041 -0.3839
 7498SOL     OW34129   0.979   2.112   2.258 -0.6934 -0.3480 -0.1091
 7498SOL    HW134130   1.067   2.127   2.223 -0.6977  3.1613  1.3246
 7498SOL    HW234131   0.996   2.127   2.351  0.3426  1.5316 -0.5994
 7499SOL     OW34132   3.202   3.840   1.719 -0.1402 -0.4918 -0.9666
 7499SOL    HW134133   3.143   3.825   1.646 -0.8172 -1.2325 -0.2604
 7499SOL    HW234134   3.207   3.935   1.726  0.5507 -0.5115 -1.1101
 7500SOL     OW34135   0.846   0.532   4.609  0.1375  0.0154 -0.2643
 7500SOL    HW134136   0.800   0.523   4.693  0.4913  0.6860 -0.0004
 7500SOL    HW234137   0.834   0.623   4.583  0.3991 -0.5672 -2.4325
 7501SOL     OW34138   2.356   2.462   9.745 -0.1830  0.6486  0.2016
 7501SOL    HW134139   2.408   2.543   9.745  1.2338 -0.2370 -4.2532
 7501SOL    HW234140   2.305   2.473   9.665 -2.2094 -1.8945  1.1562
 7502SOL     OW34141   1.465   3.891   6.519  0.1282  0.3423  0.0932
 7502SOL    HW134142   1.421   3.905   6.602 -1.5192  2.3267 -1.1233
 7502SOL    HW234143   1.530   3.960   6.527  1.5603 -0.9881  0.0269
 7503SOL     OW34144   0.582   2.356  14.413 -0.8319 -0.4426 -0.0372
 7503SOL    HW134145   0.605   2.447  14.395  1.0500 -0.3565  2.6754
 7503SOL    HW234146   0.517   2.346  14.344 -2.0190 -0.7068  1.1243
 7504SOL     OW34147   2.684   4.396   7.149  0.1558 -0.3792 -0.2684
 7504SOL    HW134148   2.768   4.350   7.150  0.8361  0.8668 -0.3692
 7504SOL    HW234149   2.678   4.430   7.238  1.3745 -0.6133 -0.0986
 7505SOL     OW34150   3.478   4.476   9.016 -0.3048  0.2977  0.1250
 7505SOL    HW134151   3.417   4.452   8.946  2.5853 -2.4253 -1.4563
 7505SOL    HW234152   3.496   4.386   9.044  2.7054  0.7992 -0.1774
 7506SOL     OW34153   0.398   0.936  15.781  0.2915  0.5287 -0.2201
 7506SOL    HW134154   0.471   0.978  15.827 -0.1347  1.1964 -0.1625
 7506SOL    HW234155   0.409   0.841  15.775 -0.9197  0.4200 -0.7247
 7507SOL     OW34156   4.315   1.948   3.376 -0.0788  0.4914  0.1603
 7507SOL    HW134157   4.255   1.901   3.434 -1.3740  2.0659  0.0898
 7507SOL    HW234158   4.372   1.875   3.353 -1.4218 -0.5328  0.0541
 7508SOL     OW34159   2.511   4.286   5.192  0.7190 -0.3394 -0.2596
 7508SOL    HW134160   2.467   4.348   5.250 -0.5173 -1.0462 -0.4454
 7508SOL    HW234161   2.466   4.211   5.230  2.0454 -0.7629  0.4472
 7509SOL     OW34162   3.031   0.214   4.829 -0.0126 -0.2207  0.0913
 7509SOL    HW134163   3.086   0.145   4.864  1.9520  2.1705  1.6588
 7509SOL    HW234164   3.082   0.291   4.801 -0.6569 -0.2662 -1.2131
 7510SOL     OW34165   4.343   3.553   3.754  0.1427  0.1276 -0.3412
 7510SOL    HW134166   4.300   3.517   3.677  0.5383 -0.8390 -0.1018
 7510SOL    HW234167   4.287   3.531   3.829 -0.8107 -4.2435 -2.3973
 7511SOL     OW34168   3.437   4.036   8.118 -0.0075  0.3238 -0.9018
 7511SOL    HW134169   3.477   4.121   8.139 -1.0976  0.3659  1.0192
 7511SOL    HW234170   3.480   3.981   8.183 -2.3521  0.6086  0.8917
 7512SOL     OW34171   3.212   1.961   8.159  0.2124  0.1403  0.2629
 7512SOL    HW134172   3.284   1.968   8.222  0.7657 -2.2853 -0.0947
 7512SOL    HW234173   3.182   2.051   8.160  0.3436  0.1740  0.8866
 7513SOL     OW34174   2.626   1.351  16.680  0.0239 -0.1109 -0.0206
 7513SOL    HW134175   2.623   1.279  16.744 -0.2330  0.5925  0.7538
 7513SOL    HW234176   2.532   1.368  16.671  0.1758  1.5511  1.5480
 7514SOL     OW34177   0.122   1.972  13.448 -0.0807 -0.1894 -0.1671
 7514SOL    HW134178   0.160   1.948  13.363  0.1978 -0.0521 -0.0815
 7514SOL    HW234179   0.049   1.910  13.444 -0.1962 -0.2024  2.1776
 7515SOL     OW34180   1.823   0.595   7.362  0.1976  0.2444 -0.2279
 7515SOL    HW134181   1.827   0.507   7.325  1.6100  1.8529 -3.8607
 7515SOL    HW234182   1.836   0.574   7.454 -2.5622 -0.3993  0.0310
 7516SOL     OW34183   1.368   2.570   8.609 -0.0326 -0.3208 -0.2726
 7516SOL    HW134184   1.369   2.515   8.531 -2.9029 -0.3728 -0.2436
 7516SOL    HW234185   1.361   2.503   8.678 -0.1881  2.2374  2.2008
 7517SOL     OW34186   0.346   3.962   5.316 -0.1716 -0.7083 -0.3976
 7517SOL    HW134187   0.410   3.897   5.346 -1.1589 -1.2964  0.4418
 7517SOL    HW234188   0.362   3.962   5.222 -0.2464  0.5423 -0.4003
 7518SOL     OW34189   1.055   4.246  14.753  1.1466 -0.1432  0.1268
 7518SOL    HW134190   1.124   4.307  14.780 -0.6210  1.1160  1.8212
 7518SOL    HW234191   1.103   4.165  14.739  0.1144 -0.9705  1.2709
 7519SOL     OW34192   1.847   1.760   8.900  0.2287 -0.2580 -0.2895
 7519SOL    HW134193   1.860   1.831   8.838 -0.5325  0.6002  0.5462
 7519SOL    HW234194   1.830   1.808   8.981  2.3839 -1.1587  0.6988
 7520SOL     OW34195   0.304   3.722   8.669 -0.0206  0.2527 -0.2328
 7520SOL    HW134196   0.399   3.713   8.654  0.0018 -0.6209  0.4219
 7520SOL    HW234197   0.301   3.817   8.667  1.0678  0.2717 -1.2255
 7521SOL     OW34198   2.440   0.272  16.343  0.3033  0.4107  0.0603
 7521SOL    HW134199   2.520   0.253  16.392 -0.2609  0.1770  0.8879
 7521SOL    HW234200   2.473   0.337  16.281  0.3520  1.6837  1.4375
 7522SOL     OW34201   3.510   2.479   7.800 -0.3877 -0.3156  0.6098
 7522SOL    HW134202   3.563   2.447   7.872 -1.7625 -1.8859  0.9402
 7522SOL    HW234203   3.463   2.550   7.842  3.8094  2.6196  0.2899
 7523SOL     OW34204   0.915   4.472   3.242  0.3148 -1.0304  0.1480
 7523SOL    HW134205   0.914   4.504   3.152 -0.6726  1.2340  0.9676
 7523SOL    HW234206   0.866   4.538   3.291  0.9819 -0.0448 -0.5100
 7524SOL     OW34207   2.593   1.023   8.593 -0.5004 -0.0009  0.1227
 7524SOL    HW134208   2.568   1.074   8.516  2.4240  0.8275 -0.2684
 7524SOL    HW234209   2.680   1.058   8.610 -0.8963 -0.5199  3.2302
 7525SOL     OW34210   3.113   2.011   5.210 -0.5444  0.0433 -0.1837
 7525SOL    HW134211   3.203   1.984   5.228 -0.3515 -0.7761 -2.3883
 7525SOL    HW234212   3.081   1.947   5.147  0.9193 -1.5951  0.7223
 7526SOL     OW34213   3.902   4.699   3.563  0.8302 -0.5442 -0.1727
 7526SOL    HW134214   3.878   4.615   3.524 -0.4843 -0.1707 -0.1758
 7526SOL    HW234215   3.937   4.666   3.646  1.4433  0.7032  0.0583
 7527SOL     OW34216   1.647   0.609   6.201 -0.4097  0.4738 -0.3893
 7527SOL    HW134217   1.584   0.537   6.206  2.6749 -2.1565  1.1193
 7527SOL    HW234218   1.605   0.686   6.240  1.8460  0.8709  1.2641
 7528SOL     OW34219   4.169   4.006   0.644 -0.5389 -0.9173  0.0804
 7528SOL    HW134220   4.262   3.986   0.638 -0.7285 -2.0537  1.0078
 7528SOL    HW234221   4.156   4.055   0.725 -2.2259 -0.2352 -0.6143
 7529SOL     OW34222   1.426   1.880   6.169  0.1231 -0.2822 -0.0347
 7529SOL    HW134223   1.360   1.873   6.100  0.3859  2.6312 -0.5964
 7529SOL    HW234224   1.508   1.858   6.126  0.2755  0.1823  0.0160
 7530SOL     OW34225   2.290   4.184   6.597 -0.2895 -0.7559 -0.2451
 7530SOL    HW134226   2.277   4.118   6.665  0.9699 -0.1869  0.5407
 7530SOL    HW234227   2.275   4.264   6.647 -0.0028 -1.1372  0.4481
 7531SOL     OW34228   3.278   3.781  15.387  0.3348 -0.5887 -0.0881
 7531SOL    HW134229   3.238   3.732  15.458  0.0223  0.7566  0.6605
 7531SOL    HW234230   3.315   3.853  15.438  0.5489  0.7935 -2.1633
 7532SOL     OW34231   0.969   0.896   4.522  0.5216 -0.0583  0.4692
 7532SOL    HW134232   0.971   0.989   4.541 -0.4983  0.3334 -1.4034
 7532SOL    HW234233   0.877   0.879   4.541  1.1204 -1.8586  1.8044
 7533SOL     OW34234   2.168   4.726   8.247  0.0514 -0.1120 -0.6151
 7533SOL    HW134235   2.215   0.056   8.201  2.4300 -0.6940  0.9417
 7533SOL    HW234236   2.200   0.006   8.335  0.5623  0.2577 -0.8847
 7534SOL     OW34237   0.802   0.182   6.386 -0.1342  1.0036  1.0940
 7534SOL    HW134238   0.866   0.217   6.324 -0.1776  1.3126  1.2225
 7534SOL    HW234239   0.805   0.257   6.446  0.0991  1.4813  0.4882
 7535SOL     OW34240   4.725   2.837  12.945  0.8467  0.2161  0.5093
 7535SOL    HW134241   0.010   2.924  12.913  1.8724 -0.4647 -0.5515
 7535SOL    HW234242   0.026   2.799  12.868 -0.3244 -0.1610  0.0639
 7536SOL     OW34243   4.388   2.032  12.961  0.1958  0.9229 -0.0941
 7536SOL    HW134244   4.476   2.021  12.997 -0.0685  1.1687  0.6154
 7536SOL    HW234245   4.384   2.126  12.947  0.8941  1.6040  4.3794
 7537SOL     OW34246   2.229   3.707  10.653 -0.0120  0.0796 -0.3019
 7537SOL    HW134247   2.228   3.727  10.560 -0.1262  1.4828 -0.0025
 7537SOL    HW234248   2.303   3.753  10.692 -0.6841  1.1920 -0.3369
 7538SOL     OW34249   4.046   2.275   2.531 -0.3433 -0.1905 -0.4857
 7538SOL    HW134250   4.102   2.301   2.604 -1.3686  2.4285 -0.6211
 7538SOL    HW234251   3.963   2.251   2.571  0.0225  0.1603  0.4879
 7539SOL     OW34252   3.872   2.831   3.141 -0.7714  0.1513 -0.9910
 7539SOL    HW134253   3.818   2.906   3.164  0.0828 -0.3339  2.5365
 7539SOL    HW234254   3.825   2.758   3.183  4.0435 -1.2079  2.0126
 7540SOL     OW34255   1.405   3.718   6.321  0.2176 -0.4738  0.3844
 7540SOL    HW134256   1.494   3.683   6.316 -0.0182 -0.8812 -0.9306
 7540SOL    HW234257   1.411   3.792   6.382 -0.8129  0.6815 -0.9197
 7541SOL     OW34258   4.300   3.650   1.864  0.0731 -0.0963  0.0608
 7541SOL    HW134259   4.389   3.650   1.900 -0.0198  0.6465  0.2675
 7541SOL    HW234260   4.313   3.716   1.796  0.0740 -2.6943 -2.4935
 7542SOL     OW34261   0.707   2.029   5.104 -1.0771 -0.2842 -0.4983
 7542SOL    HW134262   0.789   2.059   5.142 -2.9046  0.2582  3.0122
 7542SOL    HW234263   0.733   2.041   5.012 -0.3206 -1.1523 -0.3885
 7543SOL     OW34264   2.945   1.896   7.900  0.1669  0.0197 -0.3279
 7543SOL    HW134265   2.879   1.960   7.922  0.0537 -0.8863  1.9667
 7543SOL    HW234266   2.909   1.859   7.819  0.3153 -2.9154  0.9286
 7544SOL     OW34267   3.162   4.353   2.742  0.2121  0.2585  0.4349
 7544SOL    HW134268   3.100   4.344   2.670  1.5046  0.1786 -0.6817
 7544SOL    HW234269   3.117   4.402   2.811  1.1774  0.0240  1.2319
 7545SOL     OW34270   0.627   1.733  14.716  0.4892 -0.0682 -0.2861
 7545SOL    HW134271   0.720   1.729  14.695  0.9232  0.9419  1.4757
 7545SOL    HW234272   0.610   1.827  14.711  0.5168 -0.0901 -0.8691
 7546SOL     OW34273   0.367   0.938  13.545 -0.8446 -0.0809 -0.4217
 7546SOL    HW134274   0.441   0.876  13.548 -0.4664  0.4059  0.1555
 7546SOL    HW234275   0.410   1.020  13.519  0.0684 -0.8198 -1.2711
 7547SOL     OW34276   3.514   2.724   1.535  0.3997 -0.1923  0.3234
 7547SOL    HW134277   3.524   2.653   1.471  1.8181  0.6844 -0.4358
 7547SOL    HW234278   3.595   2.773   1.518  0.4546 -0.2636  0.3830
 7548SOL     OW34279   3.874   1.995   4.923 -0.0018 -0.1091  0.1007
 7548SOL    HW134280   3.859   2.085   4.950 -1.1460 -0.3483  0.2393
 7548SOL    HW234281   3.780   1.985   4.908  0.2769  0.2977 -1.8818
 7549SOL     OW34282   0.670   3.884   5.126 -0.0503  0.2319 -0.0218
 7549SOL    HW134283   0.749   3.924   5.162  1.2128  1.8688 -4.6688
 7549SOL    HW234284   0.699   3.838   5.047 -1.7190  0.8489 -0.9839
 7550SOL     OW34285   0.165   4.681   7.723  0.0729  0.2003  0.1977
 7550SOL    HW134286   0.096   4.727   7.772 -1.8551 -0.6358 -1.7635
 7550SOL    HW234287   0.136   4.591   7.735 -3.7681  1.5420  1.1264
 7551SOL     OW34288   3.108   4.380  16.977  0.3455 -0.9843  0.5850
 7551SOL    HW134289   3.130   4.323  17.051  0.4636 -2.5479 -0.6513
 7551SOL    HW234290   3.177   4.356  16.916  1.0259  1.9178  0.2566
 7552SOL     OW34291   4.290   4.335   9.432 -0.2166 -0.4194 -0.0122
 7552SOL    HW134292   4.236   4.264   9.397  1.0860 -1.5914  0.3940
 7552SOL    HW234293   4.233   4.355   9.507 -0.6284 -0.7467 -0.2414
 7553SOL     OW34294   0.812   2.138   9.340 -0.2282  0.3290  0.2320
 7553SOL    HW134295   0.859   2.217   9.314 -1.8032  1.1605 -0.1119
 7553SOL    HW234296   0.872   2.071   9.308 -0.1502  0.0491  0.9753
 7554SOL     OW34297   3.282   4.495   8.534  0.2397 -0.3019 -0.1991
 7554SOL    HW134298   3.367   4.516   8.495 -0.8109  1.9369 -1.2869
 7554SOL    HW234299   3.258   4.428   8.470 -1.0646  1.0929 -1.1651
 7555SOL     OW34300   1.724   2.774   2.601 -0.2903 -0.0424 -0.2107
 7555SOL    HW134301   1.796   2.822   2.642  1.1681 -0.1419 -2.6763
 7555SOL    HW234302   1.679   2.749   2.682 -0.8570 -0.5250 -0.6739
 7556SOL     OW34303   0.627   2.645   1.646  0.1742  0.0807 -0.6181
 7556SOL    HW134304   0.653   2.706   1.578  0.1545 -0.1402 -0.8253
 7556SOL    HW234305   0.584   2.705   1.706 -1.8419 -1.1545 -0.8190
 7557SOL     OW34306   3.485   1.508   8.045  0.8416 -1.0672 -0.2128
 7557SOL    HW134307   3.487   1.590   7.995  2.3629 -0.8465  0.2125
 7557SOL    HW234308   3.522   1.445   7.983 -2.4562 -0.6359 -2.6310
 7558SOL     OW34309   3.897   4.289   1.575  0.1088  0.3602  0.0833
 7558SOL    HW134310   3.830   4.234   1.535 -0.0658 -0.8741  2.0469
 7558SOL    HW234311   3.875   4.287   1.668  0.4086  0.1951  0.1532
 7559SOL     OW34312   4.266   4.245   3.579 -0.5659  0.4036  0.2921
 7559SOL    HW134313   4.263   4.196   3.662 -2.1806 -0.8014 -0.4782
 7559SOL    HW234314   4.356   4.275   3.582 -0.2851 -0.3505 -0.6456
 7560SOL     OW34315   0.658   2.026  15.101 -0.8906 -0.1414 -0.7867
 7560SOL    HW134316   0.645   1.935  15.128  1.3921 -0.6786 -1.4299
 7560SOL    HW234317   0.588   2.070  15.148 -0.3427 -0.8820  0.7329
 7561SOL     OW34318   2.751   1.351   8.699  0.4031  0.1932 -0.5067
 7561SOL    HW134319   2.820   1.403   8.740  1.0595 -1.9118  1.1270
 7561SOL    HW234320   2.725   1.416   8.634  2.3341 -2.1590 -3.6417
 7562SOL     OW34321   1.919   2.389  16.221  0.1033 -0.3226  0.0364
 7562SOL    HW134322   1.880   2.306  16.249  3.5680 -0.5879  4.1704
 7562SOL    HW234323   1.999   2.394  16.273 -0.9144 -0.3860  1.6208
 7563SOL     OW34324   3.108   1.018  13.689 -0.0609 -0.2997 -0.1125
 7563SOL    HW134325   3.031   1.016  13.633 -2.7538  1.7561  3.4640
 7563SOL    HW234326   3.100   1.105  13.727  0.8483 -0.2835  0.0298
 7564SOL     OW34327   0.733   3.880   2.460  0.1262 -0.1188 -0.1092
 7564SOL    HW134328   0.658   3.939   2.470  1.3854  1.2749  1.0855
 7564SOL    HW234329   0.765   3.885   2.550 -1.4570 -0.4779  0.4851
 7565SOL     OW34330   4.733   1.279   5.584  0.3900 -0.0349  0.6879
 7565SOL    HW134331   4.735   1.361   5.634 -1.1651 -0.8877  2.1526
 7565SOL    HW234332   4.677   1.225   5.641  2.1394 -1.8375  0.6860
 7566SOL     OW34333   0.310   4.651   5.575  0.3809 -0.2902  0.3599
 7566SOL    HW134334   0.367   4.678   5.647  0.1456 -2.1041  1.2127
 7566SOL    HW234335   0.376   4.618   5.514  0.2668 -1.0027  0.6245
 7567SOL     OW34336   1.155   3.855   6.614 -0.4957 -0.4130 -0.1244
 7567SOL    HW134337   1.215   3.853   6.688 -0.8306 -3.2994  0.0733
 7567SOL    HW234338   1.174   3.945   6.589 -1.8801  0.0442  0.4776
 7568SOL     OW34339   1.764   1.876   4.997  0.0001  0.1352  0.0346
 7568SOL    HW134340   1.811   1.912   5.072  0.6198 -1.7501  0.5574
 7568SOL    HW234341   1.761   1.951   4.937 -0.2659  1.5146  1.8050
 7569SOL     OW34342   3.876   1.628   8.864  0.2532 -0.7727 -0.1515
 7569SOL    HW134343   3.840   1.550   8.821 -2.3838  1.5001 -2.0828
 7569SOL    HW234344   3.955   1.648   8.813  1.1612  1.0087  1.9645
 7570SOL     OW34345   4.240   0.551  16.929 -0.5210  0.1996  0.4435
 7570SOL    HW134346   4.207   0.466  16.958  0.3609  0.1609  1.3079
 7570SOL    HW234347   4.331   0.543  16.957 -0.7363  0.3652  1.1728
 7571SOL     OW34348   3.936   4.214   8.916 -0.0059 -0.3546 -0.3330
 7571SOL    HW134349   3.933   4.308   8.934 -1.1902 -0.5384  0.3780
 7571SOL    HW234350   3.936   4.219   8.820 -0.5922 -0.1863 -0.3234
 7572SOL     OW34351   2.322   2.149  10.228 -0.3580  0.5740 -0.4872
 7572SOL    HW134352   2.261   2.203  10.278  0.7201 -0.4733  1.9583
 7572SOL    HW234353   2.398   2.155  10.286 -0.8100  1.5314  0.0038
 7573SOL     OW34354   1.195   2.632   4.735 -0.1006 -0.0282  0.2028
 7573SOL    HW134355   1.167   2.555   4.785  1.9966 -1.3342 -0.6338
 7573SOL    HW234356   1.106   2.660   4.713  0.0993  0.2688 -0.2324
 7574SOL     OW34357   4.262   0.613   3.424 -0.3237 -0.3258  0.4407
 7574SOL    HW134358   4.262   0.573   3.337 -0.2056  2.4657 -0.8516
 7574SOL    HW234359   4.192   0.573   3.474  1.0280 -1.5322  1.3645
 7575SOL     OW34360   3.656   3.586  12.745 -0.1491  0.2253  0.1813
 7575SOL    HW134361   3.699   3.590  12.660 -0.9422  3.3828 -0.0842
 7575SOL    HW234362   3.708   3.518  12.786 -1.1621  0.0834  1.2289
 7576SOL     OW34363   2.436   2.701   3.009 -0.1168  0.2048  0.4640
 7576SOL    HW134364   2.518   2.747   3.030  0.2151  0.0325 -0.4634
 7576SOL    HW234365   2.471   2.612   3.017 -0.3572  0.3513  3.2400
 7577SOL     OW34366   3.194   2.938   0.682 -0.2187 -0.1274  0.0280
 7577SOL    HW134367   3.123   2.992   0.716 -0.3776 -2.0338  2.6847
 7577SOL    HW234368   3.217   2.896   0.765 -0.0601  2.5689  1.3720
 7578SOL     OW34369   1.385   4.616   8.645 -0.3541 -0.2586  0.0389
 7578SOL    HW134370   1.330   4.576   8.712  0.5158  0.6083  1.2552
 7578SOL    HW234371   1.411   4.696   8.690  0.7339  0.2810 -1.5427
 7579SOL     OW34372   4.629   3.169   8.773 -0.3048  0.2040  0.4031
 7579SOL    HW134373   4.672   3.152   8.857  0.1957 -2.6589 -0.4378
 7579SOL    HW234374   4.597   3.084   8.746 -1.1384  0.6805 -0.0973
 7580SOL     OW34375   2.063   2.397   6.162 -0.1063  0.2713 -0.1822
 7580SOL    HW134376   2.123   2.428   6.094  0.3013 -0.5911 -0.2115
 7580SOL    HW234377   1.977   2.415   6.124  0.1044 -0.9718 -1.2089
 7581SOL     OW34378   4.172   4.502  12.710  0.1516 -0.1601 -0.4616
 7581SOL    HW134379   4.097   4.530  12.762 -1.1634 -1.1941 -1.8121
 7581SOL    HW234380   4.145   4.416  12.677  0.5653 -0.8571  1.0095
 7582SOL     OW34381   1.666   0.171   7.589  0.4031  0.2412  0.1370
 7582SOL    HW134382   1.660   0.110   7.516  0.6927  0.4458 -0.0593
 7582SOL    HW234383   1.709   0.122   7.659  0.4593  3.4461  2.3412
 7583SOL     OW34384   3.055   4.414   5.526 -0.2385 -0.3339  0.1278
 7583SOL    HW134385   3.110   4.465   5.585 -2.8344 -0.3278  2.5495
 7583SOL    HW234386   3.005   4.481   5.480 -1.5060  0.0769  2.1007
 7584SOL     OW34387   4.258   3.008   6.012 -0.0623  0.0153  0.1441
 7584SOL    HW134388   4.195   3.047   6.073 -0.4874  1.3584 -1.1400
 7584SOL    HW234389   4.204   2.931   5.994  2.3588 -0.9289 -3.0628
 7585SOL     OW34390   2.107   1.120   6.504 -0.2688  0.2541 -0.3001
 7585SOL    HW134391   2.120   1.032   6.540  1.2325  0.9034  0.7073
 7585SOL    HW234392   2.180   1.122   6.442  0.2098  1.5018  0.3063
 7586SOL     OW34393   0.699   4.336  16.611 -0.2174  0.3225  0.4107
 7586SOL    HW134394   0.643   4.357  16.685 -1.5345  2.3434 -1.1652
 7586SOL    HW234395   0.662   4.252  16.584  0.7126  0.2183 -0.5750
 7587SOL     OW34396   2.789   3.054   9.014 -0.2257  0.5568 -0.0210
 7587SOL    HW134397   2.883   3.037   9.015 -0.2049  0.5468 -1.9366
 7587SOL    HW234398   2.773   3.079   9.105  0.7023 -0.1822  0.3353
 7588SOL     OW34399   4.554   2.159   6.431  0.1841  0.4423  0.2275
 7588SOL    HW134400   4.630   2.124   6.477 -1.3040 -1.0784  1.5706
 7588SOL    HW234401   4.578   2.247   6.403 -1.6521  0.6048 -0.8448
 7589SOL     OW34402   0.228   1.368   2.381  0.6637  0.3679 -0.5006
 7589SOL    HW134403   0.184   1.369   2.296 -0.1816  0.6108 -0.0556
 7589SOL    HW234404   0.185   1.427   2.443  0.0087  1.8762 -2.4013
 7590SOL     OW34405   1.054   0.549   6.677 -0.8871 -0.0071 -0.0071
 7590SOL    HW134406   1.063   0.643   6.658  0.4672  0.1265  1.2617
 7590SOL    HW234407   0.972   0.545   6.725 -1.4655  1.7720 -0.8210
 7591SOL     OW34408   1.936   4.702  16.406  0.1477 -0.0650  0.0489
 7591SOL    HW134409   1.984   0.023  16.351 -0.6368  0.3623 -0.1538
 7591SOL    HW234410   1.986   4.624  16.382  1.3443  0.5284  0.6019
 7592SOL     OW34411   2.187   4.401   6.694  0.6161  0.3182  0.1972
 7592SOL    HW134412   2.212   4.489   6.723  1.3095 -0.4404  1.9181
 7592SOL    HW234413   2.130   4.422   6.620 -0.0201 -1.3949  0.2197
 7593SOL     OW34414   3.661   0.175   0.571  0.3691 -0.2709 -0.0567
 7593SOL    HW134415   3.695   0.136   0.652  3.3736 -0.0164 -1.1869
 7593SOL    HW234416   3.626   0.260   0.595  0.0952  0.0056 -1.4430
 7594SOL     OW34417   3.884   4.012   6.137 -0.2841 -0.2101 -0.1789
 7594SOL    HW134418   3.825   3.940   6.115  2.0340 -2.0472 -0.3975
 7594SOL    HW234419   3.970   3.972   6.145 -1.7154 -3.1893  0.3671
 7595SOL     OW34420   0.100   1.043   7.260 -0.1727 -0.3085  0.1586
 7595SOL    HW134421   0.064   1.130   7.244  1.2075  0.2973  0.2970
 7595SOL    HW234422   0.139   1.029   7.174  0.1412  0.1343  0.2292
 7596SOL     OW34423   3.156   3.543   3.860 -0.3126 -0.1196 -0.5221
 7596SOL    HW134424   3.145   3.547   3.955 -0.4679  0.9914 -0.5860
 7596SOL    HW234425   3.137   3.450   3.850 -2.8848  0.2075  1.2755
 7597SOL     OW34426   1.016   4.156   0.642 -0.4173  0.0423 -0.2985
 7597SOL    HW134427   1.087   4.149   0.706 -1.1225  0.6296  0.5508
 7597SOL    HW234428   0.991   4.240   0.680 -0.2432 -0.5921  1.2102
 7598SOL     OW34429   1.219   1.693   3.573 -0.3117 -0.3900  0.1038
 7598SOL    HW134430   1.251   1.775   3.613  2.5680 -1.0389 -0.8433
 7598SOL    HW234431   1.301   1.644   3.564 -2.0002 -3.1833  0.1243
 7599SOL     OW34432   4.622   3.079   3.136  0.2715 -0.0653 -0.2316
 7599SOL    HW134433   4.676   3.135   3.081 -0.4437  0.6188 -0.2435
 7599SOL    HW234434   4.559   3.038   3.077 -2.1519 -1.4790  3.3423
 7600SOL     OW34435   3.851   4.264   4.434 -0.1304  0.2142 -0.6032
 7600SOL    HW134436   3.779   4.319   4.404  1.0666  2.0672 -0.0284
 7600SOL    HW234437   3.808   4.228   4.511 -0.3124  0.6132 -0.5196
 7601SOL     OW34438   4.144   3.422   0.019 -0.4847  0.4192 -0.5574
 7601SOL    HW134439   4.204   3.348   0.007  0.9018  1.8510 -2.4849
 7601SOL    HW234440   4.071   3.369   0.052  1.3840 -1.4861  0.5641
 7602SOL     OW34441   1.569   4.694   5.864  0.3352 -0.1391 -0.5023
 7602SOL    HW134442   1.543   4.607   5.835  0.7618  0.2264 -1.9881
 7602SOL    HW234443   1.559   0.009   5.787  0.7084 -0.9062 -1.0991
 7603SOL     OW34444   2.117   1.532  12.816  0.2532  0.1121 -0.1575
 7603SOL    HW134445   2.042   1.559  12.869  0.6518  2.1297 -0.6305
 7603SOL    HW234446   2.093   1.575  12.734  2.1358  0.0023 -0.7766
 7604SOL     OW34447   1.895   2.243   3.831 -0.2959  0.4448  0.1220
 7604SOL    HW134448   1.878   2.166   3.777  1.0812 -0.2873  0.7389
 7604SOL    HW234449   1.891   2.199   3.916 -0.4897 -0.3443 -0.3020
 7605SOL     OW34450   2.829   4.209   9.621 -0.4585 -0.2297 -0.4709
 7605SOL    HW134451   2.843   4.121   9.584 -1.2682 -0.3122 -0.5899
 7605SOL    HW234452   2.832   4.259   9.539 -0.2574  0.0879 -0.2701
 7606SOL     OW34453   0.293   1.667   6.152 -0.4799  0.0663 -0.1828
 7606SOL    HW134454   0.252   1.606   6.091 -0.8762  0.5831 -0.4370
 7606SOL    HW234455   0.241   1.745   6.133  2.2229  1.9026 -0.0816
 7607SOL     OW34456   3.186   3.030   2.536 -0.6207 -0.1169  1.0456
 7607SOL    HW134457   3.152   2.958   2.482  3.1685 -2.3112  1.5732
 7607SOL    HW234458   3.190   2.981   2.618  3.9263 -0.7546  0.4436
 7608SOL     OW34459   1.627   1.419   9.294  0.5792 -0.5341  0.2157
 7608SOL    HW134460   1.599   1.423   9.202  3.0410  1.2567 -0.4727
 7608SOL    HW234461   1.542   1.398   9.331 -0.0471  2.7843  0.6270
 7609SOL     OW34462   0.580   1.865   2.275 -0.0048  0.0043  0.3291
 7609SOL    HW134463   0.660   1.891   2.230  0.6877 -1.6284  0.6177
 7609SOL    HW234464   0.520   1.866   2.201 -0.0913 -0.5196  0.3877
 7610SOL     OW34465   1.616   0.465   0.087 -0.2697  0.3716  0.1681
 7610SOL    HW134466   1.660   0.447   0.004  0.3320  0.8104  0.3868
 7610SOL    HW234467   1.585   0.553   0.068  1.9024  0.9337 -0.7973
 7611SOL     OW34468   3.460   1.292  16.375 -0.5150 -0.4145  0.2582
 7611SOL    HW134469   3.380   1.251  16.344 -1.6456  3.5195 -2.0187
 7611SOL    HW234470   3.442   1.386  16.376 -2.0903 -0.7269  0.6948
 7612SOL     OW34471   1.151   3.474   3.219 -0.5503 -0.6955  0.2628
 7612SOL    HW134472   1.080   3.444   3.276  0.1782 -0.5164  1.2609
 7612SOL    HW234473   1.112   3.544   3.167 -1.6069 -0.2183  1.7058
 7613SOL     OW34474   1.902   2.747   6.607 -0.0324  0.5120 -0.6305
 7613SOL    HW134475   1.917   2.688   6.533  0.1149 -0.2425 -0.0025
 7613SOL    HW234476   1.979   2.719   6.657  1.1888  3.4957 -0.8702
 7614SOL     OW34477   1.657   0.983   4.944 -0.1406 -0.3039 -0.0555
 7614SOL    HW134478   1.697   1.046   5.004 -1.2660  2.5362 -2.3045
 7614SOL    HW234479   1.582   0.958   4.998  0.5261 -1.2238  0.4528
 7615SOL     OW34480   2.768   2.459   3.622  0.8421 -0.0538 -0.4096
 7615SOL    HW134481   2.688   2.506   3.598  0.6626 -1.7405 -3.1102
 7615SOL    HW234482   2.751   2.455   3.716  1.3137  3.2913 -0.1953
 7616SOL     OW34483   0.686   3.498  10.275 -0.1146  0.2144  0.0455
 7616SOL    HW134484   0.730   3.516  10.192  0.0304  0.5130  0.1880
 7616SOL    HW234485   0.757   3.447  10.313  1.5229  0.9879 -2.0221
 7617SOL     OW34486   0.186   2.737   1.475 -0.0541 -0.6731 -0.1731
 7617SOL    HW134487   0.120   2.736   1.543 -0.5468 -3.1709 -0.7046
 7617SOL    HW234488   0.171   2.821   1.431  2.7751 -0.2787 -0.4052
 7618SOL     OW34489   0.234   1.788   8.503  0.0391 -0.1138 -0.1211
 7618SOL    HW134490   0.221   1.883   8.513 -3.4869 -0.6151  0.0557
 7618SOL    HW234491   0.166   1.758   8.564  0.5765  2.1743  1.6007
 7619SOL     OW34492   3.367   2.003   2.338 -0.3516  0.1160  0.4308
 7619SOL    HW134493   3.445   1.948   2.339 -1.6254 -1.7625 -2.2321
 7619SOL    HW234494   3.400   2.079   2.386 -2.2569  1.6365 -0.6616
 7620SOL     OW34495   2.720   4.034   4.781  0.2567 -0.4366 -0.2314
 7620SOL    HW134496   2.771   3.978   4.722 -0.1883  1.5835 -2.5656
 7620SOL    HW234497   2.780   4.109   4.777  1.7329 -1.5519  1.1261
 7621SOL     OW34498   4.277   3.691   7.118  0.4381 -0.4580 -0.4458
 7621SOL    HW134499   4.320   3.713   7.036  0.5002  0.9564 -0.0252
 7621SOL    HW234500   4.206   3.642   7.076 -0.5524 -1.0068  1.8791
 7622SOL     OW34501   3.551   2.290   1.285 -0.4439 -0.1698  0.2268
 7622SOL    HW134502   3.490   2.222   1.257  0.8097 -0.4832 -1.8207
 7622SOL    HW234503   3.619   2.232   1.320  1.0329  0.8255 -0.9624
 7623SOL     OW34504   1.391   1.987   7.141 -0.4011  0.0752  0.2891
 7623SOL    HW134505   1.397   2.039   7.061  0.2114 -1.8011 -0.8883
 7623SOL    HW234506   1.468   1.930   7.132  1.0373  2.3938 -2.3635
 7624SOL     OW34507   3.505   4.049  12.934  0.2516  0.0918 -0.1123
 7624SOL    HW134508   3.439   3.982  12.952 -0.2394 -0.0425 -2.3835
 7624SOL    HW234509   3.578   3.992  12.910 -0.2172 -0.6081  0.1184
 7625SOL     OW34510   2.835   4.597   7.021 -0.4060 -0.1744 -0.0690
 7625SOL    HW134511   2.763   4.639   6.974  1.6668  1.3904 -1.8454
 7625SOL    HW234512   2.802   4.573   7.107 -0.2570 -0.0658  0.0186
 7626SOL     OW34513   4.019   2.484   0.486 -0.0997  0.0619  0.4022
 7626SOL    HW134514   4.062   2.531   0.415  0.0289 -0.0551  0.4018
 7626SOL    HW234515   3.936   2.458   0.446  0.1895  0.0907 -0.2172
 7627SOL     OW34516   2.359   3.839   5.559 -0.1947  0.3397  0.1174
 7627SOL    HW134517   2.341   3.930   5.580  1.3138  0.3898  1.1301
 7627SOL    HW234518   2.436   3.841   5.502 -0.8496 -0.9350 -0.8164
 7628SOL     OW34519   1.149   2.300   9.524 -0.3959 -0.1823  0.5123
 7628SOL    HW134520   1.175   2.234   9.588 -0.9832  0.9879  1.9726
 7628SOL    HW234521   1.168   2.255   9.442 -1.6378 -0.9774  0.6592
 7629SOL     OW34522   1.544   3.055   2.348  0.5217  0.3452  0.2939
 7629SOL    HW134523   1.524   3.109   2.424 -1.9511  2.4995 -1.8702
 7629SOL    HW234524   1.524   3.118   2.279  1.7263  1.1868  0.7043
 7630SOL     OW34525   4.469   3.933  15.612  0.3519  0.1032  0.3791
 7630SOL    HW134526   4.375   3.950  15.614  0.4105  0.6550 -1.7486
 7630SOL    HW234527   4.477   3.838  15.610 -0.8961 -0.0185  0.8871
 7631SOL     OW34528   2.241   1.635  14.703 -0.2305 -0.0409 -0.0114
 7631SOL    HW134529   2.312   1.609  14.760  0.3616  0.4036 -0.5484
 7631SOL    HW234530   2.215   1.722  14.734  1.1021  0.0022  0.9729
 7632SOL     OW34531   1.487   4.714  14.900 -0.0114  0.0452  0.3531
 7632SOL    HW134532   1.487   4.664  14.981 -2.1985 -1.8977 -0.8177
 7632SOL    HW234533   1.526   0.051  14.941  0.2274 -1.0894  2.2492
 7633SOL     OW34534   0.516   2.041  14.027  0.7909 -0.1080  0.5597
 7633SOL    HW134535   0.606   2.062  14.052  0.9709  0.3443 -0.4666
 7633SOL    HW234536   0.511   2.081  13.940 -0.8023 -0.5042  0.4615
 7634SOL     OW34537   4.362   0.877   8.857 -0.2795  0.4321  0.9464
 7634SOL    HW134538   4.411   0.821   8.796 -1.0333  0.1794  0.5715
 7634SOL    HW234539   4.380   0.965   8.824 -0.4634 -0.3983 -1.3685
 7635SOL     OW34540   1.978   1.695   5.265  0.8121  0.0277  1.0200
 7635SOL    HW134541   1.984   1.752   5.187  0.0840 -1.1658  0.0937
 7635SOL    HW234542   1.976   1.611   5.220 -2.3258  0.8259 -0.3328
 7636SOL     OW34543   1.975   4.516   5.064 -0.0121  0.0999 -0.7358
 7636SOL    HW134544   2.062   4.478   5.058 -0.4960 -1.1750  0.3757
 7636SOL    HW234545   1.918   4.487   4.993 -1.6836  0.3349  0.5048
 7637SOL     OW34546   2.169   0.135   5.668  0.2998  0.3460  0.1703
 7637SOL    HW134547   2.131   0.093   5.591 -0.0231  0.1449  0.4376
 7637SOL    HW234548   2.154   0.229   5.662 -0.7558  0.3700  3.0958
 7638SOL     OW34549   1.939   0.455   6.838 -0.4198 -0.0029 -0.2559
 7638SOL    HW134550   1.849   0.481   6.860 -0.8584  0.1472 -2.2608
 7638SOL    HW234551   1.981   0.513   6.901 -0.0995  0.1017 -0.5694
 7639SOL     OW34552   4.002   1.041   2.920  0.2452 -0.1027  0.0576
 7639SOL    HW134553   3.991   0.957   2.965 -0.5070 -0.5433 -0.9553
 7639SOL    HW234554   3.955   1.017   2.840  0.0887  2.3827 -0.5973
 7640SOL     OW34555   3.055   2.484  13.097 -0.0385 -0.1813  0.5333
 7640SOL    HW134556   3.001   2.419  13.143 -0.3265 -0.0834  0.3312
 7640SOL    HW234557   3.060   2.431  13.017 -0.0597  0.9172 -0.1991
 7641SOL     OW34558   3.765   0.255   1.917 -0.3356 -0.0095 -0.1684
 7641SOL    HW134559   3.814   0.184   1.876  2.9718  1.2923  1.4742
 7641SOL    HW234560   3.792   0.235   2.007  1.2664 -0.9308 -0.8507
 7642SOL     OW34561   2.182   1.293   8.577 -0.1500 -0.6670 -0.2882
 7642SOL    HW134562   2.200   1.278   8.670 -0.5504  1.1183  0.0803
 7642SOL    HW234563   2.188   1.387   8.564  0.8033 -0.6554  0.1815
 7643SOL     OW34564   3.130   3.831   7.299  0.2399  0.4260  0.6700
 7643SOL    HW134565   3.081   3.872   7.227 -2.2785 -0.7004  1.7496
 7643SOL    HW234566   3.066   3.762   7.316 -1.0341  2.1857  3.0614
 7644SOL     OW34567   2.649   3.170   0.027 -0.7337 -0.2741  0.2539
 7644SOL    HW134568   2.598   3.161   0.107  0.1720 -1.1469  0.7355
 7644SOL    HW234569   2.727   3.128   0.062 -0.6762  0.3505  0.8751
 7645SOL     OW34570   1.205   2.480   3.087  0.4718  0.2180 -0.1759
 7645SOL    HW134571   1.123   2.434   3.101  0.2018  0.3035 -1.4851
 7645SOL    HW234572   1.267   2.426   3.136  0.4043 -0.6336 -1.0338
 7646SOL     OW34573   4.231   2.998   4.422  0.7590  0.2674  0.2880
 7646SOL    HW134574   4.251   2.936   4.492  1.1201 -0.1772 -0.2052
 7646SOL    HW234575   4.317   3.024   4.388  0.9285 -1.2453 -0.4780
 7647SOL     OW34576   2.228   0.948  16.770 -0.2630 -0.1495  0.0528
 7647SOL    HW134577   2.259   0.915  16.855 -2.8018 -1.4276  0.4954
 7647SOL    HW234578   2.205   0.864  16.731  1.3794 -0.0217 -1.2077
 7648SOL     OW34579   0.096   0.376   3.144  0.0743 -0.1109  0.0928
 7648SOL    HW134580   0.148   0.333   3.075  0.8262  1.4678 -0.3089
 7648SOL    HW234581   0.103   0.463   3.105 -0.1104 -0.4335 -0.6718
 7649SOL     OW34582   2.008   0.431   7.686 -0.1227 -0.1918  0.6881
 7649SOL    HW134583   1.993   0.384   7.767 -1.0942 -0.0281  0.6098
 7649SOL    HW234584   1.997   0.361   7.622  0.8486  2.0002 -1.9041
 7650SOL     OW34585   0.154   2.997   2.538 -0.0912  0.4317 -0.2753
 7650SOL    HW134586   0.136   2.918   2.589 -2.5903  1.1046 -0.1100
 7650SOL    HW234587   0.156   2.961   2.449  0.8400  1.4333 -0.6538
 7651SOL     OW34588   3.779   4.320  17.593 -0.4013 -0.5262 -0.5666
 7651SOL    HW134589   3.856   4.361  17.555 -1.1441  0.2628 -1.2163
 7651SOL    HW234590   3.708   4.376  17.562 -0.0975  0.3311  0.3080
 7652SOL     OW34591   0.617   4.087  10.084 -0.1083 -0.3963 -0.0172
 7652SOL    HW134592   0.673   4.021  10.125  0.6173  0.9057  1.0890
 7652SOL    HW234593   0.583   4.133  10.161 -1.3761 -1.3616 -0.0023
 7653SOL     OW34594   0.020   1.125   1.666  0.0183  0.1587  0.4000
 7653SOL    HW134595   4.703   1.137   1.590  0.7737  1.5117  0.0402
 7653SOL    HW234596   4.710   1.062   1.718  1.5538 -1.8861 -0.5931
 7654SOL     OW34597   1.713   1.746   6.577 -0.1980 -0.4468 -0.1567
 7654SOL    HW134598   1.685   1.699   6.498  0.5835 -0.6904 -0.2940
 7654SOL    HW234599   1.638   1.729   6.633 -0.1701  1.7913  0.5646
 7655SOL     OW34600   2.532   3.438   2.056  0.5819  0.3864  0.2312
 7655SOL    HW134601   2.596   3.387   2.006  0.1879 -0.1454  0.2710
 7655SOL    HW234602   2.566   3.444   2.145 -2.6130 -1.6911  1.5665
 7656SOL     OW34603   2.056   0.195   1.323 -0.0160 -0.1810 -0.2419
 7656SOL    HW134604   2.007   0.218   1.403 -1.5862 -1.5672 -0.7859
 7656SOL    HW234605   2.073   0.103   1.341 -0.8252 -0.6089 -1.6887
 7657SOL     OW34606   2.604   3.384   7.656 -0.4173  0.0402  0.1077
 7657SOL    HW134607   2.642   3.422   7.578  0.5107 -3.1308 -0.9670
 7657SOL    HW234608   2.511   3.394   7.635  0.2258  0.5948 -2.4501
 7658SOL     OW34609   1.764   4.238   7.689 -0.6077 -0.4109  0.1691
 7658SOL    HW134610   1.764   4.197   7.775 -0.6022 -0.5172  0.1189
 7658SOL    HW234611   1.713   4.316   7.709 -0.7740 -0.5788  0.4081
 7659SOL     OW34612   4.544   1.274   0.884 -0.0934 -0.2714 -0.4692
 7659SOL    HW134613   4.556   1.180   0.894 -2.0590 -0.5964 -1.1453
 7659SOL    HW234614   4.638   1.293   0.891 -0.3314  0.3600  0.9414
 7660SOL     OW34615   1.780   0.492   9.697 -0.3969 -0.9033  0.0335
 7660SOL    HW134616   1.825   0.510   9.615 -0.8501 -2.7805 -0.6205
 7660SOL    HW234617   1.711   0.430   9.673 -2.4883  1.3345  0.2175
 7661SOL     OW34618   4.608   0.892   0.627 -0.8523  0.1885  0.0509
 7661SOL    HW134619   4.516   0.866   0.638 -0.5594  0.0070  2.0758
 7661SOL    HW234620   4.619   0.944   0.707 -3.9031 -0.6038  0.9843
 7662SOL     OW34621   4.160   3.116   9.753  0.1980  0.4547 -0.0792
 7662SOL    HW134622   4.080   3.074   9.721  0.5594 -0.5071  0.2731
 7662SOL    HW234623   4.212   3.102   9.674  0.4244  1.4509 -0.1038
 7663SOL     OW34624   2.068   0.605   7.044 -0.2304  0.1386  0.0793
 7663SOL    HW134625   2.138   0.670   7.035  1.8653 -2.3855 -2.1717
 7663SOL    HW234626   2.124   0.536   7.079 -0.9855 -0.2194  0.5672
 7664SOL     OW34627   4.221   4.207   4.618 -0.1093 -0.0512  0.9555
 7664SOL    HW134628   4.132   4.173   4.631 -0.3630  0.7612  1.3347
 7664SOL    HW234629   4.196   4.289   4.576 -0.4594 -1.3739 -1.4754
 7665SOL     OW34630   2.391   1.198   2.753 -0.6873 -0.8822 -0.3836
 7665SOL    HW134631   2.298   1.190   2.774 -0.7316  2.0216  0.5089
 7665SOL    HW234632   2.402   1.293   2.754  0.8626 -1.0807  2.7430
 7666SOL     OW34633   4.654   0.262   4.450  0.6088 -0.1070  0.1799
 7666SOL    HW134634   4.602   0.320   4.506 -1.9062 -1.3095 -0.9035
 7666SOL    HW234635   0.002   0.278   4.485  0.0544  2.3563  0.4835
 7667SOL     OW34636   1.893   1.718   5.896  0.8745 -0.2490 -0.3066
 7667SOL    HW134637   1.985   1.716   5.921  0.6314 -0.9607  0.5528
 7667SOL    HW234638   1.887   1.793   5.836 -2.3958  0.0103  0.3304
 7668SOL     OW34639   4.261   0.422  17.542 -0.3352  0.4146 -0.0605
 7668SOL    HW134640   4.337   0.364  17.546 -0.3565  0.3281 -0.8639
 7668SOL    HW234641   4.222   0.384  17.621 -0.1218 -0.3087 -0.3014
 7669SOL     OW34642   2.530   4.677   6.411  0.0511  0.2227 -0.6385
 7669SOL    HW134643   2.613   4.634   6.390 -0.0902  0.5009 -1.7768
 7669SOL    HW234644   2.481   4.669   6.329  0.3270  0.7605 -0.8511
 7670SOL     OW34645   4.357   3.113   8.114 -0.4173 -0.1326  0.2786
 7670SOL    HW134646   4.386   3.031   8.074  1.3470  0.6852 -0.1144
 7670SOL    HW234647   4.432   3.127   8.172 -1.4986 -2.2881  2.1880
 7671SOL     OW34648   2.813   2.062   5.290  0.1867 -0.1430 -0.1520
 7671SOL    HW134649   2.897   2.020   5.311 -0.5648 -0.7383  1.6190
 7671SOL    HW234650   2.741   2.015   5.332 -0.3304  1.3912  0.6799
 7672SOL     OW34651   3.730   2.481   8.005  0.0844  0.0271  0.4940
 7672SOL    HW134652   3.764   2.402   8.047 -3.0849 -1.0879  1.0205
 7672SOL    HW234653   3.809   2.532   7.991  0.1473 -0.4550 -0.9383
 7673SOL     OW34654   2.031   2.357  17.181  0.3127  0.4785  0.6764
 7673SOL    HW134655   1.992   2.424  17.237 -1.7908  0.5774 -0.8948
 7673SOL    HW234656   2.042   2.397  17.095 -1.2927 -1.7769 -0.5914
 7674SOL     OW34657   1.958   2.557  14.137  0.4468 -0.0976  0.3698
 7674SOL    HW134658   1.993   2.645  14.121  0.7704 -0.6992 -2.3029
 7674SOL    HW234659   2.005   2.492  14.085  1.4599  1.5901 -0.8313
 7675SOL     OW34660   1.281   0.322   9.216 -0.7343 -0.1085 -0.2602
 7675SOL    HW134661   1.252   0.327   9.125  0.1296  3.1649 -0.3382
 7675SOL    HW234662   1.199   0.278   9.241 -1.8149  0.1747 -3.2867
 7676SOL     OW34663   4.619   0.445   9.710 -0.6518  0.5111 -0.0108
 7676SOL    HW134664   4.545   0.408   9.661  0.0146  0.6121 -1.0912
 7676SOL    HW234665   4.589   0.537   9.710  0.6171  0.9208  1.6317
 7677SOL     OW34666   2.401   0.404   5.088 -0.9383  0.4887 -0.1411
 7677SOL    HW134667   2.324   0.444   5.047 -0.7828 -0.6404 -1.5058
 7677SOL    HW234668   2.439   0.482   5.130  1.1311 -0.7915  0.3717
 7678SOL     OW34669   3.790   1.263   7.640 -0.3253 -0.1955  0.4321
 7678SOL    HW134670   3.716   1.202   7.643  1.9561 -2.9777 -0.4442
 7678SOL    HW234671   3.869   1.213   7.660 -0.0403 -0.0966 -0.4261
 7679SOL     OW34672   4.210   4.506   1.723  0.1251 -0.2507  0.2620
 7679SOL    HW134673   4.153   4.434   1.747  0.0290  0.6792  2.8116
 7679SOL    HW234674   4.156   4.552   1.658  0.1123  0.2953  0.6538
 7680SOL     OW34675   0.575   1.656   9.071 -0.1124 -0.1605  0.2702
 7680SOL    HW134676   0.637   1.707   9.124  0.9540 -0.1233 -1.0295
 7680SOL    HW234677   0.492   1.673   9.115  0.5269  1.5132  0.8618
 7681SOL     OW34678   2.529   3.486  11.763 -0.2713  0.1387 -0.2850
 7681SOL    HW134679   2.525   3.442  11.848 -1.8569  1.2756  0.2329
 7681SOL    HW234680   2.528   3.579  11.788  0.7465 -0.1808  0.9350
 7682SOL     OW34681   2.841   2.262  15.510  0.3220  0.0573 -0.6899
 7682SOL    HW134682   2.934   2.271  15.532  0.4445  0.5142 -1.3970
 7682SOL    HW234683   2.816   2.354  15.502  0.1257 -0.0644 -1.4966
 7683SOL     OW34684   0.288   2.245   4.947 -0.2147 -0.1881 -0.0951
 7683SOL    HW134685   0.236   2.190   5.006  0.0945  1.5145  1.7741
 7683SOL    HW234686   0.219   2.290   4.898  0.6345 -0.0992 -1.2087
 7684SOL     OW34687   3.306   3.765   0.909  0.2312 -0.4359 -0.1805
 7684SOL    HW134688   3.243   3.695   0.899  0.5962 -0.3869 -2.7247
 7684SOL    HW234689   3.379   3.736   0.854  1.8096 -1.0076  2.2354
 7685SOL     OW34690   4.247   1.869  10.294 -0.1189  0.4696  0.2515
 7685SOL    HW134691   4.244   1.925  10.372 -0.7078  0.5534  0.1650
 7685SOL    HW234692   4.244   1.789  10.346  0.1559  0.3302  0.0525
 7686SOL     OW34693   4.628   4.015  16.593 -0.1366 -0.5790  0.1890
 7686SOL    HW134694   4.598   3.924  16.592 -0.3050 -0.5044 -0.9463
 7686SOL    HW234695   4.706   4.000  16.541  0.4311 -0.9113  1.1323
 7687SOL     OW34696   1.611   3.111   5.455 -0.1672  0.9333  0.0830
 7687SOL    HW134697   1.524   3.147   5.443 -0.8259  0.3152  3.1042
 7687SOL    HW234698   1.599   3.051   5.529  0.1590 -0.6464 -1.1489
 7688SOL     OW34699   1.415   4.024   4.356 -0.2477 -0.3304  0.2570
 7688SOL    HW134700   1.445   3.960   4.420  0.9913 -1.8546 -1.8687
 7688SOL    HW234701   1.461   3.995   4.278  1.1090  0.1333  0.8773
 7689SOL     OW34702   4.370   0.534   6.305  0.0428  0.0976  0.7501
 7689SOL    HW134703   4.420   0.511   6.384  1.1858 -0.2575 -0.0833
 7689SOL    HW234704   4.373   0.630   6.311 -0.3227  0.2390 -1.6475
 7690SOL     OW34705   3.245   0.968   8.483  1.0225  0.2215 -0.2916
 7690SOL    HW134706   3.194   0.912   8.425 -1.0647  0.3475  1.4564
 7690SOL    HW234707   3.197   1.049   8.470  1.7549  1.1308  2.7263
 7691SOL     OW34708   3.751   3.216   6.967  0.4518 -0.3446  0.7459
 7691SOL    HW134709   3.788   3.304   6.978 -4.5207  1.5205  2.3579
 7691SOL    HW234710   3.779   3.203   6.876 -0.5671  0.6772  0.2947
 7692SOL     OW34711   1.495   2.986   1.559  0.6844 -0.2958 -0.4407
 7692SOL    HW134712   1.447   2.909   1.531 -0.5085  0.5130 -0.6233
 7692SOL    HW234713   1.490   3.025   1.471 -1.0167  1.6380  0.5180
 7693SOL     OW34714   3.919   4.401  17.047 -0.5751  0.1862 -0.7473
 7693SOL    HW134715   3.941   4.495  17.050 -1.8437  0.4336  1.3890
 7693SOL    HW234716   3.852   4.383  17.113  0.5913 -0.1074  0.3520
 7694SOL     OW34717   2.489   1.907   4.257 -0.1564  0.3353 -0.5817
 7694SOL    HW134718   2.541   1.863   4.190 -0.3969 -2.1722  0.8666
 7694SOL    HW234719   2.408   1.924   4.209 -0.9290  0.7804  0.8701
 7695SOL     OW34720   1.061   4.467   5.758  0.0056  0.7701 -0.1363
 7695SOL    HW134721   1.126   4.472   5.688  0.6364 -1.5669  0.2638
 7695SOL    HW234722   1.018   4.385   5.734  0.2940  1.0394 -1.5693
 7696SOL     OW34723   2.564   0.268   5.879  0.4761  0.0623 -0.2672
 7696SOL    HW134724   2.574   0.204   5.809 -1.5733  0.3104 -0.7852
 7696SOL    HW234725   2.643   0.320   5.865 -0.3498  2.0616  2.2913
 7697SOL     OW34726   4.047   0.789   0.003 -0.2098 -0.2235  0.2565
 7697SOL    HW134727   3.996   0.824  17.688  0.6368 -2.6955 -1.5068
 7697SOL    HW234728   4.128   0.757  17.722  0.1397  1.7646 -0.6640
 7698SOL     OW34729   4.109   4.120   7.364 -0.1789  0.2755 -0.5105
 7698SOL    HW134730   4.160   4.041   7.345 -0.4827 -0.1425  0.3886
 7698SOL    HW234731   4.181   4.166   7.407 -0.2305 -0.5213  0.4468
 7699SOL     OW34732   1.896   0.323   7.353  0.3009 -0.4526 -0.2464
 7699SOL    HW134733   1.899   0.247   7.294 -0.6232  0.5478 -1.5794
 7699SOL    HW234734   1.956   0.286   7.417 -2.3779 -2.0074  1.3641
 7700SOL     OW34735   1.664   1.463   0.451 -0.3091 -1.1808  0.2133
 7700SOL    HW134736   1.709   1.384   0.421  1.5237 -1.1161  2.8239
 7700SOL    HW234737   1.734   1.526   0.436  0.0271 -1.8620 -1.0511
 7701SOL     OW34738   3.836   0.561   4.768 -0.1030  0.4465  0.2279
 7701SOL    HW134739   3.825   0.656   4.777  0.7726  0.6182 -0.5396
 7701SOL    HW234740   3.884   0.561   4.685  0.1734 -0.5999  0.3907
 7702SOL     OW34741   0.947   4.572   8.285  0.7442 -0.1254 -0.0714
 7702SOL    HW134742   1.035   4.607   8.268  0.4779  1.1642  1.2249
 7702SOL    HW234743   0.968   4.504   8.348  1.4839 -0.7138 -0.9514
 7703SOL     OW34744   0.838   2.727   5.930 -0.3928 -0.4035 -0.0941
 7703SOL    HW134745   0.796   2.730   6.015  1.2074 -1.7993  0.7312
 7703SOL    HW234746   0.848   2.817   5.898 -1.9477 -0.1739  0.0822
 7704SOL     OW34747   4.611   0.501   7.973 -0.4027  0.0252  0.1057
 7704SOL    HW134748   4.532   0.481   7.922 -0.3546  0.2950 -0.0726
 7704SOL    HW234749   4.562   0.549   8.040 -0.9768 -1.2808  0.6323
 7705SOL     OW34750   1.709   2.326   2.912 -0.2534  0.5169  0.0368
 7705SOL    HW134751   1.666   2.300   2.831  0.1268  1.6573 -0.5308
 7705SOL    HW234752   1.787   2.374   2.883 -0.2448  0.1381 -0.5588
 7706SOL     OW34753   0.754   4.711   4.365  0.3173  0.0195 -0.0676
 7706SOL    HW134754   0.808   4.635   4.390  1.1752  0.5137 -0.4100
 7706SOL    HW234755   0.665   4.677   4.361 -0.3873  1.5902  2.0432
 7707SOL     OW34756   4.551   1.334   3.504  0.4283  0.3075  0.0612
 7707SOL    HW134757   4.464   1.330   3.464  0.3221 -0.9535  0.4413
 7707SOL    HW234758   4.590   1.271   3.444  0.1845  0.1856  0.0302
 7708SOL     OW34759   4.027   1.194   9.191  0.4115 -0.2241 -0.1356
 7708SOL    HW134760   4.061   1.242   9.267 -0.4709  1.5188 -0.8274
 7708SOL    HW234761   3.933   1.216   9.192  0.0137 -1.9421  1.1190
 7709SOL     OW34762   3.221   3.513   4.623  0.2254 -0.3770  0.5965
 7709SOL    HW134763   3.174   3.442   4.579  0.6752 -1.5019  1.9170
 7709SOL    HW234764   3.310   3.499   4.590  0.4503  2.6860 -0.0632
 7710SOL     OW34765   1.806   2.192  16.364 -0.1717  0.1161 -0.5755
 7710SOL    HW134766   1.728   2.182  16.418 -1.2314 -2.6074 -2.5868
 7710SOL    HW234767   1.871   2.166  16.430 -0.7066 -1.2232 -0.5702
 7711SOL     OW34768   0.897   3.047   1.585 -0.0531 -0.1022 -0.5079
 7711SOL    HW134769   0.950   3.076   1.659 -0.4513 -0.0551 -0.2402
 7711SOL    HW234770   0.956   3.012   1.519 -0.7813 -0.3286 -1.0383
 7712SOL     OW34771   0.434   1.858   7.116 -0.4499 -0.1700 -0.0211
 7712SOL    HW134772   0.475   1.793   7.060  1.0104 -0.0259  0.8911
 7712SOL    HW234773   0.378   1.905   7.054 -0.4096 -0.6247 -0.4007
 7713SOL     OW34774   3.338   0.888   8.986 -0.2737 -0.9993 -0.2918
 7713SOL    HW134775   3.381   0.920   9.066  0.5936 -1.4832 -0.5655
 7713SOL    HW234776   3.414   0.883   8.928 -0.0267  2.7609 -0.3266
 7714SOL     OW34777   4.166   1.259   0.412 -0.0958 -0.2574  0.0165
 7714SOL    HW134778   4.172   1.237   0.505  0.8004  1.6310  0.4150
 7714SOL    HW234779   4.245   1.222   0.373 -0.1539  0.7917 -1.0956
 7715SOL     OW34780   0.212   3.002  13.678  0.2130  0.1057 -0.7774
 7715SOL    HW134781   0.215   2.952  13.596 -2.4218  0.1320 -0.8740
 7715SOL    HW234782   0.249   3.085  13.647 -0.3371 -0.1114 -2.0346
 7716SOL     OW34783   1.920   3.574  16.520  0.1996 -0.3028  0.8595
 7716SOL    HW134784   1.880   3.487  16.524  1.8430 -1.2437 -2.9452
 7716SOL    HW234785   1.998   3.546  16.473 -0.8163  0.4086 -1.2101
 7717SOL     OW34786   2.926   3.064   6.959  0.2484 -0.1182  0.1691
 7717SOL    HW134787   2.931   2.969   6.950 -0.1233 -0.3009  1.9721
 7717SOL    HW234788   2.894   3.068   7.049  2.2057  2.4081  0.7449
 7718SOL     OW34789   3.612   4.242   2.892 -0.0423  0.1317  0.2439
 7718SOL    HW134790   3.585   4.328   2.924  0.6981  1.0276 -1.5520
 7718SOL    HW234791   3.602   4.178   2.963 -2.6751 -1.8831 -1.9551
 7719SOL     OW34792   1.272   3.711   8.237 -0.6792 -0.1401 -0.1016
 7719SOL    HW134793   1.228   3.641   8.285 -1.7358 -0.2988 -1.2998
 7719SOL    HW234794   1.231   3.794   8.265  1.1953  0.2229  1.5665
 7720SOL     OW34795   0.392   2.586   2.653  0.3040  0.9351  0.0412
 7720SOL    HW134796   0.435   2.584   2.567  1.4258 -2.0837  0.6663
 7720SOL    HW234797   0.386   2.680   2.670 -2.1851  1.1054 -1.7301
 7721SOL     OW34798   3.846   1.824   8.531  0.5430 -0.3681 -0.0102
 7721SOL    HW134799   3.908   1.815   8.604  0.1434 -1.3967  0.2015
 7721SOL    HW234800   3.766   1.857   8.573  0.4267  1.7030 -1.8455
 7722SOL     OW34801   0.527   1.388   3.072  0.3019 -0.0005 -0.6689
 7722SOL    HW134802   0.431   1.386   3.078  0.2726  1.3925 -0.6684
 7722SOL    HW234803   0.544   1.370   2.980  2.7852 -0.5143 -0.0952
 7723SOL     OW34804   3.132   1.898   4.635 -0.2841 -0.1143  0.0363
 7723SOL    HW134805   3.217   1.901   4.591 -0.2476  1.0350  0.1874
 7723SOL    HW234806   3.103   1.989   4.633 -1.7135 -0.5835 -1.0107
 7724SOL     OW34807   2.140   0.307   4.590 -1.0079 -0.3092 -0.1506
 7724SOL    HW134808   2.169   0.350   4.670 -1.8171 -1.4382  0.7456
 7724SOL    HW234809   2.097   0.226   4.617  2.1898 -2.7524 -2.3401
 7725SOL     OW34810   1.888   4.693   1.098 -0.1668 -0.4237 -0.3388
 7725SOL    HW134811   1.958   0.013   1.124  2.0706 -2.5498 -1.4413
 7725SOL    HW234812   1.911   4.700   1.005  1.4495  2.0155  0.2382
 7726SOL     OW34813   3.230   0.234   6.139  0.0975 -0.0679 -0.1634
 7726SOL    HW134814   3.153   0.266   6.186 -1.0172 -0.2666 -1.8724
 7726SOL    HW234815   3.292   0.213   6.210 -0.1736  0.4948  0.2426
 7727SOL     OW34816   0.214   0.545   2.682  0.1056  0.1433 -0.0061
 7727SOL    HW134817   0.255   0.530   2.597 -2.1037  0.9654 -1.2166
 7727SOL    HW234818   0.289   0.533   2.740  0.6086  0.1609 -0.6509
 7728SOL     OW34819   3.627   2.158   8.134 -0.1375 -0.2732 -0.3484
 7728SOL    HW134820   3.593   2.227   8.191 -0.8182 -0.3866 -0.6238
 7728SOL    HW234821   3.714   2.195   8.119  0.7018 -0.5263  3.6708
 7729SOL     OW34822   0.086   0.913   8.977  0.2166  0.3044  0.6692
 7729SOL    HW134823   0.071   0.877   8.889 -0.7843  0.8199  0.6300
 7729SOL    HW234824   0.142   0.989   8.958 -0.1304  1.0860  2.7744
 7730SOL     OW34825   2.464   0.021   0.781 -0.5364 -0.7727 -0.0196
 7730SOL    HW134826   2.541   0.005   0.727  1.4979 -0.7288  2.8888
 7730SOL    HW234827   2.460   0.115   0.763  0.4067 -0.6518  0.3999
 7731SOL     OW34828   1.085   2.066  12.957  0.1539 -0.1668 -0.3525
 7731SOL    HW134829   1.152   2.048  13.022 -0.3358 -0.9457 -0.0652
 7731SOL    HW234830   1.017   2.100  13.014  1.8718  0.5635  1.2474
 7732SOL     OW34831   3.028   3.805   9.548  0.0031  0.0030 -0.1191
 7732SOL    HW134832   2.971   3.812   9.471 -0.2338  0.0915  0.0674
 7732SOL    HW234833   2.962   3.795   9.616  2.0255  0.5552  1.8948
 7733SOL     OW34834   1.892   0.652  17.717 -0.5614  0.1104  0.3358
 7733SOL    HW134835   1.842   0.581  17.677 -0.2556  0.7278 -1.1394
 7733SOL    HW234836   1.833   0.665   0.033 -1.4933 -0.6371 -0.2814
 7734SOL     OW34837   2.245   4.724   1.952 -0.1251  0.8611  0.1689
 7734SOL    HW134838   2.162   4.696   1.991  0.6737 -1.1289  0.3854
 7734SOL    HW234839   2.267   4.638   1.916  0.3182  1.0342  0.0234
 7735SOL     OW34840   1.718   4.688   3.360 -0.2003 -0.4494  0.2748
 7735SOL    HW134841   1.678   0.031   3.384  1.4804  0.4356  0.0262
 7735SOL    HW234842   1.810   4.714   3.353 -0.0987 -0.6805  0.7247
 7736SOL     OW34843   1.681   1.625   5.268  0.5001 -0.2441  0.2310
 7736SOL    HW134844   1.685   1.692   5.336  0.3877  2.1854 -2.1840
 7736SOL    HW234845   1.774   1.627   5.244  0.3159 -2.6280 -0.6240
 7737SOL     OW34846   1.330   1.377   3.929  0.3082 -0.6697  0.4605
 7737SOL    HW134847   1.256   1.352   3.983 -1.8705 -0.3454 -2.3592
 7737SOL    HW234848   1.297   1.366   3.840 -0.2882 -0.2949  0.6367
 7738SOL     OW34849   2.404   0.003   9.062 -0.0858 -0.0878  0.3031
 7738SOL    HW134850   2.397   0.063   9.136 -1.5824  1.0986 -0.8132
 7738SOL    HW234851   2.311   4.723   9.051 -0.3638  2.1567 -1.4938
 7739SOL     OW34852   2.913   0.739   7.610  0.3804  0.1016 -0.1920
 7739SOL    HW134853   2.819   0.729   7.599  0.4328 -1.0560  0.3597
 7739SOL    HW234854   2.929   0.644   7.604 -1.8950 -0.3983  1.5319
 7740SOL     OW34855   0.549   0.995  14.279  0.1253  0.1030 -0.0917
 7740SOL    HW134856   0.551   1.039  14.364 -0.1466  0.7960 -0.4438
 7740SOL    HW234857   0.519   1.071  14.229 -0.8570 -0.6724 -0.7022
 7741SOL     OW34858   4.418   3.572   9.360  0.0529 -0.3953  0.1005
 7741SOL    HW134859   4.412   3.570   9.456  0.7158 -2.8198  0.0936
 7741SOL    HW234860   4.444   3.482   9.337  0.9365  0.6260 -2.8730
 7742SOL     OW34861   3.630   3.988  14.496  0.7713  0.3164 -0.3747
 7742SOL    HW134862   3.624   3.954  14.407 -0.0224  0.8262 -0.5125
 7742SOL    HW234863   3.671   3.917  14.546  1.5534  0.7040 -0.4637
 7743SOL     OW34864   3.609   2.630   5.642 -0.5430  0.0785 -0.3785
 7743SOL    HW134865   3.641   2.571   5.574  0.0497 -1.2884  1.1047
 7743SOL    HW234866   3.679   2.694   5.658  0.3833 -1.5527  2.1230
 7744SOL     OW34867   0.772   0.136   4.841 -0.8196 -0.9018 -0.3009
 7744SOL    HW134868   0.692   0.101   4.880 -0.5873 -2.2673 -1.0838
 7744SOL    HW234869   0.837   0.074   4.874 -0.4263  0.2472  1.0910
 7745SOL     OW34870   2.079   0.562   0.581 -0.8772  0.1901  0.9089
 7745SOL    HW134871   2.038   0.588   0.499 -2.3911  1.3268  2.0138
 7745SOL    HW234872   2.033   0.479   0.591 -0.9701 -0.1942 -2.7696
 7746SOL     OW34873   2.073   4.148   7.954  0.4458 -0.2043  0.4595
 7746SOL    HW134874   2.087   4.195   8.036  2.3491  2.0720 -1.1815
 7746SOL    HW234875   2.164   4.121   7.944  1.3149  2.4242  1.4459
 7747SOL     OW34876   0.928   2.438   5.850 -0.7489 -0.0083 -0.3229
 7747SOL    HW134877   0.912   2.521   5.894 -1.7848 -0.6254  0.4683
 7747SOL    HW234878   0.900   2.458   5.761 -1.2767  1.8034  0.2465
 7748SOL     OW34879   0.405   2.970   5.134  0.1779 -0.3565  0.4005
 7748SOL    HW134880   0.429   3.049   5.182  0.3323 -0.9592  1.3086
 7748SOL    HW234881   0.312   2.953   5.144 -0.2145  1.2067 -0.6431
 7749SOL     OW34882   2.592   3.974  12.045 -0.1688  0.2326 -0.6381
 7749SOL    HW134883   2.640   3.967  11.963  2.8731  2.1178  1.0066
 7749SOL    HW234884   2.637   3.915  12.106  0.5171  0.5282 -0.8686
 7750SOL     OW34885   4.680   0.244   8.059  0.6359 -0.1540  0.0073
 7750SOL    HW134886   4.724   0.252   8.143  0.3322  2.6876 -0.0826
 7750SOL    HW234887   4.643   0.331   8.040  0.6759 -0.6816 -2.4694
 7751SOL     OW34888   2.059   1.925  14.887 -0.6988 -0.0699  0.2865
 7751SOL    HW134889   2.097   1.869  14.955 -0.3940  0.1278  0.2797
 7751SOL    HW234890   2.126   1.915  14.819 -0.6272  1.7680  0.0830
 7752SOL     OW34891   0.822   2.229  14.465  0.2644 -0.3327 -0.0550
 7752SOL    HW134892   0.746   2.275  14.428  0.5507  1.2832  1.3651
 7752SOL    HW234893   0.807   2.225  14.560  3.3206  0.5690  0.4578
 7753SOL     OW34894   0.197   2.056   8.557 -0.4916 -0.3596 -0.2508
 7753SOL    HW134895   0.136   2.076   8.628  2.2535 -1.2509  2.3188
 7753SOL    HW234896   0.270   2.087   8.611 -0.6366 -0.5439  0.0435
 7754SOL     OW34897   1.955   2.926   2.784  0.0622  0.6795 -0.2317
 7754SOL    HW134898   2.020   2.857   2.792  0.9175  1.5474  0.2330
 7754SOL    HW234899   1.917   2.929   2.872  0.9919  0.3648  0.1786
 7755SOL     OW34900   2.589   4.048   5.754  0.1377 -0.0350 -0.4098
 7755SOL    HW134901   2.629   4.068   5.670 -0.9912 -0.8721 -1.1309
 7755SOL    HW234902   2.608   3.954   5.764  0.4523  0.2386  1.5604
 7756SOL     OW34903   2.119   1.160   9.654 -0.3296  0.3157 -0.4056
 7756SOL    HW134904   2.041   1.167   9.709  0.1318  3.6131 -0.1911
 7756SOL    HW234905   2.166   1.107   9.719 -1.3000  0.0262  0.0640
 7757SOL     OW34906   1.386   1.195   0.941 -0.6056 -0.1743  0.1569
 7757SOL    HW134907   1.297   1.164   0.962 -0.5797 -0.6757 -0.4615
 7757SOL    HW234908   1.441   1.129   0.983 -1.3146 -0.9856 -0.1860
 7758SOL     OW34909   2.016   2.991   9.129 -0.3448  0.2370 -0.1405
 7758SOL    HW134910   1.951   2.978   9.060 -0.2819  0.3524 -0.2227
 7758SOL    HW234911   2.079   2.920   9.122 -0.3346  0.2250  0.0540
 7759SOL     OW34912   2.828   0.555   7.942  0.2476  0.4739  0.2671
 7759SOL    HW134913   2.879   0.474   7.955  0.7032  0.7850  0.4140
 7759SOL    HW234914   2.840   0.564   7.848  0.4985  1.2043  0.3728
 7760SOL     OW34915   1.102   0.910   2.334  0.6919 -0.4021  0.6986
 7760SOL    HW134916   1.157   0.975   2.378  2.5763 -2.8055  1.8379
 7760SOL    HW234917   1.088   0.964   2.256 -0.2125  1.2930  2.0245
 7761SOL     OW34918   3.008   4.723   8.796 -0.2062 -0.9305 -0.1450
 7761SOL    HW134919   3.010   0.062   8.850  0.5790 -2.0768  1.4855
 7761SOL    HW234920   3.064   4.668   8.850  0.4536 -0.3015 -0.1946
 7762SOL     OW34921   4.218   1.264  16.566  0.5478 -0.2767 -0.4582
 7762SOL    HW134922   4.176   1.247  16.482  0.1537  0.5712 -0.4304
 7762SOL    HW234923   4.309   1.240  16.551  1.0284  0.5766  1.1202
 7763SOL     OW34924   2.386   3.727   7.993 -0.0615 -0.7671 -0.1147
 7763SOL    HW134925   2.305   3.708   7.945 -0.4766  0.4167  0.0935
 7763SOL    HW234926   2.425   3.641   8.004  0.5270 -0.1019  2.9735
 7764SOL     OW34927   1.582   2.414   2.138  0.4465  0.2620 -1.0406
 7764SOL    HW134928   1.551   2.495   2.097 -1.5945 -0.4560 -0.8889
 7764SOL    HW234929   1.674   2.415   2.111  0.7158  2.5605 -0.0908
 7765SOL     OW34930   2.559   2.644   5.065  0.2808  0.3050 -0.3397
 7765SOL    HW134931   2.465   2.626   5.073  0.1720  0.9256 -0.2423
 7765SOL    HW234932   2.578   2.594   4.985  0.2844 -1.3068  0.6637
 7766SOL     OW34933   2.308   1.927   4.640 -0.8536 -0.1652 -0.0451
 7766SOL    HW134934   2.280   1.844   4.600  1.8429 -1.0881 -0.0339
 7766SOL    HW234935   2.313   1.991   4.570  0.4443 -1.6282 -1.3034
 7767SOL     OW34936   0.224   4.321   7.653  0.0982 -0.3070 -0.5943
 7767SOL    HW134937   0.293   4.388   7.657 -0.5347  0.3126  0.0457
 7767SOL    HW234938   0.152   4.362   7.701  0.0539  2.0667 -2.6477
 7768SOL     OW34939   2.336   2.746  15.104  0.0561  0.3333  0.3167
 7768SOL    HW134940   2.340   2.653  15.082  0.3762  0.3059  0.4921
 7768SOL    HW234941   2.242   2.761  15.102  0.0900  0.7495  1.9368
 7769SOL     OW34942   4.408   0.101   4.953  0.5906 -0.1383  0.7405
 7769SOL    HW134943   4.439   0.183   4.990  1.6547 -0.8477  1.4252
 7769SOL    HW234944   4.314   0.120   4.953  0.4953 -0.6211 -0.1988
 7770SOL     OW34945   2.264   1.256   9.251  0.0630  0.3151  0.4614
 7770SOL    HW134946   2.229   1.249   9.162  0.1092 -0.3178  0.4936
 7770SOL    HW234947   2.317   1.333   9.233 -0.0735  0.4083  0.4571
 7771SOL     OW34948   4.195   1.930   8.097 -0.6082 -0.5982  0.1762
 7771SOL    HW134949   4.131   1.919   8.168 -0.5201  2.4451  0.7256
 7771SOL    HW234950   4.242   2.008   8.125  0.0819 -0.9676  0.0578
 7772SOL     OW34951   3.059   4.016   4.082 -0.2111 -0.0058  0.4321
 7772SOL    HW134952   3.088   4.105   4.101 -1.7991  0.5612  0.2120
 7772SOL    HW234953   3.123   3.966   4.132 -1.3906 -1.0460  0.8854
 7773SOL     OW34954   1.935   0.473   5.328 -0.3048  0.1368 -0.0731
 7773SOL    HW134955   1.997   0.423   5.274  2.3361  2.7066  0.5447
 7773SOL    HW234956   1.890   0.531   5.268 -0.4439 -1.1468 -1.2180
 7774SOL     OW34957   4.454   3.186   6.256 -0.2852  0.2601  0.4757
 7774SOL    HW134958   4.496   3.271   6.245  0.6382 -0.2236  0.2596
 7774SOL    HW234959   4.483   3.147   6.174 -2.6235 -0.2212 -0.1131
 7775SOL     OW34960   0.455   1.552   8.530  0.2409  0.1027  0.5553
 7775SOL    HW134961   0.420   1.609   8.598  0.6717  0.5156  0.4284
 7775SOL    HW234962   0.391   1.564   8.460 -0.6467  1.6106  1.6452
 7776SOL     OW34963   3.954   2.658   5.049 -0.0250  0.7079 -0.5343
 7776SOL    HW134964   3.901   2.728   5.088  1.1843  1.9569 -1.1040
 7776SOL    HW234965   4.041   2.695   5.064  0.8114 -1.5912  0.1950
 7777SOL     OW34966   0.568   0.481   9.140 -0.5161 -0.0439 -0.6204
 7777SOL    HW134967   0.474   0.465   9.136 -0.2516 -1.2568 -2.1162
 7777SOL    HW234968   0.591   0.429   9.217  1.2248  1.4600 -0.1195
 7778SOL     OW34969   0.763   3.958  11.106  0.1243  0.2343  0.1450
 7778SOL    HW134970   0.848   3.936  11.146  1.2451  0.2110 -2.2537
 7778SOL    HW234971   0.756   3.897  11.032  0.6721  1.1967 -0.7067
 7779SOL     OW34972   0.777   4.653   7.406  0.3759 -0.2481 -0.1243
 7779SOL    HW134973   0.820   4.594   7.344  2.3753  0.8195  0.2558
 7779SOL    HW234974   0.689   4.615   7.404 -0.3769  1.4327  1.5604
 7780SOL     OW34975   2.867   4.322  10.525  0.4274 -0.3017 -0.4661
 7780SOL    HW134976   2.807   4.302  10.597  0.2168 -0.4219 -0.6729
 7780SOL    HW234977   2.928   4.248  10.531  2.9501  1.8709  0.1213
 7781SOL     OW34978   2.339   3.984   0.712  0.1876  0.7669  0.2786
 7781SOL    HW134979   2.289   3.996   0.793  3.8581 -0.2587  2.6566
 7781SOL    HW234980   2.281   4.031   0.652 -1.4268 -0.3897  0.9204
 7782SOL     OW34981   1.084   1.161   4.296  0.3740 -0.0143 -0.1657
 7782SOL    HW134982   1.073   1.082   4.243  0.2419  0.8814 -1.4636
 7782SOL    HW234983   1.126   1.220   4.234  1.7880 -1.7841 -0.9126
 7783SOL     OW34984   0.327   3.443  17.169  0.1064  0.0233 -0.0916
 7783SOL    HW134985   0.326   3.494  17.089 -1.7642 -0.6220 -0.4715
 7783SOL    HW234986   0.265   3.504  17.209 -0.4633 -1.4414  1.3021
 7784SOL     OW34987   2.177   3.309   4.268  0.0619 -0.2376 -0.2237
 7784SOL    HW134988   2.230   3.274   4.195 -0.7846  1.6774 -1.7488
 7784SOL    HW234989   2.102   3.250   4.274  0.6784 -0.9891  0.1257
 7785SOL     OW34990   3.260   0.137  13.394 -0.2375 -0.1382  0.2635
 7785SOL    HW134991   3.316   0.213  13.412 -1.6608  1.4000 -1.8421
 7785SOL    HW234992   3.191   0.155  13.459  0.6556  0.3636  1.0701
 7786SOL     OW34993   1.390   0.432   4.370 -0.2014 -0.0111  0.1970
 7786SOL    HW134994   1.416   0.460   4.282  2.0531 -1.7936  0.3065
 7786SOL    HW234995   1.466   0.388   4.408 -0.0272  0.8215  0.8060
 7787SOL     OW34996   4.138   0.900  13.314 -0.0209 -0.1147  0.2550
 7787SOL    HW134997   4.079   0.948  13.255 -0.1633 -1.3197 -0.5822
 7787SOL    HW234998   4.174   0.976  13.360 -0.6342 -0.1472  0.8012
 7788SOL     OW34999   3.907   3.191   4.025  0.7151 -0.0934  0.1460
 7788SOL    HW135000   3.880   3.099   4.029  0.3948 -0.0552 -1.1393
 7788SOL    HW235001   3.930   3.213   4.115 -1.9185 -1.9110  1.2598
 7789SOL     OW35002   1.430   3.834   1.710 -0.2466 -0.3269  0.5312
 7789SOL    HW135003   1.498   3.884   1.665 -0.5148  1.4424  2.0833
 7789SOL    HW235004   1.367   3.901   1.734 -1.9050 -1.4394 -0.6631
 7790SOL     OW35005   4.654   0.160   3.166 -0.0053 -0.1239  0.2936
 7790SOL    HW135006   4.734   0.210   3.182  0.6712 -0.0002 -3.3103
 7790SOL    HW235007   4.665   0.102   3.091 -1.2928  0.8632 -0.6611
 7791SOL     OW35008   1.925   2.106  16.633  0.2378 -0.2546  0.7627
 7791SOL    HW135009   1.973   2.189  16.641 -0.2236  0.0395  0.4971
 7791SOL    HW235010   1.998   2.050  16.660  0.9906  1.1696  1.6639
 7792SOL     OW35011   4.651   2.429   6.304 -0.0026 -0.2279  0.2814
 7792SOL    HW135012   4.673   2.489   6.376 -0.1074  1.2436 -0.9114
 7792SOL    HW235013   4.724   2.430   6.242  0.2346 -0.7419  0.5444
 7793SOL     OW35014   0.933   2.183   0.674 -0.3806  1.1863  0.4440
 7793SOL    HW135015   0.938   2.216   0.584  1.2395  1.4635  0.6356
 7793SOL    HW235016   0.872   2.112   0.656  1.2123 -0.5718  1.9367
 7794SOL     OW35017   3.690   4.315   2.533  0.0482  0.1639  0.2268
 7794SOL    HW135018   3.625   4.313   2.603 -0.1464 -0.0604  0.0384
 7794SOL    HW235019   3.647   4.264   2.465  2.8478 -0.0593 -1.3917
 7795SOL     OW35020   2.087   0.710   5.871  0.3503 -0.4857  0.4237
 7795SOL    HW135021   2.106   0.698   5.778 -0.6657 -0.6119  0.2377
 7795SOL    HW235022   2.038   0.630   5.890  0.8823 -1.0412 -0.5209
 7796SOL     OW35023   3.019   4.622   4.060  0.3729  0.4545  0.1456
 7796SOL    HW135024   2.924   4.628   4.046  0.6899 -0.9323 -2.4645
 7796SOL    HW235025   3.061   4.623   3.974  0.9386 -3.0428  0.3733
 7797SOL     OW35026   4.045   1.445  16.153 -0.3052 -0.1355  0.4868
 7797SOL    HW135027   4.039   1.540  16.139 -2.2909 -0.5798 -1.5983
 7797SOL    HW235028   4.065   1.414  16.065 -0.3609 -0.7152  0.6820
 7798SOL     OW35029   0.675   0.039   3.883 -0.6286  0.1171  0.2659
 7798SOL    HW135030   0.743   0.089   3.838 -2.2823  0.3771 -1.9745
 7798SOL    HW235031   0.718   0.000   3.959  0.5527 -1.7839 -1.3624
 7799SOL     OW35032   4.499   1.079  11.692  0.0877 -0.4492 -0.2854
 7799SOL    HW135033   4.555   1.001  11.700  0.0153 -0.3717  0.9970
 7799SOL    HW235034   4.416   1.033  11.701 -0.6726  0.3867 -2.9508
 7800SOL     OW35035   0.267   0.919   1.711  0.0356  0.2192  0.3126
 7800SOL    HW135036   0.218   0.990   1.670 -0.1787  0.1334  0.4219
 7800SOL    HW235037   0.202   0.893   1.776 -1.6438  0.8707 -1.1009
 7801SOL     OW35038   0.054   2.574   6.627 -0.3327 -0.3124  0.2031
 7801SOL    HW135039   0.067   2.603   6.718  3.5621  0.3879 -0.5730
 7801SOL    HW235040   0.092   2.652   6.586  3.9802 -1.7354  1.5217
 7802SOL     OW35041   0.646   0.416  17.405 -0.0538  0.1949 -0.7888
 7802SOL    HW135042   0.651   0.351  17.476  0.5264  1.8330  0.6707
 7802SOL    HW235043   0.702   0.488  17.435 -0.0323 -0.2983  0.3676
 7803SOL     OW35044   1.229   2.847   4.387 -0.1969 -0.1753 -0.7121
 7803SOL    HW135045   1.221   2.874   4.296  0.5215  0.0533 -0.7065
 7803SOL    HW235046   1.179   2.765   4.382  1.8871 -1.4343 -0.9337
 7804SOL     OW35047   3.739   4.453   9.618  0.2548  0.0882  0.4635
 7804SOL    HW135048   3.676   4.458   9.690 -0.5643 -1.8754 -0.1017
 7804SOL    HW235049   3.820   4.476   9.664  0.4381 -2.1798  1.2782
 7805SOL     OW35050   3.734   0.199   6.960  0.2127 -0.1741  0.2173
 7805SOL    HW135051   3.733   0.117   6.912  1.3686  0.1137 -0.3039
 7805SOL    HW235052   3.753   0.264   6.892 -0.2831  0.4255  0.6609
 7806SOL     OW35053   0.443   2.266   9.111 -0.0749  0.8375 -0.5525
 7806SOL    HW135054   0.512   2.321   9.148  0.9414 -1.8796  1.6028
 7806SOL    HW235055   0.421   2.315   9.032 -2.0238  1.5162  0.4327
 7807SOL     OW35056   0.406   3.655   3.293  0.0042  0.3769 -0.0077
 7807SOL    HW135057   0.345   3.659   3.219 -1.5251  0.7452  1.2934
 7807SOL    HW235058   0.343   3.646   3.364 -0.0236  1.0232  0.0542
 7808SOL     OW35059   1.803   1.181   2.680  0.3111 -0.3637 -0.1768
 7808SOL    HW135060   1.733   1.123   2.650  0.8353 -0.8050 -0.5357
 7808SOL    HW235061   1.776   1.259   2.631 -0.8818 -0.3260  0.5395
 7809SOL     OW35062   2.254   1.892   5.655  0.2947  0.9336 -0.4598
 7809SOL    HW135063   2.217   1.818   5.608 -0.3954  0.6140  0.5977
 7809SOL    HW235064   2.340   1.861   5.682  0.6406  1.9331 -0.4091
 7810SOL     OW35065   0.558   1.492  15.020  0.4000  0.2167 -0.3451
 7810SOL    HW135066   0.501   1.568  15.019  2.6711  1.9405  1.2268
 7810SOL    HW235067   0.573   1.484  14.926 -0.1194 -2.0784 -0.2400
 7811SOL     OW35068   3.367   0.785   3.946  0.2497 -0.0702 -0.1561
 7811SOL    HW135069   3.447   0.792   3.999  0.1580 -2.0045  0.2142
 7811SOL    HW235070   3.327   0.871   3.955  3.1410  1.5916 -2.8608
 7812SOL     OW35071   3.867   1.896   6.838  0.0038  0.6016 -0.6513
 7812SOL    HW135072   3.806   1.968   6.821 -0.3389  0.1157 -1.4689
 7812SOL    HW235073   3.945   1.934   6.878 -0.4102  1.1844 -0.3966
 7813SOL     OW35074   3.983   1.741   8.102  0.4188  0.2971 -0.2277
 7813SOL    HW135075   3.952   1.690   8.176  1.0573  2.5461  1.5741
 7813SOL    HW235076   4.039   1.675   8.061 -0.9382  0.4269 -2.2871
 7814SOL     OW35077   1.804   2.695  15.140  0.0468  0.0878  0.2961
 7814SOL    HW135078   1.892   2.724  15.117 -0.6138  1.6197 -0.2651
 7814SOL    HW235079   1.818   2.666  15.230 -0.6895  1.2772  0.7862
 7815SOL     OW35080   3.924   4.491   8.959 -0.3310  0.4621 -0.0136
 7815SOL    HW135081   3.994   4.550   8.990  0.1943 -1.4186  2.3766
 7815SOL    HW235082   3.846   4.538   8.988  0.8862  2.3292  0.2757
 7816SOL     OW35083   3.285   1.362   8.172 -0.2590  0.4195 -0.1135
 7816SOL    HW135084   3.352   1.416   8.130  1.0104 -1.5408 -0.5719
 7816SOL    HW235085   3.237   1.342   8.091  0.3428 -1.0761 -0.0914
 7817SOL     OW35086   3.015   1.029   6.679 -0.5408  0.9218  0.2298
 7817SOL    HW135087   3.013   1.122   6.657 -2.2302  0.8127 -0.0878
 7817SOL    HW235088   3.070   0.973   6.625 -0.5806  0.6483  0.4670
 7818SOL     OW35089   4.593   1.113   3.006 -0.5421  0.3075  0.4382
 7818SOL    HW135090   4.557   1.195   2.972 -0.5452  0.2977  0.4182
 7818SOL    HW235091   4.523   1.050   2.994  0.1224  0.3253 -3.3530
 7819SOL     OW35092   2.238   1.413   7.381 -0.2207 -0.7099 -0.1941
 7819SOL    HW135093   2.151   1.397   7.345 -0.2530 -0.1605 -0.3599
 7819SOL    HW235094   2.236   1.343   7.446 -0.4713  0.0222  0.5914
 7820SOL     OW35095   0.444   2.843   1.717 -0.6868  0.5932  0.1368
 7820SOL    HW135096   0.409   2.881   1.637  0.8927  0.0041 -0.8438
 7820SOL    HW235097   0.501   2.911   1.754 -0.0942  0.4866 -0.5681
 7821SOL     OW35098   4.460   0.836   5.409 -0.9973 -0.4011 -0.5723
 7821SOL    HW135099   4.435   0.773   5.477 -3.2701  2.5528  1.3188
 7821SOL    HW235100   4.398   0.908   5.417 -0.1566  0.1513  1.0704
 7822SOL     OW35101   0.429   0.054   8.009 -0.1383  0.2192  0.1796
 7822SOL    HW135102   0.462   0.123   8.066 -0.2548 -0.0428  0.5678
 7822SOL    HW235103   0.362   0.100   7.959 -1.4359 -1.5340  0.2847
 7823SOL     OW35104   4.171   3.300  13.628 -0.1613  0.4519 -0.6798
 7823SOL    HW135105   4.084   3.293  13.668  0.7333  0.8158  1.3177
 7823SOL    HW235106   4.189   3.394  13.632 -2.2055  0.8678 -1.1057
 7824SOL     OW35107   0.981   1.628   2.512  0.4109  0.0159 -0.0137
 7824SOL    HW135108   0.995   1.568   2.439 -1.2940 -0.7259  0.2765
 7824SOL    HW235109   0.920   1.689   2.471  0.9060  0.4026 -0.1868
 7825SOL     OW35110   2.355   4.680   2.909 -0.0401 -0.1595 -0.1168
 7825SOL    HW135111   2.319   4.709   2.825 -0.2082  0.6551  0.2423
 7825SOL    HW235112   2.276   4.667   2.961  1.2443 -1.8444  1.4262
 7826SOL     OW35113   0.084   2.211   9.581 -0.2885 -0.5137 -0.2712
 7826SOL    HW135114   0.045   2.295   9.606  0.9651 -0.1886  0.6005
 7826SOL    HW235115   0.153   2.244   9.523 -0.0198  0.8116  0.8123
 7827SOL     OW35116   0.928   4.126   1.801  0.2521  0.1121 -0.1789
 7827SOL    HW135117   0.985   4.198   1.774 -1.1572  0.9010 -1.0632
 7827SOL    HW235118   0.846   4.176   1.803 -1.0774 -2.0426 -1.9396
 7828SOL     OW35119   4.443   1.516   6.788  0.8729 -0.3003 -0.2039
 7828SOL    HW135120   4.358   1.554   6.809  1.8801  1.2991  0.9593
 7828SOL    HW235121   4.433   1.484   6.698 -0.2353 -0.3563 -0.0596
 7829SOL     OW35122   0.885   1.281  17.361  0.4992  0.2521  0.1498
 7829SOL    HW135123   0.956   1.230  17.321  0.5268 -0.1882  0.7649
 7829SOL    HW235124   0.844   1.214  17.415  0.7781  1.2730  1.5989
 7830SOL     OW35125   3.460   2.753   2.722 -0.7135 -0.1852 -0.2561
 7830SOL    HW135126   3.481   2.752   2.815 -2.3986  1.5418  0.1564
 7830SOL    HW235127   3.544   2.745   2.678 -1.3535  1.6490 -1.7914
 7831SOL     OW35128   1.043   4.504  13.870 -0.6951 -0.5785 -0.0644
 7831SOL    HW135129   1.137   4.515  13.857 -0.8334  1.4685  0.5675
 7831SOL    HW235130   1.037   4.454  13.951 -0.9306 -0.7419 -0.1812
 7832SOL     OW35131   4.630   2.731   3.803 -0.6386  0.0512 -0.1458
 7832SOL    HW135132   4.702   2.741   3.741 -2.0559 -1.4663 -2.0195
 7832SOL    HW235133   4.555   2.753   3.748  0.0985 -1.2541 -1.6823
 7833SOL     OW35134   2.856   3.229   3.563 -1.2496  0.2300  0.7739
 7833SOL    HW135135   2.810   3.148   3.543 -1.2170 -0.1335  2.1327
 7833SOL    HW235136   2.809   3.257   3.642 -1.9856 -0.0613  0.4395
 7834SOL     OW35137   3.647   1.597   3.197  0.6649 -0.5081  0.2854
 7834SOL    HW135138   3.569   1.628   3.245  0.5387 -0.4389  0.0370
 7834SOL    HW235139   3.618   1.630   3.112  1.0475 -0.6154  0.1149
 7835SOL     OW35140   2.669   3.885   3.989  0.6326 -0.3765 -0.4269
 7835SOL    HW135141   2.606   3.827   4.031  0.3809  0.4034  0.2719
 7835SOL    HW235142   2.707   3.940   4.058  1.9671 -3.5940  1.4156
 7836SOL     OW35143   2.472   2.402  11.324 -0.3420  0.9666  0.1164
 7836SOL    HW135144   2.438   2.407  11.413  1.0654 -1.5065  0.7738
 7836SOL    HW235145   2.399   2.356  11.282  2.2550 -2.3632 -0.7145
 7837SOL     OW35146   2.239   1.172   4.208 -0.0683 -0.0930 -0.1166
 7837SOL    HW135147   2.258   1.142   4.297  0.9612  0.5276 -0.1357
 7837SOL    HW235148   2.144   1.162   4.202 -0.0135 -0.8150  0.1241
 7838SOL     OW35149   3.884   1.098  16.582 -0.2347  0.0539  0.2343
 7838SOL    HW135150   3.974   1.117  16.556  0.2426 -0.6360  1.4147
 7838SOL    HW235151   3.881   1.138  16.669 -1.6586 -1.6282  0.9363
 7839SOL     OW35152   0.944   2.620  13.938 -0.3934 -0.0150  0.6853
 7839SOL    HW135153   0.979   2.700  13.977 -0.2471 -0.7747  2.1200
 7839SOL    HW235154   0.906   2.570  14.010 -1.1973  1.6860  1.4318
 7840SOL     OW35155   4.697   4.664  12.985 -0.1375  0.3523  0.3803
 7840SOL    HW135156   4.702   4.609  12.907 -0.0570  0.1710  0.5134
 7840SOL    HW235157   0.041   4.656  13.030  0.3512 -0.1301 -0.6133
 7841SOL     OW35158   3.475   4.164   3.668 -0.0931 -0.1189  0.2705
 7841SOL    HW135159   3.562   4.204   3.672 -0.2962  0.4992 -1.5954
 7841SOL    HW235160   3.472   4.115   3.751  1.8767 -0.3620  0.1920
 7842SOL     OW35161   2.483   0.805   0.145 -0.3894  0.5672 -0.0206
 7842SOL    HW135162   2.516   0.879   0.094 -2.1016  1.3335 -0.0446
 7842SOL    HW235163   2.560   0.751   0.131  0.4317  1.2316  1.8495
 7843SOL     OW35164   2.434   4.612   8.554  0.6262  0.0108  0.5773
 7843SOL    HW135165   2.446   4.524   8.519  2.9184  0.0672  1.2450
 7843SOL    HW235166   2.362   4.603   8.617 -1.3771  0.3912 -1.6591
 7844SOL     OW35167   4.551   4.039   9.641  0.1691 -0.6021  0.3725
 7844SOL    HW135168   4.465   4.052   9.679 -0.1708 -0.5099 -0.4209
 7844SOL    HW235169   4.610   4.111   9.663  0.3098 -0.0461 -1.7485
 7845SOL     OW35170   1.459   2.069   5.254 -0.8470 -0.0819  0.0689
 7845SOL    HW135171   1.535   2.126   5.239 -1.9482  1.3409 -0.1230
 7845SOL    HW235172   1.406   2.101   5.181  0.7958 -0.1698 -1.1720
 7846SOL     OW35173   3.893   1.902   4.053 -0.2109  0.0308  0.2366
 7846SOL    HW135174   3.830   1.932   4.117 -1.3140 -1.4019 -0.1913
 7846SOL    HW235175   3.884   1.809   4.073 -1.0510 -0.4997 -2.6432
 7847SOL     OW35176   2.586   0.111  14.306  0.1270  0.0999 -0.1042
 7847SOL    HW135177   2.599   0.044  14.238 -0.1821 -0.1704  0.1060
 7847SOL    HW235178   2.527   0.065  14.365  0.3859  2.0519  1.6493
 7848SOL     OW35179   1.797   2.456  15.598  0.7393  0.0423 -0.2841
 7848SOL    HW135180   1.822   2.528  15.656  1.6216 -1.0913  0.7304
 7848SOL    HW235181   1.826   2.492  15.514  0.5117 -0.1088 -0.4273
 7849SOL     OW35182   0.223   0.085  16.842 -0.4340  0.5339 -0.7554
 7849SOL    HW135183   0.275   0.133  16.906 -1.2654  0.8796 -0.3431
 7849SOL    HW235184   0.295   0.039  16.798 -0.8082 -0.4127 -0.3820
 7850SOL     OW35185   2.286   1.055   3.468  0.0387 -0.0235  0.1130
 7850SOL    HW135186   2.333   1.019   3.543 -1.4091 -0.8276  0.6312
 7850SOL    HW235187   2.230   0.981   3.444 -0.7044  0.2333  1.0367
 7851SOL     OW35188   0.856   1.628   7.252  0.3908  0.4723 -0.1915
 7851SOL    HW135189   0.844   1.603   7.161  0.4081  1.0483 -0.3498
 7851SOL    HW235190   0.949   1.606   7.261  0.5387  1.5132  0.8892
 7852SOL     OW35191   1.009   1.154   2.757  0.0033  0.3065 -0.4153
 7852SOL    HW135192   1.020   1.060   2.768  1.5982  0.5799  0.3959
 7852SOL    HW235193   0.914   1.163   2.747 -0.2079 -0.5991  0.7454
 7853SOL     OW35194   2.455   2.046   5.439  0.2729 -0.3489 -0.3200
 7853SOL    HW135195   2.550   2.052   5.436  0.2154  0.0539 -1.2954
 7853SOL    HW235196   2.446   1.951   5.431 -1.0413 -0.0978 -1.9351
 7854SOL     OW35197   3.573   4.443   3.186  0.3187 -0.0455 -0.4534
 7854SOL    HW135198   3.479   4.432   3.172  0.6278 -0.7229 -1.9724
 7854SOL    HW235199   3.600   4.385   3.258  0.9528 -1.2666 -1.6624
 7855SOL     OW35200   0.717   0.106   2.095  0.2885 -0.0787  0.5781
 7855SOL    HW135201   0.737   0.092   2.188 -0.0403 -1.9128  0.3666
 7855SOL    HW235202   0.801   0.143   2.068 -0.2735 -0.0957 -1.2103
 7856SOL     OW35203   3.522   0.407   0.662 -0.2563  0.1334  0.5650
 7856SOL    HW135204   3.564   0.468   0.601 -1.6010  0.1481 -0.3544
 7856SOL    HW235205   3.527   0.450   0.747  0.6751 -0.4681  0.8137
 7857SOL     OW35206   2.410   1.200   1.874  0.5721 -0.3757 -0.1813
 7857SOL    HW135207   2.375   1.232   1.958 -0.4658 -0.8005 -0.4476
 7857SOL    HW235208   2.335   1.197   1.814 -0.3962 -0.6181  1.0384
 7858SOL     OW35209   0.746   0.957   6.515 -0.4501 -1.0222  0.0650
 7858SOL    HW135210   0.801   0.908   6.577  3.0877  0.5102 -1.8336
 7858SOL    HW235211   0.704   1.023   6.571 -1.2870 -2.0403  0.6354
 7859SOL     OW35212   0.511   3.679   9.015  0.6133  0.0305 -0.0589
 7859SOL    HW135213   0.429   3.698   8.970 -0.1997  0.7546  1.6905
 7859SOL    HW235214   0.533   3.596   8.973 -1.1484  0.0452 -1.0070
 7860SOL     OW35215   0.116   2.676   0.158 -0.2248 -0.0197  0.4592
 7860SOL    HW135216   0.202   2.656   0.121 -0.3722  1.1323 -0.5130
 7860SOL    HW235217   0.126   2.700   0.250 -0.4565  0.7212  0.2879
 7861SOL     OW35218   2.437   2.088  10.774 -0.3437  0.5293 -0.1715
 7861SOL    HW135219   2.491   2.049  10.706  0.0517  1.6361 -0.4867
 7861SOL    HW235220   2.355   2.101  10.726 -0.2909  3.9606  0.6406
 7862SOL     OW35221   3.029   0.430   5.652 -0.3759  0.3892 -0.1499
 7862SOL    HW135222   3.046   0.443   5.746 -2.2496 -2.8391  0.6209
 7862SOL    HW235223   2.980   0.511   5.634 -1.9229 -0.4996  0.0559
 7863SOL     OW35224   2.779   1.063  12.223  0.6563 -0.0966  0.6588
 7863SOL    HW135225   2.874   1.070  12.232  0.6105  0.9463  0.3184
 7863SOL    HW235226   2.752   1.154  12.218  1.1093 -0.0882 -1.9900
 7864SOL     OW35227   3.694   1.264   3.612 -0.6023 -0.1204 -0.0164
 7864SOL    HW135228   3.627   1.312   3.564 -0.6730 -0.4926 -0.2908
 7864SOL    HW235229   3.744   1.221   3.542 -0.1185  0.0258  0.2348
 7865SOL     OW35230   1.735   1.869  11.987  0.9036 -0.2432  0.1292
 7865SOL    HW135231   1.688   1.950  12.007  2.0053  0.6057 -0.7698
 7865SOL    HW235232   1.747   1.866  11.892 -0.6038  1.7853 -0.1223
 7866SOL     OW35233   1.972   3.414   1.503  0.7297  0.3050  0.0702
 7866SOL    HW135234   1.961   3.509   1.501  1.5038  0.3430 -1.9346
 7866SOL    HW235235   1.880   3.388   1.494  0.9087 -1.4451  3.3929
 7867SOL     OW35236   2.042   1.384  16.181  0.7452 -0.7458 -0.1398
 7867SOL    HW135237   1.987   1.306  16.176  1.6120 -1.3894  0.5024
 7867SOL    HW235238   2.018   1.428  16.262 -1.4039 -0.4549 -0.9290
 7868SOL     OW35239   3.221   1.226   4.126 -0.2619 -0.0780  0.4922
 7868SOL    HW135240   3.183   1.304   4.086  0.6924  0.7613  1.2455
 7868SOL    HW235241   3.152   1.184   4.177  0.5216 -1.6498  0.2561
 7869SOL     OW35242   3.677   3.509   1.825  0.3472 -0.3782 -0.0059
 7869SOL    HW135243   3.694   3.603   1.816  1.7936 -0.6029  0.3315
 7869SOL    HW235244   3.585   3.503   1.852  0.7720  0.9142  1.7343
 7870SOL     OW35245   1.476   4.428   2.303  0.7359  0.3920  0.5394
 7870SOL    HW135246   1.565   4.455   2.282  0.6120  0.0970 -0.3437
 7870SOL    HW235247   1.424   4.493   2.256  1.6194  0.7836  0.0956
 7871SOL     OW35248   0.268   2.738   8.844 -0.2238 -0.4434  0.9230
 7871SOL    HW135249   0.220   2.821   8.844  0.2255 -0.1849  0.8837
 7871SOL    HW235250   0.296   2.721   8.934  0.4494 -1.2751  0.5534
 7872SOL     OW35251   1.960   4.579   1.984 -0.4705  0.3807  0.0982
 7872SOL    HW135252   1.987   4.546   1.898 -2.3347 -2.3649  0.5617
 7872SOL    HW235253   1.906   4.502   2.004 -1.5981  1.5911  1.7222
 7873SOL     OW35254   3.304   2.959   2.807  0.2281 -0.5441  0.3622
 7873SOL    HW135255   3.372   3.024   2.794 -0.6009  0.2534  0.0583
 7873SOL    HW235256   3.343   2.878   2.773  0.1875 -0.3414 -0.1645
 7874SOL     OW35257   0.537   1.295   1.986 -0.4181 -0.3759 -0.4619
 7874SOL    HW135258   0.471   1.232   2.016  0.1456 -0.6453  0.2148
 7874SOL    HW235259   0.516   1.367   2.046  0.2628 -0.3846 -0.2077
 7875SOL     OW35260   2.503   2.008   5.726  0.4696  0.2581 -0.3928
 7875SOL    HW135261   2.592   2.043   5.716  0.7902 -0.5820 -0.4924
 7875SOL    HW235262   2.470   2.025   5.638  0.7652  2.2781 -0.1167
 7876SOL     OW35263   4.476   3.822   2.782 -0.5735  0.4641  0.0279
 7876SOL    HW135264   4.398   3.788   2.737 -0.4012 -0.5267  0.4881
 7876SOL    HW235265   4.498   3.886   2.714  0.3672 -0.5546 -0.6205
 7877SOL     OW35266   3.042   0.872   2.461  0.0854 -0.4679 -0.2513
 7877SOL    HW135267   2.999   0.812   2.523 -1.3516  1.0172  0.2000
 7877SOL    HW235268   3.126   0.890   2.504  0.7145  0.4127 -1.8718
 7878SOL     OW35269   1.404   3.831   3.442  0.5327 -0.0058 -0.6709
 7878SOL    HW135270   1.428   3.915   3.402  0.8739  0.1714 -0.0886
 7878SOL    HW235271   1.340   3.866   3.503  0.6450  2.1734 -1.8066
 7879SOL     OW35272   3.137   3.809  11.945  0.3407  0.1088 -0.0688
 7879SOL    HW135273   3.194   3.766  12.008 -0.6204  0.6942  1.1981
 7879SOL    HW235274   3.142   3.901  11.973 -1.4443 -0.0241  0.7028
 7880SOL     OW35275   3.848   4.053   2.548  0.5012  0.3425 -0.0380
 7880SOL    HW135276   3.830   4.139   2.585 -0.2878  0.4588 -0.6729
 7880SOL    HW235277   3.834   3.997   2.624  1.4951  1.6628  1.1122
 7881SOL     OW35278   3.084   1.595  12.319 -0.0344  0.0354 -0.1277
 7881SOL    HW135279   3.046   1.524  12.370 -1.1166  0.5840 -0.1659
 7881SOL    HW235280   3.168   1.606  12.363 -2.2881  2.0718  3.6994
 7882SOL     OW35281   2.073   4.010   7.416  0.3040  0.6368 -0.0496
 7882SOL    HW135282   2.136   4.074   7.384 -0.3401  2.8706  3.2055
 7882SOL    HW235283   2.059   4.037   7.507  0.2090  2.3124 -0.5777
 7883SOL     OW35284   2.609   2.946   1.737  0.2811 -0.0441  0.1904
 7883SOL    HW135285   2.629   2.979   1.649  0.9095  0.2024  0.4221
 7883SOL    HW235286   2.528   2.990   1.762 -0.2627 -0.9034 -0.0658
 7884SOL     OW35287   4.408   2.956  13.124  0.0974 -0.1677  0.1926
 7884SOL    HW135288   4.400   2.905  13.043 -2.1619 -1.6697  1.3546
 7884SOL    HW235289   4.494   2.926  13.153  0.2982 -0.7600 -0.9879
 7885SOL     OW35290   0.182   0.299  11.571  0.1649  0.1822 -0.2530
 7885SOL    HW135291   0.123   0.374  11.577  2.8346  2.4204 -2.0387
 7885SOL    HW235292   0.170   0.284  11.477  0.3613 -0.6525 -0.1506
 7886SOL     OW35293   3.298   3.147   4.357 -0.4377 -0.2577  0.5944
 7886SOL    HW135294   3.342   3.168   4.275 -1.3013 -0.0567  0.1855
 7886SOL    HW235295   3.363   3.103   4.411  1.5571 -0.2897 -1.8458
 7887SOL     OW35296   1.008   3.068   7.287 -0.4504 -0.1625  0.0188
 7887SOL    HW135297   1.046   3.049   7.201 -2.8666  2.1727 -1.5766
 7887SOL    HW235298   0.919   3.096   7.263 -0.3075  0.8279  0.6481
 7888SOL     OW35299   1.681   0.579   6.880  0.6629 -0.5925  0.4582
 7888SOL    HW135300   1.675   0.655   6.821  1.0944 -0.2472  0.8562
 7888SOL    HW235301   1.692   0.620   6.966  1.6846  0.5287 -0.2053
 7889SOL     OW35302   0.221   2.861   2.292 -0.0309 -0.0919  1.0198
 7889SOL    HW135303   0.144   2.807   2.276 -0.4879  0.6472  0.7604
 7889SOL    HW235304   0.241   2.826   2.379 -1.7955 -1.7049  0.7872
 7890SOL     OW35305   3.103   1.475   1.529 -0.4495 -0.4144  0.3789
 7890SOL    HW135306   3.149   1.418   1.467 -0.7470  0.6097 -0.7834
 7890SOL    HW235307   3.076   1.552   1.479  1.5390  0.3377  0.4666
 7891SOL     OW35308   0.494   2.813   1.207  0.1305  0.1483  0.5013
 7891SOL    HW135309   0.466   2.729   1.243 -0.7828 -0.4630 -1.6371
 7891SOL    HW235310   0.553   2.837   1.278  0.3890  0.3095  0.2369
 7892SOL     OW35311   0.141   1.109   2.509  0.1236  0.1409  0.6934
 7892SOL    HW135312   0.103   1.145   2.590 -0.2786  1.5448 -0.1214
 7892SOL    HW235313   0.099   1.163   2.442  2.3661 -0.5049 -1.1932
 7893SOL     OW35314   0.610   2.798   9.693  0.2260 -0.2783 -0.0130
 7893SOL    HW135315   0.652   2.878   9.660 -1.2468 -1.2275 -4.1797
 7893SOL    HW235316   0.663   2.728   9.654  0.1530 -0.1371 -0.3675
 7894SOL     OW35317   4.281   3.090   3.093  0.6667 -0.1656  0.4418
 7894SOL    HW135318   4.351   3.054   3.039 -0.7354 -0.2477 -1.3163
 7894SOL    HW235319   4.257   3.174   3.056 -0.9823 -1.5789 -1.6691
 7895SOL     OW35320   2.563   1.736   3.760 -0.2174 -0.7229 -0.5545
 7895SOL    HW135321   2.603   1.704   3.841 -0.7361 -0.0429 -0.0248
 7895SOL    HW235322   2.481   1.689   3.749 -0.1927 -0.1305 -3.2607
 7896SOL     OW35323   0.426   4.144   3.805 -0.0986  0.1424 -0.0867
 7896SOL    HW135324   0.510   4.098   3.798 -0.8657 -1.4414  1.0333
 7896SOL    HW235325   0.435   4.151   3.900 -3.6739 -0.0411  0.2779
 7897SOL     OW35326   0.585   2.009   7.283 -0.5267  0.3379 -0.5767
 7897SOL    HW135327   0.551   1.958   7.209  2.1846 -1.3435 -0.6870
 7897SOL    HW235328   0.672   2.026   7.247 -0.9691 -0.7294 -2.1605
 7898SOL     OW35329   2.777   2.536   8.077  0.4901 -0.2633  0.0168
 7898SOL    HW135330   2.853   2.562   8.130  1.6924 -1.3716 -1.1584
 7898SOL    HW235331   2.760   2.445   8.100 -2.0055  0.3545  0.6613
 7899SOL     OW35332   1.305   3.138  15.533  0.6701 -0.3027  0.2827
 7899SOL    HW135333   1.345   3.217  15.570 -2.6209 -0.3844  3.9818
 7899SOL    HW235334   1.261   3.108  15.612  0.3630  0.0472  0.2465
 7900SOL     OW35335   3.800   2.182   5.280  0.0051 -0.0441  0.1606
 7900SOL    HW135336   3.771   2.224   5.361  0.1032  0.8627 -0.2774
 7900SOL    HW235337   3.797   2.257   5.220  1.2065  0.7815  1.1326
 7901SOL     OW35338   1.702   1.225   7.837  0.4473 -0.2353  0.0922
 7901SOL    HW135339   1.627   1.283   7.850  1.2308  0.4737  1.3947
 7901SOL    HW235340   1.695   1.161   7.908 -0.2001 -0.2696 -0.0041
 7902SOL     OW35341   0.931   0.228  11.489  0.3855  0.7570  0.2005
 7902SOL    HW135342   0.909   0.273  11.570 -1.7295 -1.0417  0.6569
 7902SOL    HW235343   0.971   0.301  11.442  0.8013  0.5740  0.2685
 7903SOL     OW35344   0.532   4.526   3.258 -0.1423  0.3392 -0.5405
 7903SOL    HW135345   0.596   4.482   3.314  0.3268 -2.8452 -3.5409
 7903SOL    HW235346   0.529   4.616   3.289  2.2869  0.6797 -1.2933
 7904SOL     OW35347   1.265   1.751   9.911  0.0675 -0.4084  0.5433
 7904SOL    HW135348   1.175   1.720   9.901 -0.8468  1.9339  1.5697
 7904SOL    HW235349   1.311   1.675   9.875  1.8778  1.8011 -1.7955
 7905SOL     OW35350   0.723   4.475  16.922  0.1521  0.1135 -0.2606
 7905SOL    HW135351   0.798   4.515  16.877  0.3988 -1.3295 -1.1336
 7905SOL    HW235352   0.673   4.423  16.859  0.5135 -2.0822  1.2343
 7906SOL     OW35353   3.181   3.865   6.453  0.3973 -0.2146 -0.2321
 7906SOL    HW135354   3.276   3.864   6.446  0.3513 -2.2077 -0.5586
 7906SOL    HW235355   3.161   3.772   6.438  0.7439 -0.5479  1.3881
 7907SOL     OW35356   1.475   3.119   6.767  0.0872  0.4323 -0.1968
 7907SOL    HW135357   1.426   3.045   6.802  0.2355  0.6970  0.5658
 7907SOL    HW235358   1.565   3.086   6.769 -0.4698 -0.9767  1.7703
 7908SOL     OW35359   3.930   3.988   2.042  0.4890 -0.0129 -0.2131
 7908SOL    HW135360   3.914   3.915   2.101 -2.6331  0.6303 -0.2493
 7908SOL    HW235361   3.976   4.054   2.095 -1.7543  2.2066 -1.0235
 7909SOL     OW35362   4.337   0.226   2.017  0.0570  0.1653  0.0694
 7909SOL    HW135363   4.417   0.277   2.033  0.8800 -0.3723 -2.2200
 7909SOL    HW235364   4.346   0.209   1.923 -2.5831 -0.6921 -0.0281
 7910SOL     OW35365   1.981   2.192   1.970 -0.0471 -0.1543 -0.1284
 7910SOL    HW135366   1.960   2.266   1.912 -0.2765 -0.9380 -1.0466
 7910SOL    HW235367   1.897   2.184   2.015  0.2214  1.9866  0.7750
 7911SOL     OW35368   3.965   1.324   2.984  0.1908 -0.1271 -0.0373
 7911SOL    HW135369   3.995   1.234   2.983  0.3299 -0.0937  1.1213
 7911SOL    HW235370   3.984   1.351   2.894  2.2119 -2.9024 -0.4219
 7912SOL     OW35371   0.438   0.104   2.191  0.1054  0.0315 -0.0400
 7912SOL    HW135372   0.430   0.068   2.280 -0.0528  2.5918  0.9752
 7912SOL    HW235373   0.531   0.121   2.174  0.0414  0.2058 -0.2079
 7913SOL     OW35374   4.137   3.194   0.295  0.4737  0.1510 -0.0065
 7913SOL    HW135375   4.064   3.235   0.249  0.1954 -1.5938 -1.1124
 7913SOL    HW235376   4.131   3.242   0.377 -0.0030 -1.0986  0.6966
 7914SOL     OW35377   0.635   1.064   4.186 -0.4080 -0.2230 -0.2996
 7914SOL    HW135378   0.620   1.044   4.278  1.4328  0.5003  0.1585
 7914SOL    HW235379   0.640   0.974   4.156 -2.7798 -0.9861  1.5786
 7915SOL     OW35380   0.281   0.826   4.928  0.5361 -0.2110  0.2925
 7915SOL    HW135381   0.247   0.820   4.838 -1.7966 -1.3720  1.2476
 7915SOL    HW235382   0.352   0.762   4.924  0.1014 -0.7206  0.7900
 7916SOL     OW35383   4.272   0.303   8.069 -0.5842 -0.2719  0.4649
 7916SOL    HW135384   4.316   0.229   8.027 -1.7000 -1.3161  1.1386
 7916SOL    HW235385   4.303   0.377   8.017 -0.1022 -0.7523  0.0796
 7917SOL     OW35386   3.710   4.339   3.726  0.1067  0.7440  0.7673
 7917SOL    HW135387   3.758   4.376   3.800 -0.2734  0.8489  0.9637
 7917SOL    HW235388   3.759   4.258   3.713  0.9342  1.6208 -1.4872
 7918SOL     OW35389   4.478   1.257  16.161  0.3976  0.5170  0.3065
 7918SOL    HW135390   4.530   1.326  16.120 -0.7008  1.3074  0.2654
 7918SOL    HW235391   4.463   1.301  16.245  1.2481 -1.4115  1.4820
 7919SOL     OW35392   3.238   4.639  12.462  0.2675 -0.2408 -0.1233
 7919SOL    HW135393   3.305   4.589  12.509  0.4961  1.9921  1.9296
 7919SOL    HW235394   3.245   4.730  12.492 -1.3932 -0.8399  2.1086
 7920SOL     OW35395   0.938   3.976   4.175  0.2059 -0.1519 -0.0293
 7920SOL    HW135396   1.004   3.930   4.228  0.2904  1.0628  0.9162
 7920SOL    HW235397   0.985   4.044   4.128  0.4647  0.6759  1.4210
 7921SOL     OW35398   4.163   1.476   9.351  0.0258  0.0541 -0.0123
 7921SOL    HW135399   4.241   1.503   9.399 -1.8009  1.1250  2.3268
 7921SOL    HW235400   4.116   1.436   9.424  1.3876 -0.9226  0.3564
 7922SOL     OW35401   2.982   0.622  17.173  0.2479 -0.1434  0.1345
 7922SOL    HW135402   3.022   0.707  17.190  1.4138 -0.9340  1.3488
 7922SOL    HW235403   2.917   0.620  17.243 -1.7389 -0.4946 -1.7223
 7923SOL     OW35404   0.104   4.675  15.897  0.3236  0.1851  0.2050
 7923SOL    HW135405   0.118   4.631  15.814  1.1444  0.2085  0.3294
 7923SOL    HW235406   0.061   4.605  15.947 -1.2671  0.3002 -1.0161
 7924SOL     OW35407   1.220   3.841  11.651 -0.1423  0.5024  0.3746
 7924SOL    HW135408   1.310   3.809  11.648 -0.6135 -0.5737 -2.4064
 7924SOL    HW235409   1.180   3.806  11.572  3.6861  0.9808 -1.8237
 7925SOL     OW35410   4.332   2.422   5.584  0.0717  0.3086 -0.1726
 7925SOL    HW135411   4.333   2.327   5.595 -3.1420  0.1369 -1.3911
 7925SOL    HW235412   4.239   2.442   5.577  0.4608  1.7465 -1.2590
 7926SOL     OW35413   1.504   1.691   1.937  0.2642 -0.3555 -0.4255
 7926SOL    HW135414   1.586   1.727   1.902 -0.2229  1.1159 -0.0588
 7926SOL    HW235415   1.529   1.607   1.975 -1.5447 -0.6019  0.1995
 7927SOL     OW35416   4.253   2.007   1.344  0.7653  0.4364 -0.4073
 7927SOL    HW135417   4.256   2.014   1.439  1.2475 -0.4821 -0.3503
 7927SOL    HW235418   4.320   1.938   1.335  1.6379  1.2267  0.0729
 7928SOL     OW35419   0.617   2.607   7.710  0.5494 -0.1180  0.2707
 7928SOL    HW135420   0.582   2.595   7.798 -0.0405  1.1310  0.2135
 7928SOL    HW235421   0.658   2.523   7.693  2.6124  1.5518 -3.0060
 7929SOL     OW35422   2.886   4.609   4.573 -0.4251  0.4049 -0.4691
 7929SOL    HW135423   2.863   4.557   4.495  1.6064  0.3018 -0.9925
 7929SOL    HW235424   2.843   4.693   4.556 -2.0208  0.3232  3.2768
 7930SOL     OW35425   3.228   4.321   8.331 -0.1215  0.0382  0.2045
 7930SOL    HW135426   3.224   4.339   8.238 -0.8666 -0.9896  0.0365
 7930SOL    HW235427   3.152   4.263   8.342  0.1925 -0.5849 -0.9015
 7931SOL     OW35428   2.373   3.012   9.024  0.2595 -0.1701 -0.2046
 7931SOL    HW135429   2.412   3.088   9.069  1.2653 -1.2432  0.7374
 7931SOL    HW235430   2.416   3.014   8.938 -2.4503 -0.1902 -1.5436
 7932SOL     OW35431   0.162   0.003  16.188 -0.3257  0.2596 -0.2778
 7932SOL    HW135432   0.110   4.682  16.135  0.8672 -0.7198 -0.3050
 7932SOL    HW235433   0.251   4.720  16.163 -0.2851  1.7536 -1.5752
 7933SOL     OW35434   3.589   0.958   2.979  0.2462 -0.3293  0.5319
 7933SOL    HW135435   3.630   1.040   2.953  0.2557 -0.8596 -1.1340
 7933SOL    HW235436   3.655   0.897   2.947 -0.4507 -1.6863  1.6407
 7934SOL     OW35437   0.542   0.511   4.134 -0.2520 -0.1093 -0.1543
 7934SOL    HW135438   0.542   0.519   4.229 -2.3107 -0.2076 -0.1466
 7934SOL    HW235439   0.598   0.437   4.109  0.1036  0.4325 -0.9830
 7935SOL     OW35440   2.410   4.231   9.332 -0.7730  0.3559 -0.3288
 7935SOL    HW135441   2.424   4.253   9.240  1.0512 -0.4611 -0.2354
 7935SOL    HW235442   2.453   4.147   9.342 -0.5361  0.6309  0.9097
 7936SOL     OW35443   0.335   1.671   9.936 -0.3573  0.3886  0.1216
 7936SOL    HW135444   0.266   1.614   9.972  0.4753 -0.7558 -0.0902
 7936SOL    HW235445   0.372   1.709  10.016  2.9686 -0.1887 -1.1414
 7937SOL     OW35446   2.457   0.678   4.857  0.2928  0.2483  0.0476
 7937SOL    HW135447   2.479   0.678   4.950  1.1943 -1.1749 -0.1499
 7937SOL    HW235448   2.362   0.673   4.857  0.2760  0.5250 -0.5620
 7938SOL     OW35449   1.955   3.321   3.803 -0.3279  0.2497  0.7667
 7938SOL    HW135450   1.915   3.391   3.750 -0.4930  0.2443  0.8859
 7938SOL    HW235451   1.919   3.316   3.891 -3.4006 -0.5299 -0.5602
 7939SOL     OW35452   0.226   4.446   1.150 -0.1674 -0.0052 -0.3490
 7939SOL    HW135453   0.226   4.352   1.168  0.7048 -0.2558 -1.6076
 7939SOL    HW235454   0.302   4.467   1.204  0.5325  1.4201 -1.8685
 7940SOL     OW35455   0.591   0.198   4.365  0.5288  0.5063  0.3046
 7940SOL    HW135456   0.642   0.120   4.342  0.9108  0.8117  0.1162
 7940SOL    HW235457   0.665   0.246   4.402  0.4401  0.1421  0.9495
 7941SOL     OW35458   4.364   2.496   1.903  0.0306  0.2471 -0.0743
 7941SOL    HW135459   4.442   2.521   1.853  1.6931 -0.4195  2.2160
 7941SOL    HW235460   4.302   2.552   1.856  0.1191 -0.3348 -0.8764
 7942SOL     OW35461   1.489   3.136   1.339 -0.7760  0.6035 -0.2697
 7942SOL    HW135462   1.562   3.197   1.346 -0.2720  0.3862 -3.5139
 7942SOL    HW235463   1.482   3.123   1.245  0.4713  1.5169 -0.4823
 7943SOL     OW35464   1.841   4.301   3.371  0.4219  0.4321  0.1598
 7943SOL    HW135465   1.763   4.250   3.351 -1.3436  2.0043  3.1061
 7943SOL    HW235466   1.844   4.369   3.303 -1.2182  0.5021  0.1720
 7944SOL     OW35467   1.921   0.087   5.837 -0.8509 -0.2377  0.2124
 7944SOL    HW135468   1.958   0.109   5.752  1.3501  3.3082  2.0665
 7944SOL    HW235469   1.834   0.122   5.818 -1.1394  0.1540  2.2754
 7945SOL     OW35470   0.428   1.617  10.604  0.2215 -0.1194 -0.4897
 7945SOL    HW135471   0.433   1.665  10.521  0.6895 -0.3672 -0.6028
 7945SOL    HW235472   0.495   1.665  10.653  1.8883 -0.2387 -2.6477
 7946SOL     OW35473   1.386   2.094   6.536  0.7113  0.6064 -0.4205
 7946SOL    HW135474   1.358   2.184   6.518  0.9731  0.5976 -0.8888
 7946SOL    HW235475   1.411   2.097   6.628 -1.4578  0.6804  0.1616
 7947SOL     OW35476   3.950   3.002   9.250 -0.1148  0.6567 -0.2030
 7947SOL    HW135477   3.937   3.095   9.269  0.6795 -0.1848  4.5092
 7947SOL    HW235478   4.044   3.001   9.235  0.0233 -0.0550  0.6992
 7948SOL     OW35479   2.730   4.036  13.451 -0.0934 -0.0444  0.4668
 7948SOL    HW135480   2.822   4.056  13.436 -0.1881  0.9778  1.2541
 7948SOL    HW235481   2.704   3.973  13.383  3.1758 -0.0931 -0.7665
 7949SOL     OW35482   3.014   2.660  13.588 -0.0601  0.3581 -0.3866
 7949SOL    HW135483   2.984   2.612  13.510  0.0723  0.1342 -0.3008
 7949SOL    HW235484   3.022   2.588  13.651 -0.9826  1.7118  1.2901
 7950SOL     OW35485   4.600   3.273   5.825 -0.3374  0.1838  0.0550
 7950SOL    HW135486   4.660   3.347   5.828 -0.0214 -0.0816  0.3147
 7950SOL    HW235487   4.659   3.207   5.863 -0.2082  0.7621  0.8582
 7951SOL     OW35488   1.728   0.647   9.089 -0.0479 -0.1518  0.0906
 7951SOL    HW135489   1.771   0.634   9.004 -0.1925 -1.5168  0.2276
 7951SOL    HW235490   1.802   0.673   9.144  1.0663 -1.2991 -0.8670
 7952SOL     OW35491   0.875   0.508   8.554 -0.3940 -0.1137 -0.3528
 7952SOL    HW135492   0.799   0.455   8.578 -0.6169 -0.6434 -2.2057
 7952SOL    HW235493   0.831   0.578   8.506  0.4156 -0.0146 -0.9655
 7953SOL     OW35494   1.206   1.908   5.986 -0.1485 -0.0219 -0.9660
 7953SOL    HW135495   1.218   2.003   5.977  0.7327 -0.0872 -0.4473
 7953SOL    HW235496   1.141   1.890   5.918 -0.2746 -2.8030 -0.1231
 7954SOL     OW35497   2.231   3.837   2.005  0.8829  0.0264 -0.5102
 7954SOL    HW135498   2.175   3.873   2.073 -0.2350  3.1357 -3.0604
 7954SOL    HW235499   2.245   3.748   2.037  0.1143 -0.0056 -0.2575
 7955SOL     OW35500   2.796   3.459   2.924  0.6120 -0.7037  0.1786
 7955SOL    HW135501   2.784   3.367   2.949 -0.9760 -0.5709 -0.0434
 7955SOL    HW235502   2.782   3.454   2.829 -0.2335 -0.1449  0.2745
 7956SOL     OW35503   3.641   4.420   0.810  0.7892 -0.2663 -0.3100
 7956SOL    HW135504   3.580   4.385   0.745  0.9308 -0.3092 -0.4200
 7956SOL    HW235505   3.702   4.458   0.747  0.9230 -2.3667 -1.4370
 7957SOL     OW35506   0.108   2.517   8.145  0.2156  0.1751 -0.1968
 7957SOL    HW135507   0.128   2.610   8.140  1.0973 -0.0584 -1.2123
 7957SOL    HW235508   0.200   2.488   8.140  0.2184 -0.1918  1.8846
 7958SOL     OW35509   0.823   2.107   8.395 -0.3408 -0.9889  0.3014
 7958SOL    HW135510   0.835   2.077   8.485 -2.0288  0.7863  1.1285
 7958SOL    HW235511   0.730   2.084   8.392 -0.2628 -1.3377  0.5767
 7959SOL     OW35512   4.054   4.476  13.107 -0.4151  0.1029 -0.8804
 7959SOL    HW135513   4.052   4.569  13.127  1.0478  0.2396 -1.3721
 7959SOL    HW235514   4.026   4.462  13.017 -1.4482  1.4841 -0.7773
 7960SOL     OW35515   4.448   0.315   3.970  0.1334 -0.1285 -0.8273
 7960SOL    HW135516   4.540   0.295   3.986 -0.4969 -0.2095  2.6208
 7960SOL    HW235517   4.451   0.352   3.882 -0.1994 -2.1217 -1.6686
 7961SOL     OW35518   3.696   2.234   2.928  0.2169 -0.3014 -0.3352
 7961SOL    HW135519   3.639   2.178   2.876 -0.2347  0.7003 -0.9131
 7961SOL    HW235520   3.763   2.250   2.861 -1.3226 -0.3611 -1.8917
 7962SOL     OW35521   3.117   1.741  15.953 -0.3838 -0.2110  0.0219
 7962SOL    HW135522   3.135   1.722  16.045 -1.5663  0.0496  0.3055
 7962SOL    HW235523   3.052   1.673  15.937 -2.7132  2.2651 -1.0212
 7963SOL     OW35524   1.631   1.163  10.182 -0.4433  0.3585  0.4515
 7963SOL    HW135525   1.553   1.147  10.236  0.2252 -2.0652  0.6892
 7963SOL    HW235526   1.697   1.107  10.223  0.2206  0.9671  0.2085
 7964SOL     OW35527   4.147   2.893   8.206 -0.7440 -0.2192  0.3687
 7964SOL    HW135528   4.240   2.885   8.186 -0.2727  0.5434  2.2005
 7964SOL    HW235529   4.117   2.962   8.148  0.0266 -0.2982 -0.1187
 7965SOL     OW35530   3.327   4.696  17.070  0.7561 -0.3171 -0.2391
 7965SOL    HW135531   3.310   4.707  17.164  0.8656  2.0606 -0.4936
 7965SOL    HW235532   3.421   4.681  17.056  1.1605  1.4476  0.5604
 7966SOL     OW35533   0.635   3.746   6.199  0.1283  0.0999 -0.0527
 7966SOL    HW135534   0.670   3.835   6.193 -0.6239  0.2789 -1.7430
 7966SOL    HW235535   0.582   3.754   6.278  0.4779 -0.3636  0.2292
 7967SOL     OW35536   1.631   0.667   3.075  0.0432 -0.5393 -0.5823
 7967SOL    HW135537   1.619   0.729   3.003 -1.0829  1.4745  1.3240
 7967SOL    HW235538   1.558   0.607   3.067  1.0936 -1.9913  0.8438
 7968SOL     OW35539   2.611   0.870   5.067 -0.1198  0.7704 -0.6183
 7968SOL    HW135540   2.621   0.961   5.038 -0.3196  1.0206  0.0976
 7968SOL    HW235541   2.650   0.823   4.994  0.9196  1.0686 -0.2580
 7969SOL     OW35542   1.271   3.327   6.419 -0.7625  0.5582 -0.5949
 7969SOL    HW135543   1.207   3.269   6.377  0.0046  0.6378 -1.8683
 7969SOL    HW235544   1.347   3.288   6.376  0.1751  2.1044 -0.3196
 7970SOL     OW35545   3.330   4.355   8.064 -0.4562 -0.2259 -0.2593
 7970SOL    HW135546   3.359   4.445   8.076 -0.4153 -0.1799 -0.7219
 7970SOL    HW235547   3.395   4.309   8.119 -0.1591  0.1411 -0.3075
 7971SOL     OW35548   0.145   3.475  16.546 -0.3026  0.4229 -0.7746
 7971SOL    HW135549   0.124   3.394  16.592 -1.1133 -0.4906 -2.7885
 7971SOL    HW235550   0.237   3.480  16.570 -0.3696 -0.9800 -0.2544
 7972SOL     OW35551   4.130   0.014   6.188 -0.2637  0.1068  0.3925
 7972SOL    HW135552   4.063   4.721   6.128 -0.1123  0.5794 -0.0377
 7972SOL    HW235553   4.201   4.692   6.168  1.1204  0.9987  2.5717
 7973SOL     OW35554   1.564   4.019  15.256 -0.2521 -0.1191 -0.2248
 7973SOL    HW135555   1.649   4.059  15.235  0.1251 -2.2398 -2.7033
 7973SOL    HW235556   1.521   4.101  15.281  1.2527  0.5627  0.1902
 7974SOL     OW35557   2.986   2.703   2.685 -0.3500  0.2490  0.2755
 7974SOL    HW135558   3.020   2.624   2.727  0.6037  0.1883 -0.6089
 7974SOL    HW235559   2.981   2.759   2.762 -0.0276 -0.1835  0.6142
 7975SOL     OW35560   1.272   2.336   5.389  0.0127  0.1404  0.2080
 7975SOL    HW135561   1.281   2.284   5.469  2.8574 -1.5938 -1.1961
 7975SOL    HW235562   1.339   2.295   5.335  0.6351  0.5232  0.6853
 7976SOL     OW35563   4.483   0.685   9.749 -0.3880 -0.6287 -0.0798
 7976SOL    HW135564   4.390   0.678   9.772 -0.5894 -1.2668 -1.0497
 7976SOL    HW235565   4.525   0.705   9.832 -0.9532  1.0969 -0.2045
 7977SOL     OW35566   3.282   0.871  10.629  0.1555 -0.2509  0.4681
 7977SOL    HW135567   3.258   0.815  10.555  3.9167 -2.5763  1.0426
 7977SOL    HW235568   3.208   0.864  10.690 -0.0392 -1.4395  0.0987
 7978SOL     OW35569   4.582   1.539   1.176  0.4564 -0.2285 -0.2245
 7978SOL    HW135570   4.637   1.604   1.219 -0.9437  0.0307  1.1606
 7978SOL    HW235571   4.603   1.569   1.088 -1.8956  0.8942 -0.3901
 7979SOL     OW35572   3.407   0.062   9.115 -0.1424  0.2097 -0.3467
 7979SOL    HW135573   3.461   0.066   9.036 -1.6858 -1.4415 -1.4566
 7979SOL    HW235574   3.480   0.069   9.177  0.0417  1.8145 -0.7321
 7980SOL     OW35575   4.307   3.718   4.151 -0.0804  0.5419 -0.3788
 7980SOL    HW135576   4.372   3.727   4.081  0.4091 -1.2543 -0.1594
 7980SOL    HW235577   4.330   3.792   4.208  1.3308 -0.8972  0.9115
 7981SOL     OW35578   3.689   2.127   7.786 -0.1116 -0.3722 -0.3886
 7981SOL    HW135579   3.605   2.144   7.829 -1.1819  0.4642 -2.8439
 7981SOL    HW235580   3.737   2.080   7.854  1.5557  1.1337 -0.5276
 7982SOL     OW35581   3.823   4.363  13.427  0.3692  0.2858  0.4003
 7982SOL    HW135582   3.797   4.408  13.347  1.4788  0.2188  0.0122
 7982SOL    HW235583   3.866   4.286  13.389  0.6881  0.6848 -0.0533
 7983SOL     OW35584   4.237   0.861   8.335  0.4145  0.5011  0.1772
 7983SOL    HW135585   4.225   0.769   8.358 -0.6627  0.0872 -2.0339
 7983SOL    HW235586   4.147   0.881   8.309  0.1973 -1.4578 -0.5764
 7984SOL     OW35587   3.838   3.610  13.065 -0.3552  0.4779 -0.3880
 7984SOL    HW135588   3.814   3.588  12.975  0.3751 -1.2271 -0.1606
 7984SOL    HW235589   3.772   3.558  13.110 -0.3007  0.2197 -0.6080
 7985SOL     OW35590   2.231   3.833   4.427 -0.3147  0.2119 -0.8175
 7985SOL    HW135591   2.177   3.796   4.497 -1.1963  1.4907 -0.8183
 7985SOL    HW235592   2.222   3.771   4.354  0.4674  1.3523 -1.8838
 7986SOL     OW35593   3.783   2.768   4.623  0.2102 -0.4513  0.5160
 7986SOL    HW135594   3.778   2.677   4.653  1.0733 -0.5416  0.3972
 7986SOL    HW235595   3.756   2.755   4.532  2.4072  0.4371 -0.2693
 7987SOL     OW35596   3.090   2.520   2.868  0.1610 -0.0261  0.0088
 7987SOL    HW135597   3.176   2.521   2.910 -0.3877 -0.6352  1.1619
 7987SOL    HW235598   3.084   2.425   2.859 -0.6797  0.1652 -1.4166
 7988SOL     OW35599   3.869   0.926   6.500 -0.2804 -0.2068  0.3694
 7988SOL    HW135600   3.776   0.916   6.477  0.7843 -0.5500 -3.8072
 7988SOL    HW235601   3.918   0.912   6.419 -0.5075 -0.9020  0.3525
 7989SOL     OW35602   0.730   1.316   1.430  0.3141  0.5618  0.1737
 7989SOL    HW135603   0.758   1.245   1.488  0.8009  3.1038  3.0433
 7989SOL    HW235604   0.641   1.286   1.413  0.6299  0.5703 -1.4121
 7990SOL     OW35605   2.917   3.123   5.007 -0.1900  0.1749 -0.0826
 7990SOL    HW135606   2.938   3.102   4.916  0.2541 -0.1272  0.0863
 7990SOL    HW235607   2.908   3.218   5.000  3.2063  0.4889 -0.4119
 7991SOL     OW35608   1.290   2.346   6.278  0.0531  0.5010 -0.4201
 7991SOL    HW135609   1.203   2.385   6.276  0.9519  2.4456 -0.9105
 7991SOL    HW235610   1.336   2.426   6.253  1.0828  0.0648  0.0752
 7992SOL     OW35611   4.674   0.625   1.044  0.0120 -0.6520 -0.3063
 7992SOL    HW135612   4.593   0.677   1.046  2.4741  3.1997 -1.3325
 7992SOL    HW235613   4.660   0.574   0.965  0.2816  0.6483 -1.1896
 7993SOL     OW35614   0.024   2.167   6.050  0.2941 -0.1378 -0.0647
 7993SOL    HW135615   0.081   2.237   6.082  0.3990  0.8776 -2.5257
 7993SOL    HW235616   4.684   2.207   6.083 -1.3289 -2.7692 -0.8150
 7994SOL     OW35617   2.151   3.940   1.444  0.6423 -0.2547  0.2812
 7994SOL    HW135618   2.150   3.868   1.506 -0.2037  0.3096  0.9229
 7994SOL    HW235619   2.245   3.935   1.427  0.8762  1.2669  1.1060
 7995SOL     OW35620   2.169   0.172   6.266 -0.0682 -0.1150 -0.0631
 7995SOL    HW135621   2.234   0.135   6.326  1.5609  0.8476 -1.2114
 7995SOL    HW235622   2.204   0.260   6.249 -0.6843  0.2836  0.7351
 7996SOL     OW35623   0.963   3.547   6.957  0.3036  0.4404 -0.1808
 7996SOL    HW135624   0.915   3.553   7.039 -1.0587 -0.2261 -0.9420
 7996SOL    HW235625   1.046   3.575   6.996  0.5530 -0.4600 -0.0814
 7997SOL     OW35626   2.694   4.609   3.546  0.6891  0.5018 -0.2140
 7997SOL    HW135627   2.767   4.591   3.606  1.3273 -1.1027 -1.4649
 7997SOL    HW235628   2.653   4.523   3.537  0.2623  0.6346  0.4936
 7998SOL     OW35629   2.829   2.063  10.876  0.0924  0.0944  0.8138
 7998SOL    HW135630   2.871   2.009  10.809  0.4107  1.3848 -0.0341
 7998SOL    HW235631   2.902   2.123  10.889 -0.1755  0.7295 -0.5321
 7999SOL     OW35632   3.747   2.707   4.135 -0.2604 -0.2484 -0.1105
 7999SOL    HW135633   3.800   2.717   4.215  0.4531  2.4126 -0.9093
 7999SOL    HW235634   3.716   2.618   4.148  1.2555 -0.9661 -1.4923
 8000SOL     OW35635   2.683   1.109   4.974 -0.1998 -0.1289  0.4832
 8000SOL    HW135636   2.661   1.200   4.955  1.6066  0.4562  1.2356
 8000SOL    HW235637   2.723   1.077   4.893  0.2838  0.9736  0.2891
 8001SOL     OW35638   0.543   0.602   4.398 -0.1985  0.7613 -0.2506
 8001SOL    HW135639   0.538   0.693   4.425  0.8438  0.6335  0.3652
 8001SOL    HW235640   0.512   0.558   4.478  2.1490 -0.3088  0.0791
 8002SOL     OW35641   2.052   2.005   8.980 -0.3101 -0.0591  0.6265
 8002SOL    HW135642   2.017   2.024   8.894 -2.2407  1.2523  1.7000
 8002SOL    HW235643   1.972   2.003   9.033 -1.4351 -0.4585 -1.0913
 8003SOL     OW35644   2.584   0.099   0.443  0.4868 -0.4318 -0.2428
 8003SOL    HW135645   2.605   0.033   0.509 -1.8545 -1.8556 -0.9616
 8003SOL    HW235646   2.603   0.176   0.497  0.9609  0.1236 -1.1861
 8004SOL     OW35647   2.141   0.877  13.600  0.1847  0.2317 -0.3542
 8004SOL    HW135648   2.113   0.833  13.681  0.4102 -0.8888 -0.8817
 8004SOL    HW235649   2.065   0.869  13.543 -1.5906  2.5568  1.6863
 8005SOL     OW35650   3.457   4.461   1.850 -0.1622  0.0239 -0.2994
 8005SOL    HW135651   3.397   4.492   1.782  2.2125  0.0396 -2.3860
 8005SOL    HW235652   3.435   4.526   1.916  0.2202  1.2441 -1.3516
 8006SOL     OW35653   1.078   0.360  10.769  0.0234  0.4136 -0.2525
 8006SOL    HW135654   1.081   0.288  10.706 -1.6612 -0.1027  0.2516
 8006SOL    HW235655   1.021   0.326  10.838  1.1122  0.6167  0.7600
 8007SOL     OW35656   0.563   4.313   7.310  0.0984  0.5652 -0.1004
 8007SOL    HW135657   0.507   4.245   7.347  0.4154  0.0189 -0.6320
 8007SOL    HW235658   0.509   4.385   7.342 -1.1410 -1.0048  1.3371
 8008SOL     OW35659   1.919   0.435   4.856  0.1889 -0.3333 -0.0093
 8008SOL    HW135660   1.871   0.359   4.887  1.3686 -2.0181 -2.3158
 8008SOL    HW235661   1.857   0.506   4.877  2.3306  1.8549 -1.1115
 8009SOL     OW35662   0.557   0.951   3.148 -0.1646  0.0728  0.3643
 8009SOL    HW135663   0.588   1.035   3.115  0.3254 -0.6815 -1.0825
 8009SOL    HW235664   0.477   0.980   3.193 -0.0092 -0.3494  0.9180
 8010SOL     OW35665   1.626   0.252   0.562 -0.2198  0.3073 -0.0670
 8010SOL    HW135666   1.597   0.328   0.511  3.3894  0.8560 -1.3287
 8010SOL    HW235667   1.604   0.275   0.652  0.0538  1.2369 -0.2437
 8011SOL     OW35668   4.342   4.426   7.699 -0.7816 -0.4627 -1.0598
 8011SOL    HW135669   4.427   4.439   7.741 -1.1047  0.5127 -0.7129
 8011SOL    HW235670   4.296   4.509   7.711 -0.5394 -0.5754  0.5967
 8012SOL     OW35671   3.132   0.079   4.517  0.4950  0.0335 -0.1412
 8012SOL    HW135672   3.076   0.012   4.555  0.4860 -0.7750 -1.5991
 8012SOL    HW235673   3.158   0.050   4.430 -1.0007 -1.8501  0.0546
 8013SOL     OW35674   4.712   4.554   7.282 -0.7006  0.3122  0.3011
 8013SOL    HW135675   4.685   4.515   7.365  0.4034 -2.2184 -0.5512
 8013SOL    HW235676   0.057   4.515   7.264  0.1491  1.7420  1.2582
 8014SOL     OW35677   2.411   1.348   6.395  0.2981  0.1070  0.3562
 8014SOL    HW135678   2.415   1.256   6.368  0.0815  0.3118 -0.3758
 8014SOL    HW235679   2.438   1.396   6.318  2.0714 -1.9852 -0.3198
 8015SOL     OW35680   0.689   3.624  16.534 -0.2461  0.3829 -0.3487
 8015SOL    HW135681   0.675   3.719  16.540 -1.0875  0.4160 -3.1022
 8015SOL    HW235682   0.762   3.607  16.474  2.4572 -0.1406  3.1171
 8016SOL     OW35683   3.279   1.481  11.206 -0.4225  0.2448 -0.1441
 8016SOL    HW135684   3.187   1.507  11.214  0.2722  2.7295 -0.3326
 8016SOL    HW235685   3.285   1.425  11.283  0.8963 -1.0221 -1.1694
 8017SOL     OW35686   0.345   3.386   3.774 -0.2233  0.3736  0.5089
 8017SOL    HW135687   0.398   3.312   3.745 -0.7854 -0.0227  0.4965
 8017SOL    HW235688   0.387   3.411   3.857  1.9014  0.0492 -0.4661
 8018SOL     OW35689   1.869   4.659  14.396 -0.4258 -0.2740 -0.1030
 8018SOL    HW135690   1.960   4.641  14.370 -0.3192 -1.7222  1.1890
 8018SOL    HW235691   1.887   4.673  14.489 -0.3245  3.1658 -0.6609
 8019SOL     OW35692   3.961   2.216   8.377 -0.2134 -0.1676  0.2037
 8019SOL    HW135693   3.960   2.254   8.465  1.2771  0.5739 -0.0981
 8019SOL    HW235694   3.873   2.247   8.356  0.0272 -1.2343 -2.3014
 8020SOL     OW35695   1.636   0.036   7.366  0.2358  0.6661  0.0402
 8020SOL    HW135696   1.585   4.698   7.347 -1.8135  2.1098 -0.4423
 8020SOL    HW235697   1.626   0.092   7.289 -0.7020  0.9003  0.3281
 8021SOL     OW35698   3.556   1.575   4.995 -0.1436 -0.2981  0.0133
 8021SOL    HW135699   3.526   1.486   4.977  2.7362 -0.7793 -2.6699
 8021SOL    HW235700   3.650   1.561   4.982 -0.0712 -0.8874  1.1493
 8022SOL     OW35701   2.828   3.200   6.384  0.0858  0.6578  0.3671
 8022SOL    HW135702   2.913   3.223   6.347  0.5793  1.7394  2.1874
 8022SOL    HW235703   2.823   3.249   6.465  0.1985  1.7973 -0.3177
 8023SOL     OW35704   1.881   2.947  11.437 -0.0347 -0.3907  0.3653
 8023SOL    HW135705   1.867   2.975  11.527 -0.1161  0.5529  0.0507
 8023SOL    HW235706   1.913   3.025  11.392  0.4509 -0.9248 -0.2191
 8024SOL     OW35707   4.295   3.796   5.548  0.2809  0.4069  0.0617
 8024SOL    HW135708   4.364   3.862   5.558  1.8358 -0.9197 -1.8977
 8024SOL    HW235709   4.335   3.711   5.567  1.9059  1.4175  1.2069
 8025SOL     OW35710   3.112   0.804  10.851 -0.5227  0.1592  0.2982
 8025SOL    HW135711   3.024   0.826  10.882 -1.4448 -0.4794 -1.9005
 8025SOL    HW235712   3.157   0.887  10.871  1.1381 -0.4724 -0.8759
 8026SOL     OW35713   3.297   1.489  10.942 -0.2174 -0.2066  0.2267
 8026SOL    HW135714   3.226   1.436  10.907  0.3941 -0.0234 -1.2720
 8026SOL    HW235715   3.283   1.495  11.037 -1.8179 -1.2434  0.0521
 8027SOL     OW35716   2.698   1.875   2.439  0.5676  0.1718  0.0592
 8027SOL    HW135717   2.737   1.804   2.388 -0.3264 -0.2520 -0.0419
 8027SOL    HW235718   2.767   1.941   2.440  0.3358  0.4110  0.0873
 8028SOL     OW35719   0.241   2.871  15.277 -0.2408  0.5022  0.0247
 8028SOL    HW135720   0.185   2.882  15.200 -1.9757  1.3513  1.4165
 8028SOL    HW235721   0.328   2.866  15.236 -1.9601 -4.6990 -3.0711
 8029SOL     OW35722   3.952   2.221   4.692  0.2725 -0.2166  0.3361
 8029SOL    HW135723   4.021   2.201   4.628 -2.0710  2.1167 -2.9714
 8029SOL    HW235724   3.895   2.148   4.667 -0.3280  0.0852  0.8420
 8030SOL     OW35725   1.468   2.487   5.071  0.6344 -0.1718 -0.2243
 8030SOL    HW135726   1.527   2.557   5.041 -1.4300 -0.0040 -3.8642
 8030SOL    HW235727   1.383   2.530   5.065  0.9486  1.1486  4.5903
 8031SOL     OW35728   2.316   3.922   8.165  0.0574 -0.3882 -0.4437
 8031SOL    HW135729   2.322   3.869   8.085  2.8900  2.1345 -1.9415
 8031SOL    HW235730   2.241   3.873   8.198  1.3270 -1.4492  0.8541
 8032SOL     OW35731   2.768   2.428   9.584  0.8285  0.0853 -0.2933
 8032SOL    HW135732   2.734   2.394   9.667 -2.0459 -0.7614 -1.7826
 8032SOL    HW235733   2.831   2.362   9.554  0.0483  0.8070 -3.6162
 8033SOL     OW35734   1.107   1.845   7.238  0.0505 -0.1078 -0.1455
 8033SOL    HW135735   1.189   1.889   7.216 -0.0661 -0.1166 -0.5980
 8033SOL    HW235736   1.135   1.754   7.230 -2.8576 -0.8037 -2.4500
 8034SOL     OW35737   3.826   0.331  11.029  0.2749  0.1654 -0.2183
 8034SOL    HW135738   3.868   0.409  10.993  0.1234  0.2675 -0.1725
 8034SOL    HW235739   3.787   0.360  11.111 -3.4809 -2.8441 -0.9005
 8035SOL     OW35740   2.267   3.757   5.148 -0.4761 -0.0126  0.2331
 8035SOL    HW135741   2.182   3.786   5.115 -1.7379 -2.7393  1.1537
 8035SOL    HW235742   2.253   3.731   5.238  2.1042 -2.3388 -0.0401
 8036SOL     OW35743   2.634   1.079   4.442  0.5321  0.0375 -0.1528
 8036SOL    HW135744   2.643   1.174   4.449 -1.6975  0.1441  1.0239
 8036SOL    HW235745   2.697   1.052   4.375 -1.4654  0.6745 -2.2438
 8037SOL     OW35746   0.573   2.454   0.048  0.2537  0.0983 -0.2534
 8037SOL    HW135747   0.552   2.386  17.742 -0.7949 -1.1934  1.4298
 8037SOL    HW235748   0.554   2.405   0.128 -0.4969 -1.1624 -1.2066
 8038SOL     OW35749   1.985   0.191  17.352 -0.2842  0.5414 -0.1787
 8038SOL    HW135750   2.032   0.226  17.428  0.7894  0.0923 -0.6236
 8038SOL    HW235751   1.965   0.279  17.321  2.2760  1.0025 -0.5749
 8039SOL     OW35752   3.701   3.261   4.872  0.0853  0.1358  0.1958
 8039SOL    HW135753   3.618   3.218   4.888 -0.1891 -0.2778 -2.2181
 8039SOL    HW235754   3.705   3.319   4.948 -0.0029  2.1664 -1.3145
 8040SOL     OW35755   0.838   0.962   0.095  0.5116 -0.1553 -0.3823
 8040SOL    HW135756   0.763   0.936   0.042 -0.4315  3.6581 -0.9370
 8040SOL    HW235757   0.810   0.928   0.180  0.9882  0.3462 -0.0219
 8041SOL     OW35758   4.389   1.820  15.774  0.6561 -0.4400  0.1355
 8041SOL    HW135759   4.326   1.796  15.842 -0.5304  0.8517 -0.5029
 8041SOL    HW235760   4.374   1.914  15.762 -2.5534 -1.2397 -2.0206
 8042SOL     OW35761   0.894   1.961   7.167 -0.2461 -0.3714 -0.0567
 8042SOL    HW135762   0.984   1.985   7.191  0.5471 -2.4109 -0.9897
 8042SOL    HW235763   0.907   1.866   7.175 -1.6635 -0.3648  2.4126
 8043SOL     OW35764   2.780   0.171   4.740  0.5612  0.2228 -0.5759
 8043SOL    HW135765   2.775   0.087   4.785  1.8468 -0.8336 -2.4181
 8043SOL    HW235766   2.862   0.202   4.778  0.5442  1.9816 -1.9611
 8044SOL     OW35767   3.041   2.171  14.113  0.2037  0.4371  0.3906
 8044SOL    HW135768   2.947   2.168  14.127  0.0784 -2.1241 -1.0428
 8044SOL    HW235769   3.049   2.237  14.044 -1.0816 -0.0285 -0.2022
 8045SOL     OW35770   1.150   0.052  11.144  0.0857  0.1159  0.6055
 8045SOL    HW135771   1.202   0.013  11.214  0.6533 -1.9934 -0.9992
 8045SOL    HW235772   1.134   4.712  11.094 -0.2136  1.7207 -1.8780
 8046SOL     OW35773   2.426   3.839   6.081  0.1143 -0.0820 -0.0540
 8046SOL    HW135774   2.441   3.902   6.152  0.9106  0.1668 -0.4470
 8046SOL    HW235775   2.363   3.880   6.022  0.2254 -0.9263 -0.7558
 8047SOL     OW35776   0.247   1.220   2.847 -0.5136 -0.2143 -0.4070
 8047SOL    HW135777   0.275   1.278   2.918  2.0122 -2.7692  0.6844
 8047SOL    HW235778   0.261   1.281   2.774  2.6724  0.2306  0.5838
 8048SOL     OW35779   2.144   1.076  17.080 -0.0907 -0.7227  0.2635
 8048SOL    HW135780   2.104   1.018  17.145 -1.9920 -1.8028 -1.8526
 8048SOL    HW235781   2.173   1.019  17.008  2.3753  0.4688  0.2973
 8049SOL     OW35782   3.676   0.323   0.895 -0.3157  0.4710 -0.0668
 8049SOL    HW135783   3.717   0.237   0.899 -0.5601  0.3634  0.1109
 8049SOL    HW235784   3.706   0.353   0.809 -0.0352  0.3658 -0.0042
 8050SOL     OW35785   1.554   3.071   8.303 -0.3608 -0.3803  0.3729
 8050SOL    HW135786   1.602   3.067   8.386  2.1998  1.2065 -1.0291
 8050SOL    HW235787   1.554   2.979   8.277  0.7522 -0.1511 -0.4554
 8051SOL     OW35788   4.378   1.782   8.942  0.3256 -0.0424 -0.0068
 8051SOL    HW135789   4.464   1.745   8.959  0.0543 -0.8886 -0.4817
 8051SOL    HW235790   4.389   1.828   8.858 -1.3418  0.7661  0.2172
 8052SOL     OW35791   0.496   4.115   8.463  0.6955 -0.4900 -0.4859
 8052SOL    HW135792   0.574   4.076   8.501  0.2198  0.3876  1.4004
 8052SOL    HW235793   0.506   4.085   8.373 -0.9455 -1.2056 -0.4373
 8053SOL     OW35794   1.091   2.660   2.757  0.0878 -1.0541 -0.3867
 8053SOL    HW135795   1.174   2.704   2.742  0.3037 -1.4357 -0.2965
 8053SOL    HW235796   1.039   2.703   2.689 -1.1071 -1.9562 -0.0510
 8054SOL     OW35797   0.443   1.258   4.372  0.3635 -0.0733 -0.2402
 8054SOL    HW135798   0.447   1.349   4.399 -2.0446  0.0574 -0.3720
 8054SOL    HW235799   0.494   1.214   4.440  1.5753 -0.1388 -1.1811
 8055SOL     OW35800   1.416   0.567   5.804  0.5837 -0.0271 -0.4159
 8055SOL    HW135801   1.409   0.660   5.784  1.7581  0.1188 -0.1387
 8055SOL    HW235802   1.504   0.544   5.772 -0.1893 -0.3720 -2.3256
 8056SOL     OW35803   1.164   0.213   7.819 -0.8030  0.2331 -0.1768
 8056SOL    HW135804   1.162   0.125   7.858 -1.5707 -0.2274 -1.2613
 8056SOL    HW235805   1.228   0.208   7.749 -2.4334  0.2479 -1.6686
 8057SOL     OW35806   3.921   2.137   9.397  0.1408 -0.1624 -0.2360
 8057SOL    HW135807   3.929   2.116   9.304 -0.0442 -1.6009  0.0633
 8057SOL    HW235808   3.998   2.089   9.426  0.8350 -0.3130 -2.2906
 8058SOL     OW35809   2.352   1.717   6.247 -0.2060 -0.2457 -0.1407
 8058SOL    HW135810   2.257   1.708   6.248 -0.1223 -0.9766  0.8929
 8058SOL    HW235811   2.368   1.736   6.155  0.1400  0.2961  0.0265
 8059SOL     OW35812   3.238   0.275   6.997 -0.2555 -0.4629  0.4278
 8059SOL    HW135813   3.249   0.235   7.084  0.3075 -0.7429  0.2278
 8059SOL    HW235814   3.317   0.329   6.989 -0.4163 -0.1542  0.9294
 8060SOL     OW35815   0.690   2.902   3.509 -0.0623 -0.3501  0.0901
 8060SOL    HW135816   0.617   2.883   3.567 -0.1163  0.2451  0.2177
 8060SOL    HW235817   0.664   2.984   3.468  1.3144  0.8180  1.5444
 8061SOL     OW35818   0.133   4.041   5.817  0.1963  0.0408 -0.6808
 8061SOL    HW135819   0.191   4.102   5.771 -0.1387  2.4269  2.0348
 8061SOL    HW235820   0.119   3.973   5.751 -0.8160 -0.8552  0.4602
 8062SOL     OW35821   2.872   2.835   9.553 -0.1139 -0.0380  0.6048
 8062SOL    HW135822   2.801   2.883   9.510 -0.0773 -0.7206 -0.2181
 8062SOL    HW235823   2.836   2.840   9.641  2.3896  2.0544  1.4895
 8063SOL     OW35824   0.313   1.031   7.597 -0.4437  0.4738 -0.0573
 8063SOL    HW135825   0.357   1.060   7.518  0.6971  0.9162  0.7402
 8063SOL    HW235826   0.268   1.114   7.612  1.4716  1.9352 -2.4584
 8064SOL     OW35827   0.431   2.063   5.236  0.1116 -0.1381 -0.3253
 8064SOL    HW135828   0.474   2.065   5.151  0.4591  2.1857 -0.1060
 8064SOL    HW235829   0.421   1.970   5.253  0.5958 -0.3220 -1.0469
 8065SOL     OW35830   4.070   2.159   6.637  0.2163  0.3191  0.4303
 8065SOL    HW135831   4.095   2.183   6.727 -1.9518 -0.7516  1.3267
 8065SOL    HW235832   3.997   2.211   6.605  1.0978  1.7044  0.6579
 8066SOL     OW35833   3.472   4.646   1.169 -0.7934 -0.5499  0.2064
 8066SOL    HW135834   3.565   4.661   1.153 -0.5865  0.2237  2.1104
 8066SOL    HW235835   3.428   4.696   1.100 -0.2502 -0.5072 -0.1074
 8067SOL     OW35836   4.430   4.031  11.338 -0.0660  0.4063 -0.2198
 8067SOL    HW135837   4.384   4.097  11.285 -1.1495 -0.3695 -0.2343
 8067SOL    HW235838   4.518   4.070  11.339  0.7738 -1.4850 -1.2405
 8068SOL     OW35839   1.695   2.024   1.639 -0.1544  0.2232  0.3836
 8068SOL    HW135840   1.767   1.961   1.637  0.5580  1.0333  0.2008
 8068SOL    HW235841   1.741   2.087   1.583 -1.5478  0.8925 -0.0268
 8069SOL     OW35842   4.058   2.377  15.679 -0.2752 -0.1225 -0.2652
 8069SOL    HW135843   4.140   2.383  15.728 -0.7323 -0.5967  0.5500
 8069SOL    HW235844   4.045   2.283  15.666  0.0183 -0.4935  2.1973
 8070SOL     OW35845   3.401   1.930  10.439  0.0560  0.1355  0.2760
 8070SOL    HW135846   3.436   1.857  10.388 -0.5991 -1.1014  1.5941
 8070SOL    HW235847   3.341   1.979  10.382  0.5629  0.9229  0.4066
 8071SOL     OW35848   4.423   1.808   1.398 -0.3350 -0.6759  0.3890
 8071SOL    HW135849   4.516   1.818   1.420 -0.5952 -2.2040  2.1696
 8071SOL    HW235850   4.404   1.744   1.466  1.4082 -0.0069  1.5105
 8072SOL     OW35851   4.021   4.619  15.567  0.2129  0.3656  0.1069
 8072SOL    HW135852   4.000   4.650  15.655 -0.0324 -2.4842  1.0799
 8072SOL    HW235853   4.078   4.690  15.537 -0.5231  0.3702 -1.3089
 8073SOL     OW35854   2.974   3.400  10.250  0.1304 -0.1724 -0.2722
 8073SOL    HW135855   2.991   3.332  10.315  0.7315 -0.3887 -0.6559
 8073SOL    HW235856   3.022   3.356  10.180  0.3320 -1.0234  0.4149
 8074SOL     OW35857   4.493   4.369   3.991 -0.5242 -0.3930 -0.1145
 8074SOL    HW135858   4.534   4.438   4.042 -2.6847  0.7471  0.0703
 8074SOL    HW235859   4.576   4.342   3.951 -0.4354 -1.3278  0.7096
 8075SOL     OW35860   0.641   4.543   6.167  0.3190  0.6843 -0.6163
 8075SOL    HW135861   0.553   4.520   6.194  0.8633 -0.7519 -0.0319
 8075SOL    HW235862   0.677   4.458   6.139  0.9111  0.2954  1.3424
 8076SOL     OW35863   3.127   4.196  15.302  0.1986  0.1580 -0.3161
 8076SOL    HW135864   3.218   4.204  15.331  0.1575 -0.6741  0.0551
 8076SOL    HW235865   3.130   4.108  15.264 -0.0314  0.4167 -0.9156
 8077SOL     OW35866   0.449   2.509   6.154 -0.6192  0.3921 -0.7036
 8077SOL    HW135867   0.542   2.506   6.175 -0.6399  2.2624 -0.3834
 8077SOL    HW235868   0.410   2.479   6.236 -0.0174  1.6561  0.0428
 8078SOL     OW35869   2.815   3.687  16.455  0.0928 -0.0371  0.1380
 8078SOL    HW135870   2.739   3.711  16.508 -0.4999 -2.7869  0.5262
 8078SOL    HW235871   2.777   3.604  16.424 -2.7036  1.4377 -0.3917
 8079SOL     OW35872   2.858   3.395  10.579  0.3325 -0.4106  0.2825
 8079SOL    HW135873   2.889   3.305  10.575 -2.2202 -1.3878  2.3552
 8079SOL    HW235874   2.934   3.435  10.621 -0.8295 -1.0051  2.9050
 8080SOL     OW35875   4.153   3.715   4.606  0.2162 -0.4247 -0.2333
 8080SOL    HW135876   4.200   3.694   4.525 -0.6195 -0.9784 -0.5770
 8080SOL    HW235877   4.147   3.632   4.654  2.3968 -0.1283  0.5569
 8081SOL     OW35878   2.651   1.590   7.819  0.0020 -0.3097 -0.3137
 8081SOL    HW135879   2.743   1.578   7.841 -0.1009 -0.0614  0.2410
 8081SOL    HW235880   2.646   1.531   7.743  0.6348 -0.9950  0.1684
 8082SOL     OW35881   1.263   0.868   7.872  0.3807 -0.4264 -0.0768
 8082SOL    HW135882   1.297   0.944   7.825 -0.2526 -0.6932 -0.9708
 8082SOL    HW235883   1.330   0.861   7.939  0.4877 -1.9562 -0.3375
 8083SOL     OW35884   0.800   4.389   6.903 -0.3639  0.6366 -0.0059
 8083SOL    HW135885   0.873   4.439   6.939  0.0023 -0.6364  1.0077
 8083SOL    HW235886   0.780   4.316   6.961  0.9311  1.4354  1.4645
 8084SOL     OW35887   2.073   1.650  14.480  0.2389 -0.0233  0.1660
 8084SOL    HW135888   1.997   1.593  14.487  2.2893 -2.6068  1.6013
 8084SOL    HW235889   2.122   1.641  14.562 -0.9690 -2.5764  0.6007
 8085SOL     OW35890   0.923   3.563   5.088 -0.1203  0.3896  0.4290
 8085SOL    HW135891   0.943   3.645   5.043 -1.2993 -0.8378 -2.3478
 8085SOL    HW235892   0.936   3.501   5.016 -2.1462  0.1601  0.2497
 8086SOL     OW35893   0.573   1.977   9.105  0.2753 -0.2090  0.2049
 8086SOL    HW135894   0.532   1.918   9.042  1.1967  0.8383 -1.3831
 8086SOL    HW235895   0.561   2.064   9.066 -2.6494 -1.3129 -1.3519
 8087SOL     OW35896   2.387   2.854  10.744  0.2925 -0.0196  0.1084
 8087SOL    HW135897   2.414   2.841  10.835  0.8615 -2.2694 -0.3747
 8087SOL    HW235898   2.293   2.835  10.742  0.0639  1.2947 -1.4303
 8088SOL     OW35899   0.259   2.090   6.378  0.3591  0.4733  0.6292
 8088SOL    HW135900   0.233   2.154   6.445 -1.0279  1.7082 -1.1198
 8088SOL    HW235901   0.213   2.009   6.398 -0.8030  1.0562  0.2930
 8089SOL     OW35902   1.009   4.684   3.687 -0.4345 -0.0916 -0.4751
 8089SOL    HW135903   0.972   0.032   3.696 -0.2976 -0.1678  0.8078
 8089SOL    HW235904   1.086   4.687   3.744  0.2320 -4.0234 -1.2223
 8090SOL     OW35905   4.378   0.981  16.438  0.5278  0.0904 -0.1967
 8090SOL    HW135906   4.384   0.890  16.466 -0.4547  0.1213  0.1155
 8090SOL    HW235907   4.306   0.966  16.377  1.3691 -2.9141 -0.4463
 8091SOL     OW35908   3.852   0.829   4.657 -0.1840  0.2590  0.2322
 8091SOL    HW135909   3.890   0.761   4.602 -0.7990 -0.5205  0.7610
 8091SOL    HW235910   3.924   0.881   4.691  0.9222 -0.4960 -0.9725
 8092SOL     OW35911   0.054   1.297   5.100 -0.1301 -0.4049  0.5159
 8092SOL    HW135912   0.130   1.255   5.140  1.4182  1.8673 -0.0503
 8092SOL    HW235913   4.735   1.221   5.100  0.9908 -1.2735  1.0944
 8093SOL     OW35914   0.924   4.520   7.650  0.8222 -0.0131  0.3147
 8093SOL    HW135915   0.915   4.463   7.573  1.6968  0.5522 -0.2118
 8093SOL    HW235916   0.926   4.610   7.618  0.3736 -0.6785 -1.6380
 8094SOL     OW35917   0.589   3.984   7.318 -0.0969 -0.2683  1.0509
 8094SOL    HW135918   0.517   4.043   7.339 -0.1519  0.1275 -0.2618
 8094SOL    HW235919   0.557   3.942   7.238  0.2969  1.4098  0.0101
 8095SOL     OW35920   4.311   2.159   6.238 -0.5704 -0.0602  0.3326
 8095SOL    HW135921   4.245   2.179   6.304 -1.1542 -1.0587  0.0575
 8095SOL    HW235922   4.259   2.169   6.158  1.1753  0.1268 -0.7854
 8096SOL     OW35923   4.146   1.842  13.629 -0.1298  1.2624  0.1800
 8096SOL    HW135924   4.151   1.856  13.723 -0.1480  0.2761  0.3303
 8096SOL    HW235925   4.154   1.747  13.638  1.2979  1.4882  1.2527
 8097SOL     OW35926   3.270   2.868   7.377  0.8983 -0.1770 -0.2552
 8097SOL    HW135927   3.246   2.777   7.356 -1.6864  0.4308  0.0836
 8097SOL    HW235928   3.227   2.910   7.302  1.5176  1.0160  0.0691
 8098SOL     OW35929   3.195   0.032   4.952  0.2063 -0.3878 -0.2653
 8098SOL    HW135930   3.191   4.718   5.031 -1.4610 -0.0781 -0.1259
 8098SOL    HW235931   3.187   4.702   4.887 -1.5041 -0.7043  0.2844
 8099SOL     OW35932   2.702   0.421  17.118  0.3389  0.1843  0.1347
 8099SOL    HW135933   2.685   0.332  17.088 -1.5642  0.7062 -0.3333
 8099SOL    HW235934   2.708   0.469  17.035  1.3067 -0.8420 -0.3875
 8100SOL     OW35935   0.784   2.141  14.035 -0.1615 -0.0315 -0.4344
 8100SOL    HW135936   0.857   2.142  13.973  0.0100 -1.2078 -0.2396
 8100SOL    HW235937   0.734   2.222  14.022  0.1024  0.2285  0.1463
 8101SOL     OW35938   4.505   1.039   9.913  0.4014  0.1372 -0.2460
 8101SOL    HW135939   4.530   1.044   9.821  3.1977 -2.1338  0.3698
 8101SOL    HW235940   4.410   1.047   9.925  0.7661  2.7231  0.6764
 8102SOL     OW35941   0.615   1.915   3.766  0.8663  0.4306 -0.2765
 8102SOL    HW135942   0.565   1.898   3.846 -0.8776  1.5344 -1.1362
 8102SOL    HW235943   0.665   1.834   3.758 -0.4364 -0.4310  0.1669
 8103SOL     OW35944   0.825   3.809   3.218  0.1091 -0.3203 -0.6290
 8103SOL    HW135945   0.773   3.845   3.289 -0.5046 -1.9915 -0.2247
 8103SOL    HW235946   0.770   3.807   3.140 -0.3750 -0.8396 -0.2734
 8104SOL     OW35947   2.891   2.791   6.540 -0.1447  0.1809 -0.3098
 8104SOL    HW135948   2.815   2.737   6.561 -0.5851  1.4192  1.2237
 8104SOL    HW235949   2.956   2.729   6.505  3.0270  3.2317  0.1982
 8105SOL     OW35950   0.485   3.900   1.384 -0.1493  0.0315  0.5549
 8105SOL    HW135951   0.539   3.848   1.444 -0.5659 -1.3383 -0.2834
 8105SOL    HW235952   0.418   3.842   1.350 -1.3006  0.9217  1.3216
 8106SOL     OW35953   0.504   2.889  15.187 -0.3412  0.4463  0.0395
 8106SOL    HW135954   0.547   2.943  15.121 -1.6211  0.0867 -1.0798
 8106SOL    HW235955   0.517   2.809  15.137 -2.9227 -0.5727  0.9720
 8107SOL     OW35956   1.906   1.772   8.153  0.2342 -0.3764 -0.4919
 8107SOL    HW135957   1.936   1.754   8.064 -0.8844 -2.2313 -0.5040
 8107SOL    HW235958   1.890   1.692   8.203 -0.6953 -1.1445 -2.0319
 8108SOL     OW35959   4.496   3.554   8.143  0.0531  0.2956 -0.0459
 8108SOL    HW135960   4.526   3.532   8.055 -2.1480 -1.7951 -0.2679
 8108SOL    HW235961   4.568   3.608   8.178  0.3295 -0.2209  0.1889
 8109SOL     OW35962   3.519   0.320   3.163 -0.4416 -0.0352  0.3885
 8109SOL    HW135963   3.544   0.413   3.170 -1.5696  0.1999  1.3451
 8109SOL    HW235964   3.600   0.276   3.139 -0.2961  0.4710 -0.0519
 8110SOL     OW35965   1.644   2.751  10.688 -0.2106 -0.6109 -0.8147
 8110SOL    HW135966   1.567   2.794  10.727  0.7527 -0.6322  1.1174
 8110SOL    HW235967   1.646   2.785  10.599  0.7317  1.1563 -0.1227
 8111SOL     OW35968   4.488   1.159   8.866  0.9320 -0.1552 -0.4116
 8111SOL    HW135969   4.479   1.196   8.778  0.9883  2.3434  0.6116
 8111SOL    HW235970   4.568   1.205   8.892  0.8346  0.3461 -0.9797
 8112SOL     OW35971   0.571   0.584   6.695  0.5348 -0.3293 -0.4157
 8112SOL    HW135972   0.550   0.535   6.775 -0.6144  1.1906  0.2101
 8112SOL    HW235973   0.579   0.670   6.738  0.2444 -0.1405 -0.7436
 8113SOL     OW35974   1.592   3.518   0.041  0.8822  0.1544 -0.3176
 8113SOL    HW135975   1.505   3.477   0.043  1.8298 -1.8186  0.0304
 8113SOL    HW235976   1.594   3.534  17.704 -3.0075  0.7258 -0.3174
 8114SOL     OW35977   3.381   1.046   8.180 -0.2522 -0.2126  0.2990
 8114SOL    HW135978   3.344   1.127   8.215 -2.9729 -0.2580 -2.4788
 8114SOL    HW235979   3.301   0.999   8.159  0.6390 -1.0584 -1.2349
 8115SOL     OW35980   3.014   4.017  11.708  0.2200  0.1370  0.0637
 8115SOL    HW135981   3.100   4.035  11.745 -0.2516  1.2746  0.5929
 8115SOL    HW235982   3.002   3.922  11.707 -1.7114  0.3639  1.5188
 8116SOL     OW35983   2.864   3.675  15.263 -0.4693  0.7189  0.7229
 8116SOL    HW135984   2.870   3.609  15.332  1.1462  0.0203 -0.0722
 8116SOL    HW235985   2.783   3.655  15.216  0.4901  0.0654 -0.6520
 8117SOL     OW35986   0.434   3.933   5.026  0.1113 -0.3346 -0.1513
 8117SOL    HW135987   0.437   3.871   4.952 -2.1691 -0.1645 -0.3742
 8117SOL    HW235988   0.519   3.916   5.067 -0.6482 -1.8275  0.7579
 8118SOL     OW35989   0.816   4.112   7.709  0.3897  0.4354 -0.3349
 8118SOL    HW135990   0.785   4.180   7.651 -1.7710 -1.2265 -1.1299
 8118SOL    HW235991   0.889   4.161   7.747  1.0994 -0.4762 -0.5041
 8119SOL     OW35992   1.754   3.565   9.400 -0.3577  0.3109 -0.3781
 8119SOL    HW135993   1.738   3.472   9.417 -1.0882 -0.0289 -3.0277
 8119SOL    HW235994   1.850   3.567   9.399 -0.2990 -1.7997  0.6165
 8120SOL     OW35995   0.232   2.937   6.888 -0.2110  0.1871 -0.0386
 8120SOL    HW135996   0.277   2.960   6.807 -0.9989  0.0457 -0.5175
 8120SOL    HW235997   0.198   3.024   6.909  0.9532  0.6108  0.0693
 8121SOL     OW35998   2.063   0.914   8.294 -0.1385 -0.0144 -0.4962
 8121SOL    HW135999   2.082   0.822   8.274 -0.9639 -0.2983  0.0141
 8121SOL    HW236000   2.140   0.943   8.343  0.3740  0.0635 -1.3381
 8122SOL     OW36001   3.994   4.458   6.184 -0.2659 -0.0862  0.9715
 8122SOL    HW136002   4.087   4.457   6.161 -0.8123 -1.4998 -1.1746
 8122SOL    HW236003   3.986   4.376   6.234 -0.3640 -0.4744  0.3231
 8123SOL     OW36004   2.669   2.747   8.863  0.5564 -0.1231 -0.2764
 8123SOL    HW136005   2.630   2.833   8.878 -2.2467 -1.4165  0.0215
 8123SOL    HW236006   2.588   2.699   8.844  0.6954 -0.2113 -0.6431
 8124SOL     OW36007   0.838   2.816   6.467  0.1128 -0.2685 -0.1830
 8124SOL    HW136008   0.849   2.886   6.531  0.7985  1.3027 -2.0324
 8124SOL    HW236009   0.860   2.875   6.395 -0.7087  0.2864  0.0142
 8125SOL     OW36010   0.990   4.491   9.192  0.4124 -0.3524  0.0624
 8125SOL    HW136011   1.000   4.502   9.098  0.5527  1.4170  0.2863
 8125SOL    HW236012   1.022   4.402   9.206  0.0189 -0.9275 -2.6741
 8126SOL     OW36013   4.613   0.576   0.773  0.2110 -0.7088  0.0486
 8126SOL    HW136014   4.573   0.492   0.796 -1.7275  0.5775  1.3559
 8126SOL    HW236015   4.588   0.580   0.681 -2.2082 -1.7573  0.6582
 8127SOL     OW36016   4.261   0.825   4.386 -0.0499 -0.0702 -0.0848
 8127SOL    HW136017   4.330   0.821   4.452 -0.7598  1.9990  0.7828
 8127SOL    HW236018   4.273   0.736   4.353  0.1951  0.4265 -1.3513
 8128SOL     OW36019   2.717   0.629  10.928 -0.1802 -0.4013 -0.1414
 8128SOL    HW136020   2.674   0.597  11.007  3.5387 -0.4371  1.9051
 8128SOL    HW236021   2.775   0.553  10.917 -0.9554 -0.9578 -0.3262
 8129SOL     OW36022   3.616   3.894  14.250 -0.8431  0.3027 -0.1313
 8129SOL    HW136023   3.522   3.881  14.237 -0.5260 -0.3403 -1.7219
 8129SOL    HW236024   3.652   3.815  14.211  1.6106  1.0664  0.5496
 8130SOL     OW36025   2.143   4.723   8.968 -0.0136 -0.2693  0.3282
 8130SOL    HW136026   2.059   4.687   8.996 -0.0665  0.5692  1.2639
 8130SOL    HW236027   2.107   0.069   8.946  0.6136 -0.7951 -2.7663
 8131SOL     OW36028   4.452   2.984   8.960 -0.8436  0.5726  0.3022
 8131SOL    HW136029   4.531   2.931   8.970 -0.0960  1.4684 -0.8693
 8131SOL    HW236030   4.419   2.967   8.871  2.4137 -1.9793 -0.4257
 8132SOL     OW36031   3.805   3.459   8.473  0.0920 -0.0739  0.6907
 8132SOL    HW136032   3.899   3.465   8.455  0.1410 -3.6356 -0.3629
 8132SOL    HW236033   3.767   3.526   8.416  0.3728  1.5992  2.4826
 8133SOL     OW36034   3.184   4.120   9.937  0.1028 -0.2634 -0.1871
 8133SOL    HW136035   3.149   4.044   9.890 -0.1460 -1.0103  1.2242
 8133SOL    HW236036   3.103   4.170   9.951 -1.8003 -3.5256  0.4708
 8134SOL     OW36037   2.261   2.291   7.239  0.2294 -0.4975 -0.4281
 8134SOL    HW136038   2.178   2.264   7.277 -1.5044  1.0307 -3.0850
 8134SOL    HW236039   2.307   2.208   7.224  0.8986  0.3935 -3.2934
 8135SOL     OW36040   1.646   2.462  13.056  0.1683 -0.3956  0.1040
 8135SOL    HW136041   1.611   2.551  13.057  2.2196  0.4110  0.8128
 8135SOL    HW236042   1.637   2.445  13.150 -0.3926 -0.5346  0.0251
 8136SOL     OW36043   3.698   2.139   1.636  0.0116 -0.2344 -0.3677
 8136SOL    HW136044   3.678   2.232   1.652  1.2021  0.1209 -0.9647
 8136SOL    HW236045   3.660   2.113   1.720 -1.2015 -1.6012 -1.3342
 8137SOL     OW36046   4.333   3.256  15.793  0.3737  0.2369 -0.3177
 8137SOL    HW136047   4.333   3.193  15.865 -0.7999  0.2396 -0.3128
 8137SOL    HW236048   4.265   3.310  15.831  0.9008  1.4075 -1.0307
 8138SOL     OW36049   2.485   3.767   4.141 -0.0264  0.1550 -0.7750
 8138SOL    HW136050   2.482   3.851   4.187 -1.2422 -0.1812 -0.2426
 8138SOL    HW236051   2.400   3.775   4.098 -1.8847 -2.3513  2.4832
 8139SOL     OW36052   1.997   2.766   5.904 -0.2132 -0.0964  0.3416
 8139SOL    HW136053   1.970   2.780   5.995  0.9968 -0.3822  0.7490
 8139SOL    HW236054   2.088   2.743   5.922 -0.0261 -0.0009 -0.5211
 8140SOL     OW36055   2.157   0.369  17.496 -0.7645 -0.2808 -0.0448
 8140SOL    HW136056   2.154   0.420  17.576  1.0405 -1.5701  0.8599
 8140SOL    HW236057   2.135   0.436  17.431 -0.8799 -2.7356 -2.5521
 8141SOL     OW36058   0.267   4.540  16.748 -0.1306 -0.5176 -0.2571
 8141SOL    HW136059   0.284   4.581  16.663  0.0013 -0.5987 -0.2702
 8141SOL    HW236060   0.173   4.521  16.747 -0.4334  0.8200  2.1642
 8142SOL     OW36061   4.636   2.561  17.011  0.1968  0.4383  0.2191
 8142SOL    HW136062   4.557   2.508  17.024  0.7001 -0.6344 -1.0933
 8142SOL    HW236063   4.702   2.494  17.030  0.5419  0.4115 -1.0802
 8143SOL     OW36064   3.037   4.448   2.353  0.3381 -0.0546 -0.0576
 8143SOL    HW136065   2.952   4.492   2.359  1.1619  1.8507 -2.2646
 8143SOL    HW236066   3.024   4.375   2.413  2.3111  0.4848  1.0038
 8144SOL     OW36067   2.942   1.871   6.674 -0.1845  0.4639 -0.2998
 8144SOL    HW136068   2.851   1.857   6.699  0.8389  0.4688  3.3486
 8144SOL    HW236069   2.942   1.955   6.627  0.1847  1.2991  1.1801
 8145SOL     OW36070   2.987   2.034   1.178 -0.2586 -0.3215 -0.1185
 8145SOL    HW136071   2.942   2.030   1.262  0.3550 -0.3393  0.2055
 8145SOL    HW236072   3.077   2.044   1.209  0.0607  0.4942 -1.3299
 8146SOL     OW36073   2.091   2.548   4.123 -0.0768  0.1629 -0.3995
 8146SOL    HW136074   2.158   2.587   4.066 -0.4797  1.2657 -0.1260
 8146SOL    HW236075   2.116   2.457   4.109  0.6422  0.0006  1.7967
 8147SOL     OW36076   0.247   0.881  17.484  0.1266  0.0089  0.5000
 8147SOL    HW136077   0.322   0.940  17.481 -0.1161  0.1855 -1.6863
 8147SOL    HW236078   0.186   0.933  17.536 -0.6908 -0.6602  0.2252
 8148SOL     OW36079   3.647   1.734   4.551 -0.2089 -0.6380 -0.1052
 8148SOL    HW136080   3.677   1.697   4.468  1.5525  0.0369  0.2354
 8148SOL    HW236081   3.708   1.707   4.619  0.8882  3.4483  0.5420
 8149SOL     OW36082   1.576   3.077   8.932 -0.7703  0.3321 -0.6298
 8149SOL    HW136083   1.614   3.149   8.983 -2.1332 -2.0909  3.7166
 8149SOL    HW236084   1.517   3.032   8.992 -0.6873  0.3978 -0.4998
 8150SOL     OW36085   4.667   4.419   8.712  0.2224 -0.2665 -0.2131
 8150SOL    HW136086   4.629   4.363   8.779 -0.4585 -0.1273 -0.4850
 8150SOL    HW236087   4.709   4.494   8.754 -0.4441 -0.9151  1.5791
 8151SOL     OW36088   4.249   1.900   5.130  0.0474 -0.1435  0.0379
 8151SOL    HW136089   4.334   1.944   5.126  0.1149 -0.2797 -0.0082
 8151SOL    HW236090   4.288   1.815   5.148 -1.0483 -1.0470 -1.9097
 8152SOL     OW36091   1.796   3.809   4.163  0.1496 -0.9504 -0.0889
 8152SOL    HW136092   1.850   3.737   4.130 -0.0519 -1.6342  1.0655
 8152SOL    HW236093   1.816   3.807   4.257 -2.1085 -0.3789  0.4259
 8153SOL     OW36094   1.657   4.272   0.468 -0.6130  0.7862 -0.2889
 8153SOL    HW136095   1.732   4.317   0.506  2.0997 -3.7245 -0.4599
 8153SOL    HW236096   1.582   4.295   0.523 -0.0388  2.4165 -0.1758
 8154SOL     OW36097   1.708   1.000   7.997 -0.7719  0.2223  0.4301
 8154SOL    HW136098   1.720   0.934   8.065 -0.6393  0.0989  0.2862
 8154SOL    HW236099   1.615   1.016   8.017 -0.6089  1.2976  0.3476
 8155SOL     OW36100   4.212   4.030   9.293  0.2157  0.7249  0.3820
 8155SOL    HW136101   4.128   4.040   9.249  0.4583  0.1308 -0.2109
 8155SOL    HW236102   4.205   3.939   9.322  0.0248  0.3169 -0.9406
 8156SOL     OW36103   4.679   0.027  10.538 -0.0999  0.1672 -0.4114
 8156SOL    HW136104   4.588   0.043  10.565  0.0278 -1.1858  0.8311
 8156SOL    HW236105   4.718   0.002  10.621  1.3993  2.6856 -0.3893
 8157SOL     OW36106   0.485   2.555  16.374 -0.3088 -0.1147  0.1935
 8157SOL    HW136107   0.410   2.603  16.340 -1.1409 -1.2813  0.3855
 8157SOL    HW236108   0.435   2.498  16.433  0.8830 -0.8162  0.5203
 8158SOL     OW36109   2.695   0.078   4.456 -0.4744  0.6433  0.6156
 8158SOL    HW136110   2.678   0.118   4.541 -2.7440 -0.0410  0.4952
 8158SOL    HW236111   2.723   0.153   4.403  0.4016  0.5577  0.9637
 8159SOL     OW36112   2.968   0.745   3.242 -0.4095  0.0506 -0.4413
 8159SOL    HW136113   2.923   0.739   3.158  0.1223 -0.1563 -0.7086
 8159SOL    HW236114   2.954   0.837   3.265 -1.1014  0.1790 -1.3864
 8160SOL     OW36115   3.735   2.127  13.507 -0.2892 -0.3895  0.4444
 8160SOL    HW136116   3.796   2.054  13.522  0.4022 -0.1347 -1.1912
 8160SOL    HW236117   3.790   2.183  13.453  0.5840  0.6159  2.3734
 8161SOL     OW36118   0.901   3.768   6.299  0.1224 -0.2969 -0.4064
 8161SOL    HW136119   0.858   3.834   6.245  1.0912  0.4519 -0.2625
 8161SOL    HW236120   0.991   3.779   6.269 -0.2169 -1.5645 -1.8729
 8162SOL     OW36121   2.528   4.253   1.683 -0.3379  0.0150  0.6045
 8162SOL    HW136122   2.495   4.170   1.650  1.0204 -0.4721  0.4724
 8162SOL    HW236123   2.549   4.232   1.774  3.7088  2.3980  0.2406
 8163SOL     OW36124   3.228   1.930   9.201  0.5136  0.2477  0.1982
 8163SOL    HW136125   3.318   1.930   9.233  0.2356  1.9158  0.9716
 8163SOL    HW236126   3.231   1.975   9.117  1.5453 -1.2482 -0.5718
 8164SOL     OW36127   2.820   3.868   1.560  0.3593 -0.3304  0.3076
 8164SOL    HW136128   2.905   3.829   1.539 -0.1367 -0.7790 -0.8369
 8164SOL    HW236129   2.841   3.961   1.548 -0.9092  0.1145  1.5696
 8165SOL     OW36130   3.961   2.743  10.827  0.3238  0.7248  0.3013
 8165SOL    HW136131   3.977   2.651  10.847 -0.5058  0.9550  2.0145
 8165SOL    HW236132   3.902   2.727  10.754  0.7873 -0.2728  0.1505
 8166SOL     OW36133   0.340   4.303   3.448  0.3879  0.5334  0.2501
 8166SOL    HW136134   0.328   4.345   3.533 -1.5307 -0.9990  0.7445
 8166SOL    HW236135   0.432   4.328   3.451 -0.0692  2.1930  0.3428
 8167SOL     OW36136   2.335   0.973  10.435  0.4372  0.3829  0.4032
 8167SOL    HW136137   2.377   1.057  10.454  0.9396 -0.2081  1.9342
 8167SOL    HW236138   2.249   1.002  10.468  0.4703  1.4315 -0.4194
 8168SOL     OW36139   1.486   0.515   2.552 -0.1826  0.3997 -0.1499
 8168SOL    HW136140   1.437   0.591   2.520  1.4676  1.5059 -0.0322
 8168SOL    HW236141   1.469   0.447   2.487 -0.5784  1.1945 -0.8701
 8169SOL     OW36142   1.695   0.969   0.320  0.0349  0.1195  0.1095
 8169SOL    HW136143   1.751   1.016   0.258 -1.3678 -1.1046 -2.0580
 8169SOL    HW236144   1.637   1.043   0.338 -1.2045 -0.8785  0.2270
 8170SOL     OW36145   0.751   3.523   8.588  0.4524  0.5353  0.5976
 8170SOL    HW136146   0.707   3.483   8.663  3.8472 -0.3474  2.1141
 8170SOL    HW236147   0.817   3.456   8.571 -1.4153 -1.0219 -0.5607
 8171SOL     OW36148   2.258   0.677   4.543  0.5402 -0.3819 -0.3777
 8171SOL    HW136149   2.329   0.614   4.532 -0.0467 -0.7820 -1.9202
 8171SOL    HW236150   2.311   0.757   4.543  0.8478 -0.5947 -3.8651
 8172SOL     OW36151   2.052   4.178  13.891  0.3203 -0.2545  0.0266
 8172SOL    HW136152   2.012   4.262  13.866  1.0552  0.9299  2.8168
 8172SOL    HW236153   1.999   4.120  13.836  1.9192 -1.0086 -0.7076
 8173SOL     OW36154   3.769   2.179   6.841  0.4599 -0.1583  0.3488
 8173SOL    HW136155   3.694   2.236   6.855  0.9613  1.2036 -2.5267
 8173SOL    HW236156   3.834   2.250   6.835 -0.2981  0.3962 -1.2563
 8174SOL     OW36157   1.565   1.465  13.076 -0.0055  0.1062  0.1354
 8174SOL    HW136158   1.653   1.493  13.103 -0.1916 -1.2392  2.1431
 8174SOL    HW236159   1.560   1.533  13.009 -2.1719  0.2886  0.4788
 8175SOL     OW36160   4.364   2.202   1.562  0.2220  0.6756 -0.0986
 8175SOL    HW136161   4.416   2.276   1.592  0.1726  0.6276  0.1064
 8175SOL    HW236162   4.309   2.251   1.501 -0.6982  0.0082  0.1949
 8176SOL     OW36163   4.119   2.843   2.267  0.2682 -0.3426  0.0492
 8176SOL    HW136164   4.195   2.786   2.252  0.0820 -0.8714  1.1275
 8176SOL    HW236165   4.125   2.903   2.192  0.3927 -0.0574  0.2858
 8177SOL     OW36166   0.382   2.387   8.857  0.0420 -0.1711 -0.3653
 8177SOL    HW136167   0.393   2.303   8.812 -0.7638 -0.1923 -0.5261
 8177SOL    HW236168   0.442   2.439   8.804  1.1262 -0.5519  0.4974
 8178SOL     OW36169   0.761   4.473  13.683  0.1799 -0.8646 -0.5918
 8178SOL    HW136170   0.666   4.482  13.685  0.2161 -0.1616 -1.9555
 8178SOL    HW236171   0.789   4.564  13.688 -4.0506  0.4570 -0.8709
 8179SOL     OW36172   2.658   3.095   8.581  0.0602 -0.1220  0.0532
 8179SOL    HW136173   2.622   3.183   8.587 -0.3062 -0.2692 -0.0421
 8179SOL    HW236174   2.621   3.061   8.500 -0.2015  0.9916 -0.2934
 8180SOL     OW36175   2.371   3.621   5.732 -0.0149 -0.0287 -0.1739
 8180SOL    HW136176   2.376   3.695   5.672 -3.2140  0.7270  0.4468
 8180SOL    HW236177   2.301   3.652   5.790  1.4660 -0.4670  1.8405
 8181SOL     OW36178   2.688   0.259   5.440  0.1780  0.6675  0.3490
 8181SOL    HW136179   2.753   0.241   5.508  1.2458  0.4070 -0.7303
 8181SOL    HW236180   2.662   0.172   5.407 -1.8343  1.5849 -0.4735
 8182SOL     OW36181   1.064   3.570   3.564  0.1428 -0.3097  0.0494
 8182SOL    HW136182   1.025   3.509   3.502  0.2571 -0.5511  0.2179
 8182SOL    HW236183   1.083   3.645   3.507 -0.8437 -1.1447 -1.3610
 8183SOL     OW36184   2.163   0.449   2.487 -0.4715 -0.2714 -0.2912
 8183SOL    HW136185   2.211   0.497   2.419 -1.3049  1.4811  0.3821
 8183SOL    HW236186   2.223   0.443   2.561 -1.8879 -2.2073  0.6963
 8184SOL     OW36187   1.672   1.333   5.816 -0.7771 -0.1178 -0.4314
 8184SOL    HW136188   1.701   1.408   5.765 -0.4864 -1.6074 -2.4556
 8184SOL    HW236189   1.614   1.378   5.878 -1.4742 -1.1454 -0.3313
 8185SOL     OW36190   0.283   0.553   4.019  0.0497 -1.0141  0.1815
 8185SOL    HW136191   0.367   0.528   4.059 -0.0031  1.0832  1.6254
 8185SOL    HW236192   0.286   0.518   3.930 -1.2165 -0.0740 -0.2308
 8186SOL     OW36193   3.399   1.774   4.264 -0.2609 -0.0311  0.1542
 8186SOL    HW136194   3.361   1.687   4.274 -1.3227  0.4498  0.3074
 8186SOL    HW236195   3.467   1.758   4.198 -0.9293 -1.9340 -0.0531
 8187SOL     OW36196   3.561   1.134   9.901  0.5926 -0.1034  0.0867
 8187SOL    HW136197   3.537   1.125   9.993 -1.1584 -1.7143 -0.5297
 8187SOL    HW236198   3.624   1.205   9.909 -0.1360  0.7364 -1.4814
 8188SOL     OW36199   3.035   3.050  11.481 -0.0937  0.2696 -0.3001
 8188SOL    HW136200   2.961   3.034  11.541  0.5922  2.0350  1.0309
 8188SOL    HW236201   3.002   3.007  11.403 -0.9351  0.4094 -0.0236
 8189SOL     OW36202   0.528   0.266   4.720 -0.3258  0.2255  0.2279
 8189SOL    HW136203   0.609   0.274   4.669  0.7432  1.4144  2.0987
 8189SOL    HW236204   0.567   0.289   4.805  3.8695  1.5825 -2.0096
 8190SOL     OW36205   2.679   4.446  15.463  0.2315 -0.3822  1.2092
 8190SOL    HW136206   2.745   4.451  15.394 -1.3017  0.5775 -0.1899
 8190SOL    HW236207   2.618   4.379  15.431 -0.0761  1.1218 -1.3064
 8191SOL     OW36208   3.917   2.881   7.324  0.0342  0.5374  0.4938
 8191SOL    HW136209   3.926   2.826   7.247 -2.1251 -1.0848  1.4213
 8191SOL    HW236210   3.823   2.902   7.321  0.2644  1.8506  2.8764
 8192SOL     OW36211   2.972   1.257   3.885  0.7134  0.0270  0.2718
 8192SOL    HW136212   2.877   1.273   3.879  1.0722  0.8798 -3.0952
 8192SOL    HW236213   2.995   1.274   3.976  0.2246 -1.5273  0.6724
 8193SOL     OW36214   1.420   0.570  11.919  0.3344  0.4589  0.2939
 8193SOL    HW136215   1.463   0.505  11.974 -1.5897  0.5798  1.9558
 8193SOL    HW236216   1.389   0.519  11.844 -0.9615  3.2548 -1.0630
 8194SOL     OW36217   0.462   4.416   4.785 -0.3124  0.1962 -0.4904
 8194SOL    HW136218   0.508   4.500   4.785 -0.0720  0.0653 -0.7798
 8194SOL    HW236219   0.373   4.442   4.759  0.5258  0.5721 -2.9735
 8195SOL     OW36220   2.312   4.293   8.799 -0.2849  0.3834 -0.5798
 8195SOL    HW136221   2.262   4.268   8.722  1.1826  1.5346 -1.9172
 8195SOL    HW236222   2.304   4.389   8.795 -1.2066  0.3671  0.9078
 8196SOL     OW36223   4.420   2.145   3.167  0.3019 -0.2724  0.6568
 8196SOL    HW136224   4.331   2.181   3.174  1.0493  1.9548 -1.3608
 8196SOL    HW236225   4.406   2.050   3.165  1.2316 -0.3884 -0.5666
 8197SOL     OW36226   2.486   2.593   5.859  0.0229  0.0900  0.0901
 8197SOL    HW136227   2.481   2.648   5.780 -1.0919  0.7850  0.6402
 8197SOL    HW236228   2.553   2.535   5.823  0.4837 -0.9604  2.6899
 8198SOL     OW36229   2.431   3.098   0.225  0.5525  0.2055 -0.2472
 8198SOL    HW136230   2.414   3.026   0.286 -0.1610  0.6260  0.0397
 8198SOL    HW236231   2.355   3.155   0.231  0.3678  0.0975 -1.6503
 8199SOL     OW36232   2.096   4.179  15.676  0.6002  0.2381 -0.4438
 8199SOL    HW136233   2.004   4.178  15.650  0.5291 -2.6076 -0.0773
 8199SOL    HW236234   2.106   4.273  15.691 -0.9952  0.7751 -2.6772
 8200SOL     OW36235   3.431   4.723   6.802 -0.4525  0.4025  0.2259
 8200SOL    HW136236   3.407   4.633   6.781 -1.3996  0.3646  1.4274
 8200SOL    HW236237   3.526   4.718   6.800 -0.5230 -0.4625 -0.7971
 8201SOL     OW36238   3.151   0.974   3.166  0.5509  0.1212  0.5434
 8201SOL    HW136239   3.148   0.922   3.085 -0.5798  2.5047 -0.9400
 8201SOL    HW236240   3.100   1.053   3.151 -0.3991 -0.3831  1.1493
 8202SOL     OW36241   4.353   1.120   6.046  0.7096  0.7655  0.1052
 8202SOL    HW136242   4.413   1.193   6.062  2.0978  0.1349 -2.2992
 8202SOL    HW236243   4.315   1.137   5.960 -2.5443 -0.5038  1.2756
 8203SOL     OW36244   4.715   2.944   7.185  0.1037 -0.2944 -0.2681
 8203SOL    HW136245   4.674   2.879   7.128  1.4801 -0.2084 -1.3252
 8203SOL    HW236246   4.658   2.925   7.260  1.3969 -2.7597  0.1014
 8204SOL     OW36247   2.038   1.434  12.436  0.4619  0.1611  0.0422
 8204SOL    HW136248   1.998   1.498  12.495 -2.4759 -0.3122 -1.4257
 8204SOL    HW236249   2.120   1.481  12.425  0.8767 -0.8202 -1.0668
 8205SOL     OW36250   0.310   3.532  13.604  0.3884 -0.1411  0.5196
 8205SOL    HW136251   0.215   3.521  13.591  0.4704 -0.3918  0.1144
 8205SOL    HW236252   0.330   3.548  13.511 -1.9853  0.6463  0.1368
 8206SOL     OW36253   1.930   1.002   6.857 -0.3485 -0.2240 -0.9076
 8206SOL    HW136254   1.896   1.091   6.871 -0.3199 -0.5508  1.2767
 8206SOL    HW236255   1.953   0.976   6.946 -0.4126 -0.8212 -1.0680
 8207SOL     OW36256   2.027   2.968   0.009  0.1988 -0.9752 -0.2447
 8207SOL    HW136257   1.991   3.056   0.023 -1.2763 -1.1235 -3.0898
 8207SOL    HW236258   2.099   2.977  17.703  1.7214 -2.1216  1.3128
 8208SOL     OW36259   1.291   1.630   5.913  0.2301  0.0720  0.7938
 8208SOL    HW136260   1.355   1.582   5.965 -1.6856 -2.1449  1.1455
 8208SOL    HW236261   1.306   1.723   5.931 -0.0498 -0.3091  3.0180
 8209SOL     OW36262   4.066   3.446   8.399 -0.1510 -0.4915 -0.3993
 8209SOL    HW136263   4.074   3.351   8.390  2.2773 -0.0443 -2.8078
 8209SOL    HW236264   4.140   3.478   8.348 -0.8252 -0.0169 -1.0811
 8210SOL     OW36265   2.218   2.429   0.229 -0.4929 -0.6815  0.0386
 8210SOL    HW136266   2.263   2.485   0.292 -1.4490  0.4373 -0.2888
 8210SOL    HW236267   2.142   2.479   0.201  0.8985  2.4615  1.8330
 8211SOL     OW36268   1.540   0.602   8.355  0.3593  0.6953 -0.5091
 8211SOL    HW136269   1.555   0.509   8.371 -1.2578 -0.0905 -3.4125
 8211SOL    HW236270   1.485   0.601   8.276 -0.6205  1.8074  0.1589
 8212SOL     OW36271   4.195   0.657  12.473 -0.2811  0.9250 -0.4859
 8212SOL    HW136272   4.228   0.727  12.417  1.0495  0.1159 -0.7161
 8212SOL    HW236273   4.265   0.646  12.537 -0.0127 -1.7849 -1.2574
 8213SOL     OW36274   2.200   0.199  14.824  0.8527  0.0882  0.6287
 8213SOL    HW136275   2.162   0.112  14.831 -0.7132  0.7623  0.4837
 8213SOL    HW236276   2.143   0.238  14.890  2.0069 -0.0524  1.7118
 8214SOL     OW36277   0.752   0.824  12.670 -0.3485  0.0561 -0.2432
 8214SOL    HW136278   0.805   0.847  12.594 -0.0237  0.2582  0.0466
 8214SOL    HW236279   0.732   0.738  12.632 -2.4651  0.4050  0.0797
 8215SOL     OW36280   2.695   0.525   5.127 -0.7824 -0.0750 -0.4086
 8215SOL    HW136281   2.724   0.591   5.064  1.7528 -0.2623  0.5297
 8215SOL    HW236282   2.731   0.453   5.075  0.2445  0.3345 -0.2640
 8216SOL     OW36283   3.480   3.177   4.153  0.0605 -0.7777 -0.2046
 8216SOL    HW136284   3.566   3.201   4.188 -0.8604 -0.5084  1.9196
 8216SOL    HW236285   3.472   3.210   4.064 -1.8643  1.2937  0.7329
 8217SOL     OW36286   1.446   1.928  12.909 -0.0339 -0.3555 -0.0209
 8217SOL    HW136287   1.402   1.938  12.993  0.1042 -1.2304  0.1548
 8217SOL    HW236288   1.424   2.015  12.874 -3.1967 -2.0204 -2.2696
 8218SOL     OW36289   0.588   1.456   6.677  0.2906  0.0711  0.7242
 8218SOL    HW136290   0.652   1.523   6.650 -1.1621  2.4377  3.0994
 8218SOL    HW236291   0.588   1.462   6.772 -2.4245 -2.5179  0.8532
 8219SOL     OW36292   2.928   2.368   1.926 -0.0674 -0.6382  0.7574
 8219SOL    HW136293   3.016   2.370   1.889 -0.5521  0.9077 -0.3300
 8219SOL    HW236294   2.956   2.344   2.014  0.8114 -0.2973  0.5745
 8220SOL     OW36295   3.579   2.382   1.549  0.1711  0.0252  0.4448
 8220SOL    HW136296   3.567   2.326   1.472  0.0528  0.3766  0.2107
 8220SOL    HW236297   3.659   2.427   1.524 -0.5583 -0.4137 -2.6820
 8221SOL     OW36298   0.127   0.191  10.424 -0.1033 -0.5881  0.2774
 8221SOL    HW136299   0.091   0.280  10.420  2.5425  0.4393 -1.0613
 8221SOL    HW236300   0.060   0.148  10.477 -2.1091  0.8337 -1.0949
 8222SOL     OW36301   2.640   0.573  16.838 -0.0465  0.0794 -0.4538
 8222SOL    HW136302   2.606   0.652  16.796 -0.4859 -0.7629 -1.6662
 8222SOL    HW236303   2.718   0.566  16.783  1.4057  2.9477  1.2383
 8223SOL     OW36304   1.451   0.078   5.036  0.2116 -0.0374  0.3949
 8223SOL    HW136305   1.384   0.013   5.051  0.1203 -0.4567 -1.8467
 8223SOL    HW236306   1.441   0.145   5.104  2.7224  1.0224 -0.2474
 8224SOL     OW36307   1.433   1.063   0.604 -0.2258  0.6343  0.1729
 8224SOL    HW136308   1.450   1.091   0.694 -0.8912  0.9473  0.1961
 8224SOL    HW236309   1.350   1.096   0.571 -0.8496 -0.2406  0.8791
 8225SOL     OW36310   2.954   1.595  14.265  0.0751  0.1826 -0.0053
 8225SOL    HW136311   2.876   1.555  14.226  0.3438 -0.3991  0.0571
 8225SOL    HW236312   3.022   1.572  14.201  1.1360 -1.0611  1.5816
 8226SOL     OW36313   3.501   1.281   0.286 -0.2573  0.2499  0.1877
 8226SOL    HW136314   3.512   1.205   0.343  0.2191 -1.2228 -1.8834
 8226SOL    HW236315   3.510   1.361   0.338  1.5438  0.8036 -0.9689
 8227SOL     OW36316   1.403   0.399   7.585  0.0053  0.2978  0.2243
 8227SOL    HW136317   1.351   0.475   7.613  0.6985  0.8915 -0.0986
 8227SOL    HW236318   1.412   0.417   7.492  1.4697  1.5667  0.6081
 8228SOL     OW36319   1.788   4.704   6.046 -0.1099 -0.0772  0.8668
 8228SOL    HW136320   1.838   0.000   5.974 -1.4441  0.6836  0.3135
 8228SOL    HW236321   1.708   4.677   6.000  0.1218 -0.2591  0.5772
 8229SOL     OW36322   4.485   3.948  10.490  0.1358 -0.0906 -0.1994
 8229SOL    HW136323   4.438   3.866  10.476 -0.4908  0.1520  0.4396
 8229SOL    HW236324   4.452   3.995  10.413  1.9265  0.0887 -0.8395
 8230SOL     OW36325   3.458   1.140   8.499  0.5510 -0.0343 -0.1797
 8230SOL    HW136326   3.396   1.067   8.493 -0.9230  1.3224 -1.4024
 8230SOL    HW236327   3.462   1.155   8.594  0.4587 -0.4762 -0.1057
 8231SOL     OW36328   0.699   0.965   6.836  0.2386  0.2131  0.4507
 8231SOL    HW136329   0.737   1.047   6.808 -2.2925  1.1903 -0.1514
 8231SOL    HW236330   0.778   0.920   6.867 -0.1697 -0.2053  0.9022
 8232SOL     OW36331   4.246   3.479   5.621  1.0557  0.0393 -0.0854
 8232SOL    HW136332   4.203   3.525   5.550 -1.3340 -0.7227  0.8472
 8232SOL    HW236333   4.203   3.513   5.700  0.4318  0.3250 -0.5500
 8233SOL     OW36334   0.868   1.103   4.861  0.0970 -0.1399  0.8925
 8233SOL    HW136335   0.904   1.135   4.944  0.1636  1.2280  0.3362
 8233SOL    HW236336   0.941   1.054   4.823 -1.0206 -1.3651  0.3250
 8234SOL     OW36337   1.348   4.339   2.742 -0.0376  0.3320  0.6926
 8234SOL    HW136338   1.363   4.289   2.823  1.0271 -1.0182 -0.3301
 8234SOL    HW236339   1.431   4.330   2.695 -0.0618  2.0712  0.3442
 8235SOL     OW36340   3.580   1.393   6.782 -0.5359  0.2231 -0.0589
 8235SOL    HW136341   3.624   1.328   6.728 -1.9675 -0.3347 -0.5592
 8235SOL    HW236342   3.606   1.474   6.738 -1.0942 -0.2978 -1.3501
 8236SOL     OW36343   2.150   1.278   2.483 -0.0062  0.3600  0.6868
 8236SOL    HW136344   2.143   1.346   2.550  0.8648 -1.5126  2.6509
 8236SOL    HW236345   2.234   1.307   2.446 -0.3818 -0.1504 -0.5579
 8237SOL     OW36346   4.669   2.841   9.005  0.8301 -0.3972 -0.1798
 8237SOL    HW136347   4.709   2.854   8.919  1.7251  1.0519  0.4360
 8237SOL    HW236348   4.719   2.765   9.036  0.5407  0.2278  1.8262
 8238SOL     OW36349   0.787   1.761  10.499  0.0949  0.1998  0.5127
 8238SOL    HW136350   0.856   1.710  10.456 -0.1262  1.7999 -1.7292
 8238SOL    HW236351   0.735   1.692  10.539 -1.3385  2.5034  2.5922
 8239SOL     OW36352   1.381   2.222   5.043  0.8616 -0.3638 -0.3057
 8239SOL    HW136353   1.406   2.187   4.957  0.8144  0.5031 -0.6657
 8239SOL    HW236354   1.437   2.299   5.049 -1.3311  1.2182 -0.4050
 8240SOL     OW36355   3.175   3.819   5.325 -0.7455 -0.1096 -0.0756
 8240SOL    HW136356   3.095   3.849   5.283 -0.3093 -0.3108 -1.0650
 8240SOL    HW236357   3.155   3.867   5.405  0.2325  0.1484  0.0124
 8241SOL     OW36358   0.274   3.488  12.983 -0.0519 -0.6169 -0.1173
 8241SOL    HW136359   0.285   3.576  13.018  0.5947 -0.7485  0.0179
 8241SOL    HW236360   0.178   3.484  12.986 -0.0429  0.7130  1.6947
 8242SOL     OW36361   2.774   0.150   6.359  0.3629  0.0566 -0.2633
 8242SOL    HW136362   2.679   0.140   6.358  0.1163  2.3475  1.6168
 8242SOL    HW236363   2.777   0.149   6.454 -1.0710 -1.3855 -0.2335
 8243SOL     OW36364   0.097   0.576   2.931 -0.0158  0.3201  0.3647
 8243SOL    HW136365   0.113   0.569   2.837  0.4042  0.0061  0.4618
 8243SOL    HW236366   0.150   0.651   2.956 -2.1609  2.1215 -0.4297
 8244SOL     OW36367   1.735   3.465   5.428 -0.2560 -0.4637  0.3443
 8244SOL    HW136368   1.829   3.462   5.409  0.0068  2.0804  1.1511
 8244SOL    HW236369   1.732   3.382   5.475  1.8905 -0.2371  0.9082
 8245SOL     OW36370   4.256   1.632   4.868 -0.3981 -0.0154  0.1723
 8245SOL    HW136371   4.336   1.684   4.860 -2.0432  2.4167 -0.4320
 8245SOL    HW236372   4.248   1.627   4.963  1.9382 -0.7838  0.3231
 8246SOL     OW36373   3.990   0.659   3.806  0.6006  0.2926 -0.1620
 8246SOL    HW136374   3.924   0.725   3.785 -1.4350 -1.6738  0.1020
 8246SOL    HW236375   3.922   0.596   3.829  0.1275  1.8930  2.8487
 8247SOL     OW36376   1.240   1.491   9.013 -0.3921  0.0131  0.0653
 8247SOL    HW136377   1.177   1.548   8.968 -1.0370 -1.2669 -0.6657
 8247SOL    HW236378   1.236   1.410   8.962  1.2415  0.4205 -0.7126
 8248SOL     OW36379   1.384   1.980  17.577  0.1816 -0.1014  0.3190
 8248SOL    HW136380   1.311   2.042  17.572  0.7386  0.5953  0.8508
 8248SOL    HW236381   1.456   2.029  17.617  0.7093 -0.2345 -0.4601
 8249SOL     OW36382   0.903   3.213  12.418  0.0393 -0.2443  0.3401
 8249SOL    HW136383   0.809   3.206  12.399  0.1680 -3.2140  0.7361
 8249SOL    HW236384   0.932   3.162  12.343  2.1571  3.2123 -1.1432
 8250SOL     OW36385   2.251   1.686  16.355 -0.0578  0.0799 -0.2866
 8250SOL    HW136386   2.249   1.593  16.331 -0.0324  0.2577 -0.9594
 8250SOL    HW236387   2.207   1.723  16.279  0.7567  0.6916 -0.4567
 8251SOL     OW36388   2.778   0.151  15.762  0.4882 -0.0437 -0.1201
 8251SOL    HW136389   2.868   0.131  15.788  1.0810 -0.1980 -2.2965
 8251SOL    HW236390   2.761   0.076  15.705  1.0654 -1.5672  1.7085
 8252SOL     OW36391   4.300   0.075   7.222  0.2304 -0.6369 -0.0062
 8252SOL    HW136392   4.289   0.041   7.311  0.8647 -3.7223 -1.1042
 8252SOL    HW236393   4.395   0.068   7.222  0.3829  1.5938  0.6109
 8253SOL     OW36394   2.182   2.175  17.360 -0.0001  0.2608  0.7114
 8253SOL    HW136395   2.120   2.210  17.296 -0.0467 -1.1103  0.0184
 8253SOL    HW236396   2.239   2.251  17.373  1.3291 -0.4078 -1.1713
 8254SOL     OW36397   1.895   1.492   3.280  0.0738  0.9069  0.7299
 8254SOL    HW136398   1.932   1.566   3.327  1.3734 -0.1720  1.4101
 8254SOL    HW236399   1.808   1.490   3.322 -0.1596  3.1945  0.3481
 8255SOL     OW36400   3.663   1.521   2.046 -0.5524  0.7432 -0.4914
 8255SOL    HW136401   3.595   1.454   2.051 -0.7048  0.9610  0.3896
 8255SOL    HW236402   3.648   1.558   2.133  1.2189  2.3063 -0.8518
 8256SOL     OW36403   2.395   1.159   3.986  0.5616 -0.5941 -0.1055
 8256SOL    HW136404   2.348   1.148   4.068 -0.9492  0.9374 -0.7613
 8256SOL    HW236405   2.343   1.228   3.946 -1.8957 -1.0065  2.4293
 8257SOL     OW36406   1.556   1.236   4.533 -0.4324 -0.5407 -0.0463
 8257SOL    HW136407   1.515   1.166   4.483  1.2114 -0.7617 -1.1002
 8257SOL    HW236408   1.572   1.190   4.616 -0.9674 -1.5625 -0.5169
 8258SOL     OW36409   1.793   4.496  16.521 -0.1430  0.2142  0.0201
 8258SOL    HW136410   1.757   4.463  16.439  0.0424 -2.5060  1.0587
 8258SOL    HW236411   1.831   4.579  16.490 -0.0865 -0.1385 -0.8650
 8259SOL     OW36412   4.489   1.305   5.758 -0.1823 -0.1403 -0.2073
 8259SOL    HW136413   4.547   1.381   5.750 -0.2037 -0.1811 -0.7819
 8259SOL    HW236414   4.474   1.299   5.852 -0.3499 -0.8490 -0.2780
 8260SOL     OW36415   2.110   1.755  16.576 -0.0677 -0.1091  0.1809
 8260SOL    HW136416   2.176   1.724  16.515  0.6705 -0.2434  1.0348
 8260SOL    HW236417   2.172   1.775  16.647  0.6107  1.0176 -0.7273
 8261SOL     OW36418   2.148   0.760   2.397  0.0349 -0.4214  0.3610
 8261SOL    HW136419   2.154   0.723   2.310  0.7700  0.2347  0.1350
 8261SOL    HW236420   2.232   0.748   2.441 -0.2712  0.3492  1.1655
 8262SOL     OW36421   1.703   2.971  12.418 -0.5658  0.0991 -0.0771
 8262SOL    HW136422   1.630   3.022  12.452  1.4727  2.1681  1.1604
 8262SOL    HW236423   1.767   2.989  12.487 -1.9107  2.8452  0.4489
 8263SOL     OW36424   1.202   4.606   3.269  0.6118  0.2099  0.2081
 8263SOL    HW136425   1.273   4.574   3.213  0.7585 -2.7143  2.0332
 8263SOL    HW236426   1.177   4.526   3.316  0.9492 -0.1889 -0.2843
 8264SOL     OW36427   3.362   0.197   0.751  0.6591 -0.3454 -0.3789
 8264SOL    HW136428   3.429   0.258   0.720 -1.7295  1.8091 -1.3383
 8264SOL    HW236429   3.359   0.213   0.846 -1.6350 -0.4988 -0.4179
 8265SOL     OW36430   1.601   0.856  11.870  0.2858  0.2947  0.4791
 8265SOL    HW136431   1.529   0.859  11.934  0.6721 -1.4244  0.9933
 8265SOL    HW236432   1.673   0.867  11.932 -0.4309 -0.5518  1.4698
 8266SOL     OW36433   1.426   0.959   8.077  0.5107  0.2459  0.6487
 8266SOL    HW136434   1.466   0.979   8.162 -0.5097 -0.1838  1.2240
 8266SOL    HW236435   1.360   1.028   8.073 -0.0769 -0.3231  0.4751
 8267SOL     OW36436   1.175   1.415   8.195 -0.4926  0.3348 -0.2673
 8267SOL    HW136437   1.091   1.431   8.151 -1.1350 -2.2243  0.0468
 8267SOL    HW236438   1.205   1.335   8.152 -1.0898 -1.3304  2.3931
 8268SOL     OW36439   3.816   3.751  12.005 -0.8433 -0.1270 -0.2266
 8268SOL    HW136440   3.787   3.744  11.914  1.8660  1.4234 -1.1959
 8268SOL    HW236441   3.772   3.831  12.033  0.7496 -0.0655  2.1470
 8269SOL     OW36442   4.100   0.308  15.652  0.3610  0.1077 -0.5548
 8269SOL    HW136443   4.191   0.280  15.641  0.5101  0.8832 -1.3580
 8269SOL    HW236444   4.097   0.323  15.747  0.4402  0.7989 -0.6595
 8270SOL     OW36445   3.488   0.674  13.711 -0.4369 -0.7049 -0.3295
 8270SOL    HW136446   3.409   0.727  13.712 -0.2093 -0.3425 -1.3278
 8270SOL    HW236447   3.531   0.715  13.635 -1.4819 -0.5414 -0.8259
 8271SOL     OW36448   2.125   1.497   6.710  1.1489  0.2661  0.1763
 8271SOL    HW136449   2.167   1.413   6.731  0.6125 -0.2052 -0.6401
 8271SOL    HW236450   2.197   1.541   6.664  0.0299  0.4887 -1.3769
 8272SOL     OW36451   4.355   4.351   9.125  0.7334  0.1305  0.2222
 8272SOL    HW136452   4.389   4.440   9.135  2.6354 -0.5282 -0.4410
 8272SOL    HW236453   4.346   4.332   9.219  0.3230  0.9404  0.3411
 8273SOL     OW36454   2.727   4.602  15.690  0.1185  0.0266 -0.0274
 8273SOL    HW136455   2.821   4.610  15.673  0.0977  0.2413 -0.0479
 8273SOL    HW236456   2.701   4.549  15.615 -2.4315  0.3797  0.6282
 8274SOL     OW36457   2.847   0.182   1.528 -0.3914 -0.7758 -0.4156
 8274SOL    HW136458   2.915   0.133   1.482  1.2722 -0.0201  1.2105
 8274SOL    HW236459   2.881   0.185   1.618  1.6991 -2.1172 -1.1657
 8275SOL     OW36460   2.102   3.104  11.350 -0.4162  0.0886  0.1782
 8275SOL    HW136461   2.032   3.170  11.351  0.7413  1.3453 -1.9230
 8275SOL    HW236462   2.186   3.147  11.338 -0.2478  0.1485  1.5600
 8276SOL     OW36463   1.565   0.108   4.569  0.4868 -0.4719 -0.0582
 8276SOL    HW136464   1.560   0.083   4.661  2.4165 -4.5440 -1.0615
 8276SOL    HW236465   1.540   0.028   4.522 -1.7787  0.7579 -0.9566
 8277SOL     OW36466   1.149   3.190   8.850  0.5057 -0.3242  0.4604
 8277SOL    HW136467   1.197   3.266   8.815 -0.8975  0.1009 -0.5354
 8277SOL    HW236468   1.208   3.151   8.914  3.1830  3.2821  0.2281
 8278SOL     OW36469   2.237   3.857   9.849  0.2721 -0.3358 -0.0361
 8278SOL    HW136470   2.323   3.894   9.868  0.6728 -0.6743 -1.2242
 8278SOL    HW236471   2.267   3.774   9.812  0.8797  1.1833 -2.9747
 8279SOL     OW36472   3.044   2.834   4.809 -0.3163  0.0346  0.2771
 8279SOL    HW136473   3.061   2.880   4.726  1.3516 -0.2958  0.4275
 8279SOL    HW236474   3.006   2.754   4.774 -1.6129  0.3731  0.9490
 8280SOL     OW36475   3.911   4.433  14.278 -0.3602  0.3416  0.5585
 8280SOL    HW136476   3.930   4.511  14.225 -1.4075  0.8460  0.9292
 8280SOL    HW236477   3.928   4.366  14.211  0.3713  0.6924  0.3937
 8281SOL     OW36478   2.982   4.488   9.494  0.0909 -0.3724 -0.3811
 8281SOL    HW136479   2.916   4.436   9.450 -0.1247 -1.1584  0.8841
 8281SOL    HW236480   3.035   4.522   9.421  1.5389  0.1263  0.8862
 8282SOL     OW36481   3.657   3.340   5.163  0.3316  0.2738 -0.8704
 8282SOL    HW136482   3.663   3.431   5.194  1.2747 -0.3933  0.8671
 8282SOL    HW236483   3.568   3.327   5.196  0.9692  0.4708  0.9487
 8283SOL     OW36484   2.006   2.178  12.246  0.1565 -0.3795 -0.0404
 8283SOL    HW136485   2.032   2.089  12.269  1.7994  0.4099  1.1325
 8283SOL    HW236486   2.017   2.176  12.151  1.6667 -1.1160  0.1527
 8284SOL     OW36487   1.935   1.734   2.053 -0.0981 -0.4584 -0.2552
 8284SOL    HW136488   1.945   1.819   2.096  0.5780 -0.2794 -0.7577
 8284SOL    HW236489   2.014   1.691   2.085 -0.9351 -1.1639  0.8584
 8285SOL     OW36490   1.563   3.963   4.128 -0.1988  0.2564 -0.4166
 8285SOL    HW136491   1.648   3.925   4.150 -0.0595  0.5893 -0.3891
 8285SOL    HW236492   1.582   4.027   4.060 -0.8849 -0.2556 -1.0869
 8286SOL     OW36493   3.328   0.321   8.848 -0.2058  0.1925 -0.3538
 8286SOL    HW136494   3.236   0.344   8.836 -0.2446  0.2667  0.0955
 8286SOL    HW236495   3.367   0.375   8.917  0.7343  1.0117 -1.5259
 8287SOL     OW36496   0.882   0.358   8.023  0.5886  0.2378 -0.1254
 8287SOL    HW136497   0.974   0.370   8.001  0.3304  3.0507  0.2974
 8287SOL    HW236498   0.846   0.302   7.954  0.6668  0.6117 -0.4644
 8288SOL     OW36499   0.066   1.838   7.783  0.1542 -0.6027 -0.3815
 8288SOL    HW136500   0.132   1.793   7.731 -2.3053 -1.4718 -2.7828
 8288SOL    HW236501   0.083   1.799   7.869  0.4915  1.2595  0.3969
 8289SOL     OW36502   3.873   3.227   4.633 -0.5505 -0.1081 -0.2612
 8289SOL    HW136503   3.833   3.227   4.720 -2.0951  1.5928 -0.9757
 8289SOL    HW236504   3.923   3.145   4.636 -0.7656 -0.2878 -1.9934
 8290SOL     OW36505   1.054   3.544   9.080 -0.4109  0.2048 -0.2999
 8290SOL    HW136506   1.001   3.537   9.001 -0.2669  0.3695 -0.4130
 8290SOL    HW236507   1.073   3.638   9.077 -1.8423  0.4481 -1.9572
 8291SOL     OW36508   0.070   0.575  16.157  0.7131 -0.5877 -0.1411
 8291SOL    HW136509   0.037   0.511  16.094  0.0120 -0.1596 -0.2049
 8291SOL    HW236510   0.089   0.518  16.232  0.1877 -2.1591 -1.2070
 8292SOL     OW36511   1.312   1.477   7.006 -0.0969 -0.1220 -0.5139
 8292SOL    HW136512   1.402   1.507   6.997  0.5053 -1.2653  1.9101
 8292SOL    HW236513   1.329   1.408   7.070  1.2173 -0.0835 -0.8262
 8293SOL     OW36514   1.133   3.238   2.953 -0.0945 -0.3363 -0.4803
 8293SOL    HW136515   1.151   3.265   3.043  2.3639 -0.5750 -0.9118
 8293SOL    HW236516   1.083   3.316   2.927 -0.4035 -0.4175 -0.1337
 8294SOL     OW36517   1.921   0.074  11.113  0.4415 -0.2830 -0.5765
 8294SOL    HW136518   1.835   0.057  11.153  0.2465 -1.9408 -1.7452
 8294SOL    HW236519   1.937   0.162  11.149 -0.7337 -1.3454  2.5020
 8295SOL     OW36520   1.491   2.731   7.175  0.0677 -0.0488  0.2984
 8295SOL    HW136521   1.498   2.653   7.229  2.8371  1.1685  1.6604
 8295SOL    HW236522   1.554   2.782   7.226  0.9340  0.5658 -1.3907
 8296SOL     OW36523   1.602   4.492   4.011  0.3067  0.4134  0.1683
 8296SOL    HW136524   1.697   4.499   4.011  0.1459  2.6026  1.6510
 8296SOL    HW236525   1.584   4.499   3.917 -0.1957 -1.1567  0.1375
 8297SOL     OW36526   0.059   2.824   3.618 -0.3898  0.7290 -0.0571
 8297SOL    HW136527   0.085   2.914   3.601  1.9066 -0.0286 -0.4823
 8297SOL    HW236528   0.003   2.806   3.542 -0.0559  1.2409 -0.4243
 8298SOL     OW36529   2.199   2.289   8.547 -0.1240 -0.2887  0.0004
 8298SOL    HW136530   2.117   2.244   8.529 -0.1867 -1.8479  4.1897
 8298SOL    HW236531   2.164   2.356   8.606  3.9340  2.7846 -1.0319
 8299SOL     OW36532   1.911   4.483   3.190 -0.0589  0.2355 -0.2183
 8299SOL    HW136533   1.848   4.549   3.160  0.3593 -0.2984 -2.3033
 8299SOL    HW236534   1.927   4.443   3.105 -0.0845 -0.6306  0.1863
 8300SOL     OW36535   2.570   1.429   3.415 -0.0571 -0.4426 -0.6470
 8300SOL    HW136536   2.475   1.422   3.404 -0.3923  0.4551  1.4819
 8300SOL    HW236537   2.583   1.524   3.422  1.6014 -0.7330  0.3048
 8301SOL     OW36538   2.061   2.106   1.619  0.6631  0.4024  0.0222
 8301SOL    HW136539   2.104   2.141   1.697 -0.4357 -1.0283  1.2709
 8301SOL    HW236540   2.137   2.105   1.562 -1.0872 -0.8428 -2.2798
 8302SOL     OW36541   0.117   2.013   5.099 -0.3064  0.1893  0.7265
 8302SOL    HW136542   0.189   1.972   5.051 -0.9888  0.8714 -0.8761
 8302SOL    HW236543   0.048   1.953   5.070  0.4688 -0.6438  0.5860
 8303SOL     OW36544   0.281   0.183   5.289  0.4779 -0.4576 -0.3787
 8303SOL    HW136545   0.213   0.248   5.270 -0.7340 -1.6342 -0.0241
 8303SOL    HW236546   0.236   0.113   5.337  0.1572 -0.1643 -0.2527
 8304SOL     OW36547   1.261   4.425   7.627 -0.2330  0.1940  0.1254
 8304SOL    HW136548   1.303   4.500   7.670  0.6428  0.2539 -0.8238
 8304SOL    HW236549   1.168   4.442   7.619 -0.2860 -0.2008 -0.0584
 8305SOL     OW36550   3.798   1.236   7.310 -0.4613 -0.0954  0.4520
 8305SOL    HW136551   3.752   1.292   7.372 -1.0278 -0.5604  0.4598
 8305SOL    HW236552   3.784   1.150   7.349  0.2809  0.2048  1.3872
 8306SOL     OW36553   1.213   4.321  15.675 -0.3251  0.0851 -0.5667
 8306SOL    HW136554   1.123   4.303  15.646  0.2823 -1.4939 -1.4659
 8306SOL    HW236555   1.238   4.401  15.628  1.0965 -1.3919 -2.3410
 8307SOL     OW36556   4.406   0.486   4.183 -1.3119  0.1940  0.6665
 8307SOL    HW136557   4.438   0.567   4.144  2.2739 -2.1401 -1.2427
 8307SOL    HW236558   4.424   0.424   4.111 -0.9452  2.3195 -1.0670
 8308SOL     OW36559   3.960   1.058   9.602 -0.0688 -0.0839 -0.0890
 8308SOL    HW136560   4.048   1.021   9.601  0.3177  0.8396 -0.5596
 8308SOL    HW236561   3.915   0.974   9.603 -2.2988  1.1060 -0.3805
 8309SOL     OW36562   2.196   1.085   7.007  0.2001 -0.1808 -0.0219
 8309SOL    HW136563   2.237   1.053   6.926  1.4191  2.3295 -0.4029
 8309SOL    HW236564   2.243   1.046   7.080 -1.3833 -0.2502  0.9414
 8310SOL     OW36565   1.927   2.974   5.746  0.2696 -0.2467  0.2192
 8310SOL    HW136566   2.015   2.998   5.772  0.1981  1.1799 -0.7903
 8310SOL    HW236567   1.927   2.892   5.795 -2.1508 -0.4468 -0.0666
 8311SOL     OW36568   0.971   3.339   3.848 -0.3063  0.6094  0.3446
 8311SOL    HW136569   0.895   3.379   3.807 -0.0278 -0.0268 -0.7941
 8311SOL    HW236570   1.025   3.329   3.770 -2.2096 -1.1126 -0.7358
 8312SOL     OW36571   2.583   2.912  11.723  0.0790  0.2485  0.1726
 8312SOL    HW136572   2.603   2.859  11.800 -1.2421 -0.1528  0.2288
 8312SOL    HW236573   2.525   2.848  11.683 -0.1023  1.2249 -1.1332
 8313SOL     OW36574   2.812   3.580   3.895  0.0492  0.4151  0.1146
 8313SOL    HW136575   2.825   3.571   3.989  1.2901 -2.1681 -0.3064
 8313SOL    HW236576   2.768   3.665   3.898  0.1329  0.4582  0.1278
 8314SOL     OW36577   0.728   1.030   2.277  0.4320  0.5442  0.1491
 8314SOL    HW136578   0.747   1.082   2.199 -2.0716 -1.1267 -1.5469
 8314SOL    HW236579   0.698   0.948   2.237 -0.0619  1.6535 -1.7374
 8315SOL     OW36580   1.019   2.383  16.521  0.4333  0.3499 -0.8374
 8315SOL    HW136581   0.951   2.349  16.463  1.3292 -0.2789 -1.5178
 8315SOL    HW236582   0.982   2.338  16.597  1.1330 -1.0220 -1.2988
 8316SOL     OW36583   2.610   3.792   9.798 -0.4291 -0.2580  0.4898
 8316SOL    HW136584   2.591   3.739   9.876  0.9777  0.5807  1.4210
 8316SOL    HW236585   2.554   3.866   9.822 -0.0968  0.7658 -1.9204
 8317SOL     OW36586   0.676   2.141  17.674  0.4875 -0.8981 -0.7015
 8317SOL    HW136587   0.586   2.150  17.644 -0.0880 -4.2121 -0.0152
 8317SOL    HW236588   0.721   2.205  17.619 -1.4763  1.1052  0.0173
 8318SOL     OW36589   3.993   1.920   3.273  0.1301 -0.4096  0.4031
 8318SOL    HW136590   3.996   1.843   3.217 -0.3280 -0.6228  0.6700
 8318SOL    HW236591   3.998   1.877   3.359  0.0156 -2.7776 -0.7891
 8319SOL     OW36592   1.915   0.087   2.036 -0.2578 -0.4155  0.1671
 8319SOL    HW136593   1.920   4.735   2.012 -1.4625 -0.7642  1.3145
 8319SOL    HW236594   1.951   0.090   2.125  0.1900 -1.7096  0.0202
 8320SOL     OW36595   3.773   3.727   5.697  0.5115  0.5599 -0.2657
 8320SOL    HW136596   3.747   3.731   5.789  0.5998 -1.2121 -0.1769
 8320SOL    HW236597   3.756   3.815   5.662 -0.6684  0.4297 -0.0143
 8321SOL     OW36598   4.210   3.833   8.709  0.2355  0.3604 -0.9191
 8321SOL    HW136599   4.244   3.922   8.703  0.8486  0.2924  1.5206
 8321SOL    HW236600   4.204   3.804   8.618  0.6897 -2.1503 -0.1685
 8322SOL     OW36601   0.707   2.104  15.420  0.2035  0.2224 -0.5204
 8322SOL    HW136602   0.696   2.019  15.462  1.2134 -0.3221 -1.3264
 8322SOL    HW236603   0.772   2.073  15.356  0.3386  0.6008 -0.5649
 8323SOL     OW36604   4.126   2.849   6.292 -0.0915  0.0211 -0.8337
 8323SOL    HW136605   4.036   2.877   6.308 -0.8094 -2.1416 -1.2076
 8323SOL    HW236606   4.129   2.804   6.208 -1.3675  1.1345 -1.4636
 8324SOL     OW36607   0.530   0.247   8.752 -0.2871 -0.2986 -0.5294
 8324SOL    HW136608   0.570   0.178   8.806 -2.1597 -0.1192  1.1046
 8324SOL    HW236609   0.566   0.324   8.796 -0.3930 -0.9927  0.7939
 8325SOL     OW36610   3.908   0.874   2.010  0.2115  0.3026  0.5736
 8325SOL    HW136611   3.840   0.842   1.952  0.9235 -0.5623  0.2199
 8325SOL    HW236612   3.986   0.836   1.969 -0.3048 -2.7358  2.3939
 8326SOL     OW36613   2.289   2.680   7.009 -0.4944  0.0642  0.7222
 8326SOL    HW136614   2.325   2.591   7.004 -0.0684  0.0794  3.5180
 8326SOL    HW236615   2.366   2.723   6.971 -2.1334  1.1390 -1.3848
 8327SOL     OW36616   0.068   2.283   0.491 -0.1143 -0.1907  0.1184
 8327SOL    HW136617   0.064   2.359   0.549  1.4802 -0.9832  1.2988
 8327SOL    HW236618   0.020   2.222   0.548  0.4803  0.8850  1.7764
 8328SOL     OW36619   0.828   1.340  14.857  0.3943 -0.2919 -0.1288
 8328SOL    HW136620   0.805   1.410  14.919  4.6940  0.3183  0.7782
 8328SOL    HW236621   0.912   1.310  14.891  0.1772 -0.0801  0.6021
 8329SOL     OW36622   1.213   2.219   5.663 -0.0006 -0.1579 -0.1427
 8329SOL    HW136623   1.161   2.198   5.741  3.5507 -0.7255  2.0561
 8329SOL    HW236624   1.159   2.177   5.596 -0.7370 -0.8325  0.8778
 8330SOL     OW36625   4.179   2.836  11.830 -0.4018 -0.1419  0.4161
 8330SOL    HW136626   4.176   2.740  11.828 -1.3146 -0.1410  1.5217
 8330SOL    HW236627   4.091   2.857  11.863  0.1113  0.0815  1.6353
 8331SOL     OW36628   4.692   3.432  12.992  0.3387 -0.1259 -0.1515
 8331SOL    HW136629   4.619   3.493  12.987  0.8997  0.5087 -0.6389
 8331SOL    HW236630   4.656   3.361  12.938  0.3050 -0.2226 -0.0013
 8332SOL     OW36631   3.615   2.524  10.168  0.7517 -0.6264  0.0596
 8332SOL    HW136632   3.617   2.434  10.137  3.9820 -1.7981  3.7581
 8332SOL    HW236633   3.684   2.567  10.117  1.5114  0.5129  2.0515
 8333SOL     OW36634   0.265   0.251  11.967  0.0804  0.0069  0.3556
 8333SOL    HW136635   0.337   0.249  11.905  0.3410 -0.4202  0.6694
 8333SOL    HW236636   0.281   0.315  12.038  1.6203  1.2054 -1.0752
 8334SOL     OW36637   2.335   0.362   6.878  0.2942  0.4728 -0.4387
 8334SOL    HW136638   2.379   0.288   6.835 -0.2005 -0.4123  0.5802
 8334SOL    HW236639   2.306   0.424   6.812 -0.8279 -0.8937 -1.2268
 8335SOL     OW36640   4.598   4.593  11.562 -0.2431 -0.4245 -0.3810
 8335SOL    HW136641   4.637   4.518  11.607 -0.0238 -0.5897 -0.8484
 8335SOL    HW236642   4.613   4.665  11.624 -0.0788  0.6707 -1.6909
 8336SOL     OW36643   2.033   4.488   6.496 -0.7569 -0.5135  0.2200
 8336SOL    HW136644   1.941   4.514   6.500 -0.1909  1.6927 -0.6646
 8336SOL    HW236645   2.032   4.427   6.423  0.5464 -1.1444  0.7382
 8337SOL     OW36646   1.161   0.890   4.974 -0.1033  0.0316  0.7230
 8337SOL    HW136647   1.176   0.924   4.886 -2.8291 -0.9946 -0.1198
 8337SOL    HW236648   1.124   0.802   4.961  1.2317 -0.2166 -1.4327
 8338SOL     OW36649   2.455   0.496   7.703 -0.1222 -0.0163  0.3641
 8338SOL    HW136650   2.476   0.583   7.669 -0.1265  0.1783  0.8662
 8338SOL    HW236651   2.488   0.503   7.792  2.4061 -2.3334 -0.3914
 8339SOL     OW36652   2.855   3.919   7.773  0.0765 -0.0390 -0.0367
 8339SOL    HW136653   2.766   3.908   7.807  0.2219 -0.0322  0.3461
 8339SOL    HW236654   2.864   4.011   7.748  0.3717 -0.2098 -0.5543
 8340SOL     OW36655   1.299   4.688   3.744 -0.5950 -0.2663  0.5870
 8340SOL    HW136656   1.279   0.034   3.707  0.3159  0.2690  1.3250
 8340SOL    HW236657   1.378   4.714   3.791  0.1839 -0.8900 -0.3744
 8341SOL     OW36658   2.147   2.080  11.808 -0.0634 -0.0650 -0.5838
 8341SOL    HW136659   2.204   2.149  11.842 -1.8916  1.9388 -1.5390
 8341SOL    HW236660   2.100   2.037  11.880  0.0364  0.4172 -0.2301
 8342SOL     OW36661   1.879   3.182   6.543  0.2383 -0.8467 -0.1159
 8342SOL    HW136662   1.879   3.119   6.471  1.2778 -0.0597 -0.8103
 8342SOL    HW236663   1.833   3.129   6.608  0.7821 -0.7272  0.3681
 8343SOL     OW36664   1.854   4.293  15.896  0.2447  0.0785 -0.0348
 8343SOL    HW136665   1.785   4.310  15.960  0.0640  1.4415 -0.5820
 8343SOL    HW236666   1.886   4.382  15.882 -0.2507  0.0838 -1.1130
 8344SOL     OW36667   0.642   0.957   8.300  0.3940  0.3168 -0.4708
 8344SOL    HW136668   0.653   0.975   8.206 -2.6230  0.8491 -0.7234
 8344SOL    HW236669   0.548   0.935   8.298  1.4419 -4.3859  1.3204
 8345SOL     OW36670   1.632   1.363   7.306  0.1757 -0.1104  0.4291
 8345SOL    HW136671   1.631   1.287   7.248 -2.2123 -1.0497  1.6653
 8345SOL    HW236672   1.711   1.411   7.285 -1.7359  2.5494 -0.6573
 8346SOL     OW36673   1.635   1.201   4.786  0.0279  0.0115  0.1912
 8346SOL    HW136674   1.659   1.111   4.805 -0.2553 -0.2906 -0.8418
 8346SOL    HW236675   1.560   1.223   4.841  2.8055  0.6222  3.7088
 8347SOL     OW36676   2.935   4.065   7.398 -0.7247  0.0166 -0.2999
 8347SOL    HW136677   3.030   4.063   7.393 -0.7527 -2.0676 -0.2232
 8347SOL    HW236678   2.914   4.094   7.487 -1.4599 -1.9988  0.2077
 8348SOL     OW36679   3.363   2.336   9.634  0.1777  0.2484 -0.2756
 8348SOL    HW136680   3.356   2.396   9.560 -0.6975 -2.1584 -2.1583
 8348SOL    HW236681   3.457   2.349   9.649 -0.0601  1.6813 -0.0420
 8349SOL     OW36682   2.709   1.397  16.364  0.4849  0.1600  0.6927
 8349SOL    HW136683   2.742   1.363  16.447 -0.6305 -0.2344  0.9796
 8349SOL    HW236684   2.640   1.458  16.392 -1.2150 -0.6253 -1.9078
 8350SOL     OW36685   3.339   2.706   2.476  0.4944 -0.1293 -0.0658
 8350SOL    HW136686   3.364   2.785   2.524  0.2444 -0.0059 -0.1395
 8350SOL    HW236687   3.274   2.663   2.531 -0.5035  0.8809 -0.4545
 8351SOL     OW36688   0.783   1.088   8.893  0.2523  0.6344  0.0324
 8351SOL    HW136689   0.725   1.164   8.889  1.0992  1.3996  2.2260
 8351SOL    HW236690   0.860   1.120   8.941  0.7034  1.5868 -1.3529
 8352SOL     OW36691   2.977   0.944   6.947 -0.5004  1.2594  0.1880
 8352SOL    HW136692   3.071   0.940   6.965 -0.4956  2.0520  0.3597
 8352SOL    HW236693   2.977   0.977   6.857 -0.9528  2.8265  0.7714
 8353SOL     OW36694   0.948   2.826  12.387  0.0304  0.0303  0.6873
 8353SOL    HW136695   0.862   2.836  12.427 -0.5878 -2.0605 -0.1005
 8353SOL    HW236696   0.958   2.897  12.324 -1.2183 -0.7395 -0.3714
 8354SOL     OW36697   1.701   1.706   6.132  0.5854  0.3269  0.3133
 8354SOL    HW136698   1.736   1.699   6.044  2.5564  0.4876  1.0888
 8354SOL    HW236699   1.766   1.763   6.174 -0.8430  3.0804 -1.1906
 8355SOL     OW36700   2.311   0.029  17.357 -0.3250 -0.2430  0.3018
 8355SOL    HW136701   2.381   0.086  17.326  0.3409 -1.4364 -0.3972
 8355SOL    HW236702   2.273   0.029  17.269  3.2118 -0.5985 -1.2474
 8356SOL     OW36703   4.456   3.224  17.352 -0.2462  0.2019 -0.4455
 8356SOL    HW136704   4.540   3.179  17.351 -1.3134 -1.7657 -2.0416
 8356SOL    HW236705   4.420   3.214  17.264 -0.2381  0.2880 -0.4588
 8357SOL     OW36706   1.141   1.414   0.773 -0.0576  0.3557 -0.3335
 8357SOL    HW136707   1.108   1.409   0.863 -3.3935 -1.4169 -1.6339
 8357SOL    HW236708   1.083   1.345   0.740 -0.9898  1.5443 -1.1919
 8358SOL     OW36709   3.459   0.490  16.649  0.4870 -0.1121 -0.3674
 8358SOL    HW136710   3.442   0.395  16.652 -0.9207  0.1307 -0.9371
 8358SOL    HW236711   3.433   0.521  16.736 -0.7805 -3.7801  0.5905
 8359SOL     OW36712   1.814   0.598  11.794 -0.3958  0.1139 -0.0328
 8359SOL    HW136713   1.895   0.575  11.840 -0.4229 -0.0389 -0.0591
 8359SOL    HW236714   1.758   0.625  11.867  0.9302 -0.3571  1.1627
 8360SOL     OW36715   4.582   0.952   5.893  0.4323 -0.2326 -0.6384
 8360SOL    HW136716   4.524   1.000   5.834  0.8432  0.4472 -0.4850
 8360SOL    HW236717   4.658   1.010   5.900  0.9011 -0.8833 -0.1984
 8361SOL     OW36718   3.230   3.671   8.316 -0.1794  0.3481  0.1357
 8361SOL    HW136719   3.311   3.658   8.365  0.9248  2.9118 -1.0169
 8361SOL    HW236720   3.162   3.676   8.384 -0.3303 -0.6391  0.0626
 8362SOL     OW36721   0.648   2.952   6.081 -0.4056 -0.2892 -0.3247
 8362SOL    HW136722   0.700   3.025   6.048 -1.4490  0.8840  0.6306
 8362SOL    HW236723   0.556   2.961   6.057  0.0316  2.2965 -0.9908
 8363SOL     OW36724   3.868   2.920   6.357  0.1259 -0.4211  0.3123
 8363SOL    HW136725   3.902   3.009   6.364 -0.8194 -0.1291  1.1723
 8363SOL    HW236726   3.778   2.934   6.330 -0.7267  0.4390  3.6295
 8364SOL     OW36727   3.061   1.358  15.686  0.3164 -0.6750 -0.4217
 8364SOL    HW136728   3.035   1.441  15.727 -1.5949 -1.8597  0.7538
 8364SOL    HW236729   3.148   1.386  15.658  0.8353 -1.4317  0.4165
 8365SOL     OW36730   3.119   2.364   5.526  0.0886  0.1814  0.5374
 8365SOL    HW136731   3.185   2.412   5.577  2.0746 -2.0122  0.0151
 8365SOL    HW236732   3.103   2.296   5.591 -1.4984  1.5084  1.5542
 8366SOL     OW36733   1.520   0.458  15.834 -0.1875 -0.8861 -0.1356
 8366SOL    HW136734   1.485   0.522  15.772  0.2211  0.1343  0.6868
 8366SOL    HW236735   1.484   0.500  15.912  0.6116 -1.7873  0.7150
 8367SOL     OW36736   3.796   4.472   4.231 -0.3681  0.8619  0.5822
 8367SOL    HW136737   3.720   4.488   4.175 -0.9001 -4.1170 -0.1285
 8367SOL    HW236738   3.787   4.541   4.297  0.9216 -0.2455  1.9258
 8368SOL     OW36739   1.684   0.216   5.248 -0.4602 -0.4874 -0.0162
 8368SOL    HW136740   1.705   0.253   5.334 -1.2852  0.2690 -0.1482
 8368SOL    HW236741   1.589   0.227   5.252 -0.3866 -0.2134  1.0508
 8369SOL     OW36742   2.703   2.471  12.482  0.7865 -0.3965 -0.4423
 8369SOL    HW136743   2.740   2.416  12.550  1.4921  0.6072 -0.0228
 8369SOL    HW236744   2.769   2.517  12.430  0.2110  0.8172 -0.1100
 8370SOL     OW36745   2.521   0.199   3.001  0.1803  0.2238 -0.8271
 8370SOL    HW136746   2.501   0.107   3.017 -0.9288  0.7729  0.8475
 8370SOL    HW236747   2.589   0.181   2.936  1.6983  0.8153  0.6045
 8371SOL     OW36748   2.464   1.894  10.972 -0.0415  0.2922 -0.1235
 8371SOL    HW136749   2.443   1.970  10.916 -0.2541  1.2429  1.2521
 8371SOL    HW236750   2.546   1.929  11.006 -0.3095 -0.1265  0.9247
 8372SOL     OW36751   2.802   4.401  13.970 -0.3783 -0.3703  0.7782
 8372SOL    HW136752   2.820   4.310  13.997 -0.2325 -0.5643  0.0071
 8372SOL    HW236753   2.731   4.394  13.907  0.3558  0.2413 -0.1092
 8373SOL     OW36754   2.743   1.739   0.619 -0.4159  0.2124  0.0897
 8373SOL    HW136755   2.746   1.674   0.549 -0.9451  0.0825  0.1865
 8373SOL    HW236756   2.806   1.710   0.685  0.5740  0.5489 -0.7046
 8374SOL     OW36757   0.492   4.022   8.207  0.0297 -0.4025  0.3246
 8374SOL    HW136758   0.407   4.052   8.177 -0.5227 -0.1604  2.1177
 8374SOL    HW236759   0.545   4.087   8.161 -1.9052  1.4910  0.8179
 8375SOL     OW36760   0.076   2.428   1.655  0.5703 -0.0941  0.5340
 8375SOL    HW136761   0.027   2.412   1.736 -2.0425  3.1465 -0.4250
 8375SOL    HW236762   0.134   2.498   1.683  2.5339 -1.1533 -0.8892
 8376SOL     OW36763   1.797   4.711   6.996 -0.3851 -0.4607 -0.1077
 8376SOL    HW136764   1.820   0.041   6.935 -3.5759 -0.6135 -1.5118
 8376SOL    HW236765   1.828   4.637   6.944  1.3349 -0.2470  0.6122
 8377SOL     OW36766   4.719   1.286   7.178 -0.0004 -0.0523  0.0947
 8377SOL    HW136767   0.041   1.278   7.105 -0.3055  3.5042 -0.5443
 8377SOL    HW236768   4.649   1.329   7.129 -0.2380 -0.5140  0.0323
 8378SOL     OW36769   3.912   2.757  16.404  0.0126 -0.4420  0.1451
 8378SOL    HW136770   3.978   2.693  16.380  2.1685  1.9730 -0.2941
 8378SOL    HW236771   3.872   2.778  16.320  0.7195  0.2539 -0.0185
 8379SOL     OW36772   4.525   1.260   9.343  0.5336 -0.2283 -0.6094
 8379SOL    HW136773   4.493   1.279   9.254  0.3443 -1.7642 -0.8685
 8379SOL    HW236774   4.450   1.211   9.377  0.6711 -0.1735 -0.2328
 8380SOL     OW36775   3.964   0.513   0.471 -0.6526  0.6771  0.5723
 8380SOL    HW136776   4.041   0.511   0.415  0.0690 -0.4409  1.6001
 8380SOL    HW236777   3.896   0.530   0.406  0.6753 -0.7878 -1.2043
 8381SOL     OW36778   4.190   2.306   8.099 -0.5785 -0.1253 -0.4773
 8381SOL    HW136779   4.195   2.395   8.066  0.4471 -0.7129 -1.9199
 8381SOL    HW236780   4.149   2.260   8.025 -1.3954 -1.2780  0.6907
 8382SOL     OW36781   2.248   2.777   5.985 -0.0192  0.5160 -0.5583
 8382SOL    HW136782   2.326   2.794   6.038 -1.6354  0.4579  1.8272
 8382SOL    HW236783   2.251   2.841   5.914  1.0191  1.1172  0.0139
 8383SOL     OW36784   1.726   2.747   9.134 -0.0661 -0.1929  0.0275
 8383SOL    HW136785   1.687   2.729   9.048  0.2800 -1.4084  0.1242
 8383SOL    HW236786   1.816   2.716   9.124  1.4053  3.4975  1.8205
 8384SOL     OW36787   1.535   2.706  16.578 -0.5752 -0.3743 -0.3705
 8384SOL    HW136788   1.531   2.636  16.643  0.0256 -0.1893 -0.1285
 8384SOL    HW236789   1.564   2.777  16.635  1.7833 -0.7851 -1.0475
 8385SOL     OW36790   0.660   0.287  13.309 -0.5265 -0.2294 -0.1550
 8385SOL    HW136791   0.754   0.279  13.325 -0.4081 -0.3775 -0.8987
 8385SOL    HW236792   0.660   0.383  13.297 -0.9719 -0.1119  0.7971
 8386SOL     OW36793   0.001   2.161  10.215  0.0966 -0.1317  0.1463
 8386SOL    HW136794   0.082   2.189  10.173  0.6015  0.6849  1.6704
 8386SOL    HW236795   4.717   2.084  10.163 -0.2227 -0.3982  0.6912
 8387SOL     OW36796   1.755   2.182   2.146 -0.4006  0.0301  0.2111
 8387SOL    HW136797   1.699   2.193   2.222 -1.5129  1.3232 -0.7983
 8387SOL    HW236798   1.719   2.102   2.107  0.5233 -0.0972 -0.3857
 8388SOL     OW36799   1.599   3.966   5.623  0.3321  0.3038  0.4328
 8388SOL    HW136800   1.626   3.973   5.532  0.2842 -0.2967  0.3700
 8388SOL    HW236801   1.685   3.945   5.660 -0.1535 -1.3279  0.6445
 8389SOL     OW36802   4.403   0.992   1.769 -0.3530 -0.6254  0.0001
 8389SOL    HW136803   4.349   1.033   1.701  2.9525  1.3172 -1.4712
 8389SOL    HW236804   4.449   0.920   1.727 -0.4938 -0.9865  0.4572
 8390SOL     OW36805   3.280   2.222   4.992 -0.1262  0.1814 -0.1645
 8390SOL    HW136806   3.205   2.236   5.050  1.2480 -1.4601  1.9716
 8390SOL    HW236807   3.254   2.137   4.958 -0.7542  1.2526 -2.3723
 8391SOL     OW36808   0.306   1.212   5.256 -0.0785 -0.3351 -0.0672
 8391SOL    HW136809   0.330   1.127   5.220  1.4961  0.6052 -1.1889
 8391SOL    HW236810   0.258   1.188   5.336  1.3930  0.8611  1.1627
 8392SOL     OW36811   2.124   3.348  16.973  0.0903  0.1300 -0.3485
 8392SOL    HW136812   2.199   3.404  16.954 -0.3940  1.6084  2.0003
 8392SOL    HW236813   2.063   3.385  16.909  0.6608  2.3047  0.3611
 8393SOL     OW36814   0.643   0.983  15.861 -0.4303 -0.4318  0.0407
 8393SOL    HW136815   0.704   0.911  15.848  1.6376  1.2047  0.5020
 8393SOL    HW236816   0.679   1.043  15.796  1.1792 -2.5356 -1.0107
 8394SOL     OW36817   2.504   1.148   7.551 -0.2501  0.1543 -0.6655
 8394SOL    HW136818   2.511   1.111   7.463  1.8589  1.3423 -0.9960
 8394SOL    HW236819   2.592   1.177   7.576  0.0882 -1.5553  0.1082
 8395SOL     OW36820   0.592   2.494   8.706  0.1582 -0.3436  0.1429
 8395SOL    HW136821   0.638   2.416   8.735 -0.1464 -0.3309  0.6569
 8395SOL    HW236822   0.620   2.497   8.614  0.8006  1.3097  0.3850
 8396SOL     OW36823   4.286   3.892   2.111 -0.2211 -0.0023 -0.1401
 8396SOL    HW136824   4.298   3.810   2.159  2.5480 -0.5248 -1.7292
 8396SOL    HW236825   4.243   3.857   2.034 -1.8730  1.8300 -0.0655
 8397SOL     OW36826   2.558   0.430   9.039  0.2778 -0.0827 -0.3105
 8397SOL    HW136827   2.558   0.519   9.073 -1.2134 -0.1674 -0.0919
 8397SOL    HW236828   2.475   0.419   8.993  0.4866  2.8142 -1.3903
 8398SOL     OW36829   4.092   1.107   2.572 -0.4347 -0.1617  0.2124
 8398SOL    HW136830   4.014   1.053   2.555  0.0906 -1.5002  2.0755
 8398SOL    HW236831   4.157   1.053   2.528  0.0445  1.0385 -0.5334
 8399SOL     OW36832   4.342   3.890   0.323  0.2681 -0.4796 -0.5232
 8399SOL    HW136833   4.323   3.827   0.392  1.5578 -1.2489 -0.8684
 8399SOL    HW236834   4.277   3.868   0.256  0.5603  1.2188 -1.3854
 8400SOL     OW36835   1.513   2.174   8.962  1.3176 -0.0363 -0.1224
 8400SOL    HW136836   1.443   2.220   8.916  0.8284 -0.5996  0.0526
 8400SOL    HW236837   1.464   2.098   8.992  2.4770 -0.6787  0.1470
 8401SOL     OW36838   0.172   0.665   8.502 -0.1199  0.2051 -0.2299
 8401SOL    HW136839   0.216   0.587   8.469 -1.7664 -1.9050  2.5923
 8401SOL    HW236840   0.218   0.738   8.459 -1.3408  1.3490  0.3949
 8402SOL     OW36841   4.470   4.595   2.818 -0.2695  0.0325  0.5572
 8402SOL    HW136842   4.483   4.502   2.832  0.5913  0.0116 -0.3547
 8402SOL    HW236843   4.398   4.606   2.879 -0.6192 -0.1972  0.1828
 8403SOL     OW36844   2.992   0.721   5.174 -0.0180  0.2951  0.1658
 8403SOL    HW136845   2.967   0.669   5.250 -0.4939  0.1236 -0.1048
 8403SOL    HW236846   3.024   0.662   5.106  0.0751 -0.1797  0.6262
 8404SOL     OW36847   0.403   0.781   6.310 -0.4887 -0.2495 -0.5286
 8404SOL    HW136848   0.399   0.876   6.304 -2.8095 -0.2950  0.2326
 8404SOL    HW236849   0.392   0.755   6.218 -1.0848 -0.8263 -0.2948
 8405SOL     OW36850   0.763   1.798   3.050 -0.2670  0.1702 -0.6991
 8405SOL    HW136851   0.701   1.725   3.041 -0.9362  0.6988 -0.3264
 8405SOL    HW236852   0.842   1.758   3.088 -0.6874 -0.5939 -0.6286
 8406SOL     OW36853   1.703   1.823   0.369  0.2772 -0.3012  0.4265
 8406SOL    HW136854   1.762   1.749   0.383 -0.5172 -0.6433  1.9861
 8406SOL    HW236855   1.676   1.806   0.279 -0.3647  0.5384  0.4625
 8407SOL     OW36856   1.483   0.475   6.560  0.0542 -0.1922 -0.5023
 8407SOL    HW136857   1.446   0.453   6.646  2.2807  0.5238  0.6614
 8407SOL    HW236858   1.571   0.439   6.573  0.2875  0.1264 -1.2591
 8408SOL     OW36859   2.921   0.120  14.792  0.0709  0.3684 -0.2249
 8408SOL    HW136860   2.997   0.136  14.848 -1.0805 -0.5778  1.5966
 8408SOL    HW236861   2.847   0.120  14.852  0.5300 -2.7398  0.3369
 8409SOL     OW36862   4.592   2.574   3.389 -0.1027 -0.0406  0.1758
 8409SOL    HW136863   4.681   2.592   3.417 -0.6803  1.2273  1.1863
 8409SOL    HW236864   4.620   2.534   3.307 -1.6843  0.7232 -0.7406
 8410SOL     OW36865   4.479   4.313   5.959  0.1746  0.6255 -0.3056
 8410SOL    HW136866   4.402   4.257   5.953  0.6495  0.2104 -2.4357
 8410SOL    HW236867   4.512   4.273   6.039  1.1575  1.0911 -0.4786
 8411SOL     OW36868   0.889   3.944   5.636  0.8343  0.0584 -0.2184
 8411SOL    HW136869   0.946   3.895   5.577 -0.2918 -0.1457 -1.1361
 8411SOL    HW236870   0.870   3.868   5.691  0.3383  0.7749  0.5994
 8412SOL     OW36871   0.257   1.843   1.841  0.6430  0.7521  0.5051
 8412SOL    HW136872   0.215   1.927   1.860 -1.1025 -0.1763  0.7723
 8412SOL    HW236873   0.296   1.859   1.755 -0.8224 -2.8981 -0.8289
 8413SOL     OW36874   4.648   2.210   5.543 -0.0301  0.1887  0.2016
 8413SOL    HW136875   4.725   2.160   5.514  0.6022  0.2504  1.7663
 8413SOL    HW236876   4.695   2.288   5.573  1.3220  0.1495 -1.7722
 8414SOL     OW36877   0.660   0.496   5.113  0.5126  0.6208  0.6926
 8414SOL    HW136878   0.633   0.567   5.171 -0.1957  0.7164  0.2444
 8414SOL    HW236879   0.671   0.421   5.171 -0.3444  0.0943  0.1801
 8415SOL     OW36880   0.697   1.754   8.845  0.0084 -0.1506  0.0323
 8415SOL    HW136881   0.609   1.725   8.822 -0.1618  0.8495 -0.5492
 8415SOL    HW236882   0.721   1.679   8.900 -1.1413  0.2684  1.1012
 8416SOL     OW36883   3.740   3.953   9.432 -0.1190  0.5194 -0.0559
 8416SOL    HW136884   3.737   4.045   9.458  2.1360 -0.3031  3.0654
 8416SOL    HW236885   3.648   3.926   9.425 -0.1497  0.8643 -1.0606
 8417SOL     OW36886   2.889   2.592  17.661  0.1830 -0.1212 -0.7422
 8417SOL    HW136887   2.980   2.618  17.644  0.1531  1.3707  1.4267
 8417SOL    HW236888   2.864   2.562  17.573  1.7777  0.1809 -1.2960
 8418SOL     OW36889   4.090   0.295   9.071 -0.0272 -0.5808 -0.8747
 8418SOL    HW136890   4.160   0.360   9.065  0.7797 -1.5768 -2.1560
 8418SOL    HW236891   4.021   0.345   9.114  1.1098 -1.9805  2.5925
 8419SOL     OW36892   4.216   2.805   9.518  0.5054 -0.6780 -0.1902
 8419SOL    HW136893   4.142   2.856   9.551  0.4446 -0.3000 -0.8991
 8419SOL    HW236894   4.275   2.836   9.586 -0.4177  1.4592 -0.3590
 8420SOL     OW36895   0.623   3.704  11.314 -0.4824 -0.2784 -0.3099
 8420SOL    HW136896   0.656   3.753  11.389  1.7054 -1.8826 -0.2002
 8420SOL    HW236897   0.646   3.617  11.346 -0.5590 -0.3922 -0.5631
 8421SOL     OW36898   3.332   1.281   6.212 -0.4712  0.1175  0.0273
 8421SOL    HW136899   3.397   1.255   6.147 -1.2823  0.7022 -1.0143
 8421SOL    HW236900   3.333   1.376   6.201  0.4232 -0.0769 -1.5593
 8422SOL     OW36901   2.742   0.912   2.216  0.3758  0.5033 -0.0172
 8422SOL    HW136902   2.679   0.969   2.171  0.6082 -0.1100 -1.1226
 8422SOL    HW236903   2.689   0.836   2.240  1.1649  0.1995  0.7481
 8423SOL     OW36904   1.929   3.752   2.734 -1.1780 -0.4598  0.5028
 8423SOL    HW136905   1.916   3.657   2.736 -0.1606 -0.6556 -2.6933
 8423SOL    HW236906   1.933   3.763   2.829  1.8159 -1.5056  0.5018
 8424SOL     OW36907   2.867   2.712   7.745 -0.0031  0.4253 -0.3249
 8424SOL    HW136908   2.941   2.687   7.690 -1.1283 -1.4421 -1.0022
 8424SOL    HW236909   2.892   2.792   7.790 -0.6630  1.2616 -1.4546
 8425SOL     OW36910   4.570   2.870  14.611 -0.4602 -0.0991 -0.3089
 8425SOL    HW136911   4.586   2.926  14.535  2.9021  0.2653  0.6646
 8425SOL    HW236912   4.488   2.829  14.582 -0.5279 -1.4297  1.7862
 8426SOL     OW36913   3.735   3.445   4.070 -0.4657  0.3785  0.0725
 8426SOL    HW136914   3.794   3.470   3.999 -0.8638 -2.9454 -1.4190
 8426SOL    HW236915   3.653   3.431   4.022 -0.7283  0.4220  0.5092
 8427SOL     OW36916   0.737   2.174   1.671  0.0277 -0.3231 -0.0057
 8427SOL    HW136917   0.742   2.269   1.678  2.4317 -0.4736  0.2945
 8427SOL    HW236918   0.664   2.158   1.731 -0.2374  2.1055  0.3310
 8428SOL     OW36919   3.359   3.227   7.620  0.4519 -0.0084 -0.1866
 8428SOL    HW136920   3.279   3.176   7.634  0.4819  0.4556  1.6614
 8428SOL    HW236921   3.401   3.175   7.552  1.1260 -1.4360  1.3119
 8429SOL     OW36922   0.566   3.109   5.811 -0.3214 -0.0848 -0.4819
 8429SOL    HW136923   0.651   3.107   5.855  0.5280  6.0676 -1.8711
 8429SOL    HW236924   0.600   3.087   5.724  0.6960 -3.4533  0.7598
 8430SOL     OW36925   1.833   1.109   5.891 -0.2457  0.1219  0.3531
 8430SOL    HW136926   1.766   1.089   5.956 -0.0786 -0.3718  0.3702
 8430SOL    HW236927   1.798   1.196   5.871  0.8321  1.3955  3.9458
 8431SOL     OW36928   1.374   1.871   3.717  0.3855 -0.2199  0.1551
 8431SOL    HW136929   1.401   1.926   3.790 -0.2714  0.6592 -0.2761
 8431SOL    HW236930   1.384   1.787   3.763 -2.1024 -0.0934  0.9166
 8432SOL     OW36931   2.703   3.267  12.974  0.1706  0.0856 -0.1175
 8432SOL    HW136932   2.644   3.332  13.010 -2.3520 -3.0050  1.3853
 8432SOL    HW236933   2.643   3.223  12.914  1.5785  1.4029 -2.4871
 8433SOL     OW36934   4.440   2.993  13.782 -0.2733 -0.3760 -0.2285
 8433SOL    HW136935   4.534   2.980  13.792 -0.1801  0.4735  0.0509
 8433SOL    HW236936   4.422   3.075  13.828  1.9045 -2.0150  3.5318
 8434SOL     OW36937   3.042   4.401   9.029 -0.2877  0.2275  0.3259
 8434SOL    HW136938   3.109   4.333   9.018 -0.5563 -0.1262  0.8427
 8434SOL    HW236939   2.997   4.371   9.108 -0.2010  0.2315  0.3774
 8435SOL     OW36940   2.878   0.698   4.315  0.4037 -0.1005  0.1066
 8435SOL    HW136941   2.783   0.696   4.307  0.3086 -0.3833  1.2937
 8435SOL    HW236942   2.893   0.604   4.315 -1.1634 -0.3404 -1.1250
 8436SOL     OW36943   3.842   1.575   4.905  0.0086  0.4434  0.5401
 8436SOL    HW136944   3.889   1.623   4.974 -0.6750 -1.7904  2.5580
 8436SOL    HW236945   3.856   1.639   4.835 -0.3856 -0.0817 -0.0246
 8437SOL     OW36946   0.765   3.508   6.332 -0.0715  0.2888  0.9517
 8437SOL    HW136947   0.717   3.578   6.289  0.0869  0.4556  1.0444
 8437SOL    HW236948   0.853   3.546   6.342  0.4372 -1.5175  3.2830
 8438SOL     OW36949   4.042   1.379   4.935  0.1798 -0.4236 -0.4644
 8438SOL    HW136950   3.976   1.448   4.948 -0.6880 -0.9179 -2.1531
 8438SOL    HW236951   4.034   1.360   4.841 -0.9023 -0.2344 -0.4147
 8439SOL     OW36952   3.272   4.028  12.311  0.3772  0.4220  0.3537
 8439SOL    HW136953   3.317   3.947  12.287 -3.6038 -1.1214 -2.0575
 8439SOL    HW236954   3.343   4.084  12.280  0.7824 -0.1914  0.1780
 8440SOL     OW36955   2.385   1.109   6.291  0.3101  0.0030  0.0819
 8440SOL    HW136956   2.453   1.078   6.231 -2.0873 -2.1660 -1.5139
 8440SOL    HW236957   2.327   1.032   6.292 -3.1648  2.6475  2.2352
 8441SOL     OW36958   1.792   0.631   7.641  0.1999 -0.8196  0.6391
 8441SOL    HW136959   1.724   0.570   7.671 -0.4204  0.0190  0.9458
 8441SOL    HW236960   1.866   0.571   7.650 -0.2324 -1.7585 -2.1224
 8442SOL     OW36961   4.201   0.666   9.804 -0.6649  1.0102 -0.0814
 8442SOL    HW136962   4.216   0.676   9.898 -3.2885  1.5358  0.3066
 8442SOL    HW236963   4.142   0.591   9.800  1.2967 -0.3649 -2.5688
 8443SOL     OW36964   2.505   3.406   5.986 -0.0588  0.6337  0.1364
 8443SOL    HW136965   2.570   3.337   5.996 -1.7962 -1.0288 -0.0203
 8443SOL    HW236966   2.495   3.404   5.891  1.2264 -5.9397  0.1461
 8444SOL     OW36967   0.541   2.446   2.071 -0.0956  0.3921  0.3061
 8444SOL    HW136968   0.539   2.350   2.065 -0.6809  0.4705 -0.7298
 8444SOL    HW236969   0.634   2.462   2.083  0.4648 -2.1617 -0.6450
 8445SOL     OW36970   1.077   2.646   6.422 -0.2491 -0.3466 -0.2693
 8445SOL    HW136971   1.004   2.688   6.467  1.6499  1.2588  1.2913
 8445SOL    HW236972   1.063   2.557   6.453  2.6129 -0.7808 -0.1977
 8446SOL     OW36973   4.543   3.966   0.128  0.6638  0.0178  0.2329
 8446SOL    HW136974   4.486   4.012   0.067  1.0126  1.0823  0.7149
 8446SOL    HW236975   4.495   3.957   0.210  1.4666 -0.4496  0.6591
 8447SOL     OW36976   0.526   0.339   7.894 -0.0325 -0.1083  0.2685
 8447SOL    HW136977   0.451   0.285   7.872  0.1043 -0.6867  1.2495
 8447SOL    HW236978   0.504   0.419   7.845 -0.3752  0.4396  1.3225
 8448SOL     OW36979   2.207   0.655   2.877  0.0679 -0.3561  0.0231
 8448SOL    HW136980   2.270   0.614   2.936 -0.5656  1.0743  1.7055
 8448SOL    HW236981   2.221   0.748   2.894 -2.8520 -0.2015  1.6185
 8449SOL     OW36982   2.426   1.813  14.475  0.0772 -0.1748  0.2250
 8449SOL    HW136983   2.467   1.727  14.468  0.3576 -0.0183 -0.1069
 8449SOL    HW236984   2.346   1.812  14.423  0.6401  3.2195 -0.7102
 8450SOL     OW36985   4.738   1.902   8.957 -0.0971  0.4235  0.1753
 8450SOL    HW136986   0.022   1.943   9.041  2.4320 -0.1733 -0.2791
 8450SOL    HW236987   4.720   1.817   8.996  1.4567 -0.4426 -1.0522
 8451SOL     OW36988   3.097   3.274   6.269 -0.2989 -0.1015 -0.0700
 8451SOL    HW136989   3.181   3.312   6.242 -2.2458  2.6885 -2.2323
 8451SOL    HW236990   3.087   3.216   6.194 -0.0097 -0.5269  0.2194
 8452SOL     OW36991   0.819   3.764   4.922  0.0122 -0.5344  0.4051
 8452SOL    HW136992   0.865   3.720   4.851 -0.0582 -0.3835  0.2655
 8452SOL    HW236993   0.830   3.852   4.887  0.4064 -0.8050 -0.1374
 8453SOL     OW36994   2.494   1.875   0.564 -0.1819  0.0027 -0.1078
 8453SOL    HW136995   2.577   1.834   0.588  0.3378  0.5931 -0.8880
 8453SOL    HW236996   2.442   1.840   0.636  1.5801 -0.6442  0.8659
 8454SOL     OW36997   2.617   2.455  11.888 -0.1650  0.4337 -0.8277
 8454SOL    HW136998   2.588   2.378  11.936  2.6773 -1.2388 -1.7350
 8454SOL    HW236999   2.546   2.516  11.907 -1.3105 -1.0476 -0.4557
 8455SOL     OW37000   3.740   3.693   9.935 -0.0580  0.2602 -0.1005
 8455SOL    HW137001   3.813   3.690   9.873  0.6918  0.0437  0.7938
 8455SOL    HW237002   3.677   3.628   9.905  0.7918 -0.6692  0.1278
 8456SOL     OW37003   3.806   1.259   4.558  0.2905  0.5827  0.2244
 8456SOL    HW137004   3.787   1.177   4.513  0.4266  0.3714  0.5518
 8456SOL    HW237005   3.884   1.230   4.606 -1.9595 -1.4873  2.6214
 8457SOL     OW37006   3.267   4.229   0.463  0.0378 -0.0889 -0.3157
 8457SOL    HW137007   3.272   4.135   0.482 -1.0357  0.0639  0.7111
 8457SOL    HW237008   3.175   4.243   0.440 -0.1957 -0.6764  0.2589
 8458SOL     OW37009   3.874   2.652  10.086 -0.5722  0.2312 -0.0099
 8458SOL    HW137010   3.964   2.682  10.075 -1.0783  2.2383  1.2131
 8458SOL    HW237011   3.846   2.669   9.997  0.2562  1.0025 -0.1251
 8459SOL     OW37012   4.244   0.858   7.954  0.4916 -0.0288 -0.1387
 8459SOL    HW137013   4.160   0.897   7.979 -0.7960 -1.2428 -2.5593
 8459SOL    HW237014   4.220   0.767   7.939  0.9770 -0.4325  1.5437
 8460SOL     OW37015   2.598   0.470   1.236  0.7119  0.0494 -0.5522
 8460SOL    HW137016   2.555   0.467   1.151 -0.5951  1.8791  0.0461
 8460SOL    HW237017   2.547   0.548   1.256  0.6210 -0.2078  0.2148
 8461SOL     OW37018   0.190   3.630   0.367 -0.4778  0.4563  0.1968
 8461SOL    HW137019   0.282   3.640   0.342 -0.0072  2.5479  2.6813
 8461SOL    HW237020   0.149   3.693   0.307  2.7658  0.6266 -1.8034
 8462SOL     OW37021   1.331   2.395   6.599 -0.0191 -0.4228 -0.1347
 8462SOL    HW137022   1.357   2.423   6.687 -0.9738  0.4771 -0.1398
 8462SOL    HW237023   1.422   2.406   6.569 -1.6785  0.0973 -5.0278
 8463SOL     OW37024   2.845   2.833   8.623 -0.2101 -0.4221  0.1946
 8463SOL    HW137025   2.777   2.900   8.613  1.1492  1.0646  0.8106
 8463SOL    HW237026   2.860   2.833   8.718 -0.9590 -4.1425  0.3026
 8464SOL     OW37027   1.679   0.925  17.135 -0.1998 -0.4888 -0.0775
 8464SOL    HW137028   1.769   0.901  17.113 -0.1259  0.2188 -0.5331
 8464SOL    HW237029   1.684   0.884  17.221 -0.6036  0.4464  0.3979
 8465SOL     OW37030   1.914   3.398   8.208 -0.4349 -0.3243  0.2684
 8465SOL    HW137031   1.853   3.387   8.281  0.0154  1.6266  0.9324
 8465SOL    HW237032   1.975   3.326   8.222  1.7034  1.6028  0.8182
 8466SOL     OW37033   2.442   2.760   7.419  0.1565 -0.1673 -0.3088
 8466SOL    HW137034   2.417   2.668   7.412 -0.9042  0.0414  0.7614
 8466SOL    HW237035   2.530   2.753   7.455  0.0760  0.6678  0.0405
 8467SOL     OW37036   2.190   3.871   9.066  0.1005 -0.0933 -0.1851
 8467SOL    HW137037   2.168   3.858   9.158 -0.0471  1.2003 -0.0354
 8467SOL    HW237038   2.272   3.921   9.072  0.5229 -0.6649 -1.2517
 8468SOL     OW37039   4.120   3.326  13.991 -0.5114  0.0050  0.0384
 8468SOL    HW137040   4.130   3.406  14.043  0.0337 -1.3107  1.9701
 8468SOL    HW237041   4.127   3.365  13.904  2.1266 -0.2938  0.1100
 8469SOL     OW37042   0.394   1.904   2.084 -0.2783  0.4637 -0.6890
 8469SOL    HW137043   0.321   1.896   2.145  1.3394 -0.9854  1.0839
 8469SOL    HW237044   0.366   1.878   1.996 -2.5778  1.9864 -0.3877
 8470SOL     OW37045   4.716   3.185   3.907  0.7351 -0.3659  0.4214
 8470SOL    HW137046   0.002   3.219   3.821 -0.5431  0.7436  0.4634
 8470SOL    HW237047   4.622   3.204   3.902  1.1714  1.3723 -1.2824
 8471SOL     OW37048   4.248   4.383   1.401 -0.4348 -0.0385 -0.2654
 8471SOL    HW137049   4.235   4.314   1.466 -1.4109  0.1823 -0.2292
 8471SOL    HW237050   4.314   4.439   1.443  0.5111 -0.1501 -1.5942
 8472SOL     OW37051   3.483   3.821  15.214  0.1724 -0.9412 -0.1761
 8472SOL    HW137052   3.440   3.813  15.129 -1.6770  0.0159  0.6500
 8472SOL    HW237053   3.414   3.777  15.265 -0.1800 -0.2302 -0.0318
 8473SOL     OW37054   0.402   4.676   4.658 -0.3140 -0.5016 -0.7382
 8473SOL    HW137055   0.407   4.740   4.587  1.5698  0.3702  0.1680
 8473SOL    HW237056   0.446   4.724   4.728 -0.7863 -3.1835  1.3941
 8474SOL     OW37057   2.811   1.086   2.502 -0.7700 -0.1435 -0.5193
 8474SOL    HW137058   2.725   1.069   2.540 -0.5506 -0.8836 -0.3564
 8474SOL    HW237059   2.834   0.996   2.478 -0.8275  0.1892 -1.8211
 8475SOL     OW37060   0.917   1.688  15.255 -0.2008 -0.0341 -0.2078
 8475SOL    HW137061   0.949   1.604  15.289  0.9138 -0.1715 -1.5822
 8475SOL    HW237062   0.997   1.731  15.225 -0.8357  1.2426 -0.0663
 8476SOL     OW37063   3.312   4.288   8.869 -0.6494  0.0956  0.4920
 8476SOL    HW137064   3.381   4.244   8.919  0.4227  1.2345  0.0199
 8476SOL    HW237065   3.287   4.221   8.806 -1.3406  2.2010 -1.4847
 8477SOL     OW37066   4.144   2.818   4.835  0.2523  0.7840 -0.1845
 8477SOL    HW137067   4.134   2.760   4.759  1.8200  0.0591  0.1653
 8477SOL    HW237068   4.200   2.776   4.900  2.5001  0.9872 -1.9638
 8478SOL     OW37069   0.844   1.394   3.535  0.2132 -0.2631  0.0895
 8478SOL    HW137070   0.797   1.477   3.530  0.8264  0.0612 -0.2250
 8478SOL    HW237071   0.878   1.400   3.624  1.0985  1.1732 -0.3444
 8479SOL     OW37072   1.412   0.885   6.954 -0.2958 -0.2201 -0.1419
 8479SOL    HW137073   1.437   0.940   7.029  0.7369 -0.4494 -0.3154
 8479SOL    HW237074   1.432   0.947   6.884 -1.2544  2.8267  2.2452
 8480SOL     OW37075   1.594   3.401   3.198 -0.2484 -0.3431 -0.5666
 8480SOL    HW137076   1.684   3.425   3.217 -0.7503  1.2396 -0.2629
 8480SOL    HW237077   1.550   3.478   3.232 -2.0056 -0.6561 -2.1041
 8481SOL     OW37078   4.292   4.544   6.252 -0.0065 -0.3163  0.2324
 8481SOL    HW137079   4.276   4.470   6.310 -0.1464  0.4537  1.1800
 8481SOL    HW237080   4.365   4.582   6.300  0.4586  0.8025 -1.3602
 8482SOL     OW37081   1.522   3.163   5.845 -0.0030 -0.3491  0.7008
 8482SOL    HW137082   1.514   3.115   5.762 -0.0361 -0.0104  0.5095
 8482SOL    HW237083   1.614   3.187   5.834 -0.8035  1.1895 -2.6615
 8483SOL     OW37084   3.490   1.022   3.448  0.2964 -0.3978 -0.1044
 8483SOL    HW137085   3.458   1.107   3.419 -0.0933 -0.1164  1.1277
 8483SOL    HW237086   3.556   0.999   3.383  1.0197 -0.5764  0.6828
 8484SOL     OW37087   1.158   0.788  10.177 -0.1611  0.1932  0.7214
 8484SOL    HW137088   1.078   0.764  10.130  0.3856 -2.1285  0.9882
 8484SOL    HW237089   1.201   0.820  10.097 -0.0609 -1.1210  0.2524
 8485SOL     OW37090   2.887   3.515   6.507  0.2558  0.2623  0.2440
 8485SOL    HW137091   2.829   3.586   6.533  1.3595  0.2757  2.6832
 8485SOL    HW237092   2.936   3.512   6.589  1.6980 -1.1546 -0.6785
 8486SOL     OW37093   1.032   2.201  10.946 -0.4477  0.2587 -0.5816
 8486SOL    HW137094   1.057   2.218  10.855 -0.7742  3.6577 -0.0366
 8486SOL    HW237095   0.956   2.143  10.948 -0.2767  0.0884  0.6318
 8487SOL     OW37096   0.885   2.958  13.591 -0.3769  0.1537 -0.5119
 8487SOL    HW137097   0.945   2.968  13.517 -2.1445  0.6183 -1.8820
 8487SOL    HW237098   0.895   2.865  13.611  3.8334  0.5850 -0.6227
 8488SOL     OW37099   2.733   0.857  14.465 -0.1239  0.4091  0.6912
 8488SOL    HW137100   2.700   0.818  14.384 -1.9043  0.2580  1.4921
 8488SOL    HW237101   2.771   0.778  14.501  0.1131 -0.0429 -0.5525
 8489SOL     OW37102   4.364   0.460   7.862  0.2306 -0.3231  0.4461
 8489SOL    HW137103   4.293   0.524   7.864  0.1770 -0.3776  0.2996
 8489SOL    HW237104   4.357   0.425   7.773  2.3347 -0.1202  0.1997
 8490SOL     OW37105   1.770   4.507   9.385 -0.4418 -0.7559 -0.1251
 8490SOL    HW137106   1.820   4.436   9.344  0.2251 -0.6577  0.4970
 8490SOL    HW237107   1.793   4.476   9.473  0.7067 -1.1964 -0.5791
 8491SOL     OW37108   2.482   0.794   7.945 -0.3480  0.4049  0.3689
 8491SOL    HW137109   2.387   0.789   7.935 -0.4823  2.1285  0.8517
 8491SOL    HW237110   2.495   0.874   7.895 -1.7741  0.2454 -0.2427
 8492SOL     OW37111   3.370   0.958   7.523  0.0592 -0.0902 -0.2628
 8492SOL    HW137112   3.363   0.968   7.428 -1.8707 -1.5737 -0.2809
 8492SOL    HW237113   3.297   1.014   7.548 -0.8034 -1.3859  0.1209
 8493SOL     OW37114   4.274   2.251   9.629  0.0608  0.4980 -0.4666
 8493SOL    HW137115   4.246   2.197   9.703 -0.5250 -0.1223 -1.1415
 8493SOL    HW237116   4.323   2.184   9.582 -0.7846  1.5597 -2.8489
 8494SOL     OW37117   3.141   1.571  16.922 -0.4795 -0.6874  0.2997
 8494SOL    HW137118   3.071   1.606  16.867  0.3292  0.2203 -0.1455
 8494SOL    HW237119   3.213   1.632  16.909 -1.1110 -0.7049 -3.5491
 8495SOL     OW37120   3.259   4.339   3.765 -0.4861  0.4550 -0.1337
 8495SOL    HW137121   3.175   4.306   3.731 -0.7874 -0.0218  1.0874
 8495SOL    HW237122   3.325   4.285   3.723 -2.0170 -0.9078 -0.7952
 8496SOL     OW37123   0.268   3.359   3.427 -0.6697  0.1196  0.5157
 8496SOL    HW137124   0.176   3.383   3.412  0.1043  1.9639 -1.2880
 8496SOL    HW237125   0.274   3.295   3.356  1.3099  0.9412 -0.0538
 8497SOL     OW37126   2.362   1.553  15.242 -0.0491  0.1172  0.2635
 8497SOL    HW137127   2.321   1.638  15.231 -0.8186 -0.2643  0.2370
 8497SOL    HW237128   2.415   1.566  15.321 -0.0260 -0.1178  0.2879
 8498SOL     OW37129   3.087   2.848   5.373  0.3619  0.4118  0.0400
 8498SOL    HW137130   3.066   2.866   5.282 -1.6781  0.1752  0.4729
 8498SOL    HW237131   3.045   2.922   5.417  0.9320  0.3337  0.7239
 8499SOL     OW37132   2.488   1.479   6.169  0.1521  0.5214  0.2592
 8499SOL    HW137133   2.411   1.465   6.115 -0.5936 -1.4117  1.7944
 8499SOL    HW237134   2.463   1.559   6.214  0.6465 -0.5651  2.4820
 8500SOL     OW37135   3.250   2.500  10.385  0.0492 -0.5647  0.2404
 8500SOL    HW137136   3.245   2.427  10.446  1.1198 -1.8628 -1.2359
 8500SOL    HW237137   3.261   2.453  10.302  0.0603  3.7649 -2.2208
 8501SOL     OW37138   1.330   3.358   6.810  0.1606  0.0267  0.3084
 8501SOL    HW137139   1.354   3.290   6.746  1.2837  3.2447 -2.6667
 8501SOL    HW237140   1.269   3.403   6.752 -0.3990 -0.1029  0.7987
 8502SOL     OW37141   2.095   2.439   8.717 -0.8168  0.2703  0.2269
 8502SOL    HW137142   2.014   2.389   8.723 -1.4450  1.2206 -0.2867
 8502SOL    HW237143   2.095   2.497   8.793  0.3883 -0.6532  0.9391
 8503SOL     OW37144   3.492   2.837   4.271  0.0770  0.6500 -0.3357
 8503SOL    HW137145   3.580   2.864   4.244  0.1759 -0.9683 -1.5912
 8503SOL    HW237146   3.511   2.776   4.342 -2.1681  1.6638  1.1429
 8504SOL     OW37147   2.463   2.945   0.442 -0.8168  0.0612  0.4229
 8504SOL    HW137148   2.545   2.912   0.404  0.1397  3.0916 -0.1994
 8504SOL    HW237149   2.413   2.865   0.458 -0.3479 -0.3670 -0.2258
 8505SOL     OW37150   3.467   3.882   2.482  0.3039 -0.3834  0.7317
 8505SOL    HW137151   3.465   3.809   2.419  0.3861 -0.0130  0.3044
 8505SOL    HW237152   3.553   3.862   2.518  1.0645  1.6089 -0.0026
 8506SOL     OW37153   2.032   3.710  13.441 -0.1442  0.2592  0.0369
 8506SOL    HW137154   1.948   3.666  13.454 -1.5173  2.3587 -1.6473
 8506SOL    HW237155   2.047   3.677  13.353 -3.7069 -1.9587  0.2579
 8507SOL     OW37156   2.467   0.646   6.923 -0.4640  0.6207 -0.0560
 8507SOL    HW137157   2.486   0.701   6.999 -1.1859 -0.2272  0.7391
 8507SOL    HW237158   2.533   0.666   6.856  0.8045  0.8967  1.2811
 8508SOL     OW37159   4.432   0.793   1.148 -0.0447  0.3312  0.1929
 8508SOL    HW137160   4.373   0.846   1.095  0.7992  1.5617  0.4868
 8508SOL    HW237161   4.369   0.725   1.172  1.0526 -1.2621 -1.4937
 8509SOL     OW37162   0.184   0.583   8.904 -0.0069  0.5851  0.2474
 8509SOL    HW137163   0.264   0.561   8.857 -0.0133 -2.2025  1.5138
 8509SOL    HW237164   0.151   0.655   8.851 -2.1194  1.3913  2.6132
 8510SOL     OW37165   0.411   1.100  12.471 -0.0874 -0.3581  0.4442
 8510SOL    HW137166   0.394   1.031  12.407  1.3043  0.7260 -1.0739
 8510SOL    HW237167   0.505   1.108  12.455 -0.3228 -0.3150 -0.9338
 8511SOL     OW37168   2.397   3.343  10.860  0.0376  0.5900 -0.0493
 8511SOL    HW137169   2.374   3.251  10.875 -0.5301  0.4192 -2.0322
 8511SOL    HW237170   2.422   3.374  10.947 -2.5635 -0.9354  1.2551
 8512SOL     OW37171   0.588   2.000  14.750 -0.0536 -0.6127 -0.0831
 8512SOL    HW137172   0.585   2.092  14.721 -0.3872 -0.2776  1.0145
 8512SOL    HW237173   0.632   2.014  14.834 -2.2265  1.4145  0.7284
 8513SOL     OW37174   4.171   2.247  15.996 -0.0973 -0.3058 -0.2884
 8513SOL    HW137175   4.083   2.210  15.995 -0.2391 -0.0147  1.1824
 8513SOL    HW237176   4.159   2.337  15.965  0.5098 -0.1644 -0.1199
 8514SOL     OW37177   0.070   2.698   2.994 -0.2166 -0.6171 -0.4995
 8514SOL    HW137178   0.112   2.718   3.078 -2.6108 -0.7019  0.7188
 8514SOL    HW237179   0.143   2.647   2.960  3.5840  2.9963  2.0932
 8515SOL     OW37180   2.180   4.652   1.297  0.3603  1.5547 -0.0588
 8515SOL    HW137181   2.231   4.655   1.379 -0.7160 -0.4743  0.6878
 8515SOL    HW237182   2.246   4.611   1.240  0.3554 -1.0529  1.8286
 8516SOL     OW37183   1.971   2.104  15.106 -0.0979  0.7230  0.3059
 8516SOL    HW137184   1.879   2.106  15.078  0.7306  1.0987 -2.2871
 8516SOL    HW237185   2.006   2.064  15.027  0.9514  0.6775  0.7918
 8517SOL     OW37186   2.564   3.006   8.823  0.9033 -0.6256  0.1792
 8517SOL    HW137187   2.626   3.051   8.880 -0.1252  0.7581  0.2128
 8517SOL    HW237188   2.588   3.047   8.740 -0.4741 -2.5431 -1.1771
 8518SOL     OW37189   1.792   3.609  13.413 -0.3577 -0.3942  0.1953
 8518SOL    HW137190   1.774   3.527  13.367  0.2591  0.5277 -1.6870
 8518SOL    HW237191   1.721   3.592  13.476  0.0182  0.4614  0.8506
 8519SOL     OW37192   3.715   3.314   3.493 -0.0009  0.1702 -0.2761
 8519SOL    HW137193   3.685   3.363   3.570  1.5789  1.5513 -0.5251
 8519SOL    HW237194   3.810   3.317   3.504  0.1499  1.3504 -1.8591
 8520SOL     OW37195   2.403   0.750   6.511  0.2860  0.0640  0.7367
 8520SOL    HW137196   2.447   0.702   6.581  0.4668 -0.7757  0.0351
 8520SOL    HW237197   2.394   0.835   6.554 -2.3594  0.3498 -0.3977
 8521SOL     OW37198   2.506   3.141  12.103 -0.0983  0.3897  0.6481
 8521SOL    HW137199   2.543   3.135  12.015  1.6481 -0.9137  1.4633
 8521SOL    HW237200   2.419   3.103  12.092 -0.6591  1.9844 -0.4485
 8522SOL     OW37201   1.688   0.886   6.718  0.2954 -0.4497  0.4174
 8522SOL    HW137202   1.741   0.952   6.763  0.9230 -0.4191 -0.3538
 8522SOL    HW237203   1.731   0.879   6.633 -1.9982  1.3966 -0.8733
 8523SOL     OW37204   0.610   2.980   3.066  0.1065 -0.2783 -0.1457
 8523SOL    HW137205   0.560   3.013   2.992  1.1292 -0.3008 -0.8505
 8523SOL    HW237206   0.702   2.992   3.041  1.1252 -0.7707  3.3592
 8524SOL     OW37207   2.456   1.738   1.589 -0.1918  0.3063  0.0918
 8524SOL    HW137208   2.516   1.664   1.594  0.2558  0.6812  0.2871
 8524SOL    HW237209   2.376   1.702   1.550  1.5222 -4.2633  0.7842
 8525SOL     OW37210   3.927   4.456   7.758  0.1862  0.4879 -0.5337
 8525SOL    HW137211   3.916   4.361   7.762 -1.6373  0.7312  0.2078
 8525SOL    HW237212   3.937   4.472   7.852  1.4791 -0.2869 -0.5365
 8526SOL     OW37213   2.751   2.636   9.278  0.0178  0.4376  0.0439
 8526SOL    HW137214   2.833   2.679   9.302  0.1039 -0.2509  0.9739
 8526SOL    HW237215   2.789   2.575   9.215 -1.6160 -0.9902  0.4464
 8527SOL     OW37216   0.357   3.312   6.250 -0.6112  0.3630 -0.1271
 8527SOL    HW137217   0.367   3.233   6.303 -1.2379  2.0471  2.5078
 8527SOL    HW237218   0.268   3.300   6.215 -0.8974 -0.5948  0.9369
 8528SOL     OW37219   0.475   1.026   4.710 -0.5744 -0.6082  0.6930
 8528SOL    HW137220   0.414   0.953   4.718 -0.1594 -0.8001  2.0870
 8528SOL    HW237221   0.436   1.092   4.766  1.6345  0.6649  0.7402
 8529SOL     OW37222   1.850   4.254   5.485  0.1955 -0.7228 -0.0924
 8529SOL    HW137223   1.945   4.243   5.486  0.1637 -0.9876  0.0799
 8529SOL    HW237224   1.817   4.167   5.462 -3.0813  0.2185  0.9963
 8530SOL     OW37225   3.344   1.714   2.758  0.2009  0.4426  0.2571
 8530SOL    HW137226   3.300   1.739   2.677 -1.1986 -2.1441  0.2199
 8530SOL    HW237227   3.284   1.758   2.818 -1.2905 -1.0690 -0.1356
 8531SOL     OW37228   1.044   1.439   7.458  0.7291 -0.4880  0.0262
 8531SOL    HW137229   0.957   1.438   7.499 -0.3838  3.0082 -2.2408
 8531SOL    HW237230   1.054   1.347   7.435  0.2761 -0.4394 -0.3725
 8532SOL     OW37231   1.959   3.749  10.264 -0.5515 -0.8609  0.1084
 8532SOL    HW137232   1.952   3.735  10.169  1.8125  0.3731 -0.2516
 8532SOL    HW237233   2.022   3.821  10.259 -3.5866  1.8335  0.8045
 8533SOL     OW37234   3.859   2.418   6.911  0.0375  0.0749 -0.0809
 8533SOL    HW137235   3.921   2.491   6.903 -2.6626  2.4178  0.7588
 8533SOL    HW237236   3.778   2.468   6.918 -1.6605 -2.6088 -0.6960
 8534SOL     OW37237   3.874   1.221  12.279 -0.0042  0.1668 -0.1850
 8534SOL    HW137238   3.825   1.150  12.237 -1.3090  0.4913  0.8187
 8534SOL    HW237239   3.926   1.172  12.344 -1.9071  0.2809  1.4118
 8535SOL     OW37240   2.954   4.227   8.343 -0.2434  0.0392 -0.3650
 8535SOL    HW137241   2.972   4.140   8.378  0.3620  0.4211  0.2996
 8535SOL    HW237242   2.887   4.253   8.407  0.9742 -2.3703  1.8808
 8536SOL     OW37243   3.910   4.065   3.179 -0.3290 -0.2121  0.3833
 8536SOL    HW137244   3.897   4.037   3.270 -0.8641  0.3056  0.4634
 8536SOL    HW237245   3.886   4.158   3.181  1.5196  0.3116 -1.1886
 8537SOL     OW37246   1.635   3.812  10.090  0.6032  0.8263 -0.5229
 8537SOL    HW137247   1.690   3.844  10.018  0.6461  1.3151 -0.2749
 8537SOL    HW237248   1.547   3.837  10.065  0.2415  0.3108  0.2379
 8538SOL     OW37249   3.897   1.260   8.859 -0.3246  0.5527  0.2874
 8538SOL    HW137250   3.838   1.325   8.821  0.5866  2.2332  1.7500
 8538SOL    HW237251   3.970   1.265   8.797  0.6111 -1.2149  1.2240
 8539SOL     OW37252   0.609   1.990   6.671 -0.3448 -0.1658 -0.2055
 8539SOL    HW137253   0.570   1.993   6.584 -1.1724 -2.2323  0.1067
 8539SOL    HW237254   0.702   1.985   6.648 -0.7696 -1.3124 -1.6413
 8540SOL     OW37255   4.056   3.229   6.095 -1.0392 -0.8047  0.2459
 8540SOL    HW137256   3.997   3.304   6.088  3.4832  2.4094 -3.0099
 8540SOL    HW237257   4.140   3.274   6.087 -0.7317 -1.2318  1.1062
 8541SOL     OW37258   3.365   3.431   9.260  0.0680 -0.3604 -0.0011
 8541SOL    HW137259   3.445   3.465   9.218  1.0190  0.4960  2.4971
 8541SOL    HW237260   3.361   3.336   9.252  0.3445 -0.2791 -1.2574
 8542SOL     OW37261   1.149   1.887  10.864 -0.2080  0.3471 -0.2568
 8542SOL    HW137262   1.129   1.929  10.948  1.6392 -0.3549  0.5364
 8542SOL    HW237263   1.202   1.955  10.825 -0.2183  0.4642 -0.0657
 8543SOL     OW37264   0.025   3.280  17.419  0.0742  0.2052 -0.8798
 8543SOL    HW137265   0.091   3.326  17.470  0.2854  0.8133 -1.6930
 8543SOL    HW237266   0.061   3.274  17.330  1.6854  0.1148 -0.2224
 8544SOL     OW37267   2.946   1.520   7.843 -0.4917  0.3319  0.5221
 8544SOL    HW137268   2.972   1.572   7.767 -0.7578 -0.6128 -0.2223
 8544SOL    HW237269   2.999   1.440   7.835 -0.7846  0.3146 -1.1178
 8545SOL     OW37270   2.648   0.707  14.250  0.2192  0.7184  0.1588
 8545SOL    HW137271   2.590   0.649  14.298 -0.4981  1.3251  0.0314
 8545SOL    HW237272   2.671   0.648  14.177 -5.0345  1.5959 -2.2345
 8546SOL     OW37273   1.713   1.533   2.039 -0.0663  0.1100 -0.0346
 8546SOL    HW137274   1.671   1.531   2.125 -1.1507  1.4940 -0.5343
 8546SOL    HW237275   1.765   1.614   2.043 -0.5395  0.2408  3.7631
 8547SOL     OW37276   4.692   4.382  12.945  0.2888  0.2175 -0.7777
 8547SOL    HW137277   4.603   4.406  12.971  0.0605 -0.3599 -1.0363
 8547SOL    HW237278   0.003   4.395  13.025  0.3038  1.3295 -0.9681
 8548SOL     OW37279   2.821   4.626   2.380 -0.3784  0.7514 -0.0537
 8548SOL    HW137280   2.786   4.651   2.294 -1.2996 -0.4910 -0.0319
 8548SOL    HW237281   2.760   4.557   2.405 -0.6507  0.9287 -0.2378
 8549SOL     OW37282   1.700   2.182   6.044 -0.1346  0.0312  0.5003
 8549SOL    HW137283   1.779   2.131   6.061  0.4887  0.5542 -0.8875
 8549SOL    HW237284   1.733   2.270   6.026  0.1204 -0.5560 -1.8509
 8550SOL     OW37285   2.179   1.791   2.893 -0.5993 -0.4959 -0.0277
 8550SOL    HW137286   2.241   1.770   2.963  0.9167  0.6553 -1.0337
 8550SOL    HW237287   2.228   1.833   2.823 -0.0383 -0.3116  0.4790
 8551SOL     OW37288   0.431   0.928   5.720  0.3551 -0.3423  0.6143
 8551SOL    HW137289   0.483   0.877   5.658 -1.2494 -2.0953  0.7308
 8551SOL    HW237290   0.486   1.007   5.725  1.0986 -0.8226  0.0171
 8552SOL     OW37291   2.508   4.475   9.979 -0.7876  0.1181  0.0964
 8552SOL    HW137292   2.477   4.566   9.973  1.9309  1.0749  0.2553
 8552SOL    HW237293   2.589   4.479   9.929 -0.4214 -3.1957  0.4230
 8553SOL     OW37294   3.257   2.188   4.461  0.5804 -0.4349 -0.4860
 8553SOL    HW137295   3.275   2.095   4.478 -0.7648 -0.6174 -0.0233
 8553SOL    HW237296   3.184   2.199   4.522 -0.0700 -1.8222 -1.0094
 8554SOL     OW37297   2.197   2.523   7.610  0.0829 -0.0616  0.1092
 8554SOL    HW137298   2.276   2.536   7.662 -0.4130  1.0216  0.5726
 8554SOL    HW237299   2.158   2.454   7.664 -0.3016  1.1014  1.2938
 8555SOL     OW37300   4.537   4.082  16.955  0.1188  0.2386 -0.5322
 8555SOL    HW137301   4.451   4.050  16.927 -0.8940  1.3685  1.2628
 8555SOL    HW237302   4.534   4.037  17.040 -1.4733  0.4513 -0.4688
 8556SOL     OW37303   0.042   0.344  15.993 -0.0340  0.1146  0.2086
 8556SOL    HW137304   4.736   0.354  15.909 -0.5562 -0.0040  0.4838
 8556SOL    HW237305   0.133   0.323  15.972 -0.1845 -0.6923  0.3507
 8557SOL     OW37306   3.822   0.097   4.248  0.0153  0.4068 -0.1692
 8557SOL    HW137307   3.911   0.131   4.236 -0.4130  0.8512 -2.0450
 8557SOL    HW237308   3.805   0.050   4.166  0.4969 -0.3104  0.1325
 8558SOL     OW37309   2.494   2.433   4.174 -0.6761 -0.1235 -0.7095
 8558SOL    HW137310   2.533   2.387   4.248 -0.0014 -0.4477 -1.2734
 8558SOL    HW237311   2.423   2.474   4.223  0.8131  1.7250 -0.0963
 8559SOL     OW37312   2.864   2.976  14.857  0.2346  0.4286 -0.3849
 8559SOL    HW137313   2.821   2.933  14.783  2.3882  0.2210 -1.5333
 8559SOL    HW237314   2.957   2.982  14.836 -0.1239 -1.9136 -2.7090
 8560SOL     OW37315   0.604   0.393  14.071  0.4378 -0.3157  0.0233
 8560SOL    HW137316   0.687   0.438  14.090  0.7517 -1.4618  1.3919
 8560SOL    HW237317   0.627   0.301  14.056 -1.4702 -0.9928  1.2199
 8561SOL     OW37318   1.068   0.027   3.973 -0.6984  0.2210  0.0821
 8561SOL    HW137319   1.124   0.102   3.991 -0.3102  0.1104 -0.6447
 8561SOL    HW237320   0.996   0.075   3.932 -0.2023 -0.2527 -1.3449
 8562SOL     OW37321   2.190   3.233   5.331 -0.1802 -0.0465  0.0379
 8562SOL    HW137322   2.247   3.157   5.346  1.8734  1.4020 -0.4888
 8562SOL    HW237323   2.255   3.288   5.375  2.0511 -1.3935 -1.5673
 8563SOL     OW37324   2.728   0.664   4.893 -0.1915  0.2476  0.0064
 8563SOL    HW137325   2.642   0.678   4.855 -0.3051 -1.2617 -0.2728
 8563SOL    HW237326   2.766   0.603   4.831 -1.7161  0.1725 -0.8487
 8564SOL     OW37327   2.735   2.419  14.456 -0.1467 -0.2302 -0.7731
 8564SOL    HW137328   2.769   2.476  14.386 -0.5925 -1.7173 -2.1970
 8564SOL    HW237329   2.703   2.348  14.401  1.9403 -0.0622 -2.2268
 8565SOL     OW37330   4.580   4.522  15.018  0.4453  0.3724 -0.5446
 8565SOL    HW137331   4.548   4.607  14.987 -0.5261  0.8778  1.8503
 8565SOL    HW237332   4.531   4.464  14.960 -2.4719 -0.0654  2.3487
 8566SOL     OW37333   2.977   2.817   3.973 -0.0253  0.0939  0.0545
 8566SOL    HW137334   2.949   2.777   3.890  3.8170 -0.6216 -0.8614
 8566SOL    HW237335   2.898   2.815   4.027  1.3876  0.6728  2.1269
 8567SOL     OW37336   1.536   2.819   8.245  0.4648  0.6006 -0.0300
 8567SOL    HW137337   1.572   2.749   8.191  1.6598  2.9865 -2.3118
 8567SOL    HW237338   1.541   2.779   8.332 -0.8549  1.1176  0.2805
 8568SOL     OW37339   2.866   0.004   3.763 -0.1941  0.0793 -0.1229
 8568SOL    HW137340   2.883   0.033   3.852 -0.7911  0.6391 -0.1932
 8568SOL    HW237341   2.894   0.083   3.716 -0.4511 -0.6518 -1.5273
 8569SOL     OW37342   0.159   2.921  12.191  0.0152  0.3455 -0.4796
 8569SOL    HW137343   0.093   2.969  12.241 -0.9288 -0.4010 -1.0098
 8569SOL    HW237344   0.160   2.959  12.103  0.7821 -1.1757 -1.1324
 8570SOL     OW37345   3.388   3.182   9.688  1.2663  0.2834 -0.1304
 8570SOL    HW137346   3.345   3.251   9.637  1.7623  1.8841  1.6312
 8570SOL    HW237347   3.469   3.159   9.642  0.8385 -1.7146  0.1409
 8571SOL     OW37348   0.061   1.324   0.869  0.2308  0.1333 -0.2841
 8571SOL    HW137349   0.113   1.285   0.799 -0.3187 -0.7475 -0.2083
 8571SOL    HW237350   0.082   1.417   0.862 -0.2756  0.3305  0.7460
 8572SOL     OW37351   1.720   0.352   6.603  0.4163 -0.8064 -0.3717
 8572SOL    HW137352   1.696   0.275   6.655 -1.2915  0.4650  0.7251
 8572SOL    HW237353   1.774   0.325   6.528  0.6934 -1.8380  0.2025
 8573SOL     OW37354   0.522   3.159   7.458  0.2030  0.3847 -0.2365
 8573SOL    HW137355   0.551   3.125   7.542 -0.0093 -1.7424 -1.0206
 8573SOL    HW237356   0.550   3.250   7.468  1.8408 -0.1391 -0.0887
 8574SOL     OW37357   1.313   2.831  14.683 -0.2616  0.0393 -0.0295
 8574SOL    HW137358   1.377   2.843  14.753 -0.1098 -2.3074  0.2410
 8574SOL    HW237359   1.244   2.876  14.732  1.0544  1.5083  0.4855
 8575SOL     OW37360   1.153   3.746   6.171 -0.0190  0.0978 -0.3210
 8575SOL    HW137361   1.178   3.813   6.106  1.1880  0.4492  0.5086
 8575SOL    HW237362   1.237   3.735   6.216 -1.4576 -1.2721  2.0245
 8576SOL     OW37363   4.074   0.096   0.816  0.4973  0.3801 -0.4507
 8576SOL    HW137364   4.161   0.086   0.776 -0.1464 -0.1600 -1.7141
 8576SOL    HW237365   4.089   0.159   0.886 -1.3324  1.3567 -0.9667
 8577SOL     OW37366   3.454   3.670   1.590  0.3611 -0.0693 -0.2842
 8577SOL    HW137367   3.487   3.678   1.679 -0.3234 -0.4615 -0.0001
 8577SOL    HW237368   3.395   3.595   1.601  0.8102 -0.4984 -0.7853
 8578SOL     OW37369   4.482   0.548   6.911  0.6434  0.5114 -0.1816
 8578SOL    HW137370   4.432   0.512   6.838 -0.3888 -0.7830  1.1596
 8578SOL    HW237371   4.553   0.485   6.925 -0.3351 -0.4792  0.3275
 8579SOL     OW37372   0.528   2.856   8.683 -0.3538 -0.2837  0.3841
 8579SOL    HW137373   0.461   2.817   8.627  1.4157 -2.5305 -0.1537
 8579SOL    HW237374   0.598   2.887   8.626 -0.7131  1.1480  0.7187
 8580SOL     OW37375   1.155   3.969   7.918 -0.3618  0.2028  0.0371
 8580SOL    HW137376   1.174   4.023   7.995 -0.4795  1.9443 -1.1563
 8580SOL    HW237377   1.214   3.894   7.931 -0.7032 -0.1919 -0.7149
 8581SOL     OW37378   0.820   1.648  16.144 -0.6422  0.1939 -0.5393
 8581SOL    HW137379   0.805   1.688  16.058  0.3238  0.1455 -0.7292
 8581SOL    HW237380   0.791   1.559  16.125  2.6550 -1.1700  0.9614
 8582SOL     OW37381   3.907   2.133   7.442  0.8005  0.4025 -0.6388
 8582SOL    HW137382   3.905   2.105   7.350 -0.7746 -1.2255 -0.1294
 8582SOL    HW237383   3.847   2.070   7.482  2.1919 -0.2925  0.3383
 8583SOL     OW37384   3.601   0.620  14.746 -0.5153 -0.3827 -0.2595
 8583SOL    HW137385   3.678   0.624  14.689 -1.2145 -3.3657 -1.4162
 8583SOL    HW237386   3.537   0.664  14.691 -0.2269  0.0049 -0.2834
 8584SOL     OW37387   2.883   4.727   8.313 -0.3991 -0.0862  0.2933
 8584SOL    HW137388   2.916   4.670   8.383 -1.4416  1.5804  2.1397
 8584SOL    HW237389   2.817   0.039   8.360 -1.2683 -0.9286 -0.0023
 8585SOL     OW37390   1.976   2.077  14.646  0.4725 -0.6207 -0.1580
 8585SOL    HW137391   1.968   2.010  14.579  1.5143 -1.3726  0.4900
 8585SOL    HW237392   2.048   2.038  14.695  1.9009  0.2163 -1.5918
 8586SOL     OW37393   3.320   1.665   3.291  0.4636  0.0787 -0.6162
 8586SOL    HW137394   3.300   1.601   3.223 -3.1371 -1.7342  2.1218
 8586SOL    HW237395   3.243   1.660   3.347  2.0107 -1.3921  1.3718
 8587SOL     OW37396   2.921   4.478   9.753 -0.2543 -0.5960  0.5158
 8587SOL    HW137397   2.829   4.503   9.752 -0.1052  0.0186  2.5762
 8587SOL    HW237398   2.942   4.481   9.660 -2.0445 -4.2632 -0.0107
 8588SOL     OW37399   2.262   3.372   6.602 -0.3748 -0.2574 -0.0518
 8588SOL    HW137400   2.235   3.429   6.674  0.4046  0.8149 -0.6052
 8588SOL    HW237401   2.202   3.397   6.532 -1.5299 -3.1615 -0.0769
 8589SOL     OW37402   2.288   3.243   8.577 -0.4377  0.5041 -0.0164
 8589SOL    HW137403   2.302   3.239   8.483  2.7442 -2.0153  0.5577
 8589SOL    HW237404   2.194   3.227   8.590 -0.2946 -0.9989 -0.8406
 8590SOL     OW37405   1.166   3.477   6.608 -0.0068 -0.4046  0.5163
 8590SOL    HW137406   1.105   3.540   6.570  2.0394 -0.1254 -2.2824
 8590SOL    HW237407   1.196   3.440   6.525  0.8733 -1.0487  1.1215
 8591SOL     OW37408   3.302   3.128   5.394  0.3539 -0.0746  0.4117
 8591SOL    HW137409   3.357   3.051   5.379 -0.7965 -0.6220 -0.9716
 8591SOL    HW237410   3.284   3.146   5.302 -0.4573 -0.7554  0.4381
 8592SOL     OW37411   2.086   0.034  14.521 -0.3109 -0.3928  0.7607
 8592SOL    HW137412   2.163   0.063  14.571  0.7796  0.0697 -1.2216
 8592SOL    HW237413   2.096   0.091  14.445  1.9004 -2.8656 -0.8245
 8593SOL     OW37414   3.808   0.693   7.010  0.2489  0.6430  0.0106
 8593SOL    HW137415   3.868   0.711   6.937  1.6523  2.6238  1.6655
 8593SOL    HW237416   3.722   0.686   6.969  0.1258  1.7551  0.0571
 8594SOL     OW37417   3.338   2.958   4.074  0.5588  0.0135  0.1431
 8594SOL    HW137418   3.383   3.042   4.082  0.9975 -0.1434 -0.6806
 8594SOL    HW237419   3.373   2.904   4.145  3.9023  1.2866 -0.5204
 8595SOL     OW37420   4.455   1.278   0.561 -0.0122 -0.2954 -0.1873
 8595SOL    HW137421   4.459   1.372   0.582  0.1942 -0.4335  0.4082
 8595SOL    HW237422   4.387   1.245   0.620 -1.4915  2.8112 -0.1291
 8596SOL     OW37423   3.038   4.165   1.000 -0.1132 -0.4725  0.0348
 8596SOL    HW137424   3.115   4.142   0.948 -1.3331 -1.5279 -1.2915
 8596SOL    HW237425   3.042   4.094   1.064  1.8171  0.0166  0.4652
 8597SOL     OW37426   2.905   2.474   4.345 -0.1690  0.2628 -0.3926
 8597SOL    HW137427   2.969   2.456   4.276  1.3075  0.2677  0.9767
 8597SOL    HW237428   2.893   2.388   4.386  0.3545  0.7173  0.6996
 8598SOL     OW37429   4.629   4.340  11.925  0.2184  0.4975  0.0155
 8598SOL    HW137430   4.582   4.421  11.942  1.6117  1.7994 -2.3940
 8598SOL    HW237431   4.662   4.356  11.837  0.1290  2.1856  0.2863
 8599SOL     OW37432   0.666   3.595  14.444 -0.3509  0.7923 -0.5879
 8599SOL    HW137433   0.586   3.642  14.420 -0.9560 -0.6090 -1.3416
 8599SOL    HW237434   0.722   3.670  14.467  0.6277  0.1155 -0.7550
 8600SOL     OW37435   2.688   4.075   5.160 -0.3479 -0.3758 -0.0818
 8600SOL    HW137436   2.608   4.045   5.117 -0.1835  1.0675 -1.3677
 8600SOL    HW237437   2.671   4.165   5.187  0.4618 -0.7814  1.8487
 8601SOL     OW37438   0.863   3.807  17.471 -0.3105 -0.2516  0.3601
 8601SOL    HW137439   0.876   3.735  17.533  0.5648  0.1734  0.6778
 8601SOL    HW237440   0.855   3.752  17.393  0.5231  0.6058 -0.3277
 8602SOL     OW37441   2.308   0.516   8.141 -0.2000 -0.3938 -0.2080
 8602SOL    HW137442   2.337   0.501   8.231 -0.4249 -0.3929 -0.1370
 8602SOL    HW237443   2.385   0.486   8.092  0.9619  2.8979 -0.3559
 8603SOL     OW37444   4.190   0.504   4.387 -0.4075 -0.8869 -0.3893
 8603SOL    HW137445   4.268   0.489   4.333 -0.0730  0.7999 -0.3717
 8603SOL    HW237446   4.121   0.506   4.321 -0.5173 -0.2876 -0.2544
 8604SOL     OW37447   1.500   2.160   5.565 -0.7711  0.4679 -0.4074
 8604SOL    HW137448   1.536   2.150   5.477  0.7309  2.2576  0.0019
 8604SOL    HW237449   1.496   2.255   5.573 -0.2974  0.2253  2.8698
 8605SOL     OW37450   2.704   3.880   7.451  0.0088  0.5052 -0.7512
 8605SOL    HW137451   2.793   3.914   7.449  0.5670 -0.8767  0.0225
 8605SOL    HW237452   2.684   3.876   7.357  0.6897  0.5196 -0.8981
 8606SOL     OW37453   1.226   0.891  13.708  0.3998  0.3530  0.5385
 8606SOL    HW137454   1.309   0.859  13.743  0.9246 -1.7688 -2.5646
 8606SOL    HW237455   1.172   0.855  13.778  1.4069 -1.8511  0.1752
 8607SOL     OW37456   1.252   4.239   4.322 -0.3555 -0.0707 -0.4147
 8607SOL    HW137457   1.301   4.158   4.306 -0.8909 -0.8078  1.6320
 8607SOL    HW237458   1.326   4.293   4.349  0.1468  0.1777 -2.3407
 8608SOL     OW37459   3.931   4.414   4.011 -0.7047 -0.3192  0.0199
 8608SOL    HW137460   3.900   4.488   3.959 -0.3980 -0.5813 -0.5391
 8608SOL    HW237461   3.913   4.437   4.102 -0.0630 -1.9627  0.5651
 8609SOL     OW37462   1.557   0.320   9.525 -1.2839 -0.0673 -0.0671
 8609SOL    HW137463   1.567   0.378   9.450  0.5204 -1.4379 -0.9085
 8609SOL    HW237464   1.634   0.265   9.506 -0.1573  1.3387  0.3980
 8610SOL     OW37465   0.436   1.499   4.463  0.2494 -0.1072 -0.1829
 8610SOL    HW137466   0.384   1.531   4.537 -1.3195 -0.7499 -0.9945
 8610SOL    HW237467   0.480   1.582   4.445  0.2724 -0.1969 -0.5403
 8611SOL     OW37468   2.025   4.328   6.247  0.4572  0.2502 -0.5976
 8611SOL    HW137469   2.085   4.396   6.216  0.1878  0.7453 -0.0358
 8611SOL    HW237470   1.943   4.376   6.234 -0.7757 -1.3723  1.2296
 8612SOL     OW37471   2.559   2.502   4.842 -0.2149 -0.2864  0.3701
 8612SOL    HW137472   2.530   2.427   4.789  1.9297 -0.1808 -0.9617
 8612SOL    HW237473   2.640   2.515   4.794 -0.3637 -1.7471 -0.2885
 8613SOL     OW37474   2.532   1.056   7.304 -0.0066 -0.3981 -0.1660
 8613SOL    HW137475   2.527   0.982   7.244  2.8039 -0.2078 -0.6281
 8613SOL    HW237476   2.580   1.119   7.250  0.0949 -1.9430 -1.8361
 8614SOL     OW37477   0.827   0.207   8.871  1.0809  0.1224 -0.0289
 8614SOL    HW137478   0.803   0.154   8.948 -0.5242 -0.7647 -1.1489
 8614SOL    HW237479   0.894   0.261   8.913  1.2720  0.2907 -0.5609
 8615SOL     OW37480   2.948   0.135   6.981  0.3512  0.0633  0.2065
 8615SOL    HW137481   2.886   0.067   7.007  2.7999 -1.5215  1.8778
 8615SOL    HW237482   3.022   0.123   7.040  0.7317 -0.6959 -0.4129
 8616SOL     OW37483   3.034   2.253  10.903 -0.3737 -0.4895 -0.4460
 8616SOL    HW137484   3.129   2.253  10.892 -0.3613  0.5123 -0.3442
 8616SOL    HW237485   3.016   2.323  10.966  0.9279  1.1318 -1.8696
 8617SOL     OW37486   1.918   2.326  13.558  0.7622  0.3347 -0.5185
 8617SOL    HW137487   1.871   2.387  13.615 -1.0218 -1.1315 -0.3750
 8617SOL    HW237488   1.988   2.382  13.525  0.3694  1.7860  1.1094
 8618SOL     OW37489   3.010   3.040   8.067  0.0577  0.2661 -0.4790
 8618SOL    HW137490   3.037   3.004   8.152 -1.3150  1.8806  0.6389
 8618SOL    HW237491   2.915   3.049   8.081  0.2860 -1.2470  2.1427
 8619SOL     OW37492   1.234   3.252   7.047  0.0777 -0.0031 -0.0833
 8619SOL    HW137493   1.260   3.303   6.970 -0.5496 -1.0873 -1.0187
 8619SOL    HW237494   1.315   3.212   7.078  0.3651  0.8845  0.3101
 8620SOL     OW37495   2.629   0.432  16.523  0.9769  0.5299 -0.1770
 8620SOL    HW137496   2.598   0.358  16.576  0.0047  1.1976  0.1889
 8620SOL    HW237497   2.709   0.445  16.574  0.3076 -3.4845  1.9170
 8621SOL     OW37498   3.099   0.410  13.991  0.0484  0.4151  0.5967
 8621SOL    HW137499   3.079   0.326  13.949  0.7747  0.4510  0.1902
 8621SOL    HW237500   3.193   0.403  14.008 -0.4502 -0.1096  3.0791
 8622SOL     OW37501   2.884   1.012   8.563 -0.2516  0.5377 -0.3234
 8622SOL    HW137502   2.850   0.940   8.509 -0.9575  0.0070  0.8465
 8622SOL    HW237503   2.910   1.076   8.496  2.8074 -0.7777 -0.4123
 8623SOL     OW37504   1.714   1.812   7.529 -0.1661  0.1460  0.3817
 8623SOL    HW137505   1.719   1.723   7.566 -1.8065  1.4898  3.9265
 8623SOL    HW237506   1.628   1.841   7.562  0.7229  5.4139 -2.0524
 8624SOL     OW37507   0.691   0.457   2.804  0.7481 -0.3027  0.1570
 8624SOL    HW137508   0.665   0.419   2.720  0.9634 -3.5028  1.5669
 8624SOL    HW237509   0.777   0.418   2.817  0.3756 -1.0268  0.4531
 8625SOL     OW37510   4.013   3.594   5.754  0.0905 -0.2951  0.2404
 8625SOL    HW137511   4.063   3.675   5.750  2.6503 -1.7571  2.8064
 8625SOL    HW237512   3.942   3.625   5.699 -0.2655 -4.3466 -1.5735
 8626SOL     OW37513   1.224   1.796   7.690 -0.0155  0.4290 -0.2815
 8626SOL    HW137514   1.176   1.816   7.610 -1.1812  0.8187  0.5146
 8626SOL    HW237515   1.278   1.875   7.685  0.3390  0.3668  2.4598
 8627SOL     OW37516   1.435   4.285   3.576  0.1005 -0.0617 -0.3893
 8627SOL    HW137517   1.501   4.354   3.576  0.7297 -0.6580 -0.3429
 8627SOL    HW237518   1.469   4.224   3.642  1.1808 -1.7333 -2.5036
 8628SOL     OW37519   3.717   1.153   2.599 -0.8266  0.3951 -1.2337
 8628SOL    HW137520   3.698   1.062   2.622 -1.3707  0.6553 -0.6555
 8628SOL    HW237521   3.713   1.150   2.504  1.7040  0.9007 -1.3516
 8629SOL     OW37522   3.722   0.221  11.451  0.0401  0.8700  0.1644
 8629SOL    HW137523   3.751   0.297  11.502 -0.1477  0.5173  0.7973
 8629SOL    HW237524   3.711   0.258  11.363  1.3717  1.7077  0.3433
 8630SOL     OW37525   0.567   3.393   2.097  0.4232  0.1161 -0.5172
 8630SOL    HW137526   0.596   3.406   2.006  0.8263 -2.0840 -0.7081
 8630SOL    HW237527   0.491   3.449   2.109 -0.1168 -0.6082 -0.5771
 8631SOL     OW37528   3.012   1.987   0.257  0.6509  0.0643  0.1188
 8631SOL    HW137529   3.017   2.054   0.189  0.8430  2.2122  2.2471
 8631SOL    HW237530   3.086   1.930   0.235  1.7235  0.7277  1.9856
 8632SOL     OW37531   3.394   2.085   6.548 -0.1614  0.2572  0.0855
 8632SOL    HW137532   3.302   2.107   6.565 -0.4465  0.0161 -1.1238
 8632SOL    HW237533   3.417   2.153   6.485 -0.0402  1.0397  0.9856
 8633SOL     OW37534   1.069   0.207   9.324  0.0555 -0.2912  0.0608
 8633SOL    HW137535   1.047   0.256   9.404 -0.5654 -0.0830 -0.2406
 8633SOL    HW237536   1.016   0.128   9.329 -1.9142  0.9350 -1.4737
 8634SOL     OW37537   3.599   1.071  13.400 -0.5655  0.6159 -0.5565
 8634SOL    HW137538   3.506   1.061  13.422  0.1394  1.0041  2.6369
 8634SOL    HW237539   3.597   1.151  13.347 -2.7179 -0.9003 -2.7556
 8635SOL     OW37540   4.393   2.447  17.063  0.1804  0.6493  0.0404
 8635SOL    HW137541   4.343   2.519  17.023 -0.6486 -0.7149 -1.3746
 8635SOL    HW237542   4.426   2.486  17.144 -1.4446  0.4409  0.7938
 8636SOL     OW37543   1.299   3.234   9.299  0.4138  1.2622 -0.0216
 8636SOL    HW137544   1.301   3.193   9.213  0.1333 -0.2000  0.6593
 8636SOL    HW237545   1.240   3.172   9.341  0.3135  1.2466 -0.1867
 8637SOL     OW37546   4.116   1.609  10.132  0.4355 -0.3169 -0.3294
 8637SOL    HW137547   4.179   1.666  10.176 -0.2979 -0.3238  0.7257
 8637SOL    HW237548   4.181   1.542  10.110  1.9784  0.7551  0.9719
 8638SOL     OW37549   2.917   1.281   1.839 -0.8444 -0.0714 -0.3918
 8638SOL    HW137550   2.950   1.354   1.786  2.2509 -0.6947  0.6954
 8638SOL    HW237551   2.823   1.298   1.838 -0.7903  0.1552 -1.5929
 8639SOL     OW37552   4.282   1.893   7.295 -0.1858 -0.3309  0.1071
 8639SOL    HW137553   4.332   1.958   7.247 -1.5891  1.7876  1.4784
 8639SOL    HW237554   4.311   1.901   7.386  0.4348 -0.4147 -0.0813
 8640SOL     OW37555   0.598   4.666  15.215  0.5789 -0.5341 -0.5381
 8640SOL    HW137556   0.646   4.659  15.133  3.1874  0.4525  0.9068
 8640SOL    HW237557   0.671   4.694  15.270  0.5744 -1.9665  0.2064
 8641SOL     OW37558   1.330   3.653   1.517 -0.2059 -0.0765 -0.0211
 8641SOL    HW137559   1.359   3.716   1.583 -0.1141  1.0425 -1.1352
 8641SOL    HW237560   1.349   3.570   1.562  0.1969  0.0911  0.1211
 8642SOL     OW37561   0.957   4.169   6.283  0.1892  0.6128  0.4784
 8642SOL    HW137562   0.981   4.252   6.325  1.6174  0.0777  0.7303
 8642SOL    HW237563   1.046   4.133   6.278 -0.6983 -1.2657 -1.8926
 8643SOL     OW37564   3.494   4.710  10.018 -0.0913 -0.3759  0.0775
 8643SOL    HW137565   3.522   4.699   9.927 -2.5671  0.2648 -0.7765
 8643SOL    HW237566   3.464   0.061  10.017 -0.5137 -0.5228 -0.8151
 8644SOL     OW37567   2.347   0.691   0.626 -0.5694 -0.0899  0.0409
 8644SOL    HW137568   2.343   0.786   0.609  1.3772  0.1222  0.8991
 8644SOL    HW237569   2.256   0.662   0.628 -1.2979  2.1394 -0.0778
 8645SOL     OW37570   2.851   2.538  17.369  0.1437  0.9305 -0.0880
 8645SOL    HW137571   2.769   2.489  17.374  0.9577 -0.4329 -0.2830
 8645SOL    HW237572   2.826   2.621  17.328  1.5840  0.8888 -1.0342
 8646SOL     OW37573   2.217   3.373   5.994  0.0555  0.3850  0.0180
 8646SOL    HW137574   2.312   3.378   6.001  0.0246 -0.5745  0.9388
 8646SOL    HW237575   2.191   3.453   6.041 -0.4786 -1.1132  2.2517
 8647SOL     OW37576   4.133   2.342   3.512  0.3358  0.0626  0.1408
 8647SOL    HW137577   4.143   2.296   3.596 -1.9652 -1.4390 -0.4096
 8647SOL    HW237578   4.216   2.314   3.474 -0.6360 -0.0314 -1.9013
 8648SOL     OW37579   1.336   2.518  16.799  0.5032  0.1289  0.3622
 8648SOL    HW137580   1.408   2.455  16.805  0.6602  0.3750  1.0699
 8648SOL    HW237581   1.386   2.591  16.836 -2.0206  1.5538  0.9193
 8649SOL     OW37582   3.192   3.664  15.597 -0.0380 -0.0394  0.7489
 8649SOL    HW137583   3.243   3.693  15.672  1.5897  1.8366 -1.1033
 8649SOL    HW237584   3.110   3.637  15.638  0.0667 -0.6519  0.5552
 8650SOL     OW37585   4.284   2.382   5.193 -0.1597  0.5517 -0.4339
 8650SOL    HW137586   4.222   2.312   5.171 -0.3718  0.3980  0.6331
 8650SOL    HW237587   4.344   2.331   5.247 -3.6247 -2.8020  0.2736
 8651SOL     OW37588   0.888   4.085   7.366  0.0817  0.4185  0.2361
 8651SOL    HW137589   0.903   4.084   7.271  0.3321  1.4688  0.2594
 8651SOL    HW237590   0.854   3.996   7.373  0.6632 -0.0033 -2.3530
 8652SOL     OW37591   0.396   4.138   7.425 -0.4178  0.7647 -0.8547
 8652SOL    HW137592   0.388   4.098   7.512 -2.3212  0.0468 -1.3586
 8652SOL    HW237593   0.318   4.194   7.424  0.0103  1.4155  1.2047
 8653SOL     OW37594   3.294   1.856   5.963 -0.2542 -0.5096 -0.5190
 8653SOL    HW137595   3.271   1.939   6.006  0.8287 -0.4591 -0.0228
 8653SOL    HW237596   3.376   1.831   6.005  1.2686  0.8053 -2.7061
 8654SOL     OW37597   1.183   4.514   4.050  0.1605  0.3929  0.1232
 8654SOL    HW137598   1.256   4.564   4.086  1.9262 -1.5731 -0.7460
 8654SOL    HW237599   1.124   4.588   4.040  1.0087  1.0782  0.2141
 8655SOL     OW37600   1.241   0.481   3.845 -0.2054  0.4410  0.1370
 8655SOL    HW137601   1.336   0.488   3.831 -0.1315 -0.6803  0.1240
 8655SOL    HW237602   1.210   0.511   3.759  0.8758  0.5800 -0.2091
 8656SOL     OW37603   4.501   3.700   9.120 -0.2815  0.3332  0.4625
 8656SOL    HW137604   4.507   3.662   9.208 -3.1324 -0.6934  0.1974
 8656SOL    HW237605   4.515   3.793   9.140  1.6561  0.2061 -0.2688
 8657SOL     OW37606   1.655   4.474  14.775 -0.0325 -0.4745 -0.1973
 8657SOL    HW137607   1.728   4.500  14.718 -0.0614 -3.1966 -1.4661
 8657SOL    HW237608   1.682   4.515  14.857 -0.2956  1.0691 -0.8742
 8658SOL     OW37609   2.196   2.946   6.365  0.0713 -0.1524  0.4303
 8658SOL    HW137610   2.237   3.009   6.424  3.2565 -1.8456  0.0540
 8658SOL    HW237611   2.147   2.997   6.300  1.3908 -0.2805 -0.6796
 8659SOL     OW37612   4.374   2.013   9.592  0.9627 -0.3787  0.0652
 8659SOL    HW137613   4.345   1.925   9.568  2.0250 -0.4108 -1.1288
 8659SOL    HW237614   4.467   2.006   9.567  0.4063  1.2595 -2.4511
 8660SOL     OW37615   2.922   3.969   5.248  0.0290  0.3263 -0.1450
 8660SOL    HW137616   2.858   4.016   5.195 -2.0034 -0.6084  1.4573
 8660SOL    HW237617   2.920   4.018   5.330 -2.2690  0.2158 -0.1350
 8661SOL     OW37618   1.494   3.560   4.479  0.0480 -0.2139  0.1092
 8661SOL    HW137619   1.561   3.560   4.546  0.9104 -0.0753 -0.7526
 8661SOL    HW237620   1.468   3.468   4.483  1.4096 -0.5826  0.2569
 8662SOL     OW37621   0.919   2.477   7.950 -0.2214 -0.3808  0.5762
 8662SOL    HW137622   0.879   2.399   7.911  0.0789 -0.0715 -0.3672
 8662SOL    HW237623   1.011   2.452   7.948  0.2112  1.3488 -1.5965
 8663SOL     OW37624   0.778   3.171   7.152 -0.1457 -0.1326  0.8816
 8663SOL    HW137625   0.692   3.131   7.140 -0.0512  0.3488 -1.5555
 8663SOL    HW237626   0.815   3.143   7.068 -1.3087 -0.4363  0.4693
 8664SOL     OW37627   1.229   0.124   0.101  0.1101 -0.3560 -0.7067
 8664SOL    HW137628   1.320   0.153   0.096 -0.0581  0.2492 -0.2421
 8664SOL    HW237629   1.232   0.063   0.027  2.5179  1.0255 -1.7307
 8665SOL     OW37630   2.414   0.770  12.817 -0.1815  0.3746  0.0601
 8665SOL    HW137631   2.418   0.757  12.912 -0.5445  0.9470  0.1576
 8665SOL    HW237632   2.352   0.843  12.808  1.3825  1.8667  1.4557
 8666SOL     OW37633   0.569   0.017   3.420  0.7356 -0.2766 -0.2084
 8666SOL    HW137634   0.517   0.067   3.357  0.4852  1.2858  1.2527
 8666SOL    HW237635   0.611   0.094   3.457 -0.8862  0.0698  0.8933
 8667SOL     OW37636   4.657   4.270  16.268  0.6841  0.0272  0.6053
 8667SOL    HW137637   4.725   4.217  16.226 -1.5534 -1.2140 -1.3944
 8667SOL    HW237638   4.716   4.329  16.315  2.5323 -0.6540 -0.8709
 8668SOL     OW37639   3.526   0.839   8.820  0.5410  0.1310  0.3790
 8668SOL    HW137640   3.527   0.924   8.776  1.3273 -0.2122 -0.2674
 8668SOL    HW237641   3.496   0.794   8.741 -1.0310 -1.7293  2.0211
 8669SOL     OW37642   2.015   4.494  11.870  0.1618 -0.2549 -0.2563
 8669SOL    HW137643   1.957   4.420  11.888 -1.8792  0.9875 -1.7687
 8669SOL    HW237644   1.991   4.526  11.783  1.6405 -0.3318 -0.6909
 8670SOL     OW37645   1.061   2.370   6.508 -0.3992 -1.2599 -0.0255
 8670SOL    HW137646   1.154   2.365   6.532 -0.1649  0.8854 -0.4922
 8670SOL    HW237647   1.042   2.296   6.451 -0.4587  0.0175 -1.6476
 8671SOL     OW37648   2.263   3.049   2.038  0.6212 -0.2608  0.7293
 8671SOL    HW137649   2.181   3.002   2.024  1.5614 -1.2477 -1.4915
 8671SOL    HW237650   2.273   3.085   1.950 -1.3763 -2.1387 -0.2460
 8672SOL     OW37651   1.828   2.216   5.431  0.5295  0.1832 -0.2630
 8672SOL    HW137652   1.906   2.271   5.438  0.4212  0.4660 -1.2219
 8672SOL    HW237653   1.805   2.210   5.523  1.5634 -0.0811 -0.0295
 8673SOL     OW37654   0.380   3.640   3.668 -0.6667 -0.4063  0.1721
 8673SOL    HW137655   0.351   3.554   3.698 -0.2031 -0.7427 -0.3513
 8673SOL    HW237656   0.310   3.667   3.608 -0.9779 -0.2027  0.6208
 8674SOL     OW37657   4.253   3.724   8.427  0.0175 -0.8015  0.0311
 8674SOL    HW137658   4.297   3.640   8.414  0.4317 -0.3505 -1.4753
 8674SOL    HW237659   4.328   3.779   8.402  0.9895 -2.2225 -0.1897
 8675SOL     OW37660   4.543   2.690   2.911 -0.0241  0.2611  0.1938
 8675SOL    HW137661   4.626   2.690   2.959  0.1479  2.7874 -0.1020
 8675SOL    HW237662   4.558   2.621   2.847  2.0337  1.4651 -0.6331
 8676SOL     OW37663   1.802   0.096   9.316 -0.4156 -0.0391  0.2066
 8676SOL    HW137664   1.850   0.032   9.264  0.4004 -0.8442  1.9791
 8676SOL    HW237665   1.791   0.163   9.248  1.8784 -1.7726 -1.8623
 8677SOL     OW37666   1.437   3.089   2.602  0.5865 -0.0579 -0.3184
 8677SOL    HW137667   1.485   3.168   2.628 -0.4501  0.8996 -1.3154
 8677SOL    HW237668   1.348   3.123   2.605  0.4720 -0.3195 -0.7586
 8678SOL     OW37669   2.232   4.440   5.009 -0.1243 -0.1064 -0.0972
 8678SOL    HW137670   2.282   4.508   5.054  0.0731 -2.2930  2.9949
 8678SOL    HW237671   2.262   4.444   4.918 -0.0358 -0.2675 -0.0758
 8679SOL     OW37672   1.817   3.531   5.131 -0.2511  0.1273 -0.1299
 8679SOL    HW137673   1.904   3.548   5.094 -0.2254  0.9705  0.3251
 8679SOL    HW237674   1.835   3.454   5.184 -0.1039 -2.1136 -3.4347
 8680SOL     OW37675   1.567   2.163  16.475 -0.2704 -0.0780  0.3141
 8680SOL    HW137676   1.475   2.138  16.480 -0.4079  0.0342 -1.5470
 8680SOL    HW237677   1.561   2.256  16.494 -0.2078 -0.0216  0.0571
 8681SOL     OW37678   4.161   1.153  16.803 -0.0187 -0.2522  0.2564
 8681SOL    HW137679   4.182   1.192  16.719  0.8469 -0.7422  0.2456
 8681SOL    HW237680   4.211   1.071  16.797  1.2542  0.7675 -2.8271
 8682SOL     OW37681   3.112   3.931  15.237  0.0216 -0.0634 -0.0509
 8682SOL    HW137682   3.158   3.884  15.306  0.0140  3.1165  2.1208
 8682SOL    HW237683   3.127   3.870  15.164  1.0583 -1.2086  1.1255
 8683SOL     OW37684   2.144   3.020  12.428 -0.3111  0.9467 -0.3823
 8683SOL    HW137685   2.146   2.924  12.428  1.1894  0.9701 -1.1845
 8683SOL    HW237686   2.066   3.041  12.376 -0.4441  0.6253 -0.3153
 8684SOL     OW37687   2.631   3.283   1.629  0.2169  0.3314 -0.5944
 8684SOL    HW137688   2.713   3.299   1.675  0.5006 -0.6860 -0.7265
 8684SOL    HW237689   2.655   3.206   1.576 -1.5594 -0.2874 -0.5085
 8685SOL     OW37690   3.847   1.539   6.344 -0.2450 -0.1349  0.5950
 8685SOL    HW137691   3.859   1.585   6.261 -1.6616 -0.8839 -0.0072
 8685SOL    HW237692   3.938   1.540   6.376 -0.9453  2.1174  2.4912
 8686SOL     OW37693   2.822   4.402   8.523  0.0112 -0.2609  0.1993
 8686SOL    HW137694   2.915   4.425   8.527 -0.4782  1.7724  0.0486
 8686SOL    HW237695   2.800   4.408   8.616 -0.3041 -2.4090  0.2396
 8687SOL     OW37696   2.261   3.036   4.476  0.1301 -0.3490 -0.0251
 8687SOL    HW137697   2.254   3.125   4.441 -1.9671 -0.9809 -1.2371
 8687SOL    HW237698   2.217   3.050   4.559  0.9648  0.9061  0.2079
 8688SOL     OW37699   0.698   0.782  14.212 -0.3875  0.3597  0.1916
 8688SOL    HW137700   0.625   0.836  14.242 -0.6732 -0.2867  0.6694
 8688SOL    HW237701   0.765   0.795  14.278  2.7493 -3.0918 -2.3664
 8689SOL     OW37702   4.346   0.155   8.916  0.1769 -0.0630  0.0854
 8689SOL    HW137703   4.408   0.228   8.918  0.7454 -0.5621  0.2466
 8689SOL    HW237704   4.371   0.105   8.993  0.2439 -0.5980 -0.2871
 8690SOL     OW37705   0.376   0.299  16.457  0.4820 -0.1040  0.2412
 8690SOL    HW137706   0.418   0.364  16.515  2.3326 -1.6289  0.5906
 8690SOL    HW237707   0.435   0.273  16.387 -0.2994  1.5974 -1.0570
 8691SOL     OW37708   4.466   1.361  16.408  0.0924  0.1436  0.0468
 8691SOL    HW137709   4.509   1.375  16.492  0.5967  0.0393 -0.1928
 8691SOL    HW237710   4.440   1.451  16.390  0.0857  0.4336  1.5033
 8692SOL     OW37711   0.172   1.658  17.203 -0.3954 -0.1713 -0.1328
 8692SOL    HW137712   0.078   1.656  17.221 -0.3208  0.9273  0.3451
 8692SOL    HW237713   0.180   1.751  17.224 -1.3621  0.1391 -1.1670
 8693SOL     OW37714   2.256   1.280   7.621 -0.4162  0.1405 -0.0928
 8693SOL    HW137715   2.242   1.283   7.716  0.9425  2.2113  0.0398
 8693SOL    HW237716   2.346   1.250   7.614  0.0689  1.2885  1.2421
 8694SOL     OW37717   4.018   0.887   6.272  0.2668 -0.0539 -0.3454
 8694SOL    HW137718   3.942   0.909   6.218 -0.3633 -0.2153  0.4722
 8694SOL    HW237719   4.053   0.816   6.218  1.2673  0.8121 -0.8420
 8695SOL     OW37720   3.592   3.355  13.584 -0.4926 -0.5277  0.0274
 8695SOL    HW137721   3.600   3.300  13.506  0.2987  0.1761 -0.3875
 8695SOL    HW237722   3.685   3.363  13.604 -0.2786 -1.0300 -0.7790
 8696SOL     OW37723   0.495   4.032   4.221  0.3201  0.3600 -0.1272
 8696SOL    HW137724   0.424   3.973   4.246  0.9699  0.6143  2.3292
 8696SOL    HW237725   0.545   3.977   4.160 -0.8832 -1.4008  0.4821
 8697SOL     OW37726   1.015   2.281  11.833 -0.0693 -0.1621  0.1229
 8697SOL    HW137727   0.950   2.225  11.791 -0.0893 -1.7961  2.3234
 8697SOL    HW237728   1.016   2.360  11.779 -2.3400  0.1428  0.5518
 8698SOL     OW37729   4.372   1.590   8.518  0.0226 -0.7933  0.1749
 8698SOL    HW137730   4.445   1.554   8.467 -0.2097 -0.7990 -0.1562
 8698SOL    HW237731   4.373   1.682   8.492 -2.9969 -0.6395  0.6496
 8699SOL     OW37732   2.014   4.133   7.655 -0.8949  0.3788 -0.0753
 8699SOL    HW137733   1.927   4.172   7.652 -0.1906  2.1797  3.0802
 8699SOL    HW237734   2.034   4.152   7.747  0.0036  0.9357 -0.3877
 8700SOL     OW37735   1.243   2.184   9.314  0.1776  0.4057  0.0518
 8700SOL    HW137736   1.279   2.097   9.333  1.2424  1.1604  1.5346
 8700SOL    HW237737   1.326   2.232   9.304  0.9994 -0.9521  0.3529
 8701SOL     OW37738   4.670   1.462   2.250  0.4043  0.1234 -0.2198
 8701SOL    HW137739   4.660   1.387   2.307 -0.3402  1.6030  1.5933
 8701SOL    HW237740   4.651   1.428   2.162 -1.2587 -2.0440  1.0160
 8702SOL     OW37741   0.752   2.797   2.253  0.4649  0.0130 -0.2994
 8702SOL    HW137742   0.719   2.818   2.165  2.8649 -1.0341 -1.4444
 8702SOL    HW237743   0.675   2.774   2.303  0.6651 -0.8399 -0.3914
 8703SOL     OW37744   2.719   3.036  11.234 -0.2907 -0.5258 -0.1034
 8703SOL    HW137745   2.809   3.006  11.246 -0.0191  0.2964 -0.0312
 8703SOL    HW237746   2.731   3.108  11.172  2.1273 -0.6736  0.2079
 8704SOL     OW37747   2.235   1.452   6.043  0.2644  0.2145  0.4936
 8704SOL    HW137748   2.226   1.493   5.957 -1.0585 -0.7622  0.1757
 8704SOL    HW237749   2.276   1.367   6.025 -2.0316 -0.7159 -0.2568
 8705SOL     OW37750   4.169   3.244   2.305 -0.4224  0.4978  0.0004
 8705SOL    HW137751   4.209   3.326   2.335  1.2188 -0.1253 -0.4568
 8705SOL    HW237752   4.239   3.209   2.249  0.1890 -0.0727  1.1261
 8706SOL     OW37753   0.005   0.514  11.521 -0.1929  0.3979  0.3050
 8706SOL    HW137754   4.670   0.473  11.563  0.3090  0.2688  1.0830
 8706SOL    HW237755   0.028   0.578  11.589 -0.7980  1.7060 -0.7269
 8707SOL     OW37756   2.590   4.177   6.272  0.0359 -0.2110  0.1265
 8707SOL    HW137757   2.514   4.124   6.295  1.3317 -1.8443  0.6744
 8707SOL    HW237758   2.585   4.177   6.176 -2.8035  0.3443  0.2938
 8708SOL     OW37759   1.017   2.582  12.715  0.2212 -0.0431 -0.4547
 8708SOL    HW137760   1.042   2.492  12.693  0.7587 -0.1295  0.4885
 8708SOL    HW237761   0.980   2.616  12.634 -1.0344  2.7368  1.2635
 8709SOL     OW37762   0.152   0.071   2.520  0.3014 -0.0039 -0.2859
 8709SOL    HW137763   0.121   0.130   2.589  0.6759  0.0112 -0.1320
 8709SOL    HW237764   0.084   0.075   2.453 -0.3154 -0.8985  0.2958
 8710SOL     OW37765   2.894   1.194   8.351 -0.0820  1.3886 -0.3267
 8710SOL    HW137766   2.815   1.243   8.375 -0.7119  0.1150  0.2338
 8710SOL    HW237767   2.892   1.208   8.257 -0.0045 -1.7751 -0.7998
 8711SOL     OW37768   0.819   0.390   6.828 -0.1040  0.6458  0.6558
 8711SOL    HW137769   0.844   0.472   6.870 -0.7045  1.7596 -1.1717
 8711SOL    HW237770   0.727   0.403   6.852 -0.5862  1.6029 -1.7485
 8712SOL     OW37771   3.025   0.257   1.720  0.6106 -0.0635  0.5069
 8712SOL    HW137772   3.117   0.264   1.745  0.4905  1.4280  0.5126
 8712SOL    HW237773   2.992   0.334   1.767 -1.1138 -0.6188  0.2257
 8713SOL     OW37774   3.156   0.570   0.169 -0.6062  0.2636  0.0096
 8713SOL    HW137775   3.243   0.563   0.130  0.1306  3.3840  1.1354
 8713SOL    HW237776   3.131   0.488   0.126 -2.6811  0.4735  0.7949
 8714SOL     OW37777   3.713   4.098  10.652  0.1359 -0.2164 -0.2353
 8714SOL    HW137778   3.757   4.069  10.732  0.8177 -0.5743 -0.7440
 8714SOL    HW237779   3.742   4.188  10.641 -0.7287  0.2007  0.8507
 8715SOL     OW37780   3.803   4.638   3.921 -0.3682  0.2756  0.1563
 8715SOL    HW137781   3.862   4.713   3.924  0.6582 -0.6177  2.3427
 8715SOL    HW237782   3.727   4.677   3.878  0.1492 -0.2420 -1.2233
 8716SOL     OW37783   3.199   0.023   0.576  0.4449 -0.2588 -0.2603
 8716SOL    HW137784   3.211   0.037   0.481  3.5930 -0.5996  0.0847
 8716SOL    HW237785   3.259   0.087   0.613  1.0531 -0.2469 -1.2649
 8717SOL     OW37786   1.617   1.277   3.181 -0.3714  0.1983 -0.3146
 8717SOL    HW137787   1.526   1.268   3.153 -0.8849 -1.7373  2.0541
 8717SOL    HW237788   1.643   1.328   3.104 -0.0467 -1.4509 -1.2998
 8718SOL     OW37789   3.073   0.957   6.273  0.5701  0.0978  0.4556
 8718SOL    HW137790   3.095   0.876   6.227  0.1023  0.3378 -0.1938
 8718SOL    HW237791   3.159   0.983   6.306  0.7944 -2.1815  1.6505
 8719SOL     OW37792   0.627   3.092   5.527 -0.1827  0.3516 -0.4935
 8719SOL    HW137793   0.709   3.140   5.517  0.7791 -1.2192 -0.0843
 8719SOL    HW237794   0.644   3.019   5.467  0.3709  0.2174 -0.1710
 8720SOL     OW37795   2.659   1.650  16.124 -0.2410  0.4005  0.2594
 8720SOL    HW137796   2.620   1.655  16.212 -0.0585 -2.7407  0.5194
 8720SOL    HW237797   2.714   1.574  16.141 -2.1174 -1.0748 -0.2189
 8721SOL     OW37798   1.689   2.286   6.789  0.0407 -0.3199  0.2202
 8721SOL    HW137799   1.733   2.301   6.705  1.8422 -0.4401  1.1427
 8721SOL    HW237800   1.664   2.194   6.779 -0.8110 -0.0136 -0.5434
 8722SOL     OW37801   0.240   1.375  12.740 -0.5352  0.0142 -0.3304
 8722SOL    HW137802   0.222   1.355  12.832  2.2703  0.9981  0.4189
 8722SOL    HW237803   0.146   1.383  12.720 -0.2446 -0.2110 -1.8220
 8723SOL     OW37804   3.886   2.423   9.131 -0.5063  0.3083  0.1975
 8723SOL    HW137805   3.944   2.449   9.059 -1.8515  0.1514 -0.9406
 8723SOL    HW237806   3.807   2.418   9.076 -1.2377 -2.6266  1.5177
 8724SOL     OW37807   0.699   3.222   6.307  0.1228 -0.6403  0.0348
 8724SOL    HW137808   0.612   3.215   6.269  0.3644 -1.3562 -0.3840
 8724SOL    HW237809   0.719   3.315   6.295 -1.8574 -0.2833 -0.4806
 8725SOL     OW37810   2.840   4.299   4.793  0.0495  0.3412  0.6339
 8725SOL    HW137811   2.753   4.297   4.833  0.0704  0.8088  0.6994
 8725SOL    HW237812   2.828   4.329   4.703 -2.7904  1.4216  1.3562
 8726SOL     OW37813   0.119   4.572   3.611  0.4974  0.1332  0.4687
 8726SOL    HW137814   0.156   4.624   3.682  0.6448 -1.4978  1.5850
 8726SOL    HW237815   0.143   4.489   3.651 -0.8690  0.2891  1.6344
 8727SOL     OW37816   1.639   3.524   1.859 -0.2561 -0.0171 -0.3015
 8727SOL    HW137817   1.695   3.536   1.935 -0.5409 -0.9612  0.0576
 8727SOL    HW237818   1.662   3.601   1.807  0.4065  1.2382  1.8971
 8728SOL     OW37819   1.170   4.652  15.570  0.4450  0.3878  0.0856
 8728SOL    HW137820   1.080   4.625  15.552  1.1767 -1.6285 -0.5491
 8728SOL    HW237821   1.171   4.660  15.665  0.0782 -0.2816  0.1452
 8729SOL     OW37822   0.039   0.710   7.941  0.7115 -0.0184 -0.7329
 8729SOL    HW137823   0.127   0.686   7.969 -0.3164 -1.4091  1.2642
 8729SOL    HW237824   4.734   0.626   7.948  0.2270  0.4329  1.4655
 8730SOL     OW37825   2.499   2.356   4.594  0.1787  0.0852 -0.3545
 8730SOL    HW137826   2.472   2.274   4.636 -1.2393  1.0214  0.5751
 8730SOL    HW237827   2.415   2.402   4.583  0.3247  0.7942  1.4094
 8731SOL     OW37828   4.408   3.162   8.502  0.0491  0.0014  0.0818
 8731SOL    HW137829   4.447   3.145   8.416 -3.4647  0.9504 -1.6975
 8731SOL    HW237830   4.321   3.197   8.483  0.4458  0.9164 -0.0448
 8732SOL     OW37831   1.202   2.366  14.875 -0.2954 -0.1008  0.1738
 8732SOL    HW137832   1.265   2.423  14.918 -1.0179 -0.2052  1.3804
 8732SOL    HW237833   1.142   2.345  14.947 -0.7776 -0.7118 -0.4030
 8733SOL     OW37834   2.915   1.335   8.085 -0.0753  0.0611  0.3739
 8733SOL    HW137835   2.997   1.325   8.037 -0.0888  2.3132 -0.1053
 8733SOL    HW237836   2.847   1.307   8.025  0.5655 -2.5328  0.8293
 8734SOL     OW37837   2.816   1.928   8.400 -0.2663  0.0291  0.0275
 8734SOL    HW137838   2.773   1.927   8.486 -1.1773 -0.7050 -0.4361
 8734SOL    HW237839   2.748   1.889   8.345 -0.4131  2.2009 -1.3191
 8735SOL     OW37840   2.350   3.905   6.807  0.0742  0.6686 -0.5102
 8735SOL    HW137841   2.306   3.837   6.756  1.1963 -0.3053 -0.1802
 8735SOL    HW237842   2.286   3.912   6.877 -1.7540 -1.5146 -1.9653
 8736SOL     OW37843   3.230   0.295   7.376 -0.0641 -0.4085 -0.6863
 8736SOL    HW137844   3.293   0.229   7.405  1.3635  0.8388 -0.9853
 8736SOL    HW237845   3.148   0.245   7.375 -0.6163  0.4016  2.8083
 8737SOL     OW37846   0.507   3.386  10.032 -0.4540  0.0979 -0.0621
 8737SOL    HW137847   0.570   3.457  10.043  0.9165 -1.1434  0.0721
 8737SOL    HW237848   0.469   3.383  10.120 -1.6381 -1.6023 -0.6355
 8738SOL     OW37849   2.130   1.364   9.016 -0.5106 -0.3962  0.5962
 8738SOL    HW137850   2.133   1.452   9.052 -0.9906  0.1111 -0.6150
 8738SOL    HW237851   2.040   1.374   8.985  0.1727 -0.4628 -1.3577
 8739SOL     OW37852   0.970   1.199   9.058  0.0918 -0.7478  0.3169
 8739SOL    HW137853   0.932   1.244   9.133 -1.3999 -2.9926  0.8922
 8739SOL    HW237854   1.050   1.167   9.099 -1.0195 -1.5950  1.8141
 8740SOL     OW37855   3.318   3.136   0.038 -0.2898  0.5243  0.0962
 8740SOL    HW137856   3.346   3.207   0.095  2.0646 -0.3347 -0.0267
 8740SOL    HW237857   3.345   3.173  17.712 -0.8189 -0.4336 -0.4972
 8741SOL     OW37858   3.419   1.672   8.939 -0.2015  0.0806 -0.3037
 8741SOL    HW137859   3.392   1.746   8.885  1.3677 -0.4030 -1.7141
 8741SOL    HW237860   3.479   1.625   8.881 -1.4833 -0.7978 -0.9147
 8742SOL     OW37861   1.709   3.210   2.586 -0.1092 -0.0813 -0.1762
 8742SOL    HW137862   1.733   3.118   2.573  0.4371 -0.0388  0.5361
 8742SOL    HW237863   1.720   3.217   2.681 -2.8979  2.4938 -0.0356
 8743SOL     OW37864   2.126   2.215   2.953 -0.2092 -0.1638  0.1630
 8743SOL    HW137865   2.214   2.213   2.992 -0.5544 -1.1540  0.8878
 8743SOL    HW237866   2.140   2.172   2.868  1.3649 -1.2970  0.9811
 8744SOL     OW37867   1.551   1.077   8.355  0.1175  0.2058 -0.1999
 8744SOL    HW137868   1.555   1.002   8.414  0.7307  2.0410  2.0667
 8744SOL    HW237869   1.646   1.083   8.340  0.1356 -1.5576 -0.8504
 8745SOL     OW37870   0.540   1.599   5.423  0.0838  0.1520 -0.3405
 8745SOL    HW137871   0.483   1.670   5.451 -0.0093 -0.3229  0.6717
 8745SOL    HW237872   0.520   1.605   5.329  1.0191 -0.2645 -0.5691
 8746SOL     OW37873   1.929   2.092   3.113  0.6811 -0.2875  0.0705
 8746SOL    HW137874   1.948   2.007   3.073  0.4966 -0.1393 -0.3307
 8746SOL    HW237875   1.992   2.146   3.066  0.7076 -0.1994  0.2066
 8747SOL     OW37876   1.616   1.420   3.990 -0.4733 -0.1452 -0.4412
 8747SOL    HW137877   1.642   1.465   3.909  0.3747 -0.5955 -0.4122
 8747SOL    HW237878   1.525   1.449   3.997 -0.1668  0.7333 -0.0233
 8748SOL     OW37879   2.201   0.909   6.343 -0.2978  0.6201 -0.3645
 8748SOL    HW137880   2.170   0.836   6.289 -1.4114 -0.8757  2.2883
 8748SOL    HW237881   2.265   0.866   6.401 -1.7693 -1.2990 -0.1913
 8749SOL     OW37882   3.126   0.403   9.719 -0.2396  0.3691 -0.2769
 8749SOL    HW137883   3.144   0.495   9.737  1.6112  0.1438 -0.9092
 8749SOL    HW237884   3.176   0.393   9.638  1.5846  0.8353  0.7843
 8750SOL     OW37885   2.316   0.985   2.137 -0.3679  0.1015 -0.5337
 8750SOL    HW137886   2.342   0.909   2.085  2.8088 -0.7370  2.2560
 8750SOL    HW237887   2.223   0.966   2.149 -0.5324 -0.3119 -2.3388
 8751SOL     OW37888   4.373   3.240   5.670  0.2482  0.2088 -0.4273
 8751SOL    HW137889   4.327   3.322   5.656 -0.6988 -0.4042 -0.9253
 8751SOL    HW237890   4.439   3.272   5.731  0.3145 -1.5352  0.4364
 8752SOL     OW37891   0.275   1.634   8.296 -0.0091  0.1536 -0.2303
 8752SOL    HW137892   0.198   1.610   8.244 -0.0309  1.2535 -0.6883
 8752SOL    HW237893   0.246   1.669   8.380 -1.4706  1.4317 -1.2727
 8753SOL     OW37894   2.780   4.347  15.964  0.6478 -0.0114 -0.3536
 8753SOL    HW137895   2.790   4.375  15.873  2.0967 -0.9013 -0.4615
 8753SOL    HW237896   2.694   4.381  15.987 -0.4342 -2.4924 -0.7696
 8754SOL     OW37897   0.265   2.534   5.686 -0.2158  0.1701  0.7675
 8754SOL    HW137898   0.331   2.515   5.619  0.4185 -1.9335  2.0126
 8754SOL    HW237899   0.316   2.524   5.766 -2.3804 -0.8052  2.0194
 8755SOL     OW37900   2.149   4.558   9.942  0.6007  0.0152  0.0767
 8755SOL    HW137901   2.142   4.514  10.027  0.8833  0.9252  0.5792
 8755SOL    HW237902   2.077   4.620   9.955 -1.5232 -1.9608 -2.3604
 8756SOL     OW37903   3.832   2.806   5.672  0.0984  0.0206  0.4422
 8756SOL    HW137904   3.847   2.835   5.763  0.0293  0.4661  0.3117
 8756SOL    HW237905   3.791   2.880   5.628 -0.2030  0.0731  0.8179
 8757SOL     OW37906   2.619   2.838   2.126 -0.0322 -0.4508 -0.2534
 8757SOL    HW137907   2.563   2.908   2.158 -1.2423 -2.5381  2.1709
 8757SOL    HW237908   2.647   2.873   2.041  1.9326  0.7519  0.8897
 8758SOL     OW37909   2.756   2.770  17.184 -0.3315  0.0574 -0.2070
 8758SOL    HW137910   2.756   2.864  17.201 -1.6725 -0.4070  2.3633
 8758SOL    HW237911   2.670   2.744  17.216 -1.6164  1.8065 -2.2705
 8759SOL     OW37912   0.234   3.628   1.958 -0.5628 -0.1955 -0.4611
 8759SOL    HW137913   0.323   3.624   1.922  0.2948  0.4461  1.5546
 8759SOL    HW237914   0.256   3.576   2.035 -0.3448 -0.5886 -0.7923
 8760SOL     OW37915   2.581   2.895   2.744 -0.3353  0.0200  0.0244
 8760SOL    HW137916   2.550   2.807   2.722 -0.3716 -0.0856  0.4882
 8760SOL    HW237917   2.517   2.949   2.697 -1.5236 -0.8919  0.6064
 8761SOL     OW37918   0.920   1.129   7.979 -0.3883  0.6017 -0.5441
 8761SOL    HW137919   0.894   1.041   8.007  1.4828  1.0173  2.4651
 8761SOL    HW237920   0.920   1.167   8.067 -1.8361  2.0099 -1.1662
 8762SOL     OW37921   4.290   0.482   3.164 -0.4405  0.2737 -0.4729
 8762SOL    HW137922   4.253   0.401   3.199 -1.1807  1.1825  0.8547
 8762SOL    HW237923   4.349   0.445   3.098 -0.7950  1.2291 -1.3226
 8763SOL     OW37924   2.828   2.350  12.678 -0.2744  0.2883 -0.4122
 8763SOL    HW137925   2.918   2.331  12.652 -0.7377 -0.1093 -1.7537
 8763SOL    HW237926   2.817   2.294  12.755 -4.7528  0.3638 -0.9749
 8764SOL     OW37927   2.483   0.865   1.758  0.7169  0.1535  0.4269
 8764SOL    HW137928   2.455   0.930   1.694 -0.4009 -0.5426  0.2050
 8764SOL    HW237929   2.453   0.787   1.711  1.4355  1.1570 -1.6909
 8765SOL     OW37930   3.770   2.754   0.806  0.5081  0.0741  0.7400
 8765SOL    HW137931   3.807   2.770   0.720 -1.8057 -3.6507 -0.9212
 8765SOL    HW237932   3.729   2.669   0.792 -0.4503  0.8264 -0.9963
 8766SOL     OW37933   3.586   2.672   2.957 -0.5236  0.5216  0.6008
 8766SOL    HW137934   3.681   2.663   2.969 -0.4726 -0.0132 -0.1811
 8766SOL    HW237935   3.558   2.633   3.039  1.2649 -1.3512  0.3440
 8767SOL     OW37936   1.859   2.388   6.545  0.2161  0.1803 -0.5380
 8767SOL    HW137937   1.862   2.462   6.485  1.2944 -0.8201 -1.7136
 8767SOL    HW237938   1.922   2.328   6.505 -1.1614 -2.2630  0.9820
 8768SOL     OW37939   1.840   3.650   3.909 -0.2871 -0.1466 -0.2182
 8768SOL    HW137940   1.771   3.605   3.957  0.4102  0.0814  0.9942
 8768SOL    HW237941   1.819   3.616   3.822 -0.5828  2.4444 -1.1765
 8769SOL     OW37942   2.386   4.019  15.817  0.1489 -0.1222 -0.0192
 8769SOL    HW137943   2.315   4.061  15.769 -0.5548 -1.5646 -0.2665
 8769SOL    HW237944   2.459   4.081  15.821 -0.8563  0.9698  1.2925
 8770SOL     OW37945   4.005   2.583   2.058 -0.3568  0.0431  0.3110
 8770SOL    HW137946   3.938   2.651   2.049 -0.5636 -0.2379 -0.2659
 8770SOL    HW237947   3.948   2.508   2.076 -1.4775  0.5916 -0.9761
 8771SOL     OW37948   0.984   2.171  14.747  0.3808  0.1248 -0.3832
 8771SOL    HW137949   0.913   2.228  14.777  0.7280  0.6926 -0.6410
 8771SOL    HW237950   0.962   2.082  14.775 -0.4487  0.2045 -0.7779
 8772SOL     OW37951   3.837   1.663   2.284 -0.0769  0.1256  0.1181
 8772SOL    HW137952   3.811   1.585   2.333 -0.1416 -1.0155 -1.7252
 8772SOL    HW237953   3.924   1.639   2.250 -0.4000 -0.0095 -0.6225
 8773SOL     OW37954   1.118   2.410   4.512 -0.0028  0.2722 -0.0097
 8773SOL    HW137955   1.033   2.453   4.511  0.2597  0.8229  1.3324
 8773SOL    HW237956   1.112   2.363   4.595 -1.6132  0.5120  0.0179
 8774SOL     OW37957   3.359   3.117  14.245 -0.4313  0.1602  0.2253
 8774SOL    HW137958   3.386   3.153  14.329  1.3915  1.9813 -1.1420
 8774SOL    HW237959   3.443   3.080  14.218 -1.6705 -0.6227 -2.6110
 8775SOL     OW37960   2.278   1.136  13.576  0.2509 -0.1764 -0.7202
 8775SOL    HW137961   2.203   1.080  13.554  0.6341 -0.9112 -0.1436
 8775SOL    HW237962   2.287   1.132  13.671 -0.7927  1.8800 -0.5454
 8776SOL     OW37963   0.594   4.735  17.752  0.1832  0.3028 -0.5527
 8776SOL    HW137964   0.498   4.736  17.749  0.1223 -3.6056  0.2744
 8776SOL    HW237965   0.602   4.679   0.070 -3.3429 -0.6934 -0.8895
 8777SOL     OW37966   4.622   1.560   4.660 -0.2346 -0.1605  0.4167
 8777SOL    HW137967   4.561   1.596   4.725 -1.6636 -2.0767  0.1196
 8777SOL    HW237968   4.681   1.515   4.721  0.3180  0.1045  0.0822
 8778SOL     OW37969   4.254   0.300   0.014  0.0196  0.5323  0.4267
 8778SOL    HW137970   4.338   0.295   0.059  0.3066  2.7540  0.1699
 8778SOL    HW237971   4.216   0.213   0.021  0.9137 -0.0903 -2.7562
 8779SOL     OW37972   1.177   2.580   6.913 -0.5276 -0.1437  0.3754
 8779SOL    HW137973   1.262   2.588   6.869 -1.8363  1.0882 -1.9241
 8779SOL    HW237974   1.191   2.509   6.976  1.9891  0.2004  0.2056
 8780SOL     OW37975   1.048   2.984   4.067  0.0840 -0.4992  0.1976
 8780SOL    HW137976   0.967   2.980   4.016  1.4946 -0.4804 -2.0444
 8780SOL    HW237977   1.025   3.060   4.119 -0.5767 -0.5105 -0.0713
 8781SOL     OW37978   2.224   2.450   4.567 -0.0023  0.0926 -0.1807
 8781SOL    HW137979   2.228   2.468   4.661  2.2030  2.2688 -0.6951
 8781SOL    HW237980   2.162   2.378   4.555  0.5653 -0.7657  2.0072
 8782SOL     OW37981   2.086   1.829   2.604 -0.0469 -0.4169 -0.0169
 8782SOL    HW137982   2.006   1.794   2.643  0.6401 -1.3771  0.5236
 8782SOL    HW237983   2.043   1.857   2.523  1.2663  0.2489 -0.4809
 8783SOL     OW37984   1.449   2.997  16.652 -0.1422  0.1605 -0.0629
 8783SOL    HW137985   1.539   2.973  16.672  0.3000  1.0259 -1.0161
 8783SOL    HW237986   1.453   3.083  16.693 -1.6419  0.2435 -0.0776
 8784SOL     OW37987   3.267   1.980   4.886 -0.3690 -0.0997 -0.2253
 8784SOL    HW137988   3.277   1.907   4.947  1.5591 -1.4960 -2.2079
 8784SOL    HW237989   3.209   1.931   4.827 -0.5921  0.6376 -0.6152
 8785SOL     OW37990   0.581   2.505   1.211 -0.4383  0.6718 -0.2842
 8785SOL    HW137991   0.621   2.441   1.271 -0.2309  0.2892 -0.8204
 8785SOL    HW237992   0.494   2.500   1.250  0.2982 -1.8344  1.0456
 8786SOL     OW37993   3.694   3.663  15.448 -0.1091  0.8384  0.1109
 8786SOL    HW137994   3.608   3.659  15.490 -0.6031 -1.4061 -1.0611
 8786SOL    HW237995   3.675   3.707  15.366 -0.0032  0.1362 -0.2982
 8787SOL     OW37996   1.759   3.233   4.583  0.0944 -0.6310  0.1261
 8787SOL    HW137997   1.684   3.251   4.640 -0.8251 -0.8122 -1.0421
 8787SOL    HW237998   1.707   3.188   4.517 -1.1512  1.2754 -0.2085
 8788SOL     OW37999   0.513   0.119   9.454 -0.7801 -0.0767 -0.0927
 8788SOL    HW138000   0.478   0.041   9.498 -2.2549 -1.1441 -3.1938
 8788SOL    HW238001   0.435   0.175   9.455 -2.0991 -1.9345  0.1692
 8789SOL     OW38002   1.115   1.598   2.898 -0.7134  0.4235 -0.8596
 8789SOL    HW138003   1.116   1.503   2.888  1.7484  0.2891  0.4683
 8789SOL    HW238004   1.151   1.622   2.813  1.1265  2.5820  0.5375
 8790SOL     OW38005   2.309   4.385  13.501  0.6265 -0.2288 -0.0430
 8790SOL    HW138006   2.389   4.332  13.497  0.3986 -0.6113  0.4614
 8790SOL    HW238007   2.235   4.324  13.510  0.7506 -0.6766 -2.0585
 8791SOL     OW38008   4.550   0.806  11.640 -0.0806  1.0552 -0.3131
 8791SOL    HW138009   4.455   0.807  11.625 -0.1264 -1.7593 -0.3273
 8791SOL    HW238010   4.564   0.747  11.714  1.5908 -0.2247 -1.6374
 8792SOL     OW38011   4.130   2.170   7.193 -0.5117  0.3984  0.1198
 8792SOL    HW138012   4.221   2.143   7.193 -0.0854  1.8294  0.7120
 8792SOL    HW238013   4.117   2.221   7.272 -0.3216  0.2960  0.2144
 8793SOL     OW38014   1.058   0.026   2.195  0.1557 -0.0782 -0.0046
 8793SOL    HW138015   0.973   0.066   2.214 -0.1897 -1.1117  0.6360
 8793SOL    HW238016   1.095   0.023   2.283  0.6373  0.4207 -0.1980
 8794SOL     OW38017   0.896   1.738   4.473  0.0520  0.3412 -0.1653
 8794SOL    HW138018   0.942   1.817   4.445  1.2740 -0.0470  0.7755
 8794SOL    HW238019   0.968   1.677   4.485 -0.7445 -0.4117  0.7876
 8795SOL     OW38020   1.299   1.303   8.821  0.0999  0.0943 -0.6376
 8795SOL    HW138021   1.321   1.210   8.818  1.7462  0.4595  0.3963
 8795SOL    HW238022   1.382   1.336   8.786 -0.6499  0.5939 -1.9362
 8796SOL     OW38023   0.809   2.319   5.000 -0.6453 -0.1618 -0.5783
 8796SOL    HW138024   0.805   2.236   4.953 -0.9852 -0.7057  0.4056
 8796SOL    HW238025   0.798   2.377   4.925 -2.9599  1.9088  1.3726
 8797SOL     OW38026   4.696   1.516   5.739 -0.2437  0.4146  0.3400
 8797SOL    HW138027   4.731   1.569   5.810  2.4386  2.1388 -2.2633
 8797SOL    HW238028   4.659   1.586   5.684  1.0896  0.3413 -0.6685
 8798SOL     OW38029   4.574   4.412   6.817 -0.1581  0.1750 -0.0001
 8798SOL    HW138030   4.513   4.483   6.796  1.8201  1.9459  0.3167
 8798SOL    HW238031   4.596   4.386   6.728 -1.3295  1.0424 -0.5465
 8799SOL     OW38032   1.053   2.467   7.644 -0.0033  0.0866  0.3130
 8799SOL    HW138033   1.132   2.422   7.675  0.2409 -0.3363 -0.9079
 8799SOL    HW238034   1.062   2.556   7.678 -0.7353  0.1470  0.3456
 8800SOL     OW38035   4.737   4.397   5.826  0.2192  0.1049 -0.0018
 8800SOL    HW138036   0.050   4.405   5.746  1.6516  1.0960  1.0284
 8800SOL    HW238037   4.676   4.470   5.815 -0.3986 -0.3250  0.5700
 8801SOL     OW38038   1.355   3.206   8.027 -1.0594 -0.9211 -0.5097
 8801SOL    HW138039   1.312   3.142   8.084  0.4291 -0.2668  1.3672
 8801SOL    HW238040   1.337   3.292   8.067  2.3147  0.0709 -1.1328
 8802SOL     OW38041   1.293   0.203   4.522 -0.4040  0.0824 -0.0690
 8802SOL    HW138042   1.316   0.285   4.480 -1.2721  1.4387  2.1273
 8802SOL    HW238043   1.370   0.151   4.499 -0.4085  0.0709 -0.0584
 8803SOL     OW38044   1.124   3.040   4.546  0.3699 -0.0757 -0.1713
 8803SOL    HW138045   1.180   3.001   4.478  0.5027 -0.7458  0.3237
 8803SOL    HW238046   1.121   3.132   4.519 -1.5833 -0.0485  0.1683
 8804SOL     OW38047   0.998   1.588   6.012 -0.1018 -1.1001 -0.2895
 8804SOL    HW138048   0.991   1.498   6.043 -1.6978 -0.3699  1.4060
 8804SOL    HW238049   1.080   1.600   5.963  0.2383 -0.8133  0.3538
 8805SOL     OW38050   3.100   0.827   7.832 -0.1326  0.2374  1.0260
 8805SOL    HW138051   3.046   0.782   7.767 -2.3045  2.0716  1.5351
 8805SOL    HW238052   3.047   0.815   7.911 -0.6489 -1.2594  0.4570
 8806SOL     OW38053   2.016   3.224   8.609  0.6908 -0.7974 -0.1042
 8806SOL    HW138054   1.969   3.197   8.688  0.9416 -0.6875  0.0812
 8806SOL    HW238055   1.962   3.167   8.554 -1.2554 -0.7975  1.7986
 8807SOL     OW38056   1.337   4.487  13.923 -0.2967  0.1622 -0.1744
 8807SOL    HW138057   1.353   4.578  13.947  0.2789  0.0222 -0.0421
 8807SOL    HW238058   1.390   4.438  13.986 -0.6630  0.7152  0.5544
 8808SOL     OW38059   4.034   0.730   2.414 -0.3840  0.3299 -0.2075
 8808SOL    HW138060   4.036   0.679   2.495 -0.3209  0.6872  0.0150
 8808SOL    HW238061   4.003   0.665   2.350  1.3796 -0.9311  0.2294
 8809SOL     OW38062   3.440   0.520  12.839  0.6282 -0.4272  0.2933
 8809SOL    HW138063   3.460   0.473  12.758  0.1861 -2.1946  1.2049
 8809SOL    HW238064   3.467   0.451  12.900  0.7058  0.1819  0.9575
 8810SOL     OW38065   0.109   0.368  16.442  0.2075 -0.7544 -0.1584
 8810SOL    HW138066   0.199   0.336  16.436  1.0577  1.7106 -0.3418
 8810SOL    HW238067   0.061   0.304  16.389  1.0809 -1.1648 -0.4532
 8811SOL     OW38068   2.729   4.129   5.514 -0.0937 -1.0633 -0.2685
 8811SOL    HW138069   2.821   4.100   5.508  0.4435  0.1057  2.3865
 8811SOL    HW238070   2.740   4.203   5.455 -0.0638 -0.8435  0.0125
 8812SOL     OW38071   2.173   3.633   4.240 -0.4921 -0.3501 -0.3807
 8812SOL    HW138072   2.134   3.546   4.234  1.0967 -1.0698 -0.3248
 8812SOL    HW238073   2.181   3.673   4.153  0.0160 -3.9959 -1.9866
 8813SOL     OW38074   0.777   0.230   4.576 -0.4094  0.7405 -0.0028
 8813SOL    HW138075   0.834   0.295   4.615  0.3017  0.3262 -0.3582
 8813SOL    HW238076   0.780   0.167   4.648 -0.7428  0.3849 -0.2979
 8814SOL     OW38077   3.548   1.530   2.909  0.2142 -0.3656  0.2930
 8814SOL    HW138078   3.499   1.450   2.927 -0.7835  0.6198  1.9712
 8814SOL    HW238079   3.575   1.508   2.820 -2.5563  2.1504 -1.1989
 8815SOL     OW38080   1.795   3.197   2.829  0.4055  0.7056 -0.3894
 8815SOL    HW138081   1.773   3.200   2.923  0.8378  2.2779 -0.3486
 8815SOL    HW238082   1.842   3.115   2.816 -0.3764  0.5195 -2.0361
 8816SOL     OW38083   2.805   3.929   3.759 -0.2146 -0.6052 -0.4706
 8816SOL    HW138084   2.759   3.907   3.840 -0.1984  1.1074  0.0070
 8816SOL    HW238085   2.880   3.870   3.764  0.2710 -0.0165 -0.8867
 8817SOL     OW38086   3.505   3.197   5.889 -0.2504  0.1379  0.0835
 8817SOL    HW138087   3.551   3.216   5.807 -1.3360  0.4144 -0.4698
 8817SOL    HW238088   3.521   3.273   5.944 -0.1928  0.8603 -0.9160
 8818SOL     OW38089   2.366   0.076   1.062 -0.8712  0.0477  0.0995
 8818SOL    HW138090   2.446   0.121   1.033 -2.2985  1.6973 -1.2348
 8818SOL    HW238091   2.374   0.008   0.996  0.6456  1.8583 -1.5642
 8819SOL     OW38092   1.999   2.931   8.852  0.4183  0.0364  0.2463
 8819SOL    HW138093   1.970   2.846   8.820 -1.7214  1.3810 -1.4304
 8819SOL    HW238094   2.090   2.918   8.878  0.2927 -3.7119 -1.2204
 8820SOL     OW38095   1.375   4.513   8.387 -0.4070  0.3302  0.6021
 8820SOL    HW138096   1.365   4.566   8.465  1.7106  0.2276  0.9487
 8820SOL    HW238097   1.310   4.445   8.404  0.7037 -0.4769  1.6040
 8821SOL     OW38098   1.949   1.878   1.675 -0.1679 -0.1104  0.1502
 8821SOL    HW138099   2.008   1.861   1.748  0.4316  0.2274 -0.2470
 8821SOL    HW238100   2.008   1.945   1.639  1.7620 -0.2997  2.9349
 8822SOL     OW38101   1.436   3.460   6.136 -0.2325  0.3828 -0.6484
 8822SOL    HW138102   1.494   3.488   6.065 -0.9923  1.0580 -0.9975
 8822SOL    HW238103   1.403   3.544   6.166  0.0278  0.2310  0.0726
 8823SOL     OW38104   3.293   0.706   8.229  0.1581 -0.1485  0.3222
 8823SOL    HW138105   3.248   0.634   8.274  0.7597 -1.6900 -1.5382
 8823SOL    HW238106   3.225   0.773   8.225  1.9278  1.7089  1.5002
 8824SOL     OW38107   4.720   0.003   7.913  0.0109  0.3861  0.1691
 8824SOL    HW138108   4.707   0.097   7.923 -0.7844  0.2439  0.5251
 8824SOL    HW238109   0.014   4.722   8.000 -0.1127  0.6918  0.2894
 8825SOL     OW38110   2.833   0.110   4.020  0.3531  0.2330  0.2283
 8825SOL    HW138111   2.744   0.080   4.039  0.7288 -0.1244  1.4540
 8825SOL    HW238112   2.851   0.159   4.101  1.2928  0.0396  0.1336
 8826SOL     OW38113   2.188   0.550  13.609  0.0199  0.1240  0.0950
 8826SOL    HW138114   2.262   0.563  13.549  0.5704 -0.6642  0.5948
 8826SOL    HW238115   2.123   0.605  13.566  1.2570  2.8716  1.7321
 8827SOL     OW38116   3.903   4.243   5.784 -0.6202 -0.4122  0.1229
 8827SOL    HW138117   3.941   4.189   5.715  0.0119  0.3400 -0.1181
 8827SOL    HW238118   3.920   4.332   5.754  1.0507  0.4417  3.5639
 8828SOL     OW38119   1.415   2.028   2.335  0.1262  0.1797 -0.2388
 8828SOL    HW138120   1.464   2.108   2.358 -1.1086  0.2931  1.9966
 8828SOL    HW238121   1.326   2.060   2.325 -0.0248  0.2856  1.3177
 8829SOL     OW38122   0.797   1.603  15.034  0.2056 -0.5013  0.1422
 8829SOL    HW138123   0.833   1.636  15.116 -2.5819 -0.7863  1.4669
 8829SOL    HW238124   0.703   1.592  15.050 -0.2186  1.0086 -1.4025
 8830SOL     OW38125   4.682   0.361  15.698 -0.3927 -0.8421  0.3268
 8830SOL    HW138126   0.018   0.313  15.665 -0.1639 -0.9917  1.0747
 8830SOL    HW238127   4.660   0.420  15.627  0.4497 -0.1942  0.6140
 8831SOL     OW38128   0.904   4.356   2.396  0.1759  0.0737  0.0766
 8831SOL    HW138129   0.980   4.387   2.346  0.3214  0.4383  0.5205
 8831SOL    HW238130   0.944   4.302   2.464  0.0744 -0.5820 -0.3811
 8832SOL     OW38131   0.729   0.435  12.383  0.3042  0.2340  0.5316
 8832SOL    HW138132   0.740   0.340  12.387 -0.3295  0.0792 -1.0490
 8832SOL    HW238133   0.766   0.478  12.460 -1.0401  1.1905  0.6326
 8833SOL     OW38134   1.946   3.216   8.885  0.3232  0.3204  0.7370
 8833SOL    HW138135   1.956   3.122   8.869  1.6173  0.3207  1.5715
 8833SOL    HW238136   1.900   3.224   8.969 -1.6157 -0.1801 -0.2678
 8834SOL     OW38137   4.405   2.765   5.316 -0.0405 -0.4503  0.2064
 8834SOL    HW138138   4.373   2.781   5.405 -1.5242  1.3992 -0.6860
 8834SOL    HW238139   4.434   2.674   5.324 -2.2987 -1.0147  2.0695
 8835SOL     OW38140   2.871   1.037   8.827  0.2001 -0.7094  0.4518
 8835SOL    HW138141   2.854   1.016   8.735  0.1241 -3.3729  1.0628
 8835SOL    HW238142   2.963   1.011   8.833  0.1237 -0.5341  2.4838
 8836SOL     OW38143   2.792   4.301  12.148 -0.2480  0.2255  0.3556
 8836SOL    HW138144   2.886   4.316  12.134 -0.6415  1.7949 -0.5693
 8836SOL    HW238145   2.796   4.205  12.147 -1.6527  0.1921 -1.7164
 8837SOL     OW38146   0.949   0.633   3.406  0.2405  0.2063  0.0158
 8837SOL    HW138147   0.869   0.669   3.367 -0.3459  0.2562  1.2730
 8837SOL    HW238148   0.955   0.544   3.369  3.5369  0.5737 -0.3280
 8838SOL     OW38149   2.858   2.602   6.028 -0.3774  0.0864  0.2619
 8838SOL    HW138150   2.847   2.588   5.934 -0.3071 -1.3082  0.4579
 8838SOL    HW238151   2.890   2.692   6.034 -1.1546  0.4012 -0.1774
 8839SOL     OW38152   2.465   3.287   4.980 -0.0216  0.0149 -0.0334
 8839SOL    HW138153   2.553   3.261   4.955  0.3830  2.2708 -0.9588
 8839SOL    HW238154   2.475   3.343   5.057 -2.0851  2.5235 -1.5754
 8840SOL     OW38155   3.713   2.911   7.807 -0.6279 -0.0169  0.0104
 8840SOL    HW138156   3.760   2.874   7.732 -1.0444 -0.3522 -0.0840
 8840SOL    HW238157   3.704   3.002   7.779  0.6310 -0.1172 -0.7520
 8841SOL     OW38158   0.409   0.434  13.270 -0.1187  0.3821  0.0848
 8841SOL    HW138159   0.494   0.474  13.290 -1.8918  1.7185  4.9374
 8841SOL    HW238160   0.420   0.340  13.286  2.6365  0.5988 -0.4601
 8842SOL     OW38161   0.242   3.218   3.210 -0.3256  0.1393  0.2925
 8842SOL    HW138162   0.190   3.253   3.137  0.6522 -2.6520 -1.7212
 8842SOL    HW238163   0.244   3.129   3.176  3.0800 -0.2766  1.6332
 8843SOL     OW38164   4.461   3.930   6.936  0.3908  1.0016 -0.0382
 8843SOL    HW138165   4.451   3.970   7.022 -0.6712 -1.6696  1.0731
 8843SOL    HW238166   4.511   3.852   6.960 -0.9803 -0.2828 -1.3437
 8844SOL     OW38167   0.593   1.086   0.362 -0.3467  0.4377 -0.5169
 8844SOL    HW138168   0.555   1.020   0.304  1.6611  0.5165 -1.9259
 8844SOL    HW238169   0.646   1.142   0.305  0.2884  1.7492  1.3713
 8845SOL     OW38170   2.714   2.602   6.284 -0.0933  0.2640 -0.4426
 8845SOL    HW138171   2.731   2.621   6.192  1.1720 -1.1058 -0.4769
 8845SOL    HW238172   2.785   2.543   6.308 -0.0461  0.6649  0.3897
 8846SOL     OW38173   3.806   1.570   7.911 -0.1094 -0.3112  0.3530
 8846SOL    HW138174   3.757   1.492   7.886 -0.2581 -0.9685  2.7483
 8846SOL    HW238175   3.837   1.562   8.001  2.0554  0.7471 -0.3068
 8847SOL     OW38176   0.378   2.689  16.673  0.0496 -0.2604  0.5090
 8847SOL    HW138177   0.342   2.651  16.593  2.4614 -1.5370  0.0499
 8847SOL    HW238178   0.374   2.779  16.639 -1.0354 -0.5348 -0.0894
 8848SOL     OW38179   0.222   3.560   7.805  0.0583 -0.0291 -0.0411
 8848SOL    HW138180   0.249   3.509   7.729  1.4308 -0.3437  0.6573
 8848SOL    HW238181   0.155   3.499   7.838 -1.3323  0.8927 -1.1424
 8849SOL     OW38182   2.202   3.248   7.428  0.3002 -0.6174 -0.1488
 8849SOL    HW138183   2.110   3.263   7.446  0.6230 -0.2878  1.1754
 8849SOL    HW238184   2.194   3.152   7.425  1.3529 -0.7160  0.0968
 8850SOL     OW38185   0.501   4.502   8.771 -0.2890  0.1083  0.4290
 8850SOL    HW138186   0.519   4.426   8.827 -1.5872 -1.0306 -0.6852
 8850SOL    HW238187   0.454   4.461   8.698  0.9920  1.2526 -1.0203
 8851SOL     OW38188   4.126   1.351   1.613  0.0222 -0.1396  0.2487
 8851SOL    HW138189   4.060   1.359   1.543 -0.1414  1.2857  0.5702
 8851SOL    HW238190   4.127   1.441   1.645 -0.3686 -0.2604  0.6005
 8852SOL     OW38191   0.804   2.658   1.128  0.4687  0.0414 -0.3081
 8852SOL    HW138192   0.738   2.602   1.169 -0.4893  0.7405 -0.8954
 8852SOL    HW238193   0.812   2.601   1.051 -0.6113 -2.1362  1.1920
 8853SOL     OW38194   1.746   2.175   0.396  0.3724  0.3453 -0.2926
 8853SOL    HW138195   1.694   2.187   0.476 -0.5717  3.2371 -1.3393
 8853SOL    HW238196   1.766   2.268   0.384  0.2308  0.1759 -1.8272
 8854SOL     OW38197   2.687   3.173   6.124  0.0442  0.0617 -0.2212
 8854SOL    HW138198   2.713   3.173   6.216  0.0798 -0.3607 -0.2299
 8854SOL    HW238199   2.628   3.098   6.110  0.8196 -0.6658  0.4106
 8855SOL     OW38200   4.517   2.407   3.607  0.1484  0.4199  0.2653
 8855SOL    HW138201   4.553   2.444   3.527  1.2221  3.3393  2.0859
 8855SOL    HW238202   4.462   2.340   3.567  0.8363  0.9432 -1.5632
 8856SOL     OW38203   1.154   1.193   8.388  0.1790 -0.4268 -0.1418
 8856SOL    HW138204   1.234   1.244   8.389  0.5591 -1.0022 -1.3113
 8856SOL    HW238205   1.141   1.190   8.483  0.2941 -1.5316 -0.1569
 8857SOL     OW38206   0.239   0.254   9.128 -0.2760 -0.6532 -0.2375
 8857SOL    HW138207   0.248   0.234   9.222  2.6670  0.5277 -0.2740
 8857SOL    HW238208   0.236   0.349   9.135  1.4561 -0.5788 -0.5508
 8858SOL     OW38209   2.410   2.474   8.552 -0.1728  0.3548  0.9854
 8858SOL    HW138210   2.487   2.418   8.550  0.7293  1.6740 -0.9203
 8858SOL    HW238211   2.340   2.411   8.538 -1.5643  2.3301 -0.9150
 8859SOL     OW38212   1.466   1.581   7.297  0.0515  0.1559 -0.7586
 8859SOL    HW138213   1.509   1.496   7.287 -1.0487 -0.4306 -0.5578
 8859SOL    HW238214   1.515   1.638   7.239  3.0499 -0.3811  1.2572
 8860SOL     OW38215   3.175   4.652   8.155  0.8971  0.2603 -0.5111
 8860SOL    HW138216   3.247   4.619   8.101  0.2658 -0.3173 -1.0063
 8860SOL    HW238217   3.217   4.657   8.241  2.4431  3.0258 -1.4257
 8861SOL     OW38218   0.181   3.084   3.543  0.8497 -0.7440  0.5262
 8861SOL    HW138219   0.087   3.093   3.557  0.6909  0.8848 -1.5768
 8861SOL    HW238220   0.216   3.173   3.548 -0.6899 -0.1539  0.7248
 8862SOL     OW38221   3.657   2.990   2.384  0.1852  0.6319  0.4273
 8862SOL    HW138222   3.745   3.027   2.379  1.1211 -1.5983  0.5454
 8862SOL    HW238223   3.630   3.019   2.297  1.4460 -0.4644 -0.3244
 8863SOL     OW38224   2.933   0.263   3.694  0.4471  0.3016  0.0829
 8863SOL    HW138225   2.993   0.289   3.624  2.9551 -1.0292  1.7657
 8863SOL    HW238226   2.901   0.349   3.723  1.0143  0.1332  1.1761
 8864SOL     OW38227   0.056   4.621  10.295 -0.1019 -0.0446 -0.1280
 8864SOL    HW138228   0.065   4.539  10.345 -1.2525  1.1559  2.0460
 8864SOL    HW238229   0.013   4.673  10.364 -0.9465  1.1899 -1.5925
 8865SOL     OW38230   4.266   1.233   3.823  0.2003  0.1234 -0.1107
 8865SOL    HW138231   4.347   1.229   3.875 -0.3395 -0.2339  0.6933
 8865SOL    HW238232   4.265   1.326   3.800 -2.3167 -0.2502 -1.5111
 8866SOL     OW38233   2.992   1.379   6.247  0.8639  0.2635  0.4781
 8866SOL    HW138234   2.915   1.337   6.285 -0.6465  4.2347  1.7725
 8866SOL    HW238235   3.027   1.316   6.183 -1.6276  1.6545 -2.2600
 8867SOL     OW38236   2.349   3.508   3.430  0.1002  0.2129  0.1759
 8867SOL    HW138237   2.434   3.464   3.423 -0.1346 -0.1849 -0.1201
 8867SOL    HW238238   2.376   3.592   3.468  0.1689  0.8333 -1.2580
 8868SOL     OW38239   2.226   0.374   7.122 -0.2311 -0.0697 -0.3284
 8868SOL    HW138240   2.173   0.296   7.110 -0.3519  0.2022 -1.5905
 8868SOL    HW238241   2.251   0.383   7.030 -1.3037 -0.1335 -0.6228
 8869SOL     OW38242   1.947   3.788   9.036 -0.1219 -0.5076 -0.2722
 8869SOL    HW138243   1.912   3.852   9.098  0.7334 -0.9929  0.7052
 8869SOL    HW238244   2.040   3.813   9.036 -0.5195  0.9746  0.5466
 8870SOL     OW38245   0.941   3.767   8.701 -0.6309 -0.4671 -0.2837
 8870SOL    HW138246   0.953   3.683   8.656 -2.0214  0.5025 -2.4514
 8870SOL    HW238247   0.862   3.795   8.655 -1.0365  0.4543  0.9694
 8871SOL     OW38248   1.836   1.508   7.021 -0.4258  0.3192  0.0545
 8871SOL    HW138249   1.868   1.521   7.110 -2.7289 -0.3125  0.9640
 8871SOL    HW238250   1.873   1.580   6.970  0.0377 -0.7501 -1.1448
 8872SOL     OW38251   3.111   1.157   7.661  0.3619 -0.4910 -0.2505
 8872SOL    HW138252   3.073   1.094   7.600  0.1226 -1.0575  0.4925
 8872SOL    HW238253   3.066   1.238   7.636  0.4242 -0.5825 -0.6530
 8873SOL     OW38254   3.187   1.917   9.741  0.5657  0.5851  0.3827
 8873SOL    HW138255   3.279   1.897   9.756  0.6440 -1.8481 -3.3461
 8873SOL    HW238256   3.170   1.823   9.727  0.8388  0.6254 -0.2146
 8874SOL     OW38257   1.580   4.618   6.364 -0.9248  0.1207  0.3758
 8874SOL    HW138258   1.565   4.537   6.315  1.4821  0.3779 -0.8133
 8874SOL    HW238259   1.501   4.632   6.415 -1.9071 -0.1906 -1.0782
 8875SOL     OW38260   3.063   3.728   2.222  0.3008  0.1323 -0.8697
 8875SOL    HW138261   3.152   3.710   2.251 -0.5376  2.7580  3.4460
 8875SOL    HW238262   3.058   3.810   2.271 -1.3570 -0.5211  0.0509
 8876SOL     OW38263   4.060   3.078  15.141 -0.1841  0.4857 -0.1661
 8876SOL    HW138264   3.991   3.012  15.155  1.8132 -1.7923 -1.1276
 8876SOL    HW238265   4.105   3.036  15.068 -2.9913 -0.2804 -1.4474
 8877SOL     OW38266   3.167   4.738   2.029  0.0068  0.4116 -0.5034
 8877SOL    HW138267   3.161   0.069   2.093 -1.9904  1.6461 -2.0600
 8877SOL    HW238268   3.104   4.674   2.064  1.0556  0.4302  1.4032
 8878SOL     OW38269   3.500   4.231   2.082  0.0567 -0.4516  0.3784
 8878SOL    HW138270   3.564   4.227   2.011 -1.3705  1.8907 -1.0577
 8878SOL    HW238271   3.423   4.207   2.030  0.0271  0.3142  0.0611
 8879SOL     OW38272   4.626   3.645   3.128  0.3361  0.4275 -0.2532
 8879SOL    HW138273   4.590   3.705   3.193 -0.2024 -2.4466  2.0928
 8879SOL    HW238274   4.647   3.707   3.057 -1.3557 -0.3429 -1.4287
 8880SOL     OW38275   3.860   3.072  14.815 -0.3390  0.1477 -0.3665
 8880SOL    HW138276   3.944   3.032  14.837  0.7078  1.5721 -1.7600
 8880SOL    HW238277   3.887   3.164  14.817  0.5480 -0.0775 -2.0339
 8881SOL     OW38278   4.490   3.322   9.307 -0.1571 -0.3165 -0.0335
 8881SOL    HW138279   4.524   3.254   9.364  0.5975 -1.1373 -1.4687
 8881SOL    HW238280   4.456   3.264   9.239  0.2729 -0.9141  0.2674
 8882SOL     OW38281   0.198   2.425  11.413 -0.1966  0.0634 -0.0180
 8882SOL    HW138282   0.232   2.394  11.329 -0.9001  3.4031 -1.5074
 8882SOL    HW238283   0.227   2.516  11.420  0.2448 -0.2394  2.0679
 8883SOL     OW38284   3.040   4.657  17.706 -0.3245  0.2130 -0.3389
 8883SOL    HW138285   3.008   4.619   0.030  0.7178  2.0792  0.9281
 8883SOL    HW238286   3.025   0.009  17.722 -1.3341 -0.1483  0.7604
 8884SOL     OW38287   4.368   2.104   8.535 -0.0078  0.1689 -0.1945
 8884SOL    HW138288   4.344   2.129   8.445 -1.6928 -2.4025 -0.4643
 8884SOL    HW238289   4.366   2.182   8.590  1.9308 -0.3106  0.5469
 8885SOL     OW38290   2.922   4.234   9.881 -0.0514  0.0149  0.1131
 8885SOL    HW138291   2.926   4.306   9.818  1.2881  0.5755  0.8543
 8885SOL    HW238292   2.878   4.175   9.819  1.1509  1.1299 -1.7984
 8886SOL     OW38293   3.731   4.621   4.439  0.0817  0.2736 -0.4739
 8886SOL    HW138294   3.739   4.569   4.519 -0.1067  4.1476  2.0811
 8886SOL    HW238295   3.693   4.706   4.460  1.6540  0.8707 -0.0816
 8887SOL     OW38296   1.049   1.341   3.374  0.0904 -0.3664 -0.5832
 8887SOL    HW138297   0.973   1.344   3.432  0.5014 -0.9653 -0.0147
 8887SOL    HW238298   1.069   1.434   3.370  1.1851 -0.5730  0.0491
 8888SOL     OW38299   2.347   2.204   0.548 -0.3131  0.1990  0.2503
 8888SOL    HW138300   2.430   2.239   0.578  0.2501 -0.2783 -0.7465
 8888SOL    HW238301   2.363   2.194   0.454  0.4635 -0.4530  0.4526
 8889SOL     OW38302   2.973   2.974  17.094  0.9620 -0.6830  0.1873
 8889SOL    HW138303   3.050   2.978  17.037  1.2859 -1.5939  0.5753
 8889SOL    HW238304   2.902   2.948  17.035 -1.2046  2.4618  1.3882
 8890SOL     OW38305   3.235   2.797   3.299 -0.5110 -0.0532  0.1751
 8890SOL    HW138306   3.186   2.858   3.354 -1.6218 -1.4384  0.7191
 8890SOL    HW238307   3.164   2.762   3.246  1.3800  0.7164 -2.8667
 8891SOL     OW38308   4.446   1.087  11.172  0.0801 -0.7818  0.7355
 8891SOL    HW138309   4.524   1.033  11.181 -0.9643 -2.3844  0.2862
 8891SOL    HW238310   4.455   1.144  11.248 -2.2225  1.9536 -0.9946
 8892SOL     OW38311   3.140   1.942   8.549  0.5901 -0.3001  0.3467
 8892SOL    HW138312   3.053   1.935   8.587  0.4778 -0.0630  0.1305
 8892SOL    HW238313   3.151   2.037   8.546  0.7329 -0.3614 -1.1574
 8893SOL     OW38314   0.555   3.067  16.712 -0.0390 -0.1763  0.1247
 8893SOL    HW138315   0.524   3.155  16.736  1.5983  0.8744 -1.6072
 8893SOL    HW238316   0.519   3.023  16.790 -1.0210  0.3838 -0.0071
 8894SOL     OW38317   2.290   2.441   8.972 -0.1199 -0.1778 -0.1600
 8894SOL    HW138318   2.233   2.375   9.011 -0.1704 -0.5003 -0.7726
 8894SOL    HW238319   2.364   2.383   8.954 -0.1208  0.1864 -1.3691
 8895SOL     OW38320   1.463   1.522   7.998  0.0504  0.0590 -0.5969
 8895SOL    HW138321   1.484   1.452   8.060  1.2669  1.1286  0.2121
 8895SOL    HW238322   1.478   1.596   8.058 -2.3650  0.8676 -1.0267
 8896SOL     OW38323   1.327   1.146   7.762 -0.2071  0.3505 -0.1388
 8896SOL    HW138324   1.412   1.142   7.719 -0.7975  0.9814 -1.3770
 8896SOL    HW238325   1.300   1.237   7.747  0.4606  0.6985  0.7739
 8897SOL     OW38326   2.388   4.580  17.142 -0.3965  0.3778  0.1393
 8897SOL    HW138327   2.354   4.491  17.130  0.5464 -0.1995  1.8005
 8897SOL    HW238328   2.350   4.606  17.227  1.0218  0.8067  0.6374
 8898SOL     OW38329   0.759   2.861   6.942  0.4444 -0.0152  0.0278
 8898SOL    HW138330   0.821   2.933   6.942 -1.7866  1.9123  0.7788
 8898SOL    HW238331   0.823   2.790   6.947 -0.1109 -0.5144  0.1660
 8899SOL     OW38332   2.955   1.883  10.677  0.0180  0.0509  0.2716
 8899SOL    HW138333   2.932   1.891  10.585 -2.0434 -1.3072  0.6672
 8899SOL    HW238334   2.974   1.790  10.676  1.7966  0.4102  0.5236
 8900SOL     OW38335   1.082   4.495   9.489  0.3708  0.0979  0.5914
 8900SOL    HW138336   0.994   4.516   9.459  0.6122 -1.7332 -1.4192
 8900SOL    HW238337   1.138   4.525   9.417  2.2667 -2.3902  1.0497
 8901SOL     OW38338   3.525   1.640  14.459 -0.3483  0.6440  0.0875
 8901SOL    HW138339   3.448   1.605  14.413 -0.5097  0.0625  0.7814
 8901SOL    HW238340   3.466   1.668  14.529 -1.3167  0.9918 -0.8579
 8902SOL     OW38341   4.323   3.978   7.753  0.6334  0.1014  0.4193
 8902SOL    HW138342   4.312   3.914   7.824  0.3822  0.2908  0.5483
 8902SOL    HW238343   4.239   4.021   7.739 -0.7826 -2.4935  0.8905
 8903SOL     OW38344   3.158   0.577   6.968  0.5358  0.5881  0.3445
 8903SOL    HW138345   3.085   0.600   7.025 -0.2189  1.3578 -0.9331
 8903SOL    HW238346   3.173   0.486   6.994 -0.0436  0.4005  0.0313
 8904SOL     OW38347   2.560   0.401  10.669  0.5122  0.1509  0.2830
 8904SOL    HW138348   2.540   0.373  10.580  1.3098 -1.2692  0.5366
 8904SOL    HW238349   2.521   0.488  10.676  0.5038  0.1730 -0.0228
 8905SOL     OW38350   3.961   2.727   8.358  0.4193  0.2752  0.3919
 8905SOL    HW138351   3.940   2.765   8.272  1.2075 -1.9579 -0.8142
 8905SOL    HW238352   4.032   2.782   8.390 -1.2007  1.7598  1.4776
 8906SOL     OW38353   3.796   2.576   6.624 -0.1831 -0.0055  0.4539
 8906SOL    HW138354   3.706   2.566   6.654  0.5711 -0.3104  2.6266
 8906SOL    HW238355   3.825   2.663   6.652 -1.7673  1.1357 -1.5032
 8907SOL     OW38356   3.710   2.748   1.082  0.3463  0.3135  0.4095
 8907SOL    HW138357   3.712   2.714   0.992 -1.2835  0.3890  0.3419
 8907SOL    HW238358   3.795   2.718   1.116  0.6722  2.7460  1.7318
 8908SOL     OW38359   0.335   1.067   3.212 -0.4095 -0.0420 -0.4458
 8908SOL    HW138360   0.308   1.141   3.266  2.2118  1.6025 -1.4215
 8908SOL    HW238361   0.265   1.062   3.147  0.5950  0.5673 -1.5866
 8909SOL     OW38362   1.787   0.312   8.764 -0.1766 -0.0017 -0.1815
 8909SOL    HW138363   1.701   0.288   8.797 -0.6611  0.0317 -1.4212
 8909SOL    HW238364   1.768   0.398   8.726  0.2276 -0.2052 -0.8383
 8910SOL     OW38365   4.461   3.019   9.929  0.0767  0.0893  0.1256
 8910SOL    HW138366   4.399   3.020  10.002 -0.1930 -1.1057 -0.0886
 8910SOL    HW238367   4.509   3.102   9.937  0.9936 -0.2695 -1.6191
 8911SOL     OW38368   2.987   1.141   2.708 -0.2132  0.1402  0.2248
 8911SOL    HW138369   2.916   1.132   2.772 -0.3611  1.6436  0.2625
 8911SOL    HW238370   2.946   1.100   2.632 -1.1593  0.8949  0.3284
 8912SOL     OW38371   1.314   2.142   7.347 -0.2057 -0.1206 -0.3853
 8912SOL    HW138372   1.300   2.100   7.432 -1.4183  0.3798 -0.3452
 8912SOL    HW238373   1.357   2.074   7.294  0.1668  0.0364 -0.2868
 8913SOL     OW38374   4.108   2.761   6.033 -0.2565 -0.2513 -0.0470
 8913SOL    HW138375   4.125   2.708   5.956  0.0412 -0.7391  0.3540
 8913SOL    HW238376   4.015   2.736   6.037 -0.0971 -0.6566  1.2460
 8914SOL     OW38377   3.238   3.963   4.282  0.2704 -0.1129  0.4311
 8914SOL    HW138378   3.328   3.932   4.291  1.0722  2.3446  0.7232
 8914SOL    HW238379   3.226   4.016   4.361 -0.3380 -0.0527  0.3040
 8915SOL     OW38380   2.007   0.028   3.351  0.1002  0.4378  0.1962
 8915SOL    HW138381   2.009   0.116   3.313 -0.3825  0.3313 -0.0844
 8915SOL    HW238382   2.100   0.013   3.364 -0.1687 -1.1336  0.2665
 8916SOL     OW38383   4.169   2.576   5.788  0.4272  0.2737 -0.3258
 8916SOL    HW138384   4.260   2.548   5.780  0.2531  0.1496 -1.9780
 8916SOL    HW238385   4.153   2.624   5.707  2.3645  3.7300  1.3608
 8917SOL     OW38386   0.329   4.019   3.082 -0.0327  0.2039 -0.4564
 8917SOL    HW138387   0.344   3.987   2.993 -1.2415  0.6952 -0.8351
 8917SOL    HW238388   0.280   4.098   3.060 -1.5495 -0.2214  1.4713
 8918SOL     OW38389   3.730   4.678   6.817 -0.4946 -0.2858 -0.0538
 8918SOL    HW138390   3.808   4.677   6.761 -0.6929  0.7746 -0.3360
 8918SOL    HW238391   3.737   4.589   6.852  1.4140  0.2810  1.0194
 8919SOL     OW38392   1.854   0.837   6.471  0.1743 -0.4320  0.4247
 8919SOL    HW138393   1.847   0.743   6.489 -2.1361  0.2894  3.4084
 8919SOL    HW238394   1.941   0.863   6.502 -1.5528  3.1474  2.2754
 8920SOL     OW38395   3.730   0.190   7.232 -0.2975 -0.1897 -0.3805
 8920SOL    HW138396   3.725   0.193   7.136 -4.4637 -0.2863 -0.1760
 8920SOL    HW238397   3.649   0.231   7.263  1.1930  0.5016  2.5676
 8921SOL     OW38398   2.015   3.317   9.267  1.0782  0.1040 -0.5234
 8921SOL    HW138399   2.007   3.240   9.323 -1.9711  1.1157  0.3998
 8921SOL    HW238400   2.102   3.303   9.230  0.2919 -0.8543 -2.0240
 8922SOL     OW38401   0.889   0.893  15.383  0.0446 -0.0748  0.3529
 8922SOL    HW138402   0.796   0.879  15.402  0.2824 -1.4832  0.4817
 8922SOL    HW238403   0.878   0.929  15.295 -0.6500 -2.8550 -0.7251
 8923SOL     OW38404   3.614   3.080   7.170  0.2728  0.0743  0.2039
 8923SOL    HW138405   3.668   3.098   7.094  1.2265 -0.3588  0.7838
 8923SOL    HW238406   3.622   2.984   7.172  0.2775  0.0445 -1.6523
 8924SOL     OW38407   1.165   2.110   3.416 -0.0420  0.1314 -0.0999
 8924SOL    HW138408   1.147   2.201   3.437  1.1556  0.4380 -0.3604
 8924SOL    HW238409   1.092   2.057   3.449  1.2370 -0.6639  1.4731
 8925SOL     OW38410   1.355   4.211   6.034 -0.6884 -0.2130 -0.3079
 8925SOL    HW138411   1.437   4.261   6.029 -0.3443 -0.6235  1.3793
 8925SOL    HW238412   1.315   4.247   5.955 -1.1798  0.1979  0.1278
 8926SOL     OW38413   2.350   4.070   0.135 -0.3014  0.5140 -0.4097
 8926SOL    HW138414   2.286   4.020   0.186  0.9715 -0.8566 -0.1909
 8926SOL    HW238415   2.334   4.158   0.170  0.2810  0.1862  0.6814
 8927SOL     OW38416   1.713   3.760   5.280 -0.4376  0.1534 -0.2427
 8927SOL    HW138417   1.751   3.673   5.292  1.4586  0.9923 -0.2121
 8927SOL    HW238418   1.622   3.729   5.274 -0.3961  0.4341 -2.5978
 8928SOL     OW38419   1.079   2.216   8.486 -0.4443  0.0712  0.3230
 8928SOL    HW138420   1.069   2.137   8.538  0.9339 -0.4176 -0.1530
 8928SOL    HW238421   1.060   2.200   8.393  0.2300  0.5007  0.1089
 8929SOL     OW38422   2.348   3.056  15.288  0.0900  0.3312  0.4521
 8929SOL    HW138423   2.404   2.988  15.251 -1.4336 -1.0407  0.6784
 8929SOL    HW238424   2.396   3.138  15.275 -2.5173  1.5599 -1.4982
 8930SOL     OW38425   2.710   3.240   5.403 -0.1125  0.4668 -0.7510
 8930SOL    HW138426   2.652   3.213   5.332 -0.3924  3.2945 -1.5878
 8930SOL    HW238427   2.659   3.303   5.453 -0.9514 -0.2969 -0.6377
 8931SOL     OW38428   3.026   4.211  15.973  0.0533  0.0818 -0.0283
 8931SOL    HW138429   2.982   4.184  16.053  1.9798  1.0687  1.3672
 8931SOL    HW238430   2.952   4.260  15.937 -0.1316 -1.0982 -1.2679
 8932SOL     OW38431   2.154   1.357  14.602  0.2537 -0.1536  0.9818
 8932SOL    HW138432   2.209   1.418  14.650 -0.8512  0.7275  1.1393
 8932SOL    HW238433   2.189   1.357  14.513  1.1083 -4.8899  1.3151
 8933SOL     OW38434   0.578   3.198  14.639  0.0226 -0.3935  0.1345
 8933SOL    HW138435   0.644   3.214  14.572 -0.9720 -4.5793 -1.8269
 8933SOL    HW238436   0.503   3.239  14.595  0.7845  1.0084  0.1217
 8934SOL     OW38437   4.303   1.410   7.105  0.0968 -0.2651 -0.2279
 8934SOL    HW138438   4.227   1.383   7.157 -0.4052  1.4232 -0.0863
 8934SOL    HW238439   4.348   1.465   7.169 -3.9300  1.0396  1.5280
 8935SOL     OW38440   1.104   2.349   3.809 -0.3717 -0.0771  0.7788
 8935SOL    HW138441   1.178   2.408   3.795 -0.9748 -0.2061 -3.0112
 8935SOL    HW238442   1.048   2.396   3.747 -0.3117 -0.1517  0.6669
 8936SOL     OW38443   1.271   1.547  12.537  0.2442 -0.0913  0.3944
 8936SOL    HW138444   1.278   1.612  12.608 -2.2121  0.2565  0.3324
 8936SOL    HW238445   1.364   1.525  12.533  0.0310 -0.8774 -0.0280
 8937SOL     OW38446   1.414   0.083   2.275 -0.3635  0.0315  0.0156
 8937SOL    HW138447   1.492   0.053   2.230 -0.7762 -2.5923  1.0466
 8937SOL    HW238448   1.352   0.010   2.269 -0.1482 -0.2549  1.2560
 8938SOL     OW38449   2.979   0.995   7.220  0.0180 -0.0959  0.5519
 8938SOL    HW138450   2.943   0.911   7.192 -0.2680  1.0689 -2.6156
 8938SOL    HW238451   2.984   1.051   7.142  1.1765  0.6558  1.1624
 8939SOL     OW38452   2.024   0.636  17.339 -0.5130  0.1167 -0.2137
 8939SOL    HW138453   2.077   0.715  17.349  0.1368 -0.3983  0.4303
 8939SOL    HW238454   1.956   0.669  17.398  2.3950 -1.1238  3.9015
 8940SOL     OW38455   3.623   4.341   4.892 -0.2723 -0.6557 -0.2372
 8940SOL    HW138456   3.540   4.386   4.905  0.5298  1.4941 -2.4587
 8940SOL    HW238457   3.677   4.367   4.967 -2.2743 -0.4136  1.1099
 8941SOL     OW38458   3.011   1.810   0.988 -0.0642 -0.1011 -0.0925
 8941SOL    HW138459   2.952   1.743   0.953 -0.7321  0.2509  0.3546
 8941SOL    HW238460   2.963   1.866   1.050 -1.4816 -0.2789 -1.0258
 8942SOL     OW38461   2.649   2.018   1.073  0.0139  0.3972  0.1763
 8942SOL    HW138462   2.709   2.089   1.097  0.7410 -0.2741  0.3581
 8942SOL    HW238463   2.644   2.025   0.978  0.7518  1.6423  0.2262
 8943SOL     OW38464   3.011   3.357   0.860  1.0719 -0.1620  0.2547
 8943SOL    HW138465   3.038   3.272   0.894  1.8095  0.0066  0.0956
 8943SOL    HW238466   3.030   3.346   0.767  0.1297  1.1982 -0.1074
 8944SOL     OW38467   4.519   2.016   2.871 -0.0806  0.4185 -0.3752
 8944SOL    HW138468   4.466   2.083   2.913  0.8189 -0.1543  1.6981
 8944SOL    HW238469   4.460   1.988   2.802  0.7366  0.6225 -1.1632
 8945SOL     OW38470   4.020   3.632   7.667  0.3981  0.1229 -0.3843
 8945SOL    HW138471   3.925   3.641   7.664  0.1985 -2.2698 -0.6724
 8945SOL    HW238472   4.024   3.544   7.632 -0.3713 -0.2256  0.4097
 8946SOL     OW38473   0.012   3.188   8.437  0.6180  0.2383 -0.1192
 8946SOL    HW138474   4.657   3.188   8.450  0.6523 -0.3883  0.1364
 8946SOL    HW238475   0.045   3.264   8.485  2.7961 -2.2851  2.3556
 8947SOL     OW38476   0.010   1.596  15.310  0.8234  0.1494  0.8439
 8947SOL    HW138477   4.698   1.580  15.388  0.8616 -1.9037  0.4357
 8947SOL    HW238478   4.685   1.620  15.244 -0.1702 -2.8559  0.7478
 8948SOL     OW38479   0.426   1.910  10.951  0.1194  0.0561  0.3055
 8948SOL    HW138480   0.478   1.983  10.918  0.2583  1.2729  3.2860
 8948SOL    HW238481   0.411   1.932  11.043  1.3728  1.0621  0.2693
 8949SOL     OW38482   3.976   3.453   7.308  0.0475  0.2125  0.5062
 8949SOL    HW138483   4.055   3.487   7.351 -1.0084  3.3167 -0.0134
 8949SOL    HW238484   3.926   3.534   7.300  0.9157  0.2403 -5.0251
 8950SOL     OW38485   0.986   1.251   5.089  0.4977 -0.2151 -0.4181
 8950SOL    HW138486   1.026   1.326   5.046 -1.9075  1.6284  0.5425
 8950SOL    HW238487   0.970   1.292   5.174  0.7989  0.0868 -0.5084
 8951SOL     OW38488   0.987   2.694   5.262  0.2753 -0.1360 -0.7289
 8951SOL    HW138489   0.903   2.683   5.217  1.1448 -1.7157 -1.9493
 8951SOL    HW238490   1.017   2.603   5.262 -0.3840 -0.3496  0.4193
 8952SOL     OW38491   3.221   4.526   8.797 -0.9773 -0.2732  0.5321
 8952SOL    HW138492   3.249   4.436   8.811  1.9422  0.3148 -1.5088
 8952SOL    HW238493   3.269   4.541   8.715  0.0466  0.6349  1.2971
 8953SOL     OW38494   1.045   3.655   1.534  0.1217 -0.0760 -0.3742
 8953SOL    HW138495   1.028   3.701   1.616 -0.3255  0.8940 -1.0149
 8953SOL    HW238496   1.135   3.681   1.514 -0.0379  0.7971  0.0665
 8954SOL     OW38497   4.050   3.315   4.352 -0.9162  0.3641 -0.0259
 8954SOL    HW138498   4.067   3.301   4.445 -2.3497  0.6349  0.2839
 8954SOL    HW238499   3.959   3.287   4.345 -0.5272 -0.5123 -1.7119
 8955SOL     OW38500   0.812   2.780   3.183 -0.2089  0.1931 -0.3421
 8955SOL    HW138501   0.820   2.871   3.213 -2.5544 -0.6156  2.7141
 8955SOL    HW238502   0.882   2.775   3.118  0.1258  3.8678 -0.2768
 8956SOL     OW38503   4.566   4.374   4.501  0.0418  0.0782 -0.5208
 8956SOL    HW138504   4.615   4.382   4.419  1.5043  1.3017  0.4672
 8956SOL    HW238505   4.619   4.444   4.540  1.1835 -1.3450  0.4519
 8957SOL     OW38506   4.684   1.140  14.664  0.0374 -0.1612  0.3884
 8957SOL    HW138507   4.632   1.112  14.588  1.6078  0.8244 -1.0434
 8957SOL    HW238508   0.024   1.172  14.622 -0.6200  0.0619 -0.7130
 8958SOL     OW38509   2.667   3.659   9.263  0.3680 -0.0061 -0.1173
 8958SOL    HW138510   2.741   3.659   9.203  3.0248 -2.6768  3.1694
 8958SOL    HW238511   2.706   3.646   9.349  0.7840 -1.0455 -0.4682
 8959SOL     OW38512   0.975   2.119   9.983 -0.6548  0.3085  0.2227
 8959SOL    HW138513   0.929   2.068   9.917  1.6223 -0.9830 -0.3555
 8959SOL    HW238514   1.063   2.085   9.964  0.0256  0.3529  3.2929
 8960SOL     OW38515   1.066   3.871   2.906 -0.8711 -0.0782 -0.7207
 8960SOL    HW138516   1.096   3.945   2.853  1.9189 -0.7874 -0.0923
 8960SOL    HW238517   0.997   3.924   2.947  0.5015  0.0127  1.4817
 8961SOL     OW38518   0.728   1.225   2.689 -0.4929  0.0225 -0.1082
 8961SOL    HW138519   0.753   1.194   2.602  2.6527  0.7022  0.5305
 8961SOL    HW238520   0.693   1.309   2.659  0.8629 -0.2299 -2.4118
 8962SOL     OW38521   4.603   0.716   3.722 -0.0362  0.1067  0.0774
 8962SOL    HW138522   4.694   0.734   3.700 -0.5063 -0.6582 -2.5414
 8962SOL    HW238523   4.553   0.777   3.667 -2.1716  0.9501  2.9510
 8963SOL     OW38524   2.357   3.020  12.907  0.3245  0.2403  0.2263
 8963SOL    HW138525   2.354   3.050  12.816 -1.7177  1.1151  0.5909
 8963SOL    HW238526   2.350   3.101  12.957 -0.3281 -0.4060  1.1861
 8964SOL     OW38527   0.726   4.293   6.130  0.2011 -0.2438  0.1400
 8964SOL    HW138528   0.746   4.309   6.038 -1.5305  0.3987 -0.1084
 8964SOL    HW238529   0.807   4.249   6.159  0.5778  1.7968  2.1617
 8965SOL     OW38530   1.894   1.619   0.434  0.0553  0.7193 -0.2529
 8965SOL    HW138531   1.970   1.670   0.404  2.2810 -2.4689 -0.0625
 8965SOL    HW238532   1.939   1.584   0.511 -0.6845  0.8928  0.2625
 8966SOL     OW38533   4.061   2.542  16.316 -0.5113 -0.5843 -0.2236
 8966SOL    HW138534   4.091   2.492  16.392  0.6902  4.0288  2.3060
 8966SOL    HW238535   3.992   2.484  16.283 -1.8796  1.1798 -0.4535
 8967SOL     OW38536   2.204   3.024   5.780  0.2713  0.3196  0.0197
 8967SOL    HW138537   2.191   3.105   5.731 -1.8124 -0.4544 -0.7282
 8967SOL    HW238538   2.299   3.016   5.777  0.2683  0.3129 -0.0894
 8968SOL     OW38539   3.383   3.768  14.177 -0.2488 -0.2557  0.6352
 8968SOL    HW138540   3.377   3.718  14.096  0.2836 -3.1815  2.4046
 8968SOL    HW238541   3.303   3.745  14.225 -2.1235  0.8804 -1.9165
 8969SOL     OW38542   2.558   3.397  13.158  0.0260  0.3450  0.0556
 8969SOL    HW138543   2.476   3.392  13.207 -0.1111 -0.1921 -0.2249
 8969SOL    HW238544   2.623   3.378  13.225 -1.5533 -0.8852  1.2666
 8970SOL     OW38545   1.915   0.315   4.349 -0.3429  0.0425 -0.4928
 8970SOL    HW138546   1.998   0.302   4.304 -0.0393 -2.3469  0.7640
 8970SOL    HW238547   1.941   0.319   4.441  0.6404  2.4949 -0.8776
 8971SOL     OW38548   4.588   3.732   7.026 -0.5037 -0.4496 -0.2491
 8971SOL    HW138549   4.672   3.718   7.069  1.1816 -0.1043 -3.4406
 8971SOL    HW238550   4.565   3.650   6.982  0.1252 -0.7098 -0.0896
 8972SOL     OW38551   2.478   1.013   3.782  0.1445  0.3594  0.4766
 8972SOL    HW138552   2.449   0.922   3.786 -1.0601  0.7487  0.6361
 8972SOL    HW238553   2.440   1.049   3.862 -0.6318 -2.4061  1.3432
 8973SOL     OW38554   1.135   2.578   4.296  0.2343 -0.2103  0.3102
 8973SOL    HW138555   1.143   2.524   4.375 -1.7787  0.5257  1.0269
 8973SOL    HW238556   1.208   2.549   4.243 -0.7566  0.2118 -1.2771
 8974SOL     OW38557   4.163   0.933  16.241 -0.2248  0.7364  0.5425
 8974SOL    HW138558   4.164   0.851  16.193  0.4398  1.2240 -0.2897
 8974SOL    HW238559   4.102   0.909  16.310 -0.9120 -0.0162 -0.3262
 8975SOL     OW38560   1.314   0.635   6.913 -0.1161  0.0388 -0.5651
 8975SOL    HW138561   1.277   0.657   6.999  0.5997  0.5619 -0.3928
 8975SOL    HW238562   1.369   0.712   6.913  1.6823 -1.2496 -0.7880
 8976SOL     OW38563   1.888   1.071   1.988  0.0630  0.1812 -0.3651
 8976SOL    HW138564   1.826   1.052   1.918 -1.0815 -0.8351  0.9216
 8976SOL    HW238565   1.905   1.164   2.005 -0.5718  0.3045 -0.4306
 8977SOL     OW38566   2.781   3.722  12.148 -0.1572 -0.0233 -0.0195
 8977SOL    HW138567   2.820   3.714  12.061 -1.6472  1.3776 -0.8153
 8977SOL    HW238568   2.847   3.679  12.204 -1.0018 -0.4650  0.6368
 8978SOL     OW38569   4.391   1.630   7.242 -0.1440 -0.3186  0.4895
 8978SOL    HW138570   4.467   1.624   7.299 -0.1142 -0.3607  0.4448
 8978SOL    HW238571   4.355   1.713   7.274  1.3773 -0.8673  3.6848
 8979SOL     OW38572   2.791   1.254   4.662 -0.0178  0.2826  0.0954
 8979SOL    HW138573   2.820   1.334   4.706  1.7551 -1.1325  1.5299
 8979SOL    HW238574   2.846   1.187   4.703 -2.2015 -2.1101 -0.9194
 8980SOL     OW38575   3.278   1.273   2.559  0.2217 -0.2439  0.0087
 8980SOL    HW138576   3.325   1.356   2.554 -1.4003  0.5638 -1.6938
 8980SOL    HW238577   3.284   1.244   2.468  1.2108 -0.3354  0.1046
 8981SOL     OW38578   2.390   3.218   1.318  0.0620  0.0941  0.3429
 8981SOL    HW138579   2.348   3.163   1.384  0.0418 -2.7233 -2.0328
 8981SOL    HW238580   2.450   3.270   1.371  2.5132 -1.5333 -0.8242
 8982SOL     OW38581   0.843   4.142   2.244 -0.2114  0.5426  0.3460
 8982SOL    HW138582   0.748   4.156   2.238 -0.3230 -0.6704 -0.6343
 8982SOL    HW238583   0.865   4.215   2.302  0.3486  1.7234 -1.3681
 8983SOL     OW38584   4.668   4.645   4.166  0.1682  0.3832  0.1587
 8983SOL    HW138585   4.625   4.663   4.250 -0.5692 -0.1270 -0.1121
 8983SOL    HW238586   4.699   4.556   4.175 -2.6805 -0.6603 -0.3407
 8984SOL     OW38587   2.573   2.317  13.065  0.2423 -0.2135 -0.1429
 8984SOL    HW138588   2.622   2.399  13.066  1.1328 -0.7452 -0.2202
 8984SOL    HW238589   2.605   2.288  13.150 -1.1599  0.4219  0.6157
 8985SOL     OW38590   0.220   3.207  17.210  0.0114  0.2724 -0.3122
 8985SOL    HW138591   0.284   3.149  17.252 -0.5685 -0.9290 -1.0723
 8985SOL    HW238592   0.271   3.283  17.183 -1.4321  0.9245 -1.2248
 8986SOL     OW38593   1.274   0.426   6.763 -0.1993  0.0163  0.6251
 8986SOL    HW138594   1.284   0.486   6.838 -0.5977  0.3376  0.4203
 8986SOL    HW238595   1.201   0.463   6.714  1.2306  1.4383 -0.4415
 8987SOL     OW38596   4.716   3.919   5.499 -0.1324 -0.4786 -0.4050
 8987SOL    HW138597   4.724   3.899   5.406  0.6360  0.4598 -0.5335
 8987SOL    HW238598   4.717   4.014   5.500  0.3799 -0.4793 -1.7845
 8988SOL     OW38599   2.008   4.593   0.376  0.2876 -0.8526 -0.1179
 8988SOL    HW138600   1.921   4.581   0.337  1.6426 -2.7859 -2.4969
 8988SOL    HW238601   2.061   4.563   0.302  0.4591 -0.5815 -0.1064
 8989SOL     OW38602   1.453   1.285   2.676  0.6879  0.2189  0.1090
 8989SOL    HW138603   1.432   1.304   2.585 -0.7368  1.5177  0.7000
 8989SOL    HW238604   1.527   1.343   2.693 -0.2842  1.2731  0.8277
 8990SOL     OW38605   0.021   2.307   4.328  0.3937 -0.7702 -0.4006
 8990SOL    HW138606   0.078   2.348   4.393 -1.8747 -0.0572  1.1605
 8990SOL    HW238607   4.739   2.380   4.270 -1.4099 -0.5332  0.5699
 8991SOL     OW38608   0.858   3.990   4.771  0.0313  0.4125 -0.2126
 8991SOL    HW138609   0.859   4.079   4.805  1.1140  0.6611 -0.8883
 8991SOL    HW238610   0.808   4.002   4.690 -1.4520 -2.6798  0.2590
 8992SOL     OW38611   4.301   2.471  15.410  0.0470  0.3432 -0.3308
 8992SOL    HW138612   4.254   2.465  15.493 -1.5633 -0.8824 -1.3265
 8992SOL    HW238613   4.281   2.555  15.369  0.9720  0.2720 -0.9203
 8993SOL     OW38614   3.019   1.631   1.274 -0.1362  0.6398 -0.2672
 8993SOL    HW138615   2.949   1.668   1.219 -1.2174  0.9184  1.2906
 8993SOL    HW238616   3.066   1.712   1.296 -0.3421  0.6837  0.0040
 8994SOL     OW38617   0.731   2.188   5.872 -0.2505 -0.5834  0.2965
 8994SOL    HW138618   0.825   2.206   5.866 -0.2556 -0.7961 -0.3229
 8994SOL    HW238619   0.691   2.244   5.806  2.2134 -1.0414 -1.5520
 8995SOL     OW38620   1.140   4.138   8.167 -0.1580  0.3195 -0.6902
 8995SOL    HW138621   1.210   4.112   8.227 -0.5691 -1.9561 -1.1862
 8995SOL    HW238622   1.065   4.160   8.223  0.0644 -0.1364 -0.2100
 8996SOL     OW38623   3.441   4.603   8.083  0.1105  0.0662  0.2138
 8996SOL    HW138624   3.476   4.588   7.996  0.5130  1.0555  0.2090
 8996SOL    HW238625   3.525   4.621   8.125  0.5033 -0.6956 -0.2595
 8997SOL     OW38626   1.282   4.047   0.761 -0.1245 -0.3397 -0.1094
 8997SOL    HW138627   1.314   4.129   0.724  1.5825 -0.7179  0.5059
 8997SOL    HW238628   1.297   3.988   0.687 -1.9441  0.9557 -1.4858
 8998SOL     OW38629   1.607   1.421   6.706  0.0997  0.3591 -0.1415
 8998SOL    HW138630   1.701   1.407   6.702 -0.0568 -0.1382 -2.1873
 8998SOL    HW238631   1.597   1.506   6.662  1.6031  1.2576  1.2563
 8999SOL     OW38632   0.316   4.653   6.867 -0.2803  0.1321 -0.0969
 8999SOL    HW138633   0.372   4.581   6.836  1.2803  1.0118  0.6967
 8999SOL    HW238634   0.284   4.686   6.783  0.0688 -1.2778 -0.7897
 9000SOL     OW38635   2.293   2.660   1.915  0.0119 -0.1921  1.0318
 9000SOL    HW138636   2.301   2.569   1.887 -0.5078 -0.2010  0.9019
 9000SOL    HW238637   2.317   2.654   2.008  2.1416 -2.3569  0.3522
 9001SOL     OW38638   2.657   2.978   1.223  0.2243 -0.2996  0.1294
 9001SOL    HW138639   2.708   2.978   1.142  0.4370  0.7892  0.2551
 9001SOL    HW238640   2.595   2.906   1.211 -0.4330  0.4571 -1.1018
 9002SOL     OW38641   2.318   4.696   5.799  0.1522  0.6641 -0.1147
 9002SOL    HW138642   2.262   0.018   5.752  0.2718 -0.3484 -1.6167
 9002SOL    HW238643   2.290   4.718   5.887  0.8182 -0.8143  0.4601
 9003SOL     OW38644   3.648   4.081  15.477  0.4637  0.6524  0.1029
 9003SOL    HW138645   3.712   4.036  15.533 -2.6600 -1.8149  1.6951
 9003SOL    HW238646   3.644   4.166  15.522 -0.1970  1.3922 -1.3492
 9004SOL     OW38647   0.296   1.903   3.868  0.5089 -0.2046 -0.5732
 9004SOL    HW138648   0.222   1.910   3.928 -0.0876 -4.4092 -0.7661
 9004SOL    HW238649   0.308   1.994   3.843  1.4998 -0.6187 -1.6416
 9005SOL     OW38650   0.780   0.152   7.274 -0.1199  0.0047  0.6673
 9005SOL    HW138651   0.693   0.142   7.234 -0.4753  0.7940  1.2418
 9005SOL    HW238652   0.779   0.072   7.326  0.2579 -0.9700 -0.7993
 9006SOL     OW38653   1.033   2.763   7.046 -0.3766  0.1022 -0.6637
 9006SOL    HW138654   1.084   2.844   7.044 -0.8878  0.3919 -2.1005
 9006SOL    HW238655   1.089   2.704   6.995  1.1339  1.6848 -0.8360
 9007SOL     OW38656   4.190   3.906   6.029  0.4889 -0.0549 -0.6182
 9007SOL    HW138657   4.151   3.893   5.942  0.2136 -2.5775 -0.1369
 9007SOL    HW238658   4.239   3.987   6.021 -1.6861  1.1623 -1.6714
 9008SOL     OW38659   1.989   2.115  11.589 -0.1740 -0.0569 -0.0578
 9008SOL    HW138660   1.902   2.096  11.624 -0.2951 -1.0991 -0.9142
 9008SOL    HW238661   2.048   2.071  11.650 -0.2291 -0.6854 -0.4603
 9009SOL     OW38662   3.770   1.440   4.375 -0.2318 -0.1479  0.0024
 9009SOL    HW138663   3.762   1.403   4.287 -0.3076  0.4723 -0.2522
 9009SOL    HW238664   3.779   1.364   4.432 -0.7396 -0.9637 -0.9941
 9010SOL     OW38665   1.580   1.666   9.411  0.0104 -0.3626  0.4604
 9010SOL    HW138666   1.490   1.652   9.381 -0.6080  0.4209  1.9701
 9010SOL    HW238667   1.626   1.588   9.379  1.9336  1.1331 -0.3968
 9011SOL     OW38668   3.975   1.918   3.797 -0.1428  0.5390 -0.3677
 9011SOL    HW138669   3.945   1.912   3.888  2.8544  1.7592  0.7083
 9011SOL    HW238670   3.997   1.828   3.773 -1.0869 -0.0063  0.8377
 9012SOL     OW38671   4.500   3.066   6.035 -0.1305  0.6247 -0.1352
 9012SOL    HW138672   4.413   3.035   6.009 -0.2716 -1.1067  2.3390
 9012SOL    HW238673   4.526   3.110   5.955 -2.1208 -1.8303 -2.1288
 9013SOL     OW38674   3.457   3.933   1.891 -0.2555  0.2433  0.2716
 9013SOL    HW138675   3.398   3.889   1.951  0.0398  1.3342  1.3679
 9013SOL    HW238676   3.407   4.006   1.854  0.8204  0.9107  0.1434
 9014SOL     OW38677   3.221   0.216   5.147  0.1102 -0.0888 -0.5239
 9014SOL    HW138678   3.281   0.266   5.091 -0.1584 -0.0533 -0.7781
 9014SOL    HW238679   3.216   0.141   5.088 -1.9228 -0.3879  0.0479
 9015SOL     OW38680   1.633   1.503   2.676  0.2268  0.1009 -0.2448
 9015SOL    HW138681   1.603   1.573   2.734 -0.2676 -1.9141  1.8958
 9015SOL    HW238682   1.665   1.557   2.604 -2.3841  0.2443 -1.2966
 9016SOL     OW38683   0.979   0.313   9.549 -0.3738 -0.6774  0.1802
 9016SOL    HW138684   0.920   0.275   9.614 -0.5719  0.8759  0.9242
 9016SOL    HW238685   1.066   0.309   9.589  0.4439 -2.1086 -1.7520
 9017SOL     OW38686   0.053   0.758   9.194  0.1484  0.0512 -0.4176
 9017SOL    HW138687   0.070   0.800   9.109  0.9215  1.4104  0.4212
 9017SOL    HW238688   0.137   0.756   9.241  0.0246  0.4573 -0.1917
 9018SOL     OW38689   2.419   2.633   2.175  0.4913  0.1252  0.6276
 9018SOL    HW138690   2.440   2.684   2.254 -0.5023  1.2551  0.1620
 9018SOL    HW238691   2.502   2.638   2.128 -0.1636 -1.2764 -0.6691
 9019SOL     OW38692   1.860   0.277  15.544  0.3208  0.4191 -0.6120
 9019SOL    HW138693   1.899   0.210  15.599  0.0010  0.9823  0.3064
 9019SOL    HW238694   1.869   0.248  15.454 -0.3681 -0.2734 -0.4574
 9020SOL     OW38695   3.466   0.192   7.476 -0.8935  0.1289  0.0111
 9020SOL    HW138696   3.514   0.110   7.478  0.5135  0.9153 -1.5948
 9020SOL    HW238697   3.479   0.223   7.565  1.4309 -0.2873 -0.1952
 9021SOL     OW38698   1.930   0.036   6.371 -0.6289 -0.6001  0.3099
 9021SOL    HW138699   2.001   0.046   6.307 -0.3573 -1.7355  0.4321
 9021SOL    HW238700   1.918   4.681   6.370  0.2923 -0.7136 -0.3201
 9022SOL     OW38701   4.282   1.531   2.162 -0.3397 -0.1502 -0.7433
 9022SOL    HW138702   4.188   1.517   2.172 -0.1916 -0.0670  0.7317
 9022SOL    HW238703   4.316   1.465   2.223 -2.0628  0.0649  0.4605
 9023SOL     OW38704   1.934   1.362   5.381  0.4899  0.2181 -0.3711
 9023SOL    HW138705   2.005   1.298   5.390  1.0177  0.9443  0.6147
 9023SOL    HW238706   1.862   1.318   5.427  1.8597  0.2916  1.8157
 9024SOL     OW38707   0.873   2.919   8.875  0.3660  0.1924 -0.4023
 9024SOL    HW138708   0.797   2.867   8.900  1.9981 -1.9219  0.0562
 9024SOL    HW238709   0.876   2.897   8.782 -0.5431  3.0639 -1.1156
 9025SOL     OW38710   2.061   0.204   0.319 -1.1397  0.3234 -0.5968
 9025SOL    HW138711   1.980   0.153   0.307 -0.4264 -1.0778  0.5381
 9025SOL    HW238712   2.130   0.153   0.276 -0.0586  1.0946  0.2176
 9026SOL     OW38713   1.687   2.891   4.832  0.6104  0.3330  0.5091
 9026SOL    HW138714   1.733   2.948   4.771  0.5282  2.1188  2.1228
 9026SOL    HW238715   1.619   2.950   4.862 -1.3283 -2.7036  2.0745
 9027SOL     OW38716   0.273   4.108   6.098  0.0333 -0.5991 -0.1775
 9027SOL    HW138717   0.242   4.026   6.059 -0.9682 -1.3671  2.2421
 9027SOL    HW238718   0.186   4.148   6.105  0.8710  1.4491 -1.3975
 9028SOL     OW38719   0.094   4.033   2.753  0.0586 -0.1985 -0.0186
 9028SOL    HW138720   0.156   3.979   2.801  2.1085  0.7327 -1.5947
 9028SOL    HW238721   0.017   3.977   2.762  1.1892 -1.8464 -0.6106
 9029SOL     OW38722   2.035   4.143   0.716  0.4055  0.3349  0.4567
 9029SOL    HW138723   1.956   4.090   0.715  3.3644 -4.0793  1.2465
 9029SOL    HW238724   2.019   4.202   0.643  0.2603  0.6689  0.7539
 9030SOL     OW38725   2.315   0.150  16.090 -0.0590  0.1725 -0.0075
 9030SOL    HW138726   2.394   0.188  16.127  0.5953 -1.9530  0.7463
 9030SOL    HW238727   2.298   0.219  16.025 -0.7974  1.2226  1.2843
 9031SOL     OW38728   2.191   2.547   2.695  0.1365 -0.5648  0.3041
 9031SOL    HW138729   2.141   2.570   2.617  0.7184 -0.1762  0.0428
 9031SOL    HW238730   2.121   2.523   2.755 -0.1393 -0.9934 -0.1840
 9032SOL     OW38731   1.769   1.848  15.072 -0.0825  0.2976  0.0597
 9032SOL    HW138732   1.837   1.791  15.109  1.2144  2.1191  0.4839
 9032SOL    HW238733   1.694   1.833  15.129  0.2025  2.6247  1.0202
 9033SOL     OW38734   4.125   3.423  15.902  0.2620 -0.4414  0.1556
 9033SOL    HW138735   4.048   3.406  15.848  1.2857 -0.8577 -1.1676
 9033SOL    HW238736   4.109   3.515  15.922  1.7419  0.3707 -2.3528
 9034SOL     OW38737   4.431   3.761  11.380  0.0803  0.4045  0.3880
 9034SOL    HW138738   4.526   3.755  11.389 -0.0651  1.4416  2.6726
 9034SOL    HW238739   4.418   3.851  11.350 -0.0583 -0.2098 -1.3858
 9035SOL     OW38740   4.441   2.500   5.936 -0.1726  0.2302  0.0723
 9035SOL    HW138741   4.404   2.579   5.976  0.9808  1.4148 -1.2423
 9035SOL    HW238742   4.506   2.536   5.875  0.5115  1.7078  1.6725
 9036SOL     OW38743   0.927   3.603  17.665  0.2554 -0.2036  0.3920
 9036SOL    HW138744   0.875   3.649  17.731 -0.7256  0.0469 -0.5558
 9036SOL    HW238745   0.938   3.516  17.704  0.9598 -0.3222 -0.0665
 9037SOL     OW38746   0.046   0.356   3.660  0.3899  0.3799 -0.2206
 9037SOL    HW138747   0.088   0.316   3.584 -2.2333 -1.2084 -0.8329
 9037SOL    HW238748   0.020   0.269   3.692  0.0960  0.8627  0.8630
 9038SOL     OW38749   3.328   3.942   5.832  0.1639 -0.2464  0.1252
 9038SOL    HW138750   3.369   4.017   5.876 -1.7717  1.3021 -0.7304
 9038SOL    HW238751   3.332   3.880   5.905  3.3337 -0.9434 -0.6221
 9039SOL     OW38752   2.628   3.659  15.127  0.0254 -0.8780  0.3017
 9039SOL    HW138753   2.547   3.621  15.161  0.1181  0.3597  1.9101
 9039SOL    HW238754   2.582   3.729  15.081 -0.0766 -0.9252  0.3306
 9040SOL     OW38755   1.344   3.267   8.384 -0.1063 -0.2414  0.8785
 9040SOL    HW138756   1.420   3.212   8.365  1.3003  1.7370  0.8684
 9040SOL    HW238757   1.273   3.202   8.387 -0.7582  0.3998 -0.5578
 9041SOL     OW38758   1.493   2.843  14.887  0.0077 -0.3050  0.3565
 9041SOL    HW138759   1.551   2.768  14.878  1.2706  0.5958  1.0201
 9041SOL    HW238760   1.542   2.879  14.962 -1.4827 -0.5270  1.4393
 9042SOL     OW38761   2.611   0.943  15.466 -0.5150  0.0090  0.9511
 9042SOL    HW138762   2.581   1.022  15.423 -0.0180 -0.9257 -1.1113
 9042SOL    HW238763   2.531   0.889  15.473 -0.7271  0.1033 -0.7344
 9043SOL     OW38764   4.575   0.710  12.430  0.3436  0.6398  0.5121
 9043SOL    HW138765   4.652   0.713  12.487  0.5620  2.3309  0.1375
 9043SOL    HW238766   4.599   0.765  12.355  0.2727  0.2811  0.2278
 9044SOL     OW38767   4.429   2.429   4.494  0.3061  0.9447  0.1137
 9044SOL    HW138768   4.347   2.454   4.450  0.5211 -1.6514 -1.7549
 9044SOL    HW238769   4.393   2.366   4.556 -1.1918  1.2208 -0.4539
 9045SOL     OW38770   1.568   3.846   9.180 -0.2197 -0.2703 -0.2230
 9045SOL    HW138771   1.510   3.812   9.248  0.7717 -0.3044  0.6148
 9045SOL    HW238772   1.569   3.774   9.117  2.0759  0.5081 -1.0677
 9046SOL     OW38773   1.687   0.515   5.719 -0.2034  0.0200 -0.5157
 9046SOL    HW138774   1.719   0.494   5.807 -0.9667 -1.6414 -0.6360
 9046SOL    HW238775   1.734   0.595   5.696  2.3416 -1.3755 -0.2559
 9047SOL     OW38776   4.686   1.792   8.320 -0.0400 -0.2903  0.0836
 9047SOL    HW138777   4.709   1.723   8.257  2.3271 -1.0954  1.8447
 9047SOL    HW238778   4.637   1.851   8.263  0.4892  0.3705  0.3195
 9048SOL     OW38779   4.352   0.656   5.573 -0.1967  0.6498  0.6792
 9048SOL    HW138780   4.314   0.597   5.639  0.4870  1.2449  1.6086
 9048SOL    HW238781   4.283   0.646   5.508 -1.1310  3.8604  1.1517
 9049SOL     OW38782   0.792   3.864   1.737  0.2399  0.0827  0.2398
 9049SOL    HW138783   0.845   3.940   1.761  1.2266 -0.3568 -0.5366
 9049SOL    HW238784   0.715   3.885   1.790  0.6765 -0.0207  0.9177
 9050SOL     OW38785   0.287   4.199   2.081  0.6188  0.5520  0.0073
 9050SOL    HW138786   0.250   4.273   2.034 -1.0692 -0.1196  0.2817
 9050SOL    HW238787   0.269   4.230   2.170 -0.1693  1.9124 -0.6294
 9051SOL     OW38788   2.625   3.901  11.546  0.6497  0.7074  0.0921
 9051SOL    HW138789   2.692   3.912  11.614 -0.1296  2.2951  0.6036
 9051SOL    HW238790   2.588   3.990  11.545 -0.5743  0.1701 -1.9322
 9052SOL     OW38791   3.234   2.258   6.339  0.3335  0.5373  0.1000
 9052SOL    HW138792   3.217   2.307   6.419 -3.0265  0.0358 -0.3404
 9052SOL    HW238793   3.251   2.327   6.275  1.7622  0.2474  0.1583
 9053SOL     OW38794   0.483   0.704   2.532 -0.0105 -0.1877  0.3020
 9053SOL    HW138795   0.395   0.737   2.516  0.5688  0.6928 -1.0425
 9053SOL    HW238796   0.540   0.781   2.526  2.4006 -1.8585  1.8560
 9054SOL     OW38797   2.192   0.946   8.648  0.0895  0.2031  0.5877
 9054SOL    HW138798   2.200   0.979   8.558 -1.8275  1.0886  0.7380
 9054SOL    HW238799   2.213   1.024   8.698 -0.8055 -0.4662  2.0156
 9055SOL     OW38800   1.841   3.531   2.058 -0.6096  0.3057 -0.0208
 9055SOL    HW138801   1.856   3.625   2.058 -0.0953  0.2253 -0.3008
 9055SOL    HW238802   1.931   3.507   2.080 -0.1931  1.2038 -0.7492
 9056SOL     OW38803   0.631   2.336  15.579 -0.0895  0.5739  0.4719
 9056SOL    HW138804   0.677   2.420  15.578  2.2105 -0.6811  0.3153
 9056SOL    HW238805   0.693   2.270  15.548  1.5231  1.4233  1.9105
 9057SOL     OW38806   2.865   0.461  16.684  0.7430 -0.0148 -0.0413
 9057SOL    HW138807   2.905   0.534  16.638  0.4910  0.9862  1.3382
 9057SOL    HW238808   2.938   0.459  16.745  0.5216  0.1927  0.2238
 9058SOL     OW38809   3.337   2.285   5.951  0.0638  0.3939  0.4656
 9058SOL    HW138810   3.379   2.350   6.008 -3.0280  0.0809  3.1118
 9058SOL    HW238811   3.261   2.251   5.998 -0.2949  1.1069  0.4001
 9059SOL     OW38812   0.028   3.069  13.381  0.2190  1.0919  0.1607
 9059SOL    HW138813   4.714   3.082  13.459  0.3305  0.3026  0.3745
 9059SOL    HW238814   0.045   3.161  13.363 -0.1477  0.8814 -1.2654
 9060SOL     OW38815   4.629   0.794   5.215  0.4055 -0.1605 -0.2364
 9060SOL    HW138816   4.565   0.830   5.277  1.6285 -0.1209  0.9873
 9060SOL    HW238817   4.593   0.705   5.211 -1.7050  0.6141  1.2539
 9061SOL     OW38818   3.586   3.473  13.131 -0.0959 -0.2860  0.1372
 9061SOL    HW138819   3.563   3.425  13.052 -0.2816 -0.2709  0.1811
 9061SOL    HW238820   3.525   3.547  13.133 -1.2153 -1.1550 -1.3267
 9062SOL     OW38821   0.467   2.944   9.058 -0.1346 -0.7631  0.0451
 9062SOL    HW138822   0.402   2.877   9.078 -2.0650  1.2870  0.5632
 9062SOL    HW238823   0.546   2.890   9.051  1.2094  1.2065  0.2576
 9063SOL     OW38824   2.476   2.606  10.584 -0.1777  0.5882 -0.1550
 9063SOL    HW138825   2.395   2.562  10.611 -0.3364  1.2379  0.4242
 9063SOL    HW238826   2.478   2.671  10.655 -0.0451 -0.5755  0.8961
 9064SOL     OW38827   4.232   2.028   9.284 -0.4572 -0.3110  0.1151
 9064SOL    HW138828   4.324   2.021   9.256 -0.5672  0.6717 -0.4770
 9064SOL    HW238829   4.195   1.947   9.248 -0.4261  0.8718 -2.5372
 9065SOL     OW38830   0.740   3.066   9.651  0.4446  0.3162 -0.2847
 9065SOL    HW138831   0.665   3.061   9.710  0.8019  1.3488  0.2641
 9065SOL    HW238832   0.732   3.148   9.602  0.9370  2.0522  2.5105
 9066SOL     OW38833   2.322   1.440  16.149 -0.2720  0.1927  0.0237
 9066SOL    HW138834   2.229   1.440  16.127 -0.6501 -1.6705  1.5849
 9066SOL    HW238835   2.330   1.418  16.242  2.6524  0.0911 -0.2410
 9067SOL     OW38836   1.400   4.255   1.858 -0.3105 -0.6705 -0.3777
 9067SOL    HW138837   1.477   4.247   1.801  0.7041 -1.1662  1.0455
 9067SOL    HW238838   1.446   4.235   1.939 -2.0089 -0.7932  0.5542
 9068SOL     OW38839   2.279   3.614   2.903  0.1167 -0.2659  0.3869
 9068SOL    HW138840   2.321   3.592   2.986 -3.9329 -0.2762  2.4317
 9068SOL    HW238841   2.253   3.529   2.866  0.4399  0.5780 -1.7656
 9069SOL     OW38842   4.199   0.830   1.990 -0.3036 -0.0045 -0.1475
 9069SOL    HW138843   4.206   0.890   2.064 -0.6426 -2.0368  1.5224
 9069SOL    HW238844   4.262   0.874   1.932 -0.4403  0.3108 -0.0613
 9070SOL     OW38845   1.491   3.124   7.409 -0.3631  0.3267  0.1160
 9070SOL    HW138846   1.506   3.097   7.499 -1.3471  1.5307  0.6478
 9070SOL    HW238847   1.395   3.128   7.409 -0.3153  1.6280  2.3339
 9071SOL     OW38848   4.445   1.017   7.766 -0.1817  0.1162  0.2819
 9071SOL    HW138849   4.390   0.958   7.818 -1.1426  2.4866  1.9375
 9071SOL    HW238850   4.513   0.958   7.736 -0.6400  0.0075 -0.5361
 9072SOL     OW38851   3.144   1.465   2.260 -0.2309 -0.5967  0.5442
 9072SOL    HW138852   3.089   1.394   2.293  0.0033 -0.1041  1.9819
 9072SOL    HW238853   3.198   1.411   2.202 -0.5368 -0.5218  0.1889
 9073SOL     OW38854   4.552   2.068   8.256  0.0370  0.0312  0.4960
 9073SOL    HW138855   4.600   2.141   8.217  0.0686  0.5533  1.5052
 9073SOL    HW238856   4.464   2.107   8.254  0.0322  0.2070  4.2199
 9074SOL     OW38857   2.237   0.841  14.988  0.3036 -0.2149 -0.3401
 9074SOL    HW138858   2.163   0.780  14.986 -0.1825  0.3416  0.4618
 9074SOL    HW238859   2.205   0.926  15.019 -0.7720 -0.6053 -0.3761
 9075SOL     OW38860   0.715   1.654   8.461 -0.0702  0.2229  0.1022
 9075SOL    HW138861   0.690   1.654   8.369  0.9821 -1.7694 -0.1895
 9075SOL    HW238862   0.642   1.603   8.496  1.0887 -1.7974 -0.3628
 9076SOL     OW38863   0.638   0.545  13.416  0.1573 -0.2038  0.3981
 9076SOL    HW138864   0.683   0.603  13.354  0.7193 -0.1111  0.8978
 9076SOL    HW238865   0.653   0.594  13.496  0.1219 -0.1848  0.3932
 9077SOL     OW38866   1.761   1.551   5.678  0.2741  0.1489 -0.1736
 9077SOL    HW138867   1.778   1.640   5.707 -3.1165  0.5590  0.5273
 9077SOL    HW238868   1.707   1.559   5.600 -2.0276  0.1384  1.4263
 9078SOL     OW38869   1.707   2.371   1.541 -0.0513  0.5010  0.2495
 9078SOL    HW138870   1.651   2.342   1.469  0.9535 -0.2605 -0.2294
 9078SOL    HW238871   1.643   2.371   1.612 -0.4838  0.1063 -0.1388
 9079SOL     OW38872   1.677   4.388   7.041  0.4525 -0.3045  0.1149
 9079SOL    HW138873   1.610   4.433   7.093 -0.0962 -2.1267  0.9951
 9079SOL    HW238874   1.752   4.427   7.085 -0.3528  1.6402 -0.2646
 9080SOL     OW38875   0.573   4.514   0.829 -0.3472  0.4360  0.4659
 9080SOL    HW138876   0.483   4.533   0.857 -0.9659  0.8488 -1.8328
 9080SOL    HW238877   0.608   4.467   0.905  0.3613 -0.5154 -0.4515
 9081SOL     OW38878   4.683   0.330  12.639  0.5312 -0.2702  0.1256
 9081SOL    HW138879   0.030   0.362  12.617  0.1541 -1.1735 -2.6318
 9081SOL    HW238880   4.703   0.273  12.714  0.2455  0.6035  0.8688
 9082SOL     OW38881   0.490   3.678   1.810  0.4572  0.0987 -0.1704
 9082SOL    HW138882   0.531   3.591   1.813  1.0258  0.3578 -0.5972
 9082SOL    HW238883   0.523   3.695   1.722 -0.7161 -0.5091 -0.7369
 9083SOL     OW38884   1.212   4.289   8.465 -0.3492 -0.4017 -0.1855
 9083SOL    HW138885   1.181   4.222   8.526  0.6229  0.6255  1.4160
 9083SOL    HW238886   1.267   4.240   8.404  1.6507  1.6840 -0.0443
 9084SOL     OW38887   1.311   3.834   2.604  0.5644  0.0375  0.1162
 9084SOL    HW138888   1.302   3.919   2.647 -0.7541  0.0156 -0.1057
 9084SOL    HW238889   1.244   3.786   2.654 -2.0764  3.1351 -0.4039
 9085SOL     OW38890   0.684   1.625   4.914  0.4875 -0.0437  0.2390
 9085SOL    HW138891   0.776   1.651   4.904  1.1384 -2.3557  0.2560
 9085SOL    HW238892   0.680   1.532   4.894  1.4814  0.4537 -2.2790
 9086SOL     OW38893   4.218   3.662   6.266  0.0662 -0.2247  0.3244
 9086SOL    HW138894   4.219   3.737   6.207 -0.9992  0.3158  0.9859
 9086SOL    HW238895   4.221   3.584   6.211 -0.7464  1.4785 -2.1305
 9087SOL     OW38896   4.441   4.604   9.175  0.0470 -0.3313 -0.3249
 9087SOL    HW138897   4.367   4.655   9.207  0.6544 -0.4482  1.2234
 9087SOL    HW238898   4.490   4.665   9.119  0.5711  1.7992  2.4863
 9088SOL     OW38899   3.071   2.247   8.953  0.5696  0.2605 -0.2632
 9088SOL    HW138900   3.162   2.241   8.923  0.9730 -1.5396  1.3334
 9088SOL    HW238901   3.085   2.204   9.037 -2.0256  0.1160  0.0845
 9089SOL     OW38902   3.074   2.649   4.502 -0.3995  0.2901 -0.1415
 9089SOL    HW138903   3.123   2.712   4.449  1.5584 -0.4936  0.7345
 9089SOL    HW238904   3.014   2.614   4.437 -0.2232 -1.1869  0.4769
 9090SOL     OW38905   3.908   0.881   6.765  0.3807 -0.4180  0.5826
 9090SOL    HW138906   3.870   0.887   6.678  0.5154  2.0759  0.6799
 9090SOL    HW238907   3.995   0.852   6.738  0.5352  1.1682 -0.6127
 9091SOL     OW38908   4.536   4.399   6.542 -0.1277  0.4605  0.4724
 9091SOL    HW138909   4.557   4.492   6.530 -2.8133  1.0478  0.4537
 9091SOL    HW238910   4.508   4.377   6.453 -0.6149 -1.4153  1.1037
 9092SOL     OW38911   2.459   2.978   4.284  0.2622  0.0984 -0.2422
 9092SOL    HW138912   2.398   2.965   4.357  1.4690  0.8653  0.8991
 9092SOL    HW238913   2.414   3.045   4.233 -3.1298 -0.3676  2.1430
 9093SOL     OW38914   0.545   0.729   7.928  0.4203 -0.1193 -0.0737
 9093SOL    HW138915   0.505   0.652   7.887  2.4292 -1.5610  0.6700
 9093SOL    HW238916   0.637   0.704   7.935  0.2792 -0.3612  0.8433
 9094SOL     OW38917   4.284   0.496  16.262 -0.2383  0.0654 -0.1164
 9094SOL    HW138918   4.285   0.433  16.190  1.8663  1.6181 -1.4383
 9094SOL    HW238919   4.215   0.555  16.233 -0.3271  0.0532  0.0723
 9095SOL     OW38920   2.967   1.359   6.621  0.5261  0.0079  0.1532
 9095SOL    HW138921   3.015   1.437   6.649 -0.2277  0.5161  0.0525
 9095SOL    HW238922   2.958   1.389   6.530  0.9503  0.1968  0.1760
 9096SOL     OW38923   2.806   4.326   9.370 -0.0713  0.0571 -0.1588
 9096SOL    HW138924   2.823   4.261   9.302  1.5689 -0.4169  0.7131
 9096SOL    HW238925   2.730   4.367   9.327  0.0769 -0.4353 -0.8965
 9097SOL     OW38926   4.364   2.922  15.845  0.5089 -0.3332 -0.1746
 9097SOL    HW138927   4.455   2.899  15.827  0.2708  0.5162 -2.4326
 9097SOL    HW238928   4.342   2.956  15.759  1.2534  1.5579  0.4011
 9098SOL     OW38929   0.605   2.687   4.860  0.3485  0.4100  0.3921
 9098SOL    HW138930   0.536   2.752   4.872  1.0205  1.5235 -1.8017
 9098SOL    HW238931   0.553   2.618   4.820 -0.9060  2.6893 -1.8925
 9099SOL     OW38932   3.897   0.949   3.477 -0.5067  0.1388 -1.0265
 9099SOL    HW138933   3.966   0.904   3.430  0.0044  0.8882 -0.9856
 9099SOL    HW238934   3.858   0.994   3.403 -1.5869 -0.2399 -0.7019
 9100SOL     OW38935   0.155   0.720   5.176 -0.2604  0.5274  0.4875
 9100SOL    HW138936   0.061   0.728   5.194 -0.5712  0.9071 -1.2797
 9100SOL    HW238937   0.174   0.792   5.116 -0.8528  1.3172  1.2667
 9101SOL     OW38938   0.725   0.052  11.463  0.1440 -0.2339 -0.4302
 9101SOL    HW138939   0.798   0.110  11.485  1.3141 -1.4498 -1.1397
 9101SOL    HW238940   0.748   4.722  11.524 -0.8950  0.7581  1.1249
 9102SOL     OW38941   4.007   0.377   3.986  0.4251 -0.2531 -0.0413
 9102SOL    HW138942   3.973   0.462   4.012 -2.1473 -1.3316  0.2224
 9102SOL    HW238943   4.088   0.405   3.945  0.9818 -3.7903 -1.3833
 9103SOL     OW38944   3.706   1.932   6.132 -0.0214  0.2753 -0.6412
 9103SOL    HW138945   3.696   1.913   6.039 -0.1308 -2.0292 -0.1597
 9103SOL    HW238946   3.621   1.905   6.167  1.4783 -1.9091  1.3474
 9104SOL     OW38947   2.908   0.508   5.331 -0.1855 -0.1253  0.2115
 9104SOL    HW138948   2.930   0.424   5.291  0.7478 -0.7315  2.0047
 9104SOL    HW238949   2.831   0.529   5.279 -0.5988  0.2411  0.9716
 9105SOL     OW38950   1.375   4.424  10.911  0.1728 -0.3880 -0.1674
 9105SOL    HW138951   1.398   4.332  10.899  0.9959 -0.1915 -0.1244
 9105SOL    HW238952   1.374   4.424  11.007 -1.1853  1.0286 -0.1914
 9106SOL     OW38953   1.740   2.098   4.832  0.5540  0.2570 -0.4063
 9106SOL    HW138954   1.704   2.185   4.849 -0.7734 -0.5550  0.9365
 9106SOL    HW238955   1.768   2.108   4.741  2.6084  0.7456  0.2911
 9107SOL     OW38956   4.141   2.198   6.928  0.5465  0.4222 -0.1106
 9107SOL    HW138957   4.132   2.214   7.022  2.7389 -1.7694  0.4510
 9107SOL    HW238958   4.168   2.107   6.916 -1.8316 -0.5127  1.5163
 9108SOL     OW38959   1.027   4.434   6.345 -0.2109  0.1363  0.5349
 9108SOL    HW138960   0.968   4.508   6.359 -1.3203 -0.4973 -0.7936
 9108SOL    HW238961   1.085   4.463   6.275 -3.6141  0.5073 -2.1640
 9109SOL     OW38962   4.053   1.015   3.912 -0.2191 -0.4877 -0.1064
 9109SOL    HW138963   4.147   1.005   3.893  0.0219  0.1847  0.7397
 9109SOL    HW238964   4.018   0.991   3.826 -3.6557 -0.1131  1.2248
 9110SOL     OW38965   2.387   1.787   5.389  0.3893  0.0419 -0.0973
 9110SOL    HW138966   2.359   1.705   5.429 -1.2977  0.6141 -0.1029
 9110SOL    HW238967   2.358   1.773   5.299  1.3581  0.7896 -0.5241
 9111SOL     OW38968   1.450   0.850   7.615 -0.2945  0.5454 -0.6098
 9111SOL    HW138969   1.509   0.924   7.599 -1.2265  1.8094  1.7394
 9111SOL    HW238970   1.492   0.779   7.567  1.5505  1.9784 -1.1170
 9112SOL     OW38971   1.622   1.556   3.774 -0.5116 -0.4708  0.6788
 9112SOL    HW138972   1.550   1.556   3.711  0.2176  2.0358 -0.1927
 9112SOL    HW238973   1.695   1.580   3.716 -0.2297 -1.3666  0.6635
 9113SOL     OW38974   2.793   1.392  17.637  0.5816 -0.1575 -0.3014
 9113SOL    HW138975   2.867   1.334  17.618  1.0318 -0.1722  1.5499
 9113SOL    HW238976   2.743   1.376  17.557  0.9873 -0.7659 -0.4381
 9114SOL     OW38977   3.330   1.723   8.287 -0.0172  0.2521  0.1974
 9114SOL    HW138978   3.292   1.670   8.218  1.7454  1.3734 -1.6378
 9114SOL    HW238979   3.249   1.754   8.326 -0.8018  0.0733 -1.3076
 9115SOL     OW38980   1.619   0.903  12.196 -0.0766 -0.2279 -0.6862
 9115SOL    HW138981   1.562   0.880  12.269  1.0662  0.9448  0.5761
 9115SOL    HW238982   1.672   0.967  12.244  1.0554 -2.0032  0.4218
 9116SOL     OW38983   3.694   4.285  15.656  0.2597  0.3388  0.1547
 9116SOL    HW138984   3.678   4.374  15.686 -1.0338  0.2477 -0.2635
 9116SOL    HW238985   3.787   4.293  15.635 -0.0843  1.2510 -0.9899
 9117SOL     OW38986   2.872   1.838   1.738  0.7040 -0.1655  0.4538
 9117SOL    HW138987   2.781   1.837   1.767  0.4067 -1.6780 -0.4920
 9117SOL    HW238988   2.900   1.914   1.789  1.1946  0.5677 -0.9080
 9118SOL     OW38989   3.697   3.514   5.582  0.1575  0.3638 -0.0921
 9118SOL    HW138990   3.712   3.523   5.488 -1.1566  0.4729 -0.2962
 9118SOL    HW238991   3.729   3.599   5.612 -2.1235  0.5627  1.7813
 9119SOL     OW38992   2.614   0.915  16.927 -0.5772 -0.3717  0.1785
 9119SOL    HW138993   2.582   1.005  16.927  0.4678  0.0168  3.0984
 9119SOL    HW238994   2.572   0.890  16.845  1.5536  0.2606 -1.1163
 9120SOL     OW38995   0.823   3.285   3.135 -0.4055 -0.2811 -0.8184
 9120SOL    HW138996   0.839   3.356   3.072 -0.4015 -0.2629 -0.7970
 9120SOL    HW238997   0.885   3.217   3.108  0.9404  0.4630  0.3993
 9121SOL     OW38998   3.831   2.206   3.503 -0.2646 -0.5801 -0.6275
 9121SOL    HW138999   3.760   2.268   3.517  0.6806 -0.0855  1.9574
 9121SOL    HW239000   3.905   2.252   3.543 -1.3171  1.4595 -1.0121
 9122SOL     OW39001   0.433   1.240   1.298 -0.0738  0.0621 -0.1362
 9122SOL    HW139002   0.385   1.182   1.357  1.7292 -0.4067  0.8879
 9122SOL    HW239003   0.383   1.322   1.299 -2.1799 -1.2135 -1.8023
 9123SOL     OW39004   1.779   2.627   1.885  0.6672 -0.4171 -0.0291
 9123SOL    HW139005   1.782   2.637   1.980  2.5458  0.2574 -0.1604
 9123SOL    HW239006   1.842   2.689   1.848 -0.1253 -0.2207 -1.0603
 9124SOL     OW39007   2.274   3.083   1.525  0.5739  0.5263  0.2724
 9124SOL    HW139008   2.243   3.061   1.612  0.5701 -0.4752  0.0097
 9124SOL    HW239009   2.248   3.009   1.470 -0.7905  1.4644 -0.3553
 9125SOL     OW39010   4.558   3.419   6.141  0.1052 -0.3774 -0.3613
 9125SOL    HW139011   4.563   3.495   6.198 -0.7596 -1.6024  1.3511
 9125SOL    HW239012   4.625   3.442   6.077  1.1100  1.2597  1.2747
 9126SOL     OW39013   4.514   1.506   8.319 -0.1625 -0.3543  0.5765
 9126SOL    HW139014   4.461   1.552   8.253  2.1720  1.4938  0.0084
 9126SOL    HW239015   4.486   1.417   8.300  2.1535 -0.5971 -1.6508
 9127SOL     OW39016   1.391   0.651  17.724 -0.2093  0.0550  0.5775
 9127SOL    HW139017   1.375   0.686   0.053  0.1222  0.3832  0.5108
 9127SOL    HW239018   1.333   0.575  17.729 -2.4719  1.8108  0.8919
 9128SOL     OW39019   3.495   0.925   6.249 -0.3807  0.4628  0.0833
 9128SOL    HW139020   3.441   0.969   6.316 -1.0663  2.9682 -2.1260
 9128SOL    HW239021   3.434   0.862   6.212 -1.3958  1.3093  0.3012
 9129SOL     OW39022   1.437   1.466   3.575  0.3855 -0.3011 -0.1986
 9129SOL    HW139023   1.348   1.443   3.602  0.4101 -1.0185 -0.7096
 9129SOL    HW239024   1.481   1.386   3.605  0.5156 -0.7193 -1.4714
 9130SOL     OW39025   1.494   1.836   2.515  0.3083  0.2059 -0.0417
 9130SOL    HW139026   1.449   1.864   2.594  0.6342  0.1957  0.1511
 9130SOL    HW239027   1.461   1.894   2.447  1.4233  0.4889 -0.3515
 9131SOL     OW39028   3.068   0.860   8.265 -0.5000 -0.2598 -0.3909
 9131SOL    HW139029   3.029   0.847   8.179  0.0951  0.4512 -0.7689
 9131SOL    HW239030   2.985   0.840   8.308 -1.2100  1.8823 -0.8027
 9132SOL     OW39031   0.832   1.499   7.000 -0.5622 -0.3744  0.0562
 9132SOL    HW139032   0.903   1.538   6.949 -0.4686 -0.5690  0.0367
 9132SOL    HW239033   0.878   1.423   7.033  2.3639  1.1427 -0.5165
 9133SOL     OW39034   0.915   0.245   1.211 -0.2951 -0.0674 -0.0586
 9133SOL    HW139035   0.857   0.291   1.150  0.7063 -0.3789 -1.2503
 9133SOL    HW239036   0.956   0.194   1.142  0.9754 -3.9042  3.5632
 9134SOL     OW39037   3.364   2.714   5.387  0.2176 -0.0401 -0.1888
 9134SOL    HW139038   3.360   2.794   5.335  2.0666 -0.8152 -1.5252
 9134SOL    HW239039   3.295   2.660   5.348  0.0344 -1.5334  2.1828
 9135SOL     OW39040   0.826   3.095   5.892  0.3863  0.1500 -0.4348
 9135SOL    HW139041   0.842   3.024   5.829 -1.2740 -0.2269 -0.4362
 9135SOL    HW239042   0.911   3.139   5.898 -0.1915  1.1996  0.0618
 9136SOL     OW39043   4.694   3.551   5.932 -0.4492 -0.3392  0.3668
 9136SOL    HW139044   0.010   3.546   5.854 -0.9566  0.9293 -0.0696
 9136SOL    HW239045   4.686   3.645   5.948 -1.1297 -0.4912  0.8945
 9137SOL     OW39046   4.344   1.547   5.688 -0.5649  0.3069  0.1312
 9137SOL    HW139047   4.298   1.476   5.732 -2.2861  1.1162 -0.3694
 9137SOL    HW239048   4.297   1.629   5.704 -0.3345  0.5253 -0.3007
 9138SOL     OW39049   3.356   3.360   0.188 -0.3512  0.0279  0.1654
 9138SOL    HW139050   3.376   3.381   0.279  0.6036  0.5625 -0.1725
 9138SOL    HW239051   3.330   3.446   0.156  0.1619  0.2229  0.2813
 9139SOL     OW39052   3.035   1.917   6.176  0.0172 -0.0326 -0.6111
 9139SOL    HW139053   2.948   1.937   6.143 -0.2710 -0.7187 -0.2680
 9139SOL    HW239054   3.040   1.822   6.161  0.8021 -0.2067  0.7228
 9140SOL     OW39055   4.524   2.267   6.076 -0.4289 -0.3813 -0.5516
 9140SOL    HW139056   4.485   2.344   6.035  0.9023  0.3119 -0.5209
 9140SOL    HW239057   4.454   2.239   6.135 -0.3122  0.0818 -0.1953
 9141SOL     OW39058   2.765   4.061   8.944  0.2153  0.3593 -0.1807
 9141SOL    HW139059   2.689   4.102   8.903  0.4536 -0.8702 -1.8739
 9141SOL    HW239060   2.731   3.973   8.963  2.5138 -0.7169 -0.9034
 9142SOL     OW39061   3.444   0.556   8.988 -0.4415  0.6486 -0.0351
 9142SOL    HW139062   3.453   0.651   8.986 -0.9426  0.6176 -2.8207
 9142SOL    HW239063   3.526   0.521   8.953 -0.6890 -0.3049  0.3330
 9143SOL     OW39064   1.775   0.957   5.650  0.1072  0.1589 -0.4967
 9143SOL    HW139065   1.781   0.868   5.617 -1.0311 -0.2644  0.4185
 9143SOL    HW239066   1.799   0.934   5.740 -1.0100 -2.4276 -0.8513
 9144SOL     OW39067   3.592   4.047   3.907 -0.2222  0.1809 -0.3524
 9144SOL    HW139068   3.608   4.098   3.987  1.1355  2.1395 -1.8641
 9144SOL    HW239069   3.559   3.962   3.935  1.0167 -0.3382 -0.4713
 9145SOL     OW39070   2.703   3.142   7.704 -0.0041  0.1979  0.0660
 9145SOL    HW139071   2.663   3.229   7.700  0.2873  0.3530  0.5477
 9145SOL    HW239072   2.765   3.154   7.775  0.2160 -2.1855  0.2873
 9146SOL     OW39073   2.094   4.510   3.395  0.1677  0.5928 -0.4171
 9146SOL    HW139074   2.026   4.528   3.332 -1.4599  1.3672  1.5648
 9146SOL    HW239075   2.150   4.456   3.339  0.6183  0.1933  0.4024
 9147SOL     OW39076   0.541   3.329   3.518  0.3798 -0.2739 -0.1222
 9147SOL    HW139077   0.447   3.339   3.506  0.6468  0.4775 -1.6221
 9147SOL    HW239078   0.558   3.265   3.449 -0.3446 -0.8656  0.2582
 9148SOL     OW39079   3.069   0.918   1.404  0.2521 -0.1635  0.0892
 9148SOL    HW139080   3.089   0.957   1.318  1.8516 -0.2706  0.4129
 9148SOL    HW239081   3.008   0.846   1.386  1.3471 -1.4799  1.6744
 9149SOL     OW39082   4.614   4.223  13.673  0.2134  0.0770  0.0350
 9149SOL    HW139083   4.623   4.287  13.602  0.3717  1.0721  0.9658
 9149SOL    HW239084   4.631   4.282  13.746  3.6801  1.3433 -1.7548
 9150SOL     OW39085   4.035   1.646   3.750 -0.0313  0.5522 -0.3297
 9150SOL    HW139086   4.118   1.601   3.760  0.1447  0.9099 -0.1701
 9150SOL    HW239087   3.975   1.573   3.762  2.2541 -0.8641  2.2922
 9151SOL     OW39088   3.749   0.525   5.782  0.1701 -0.3500  0.2609
 9151SOL    HW139089   3.809   0.532   5.857 -1.5439 -1.8123  1.7550
 9151SOL    HW239090   3.810   0.473   5.729  0.0218 -2.2839  2.0098
 9152SOL     OW39091   2.091   1.516   2.895  0.1283  0.5753  0.3111
 9152SOL    HW139092   2.127   1.603   2.910  1.9397  0.4987 -3.6036
 9152SOL    HW239093   2.019   1.515   2.958  0.3820 -4.4141  0.5074
 9153SOL     OW39094   1.930   4.042   8.796 -0.0891 -0.0517 -0.2803
 9153SOL    HW139095   1.898   3.952   8.799  1.1187 -0.4615  0.3065
 9153SOL    HW239096   1.922   4.078   8.884  1.1859 -0.5765  0.0567
 9154SOL     OW39097   2.175   3.884  13.210  0.1627  0.2087 -0.6000
 9154SOL    HW139098   2.224   3.961  13.182  0.4994  0.0240 -0.5189
 9154SOL    HW239099   2.091   3.916  13.176 -0.0965 -1.1529 -1.2467
 9155SOL     OW39100   0.308   3.097   6.491  0.3893 -0.2137 -0.2875
 9155SOL    HW139101   0.340   3.038   6.560 -0.9920 -3.3948 -2.3591
 9155SOL    HW239102   0.326   3.184   6.526  0.9226 -0.4339 -0.0088
 9156SOL     OW39103   3.890   1.605   9.463  0.3023  0.2938 -0.3353
 9156SOL    HW139104   3.865   1.656   9.386 -1.2026 -1.4653 -0.9970
 9156SOL    HW239105   3.910   1.517   9.430 -2.9236  0.5106 -2.8852
 9157SOL     OW39106   1.409   4.643  16.527  0.2178 -0.2668 -0.2112
 9157SOL    HW139107   1.326   4.596  16.527  0.6345 -0.9554 -3.4178
 9157SOL    HW239108   1.416   4.676  16.437  1.1870  1.9602  0.6724
 9158SOL     OW39109   3.958   4.235   6.329 -0.0287 -0.4207 -0.2366
 9158SOL    HW139110   3.880   4.222   6.384  0.9132 -1.6745  0.7955
 9158SOL    HW239111   3.942   4.166   6.265  3.1216  0.5909 -2.1164
 9159SOL     OW39112   1.053   2.314  10.682  0.2400  0.0435 -0.7535
 9159SOL    HW139113   1.114   2.342  10.614  1.1851  0.1815  0.1526
 9159SOL    HW239114   0.978   2.299  10.625 -0.4430 -0.2426  0.2330
 9160SOL     OW39115   2.200   1.726   4.455  0.8796 -0.6494 -0.5466
 9160SOL    HW139116   2.272   1.663   4.446  0.5923 -1.2242  1.1961
 9160SOL    HW239117   2.126   1.676   4.423 -1.3539  2.0755  0.3757
 9161SOL     OW39118   3.636   2.389   9.025 -0.2612  0.2463 -0.1694
 9161SOL    HW139119   3.659   2.354   8.939 -2.2689 -0.5118 -0.3928
 9161SOL    HW239120   3.542   2.374   9.026 -0.5212  1.8976  1.1424
 9162SOL     OW39121   4.465   1.748   2.990 -0.3022  0.2107 -0.2781
 9162SOL    HW139122   4.522   1.818   2.959 -1.1664  1.0222 -0.0236
 9162SOL    HW239123   4.412   1.789   3.058  1.4103  2.8858 -0.5672
 9163SOL     OW39124   1.152   3.121  15.301 -0.3138  0.3239 -0.5343
 9163SOL    HW139125   1.216   3.061  15.261  2.1666  3.1737 -0.8035
 9163SOL    HW239126   1.207   3.159  15.369 -1.3157 -0.4024  0.7030
 9164SOL     OW39127   2.370   3.716   7.336  0.0999 -0.4759  0.6184
 9164SOL    HW139128   2.419   3.798   7.335 -1.2381  0.3120 -0.1139
 9164SOL    HW239129   2.441   3.653   7.350 -0.7036 -1.0648  2.0990
 9165SOL     OW39130   4.722   4.556   1.016  0.4701  0.8987  0.0321
 9165SOL    HW139131   0.031   4.549   0.934 -1.8877 -2.8438 -1.0995
 9165SOL    HW239132   0.037   4.535   1.091  1.0834 -1.5374 -1.0780
 9166SOL     OW39133   3.237   1.430   5.914  0.2708  0.4329  0.1321
 9166SOL    HW139134   3.227   1.513   5.866 -1.8246  0.5501  0.7719
 9166SOL    HW239135   3.260   1.463   6.001 -0.4786 -1.4199  1.0344
 9167SOL     OW39136   2.563   0.542  14.475 -0.2566  0.3112  0.0110
 9167SOL    HW139137   2.579   0.468  14.417 -0.0669  0.8271 -0.6043
 9167SOL    HW239138   2.516   0.519  14.555  1.6209 -1.5093  0.5598
 9168SOL     OW39139   1.973   0.594   0.837 -0.3252 -0.1098  0.1685
 9168SOL    HW139140   1.879   0.591   0.821 -0.5986 -0.0144  1.7250
 9168SOL    HW239141   2.006   0.625   0.753  1.7679 -1.5404  0.4564
 9169SOL     OW39142   0.318   3.506   2.186  1.0048 -0.3759 -0.3076
 9169SOL    HW139143   0.306   3.562   2.263 -3.4439  0.1658 -1.3857
 9169SOL    HW239144   0.299   3.420   2.224  0.6087 -0.0100  0.3322
 9170SOL     OW39145   0.792   0.374   4.129 -0.2054 -0.2065  0.6773
 9170SOL    HW139146   0.872   0.372   4.077  0.0507  1.1453  0.9924
 9170SOL    HW239147   0.825   0.353   4.216  2.1792  0.2682 -0.1241
 9171SOL     OW39148   2.467   2.169  12.863  0.1785  0.3484  0.1759
 9171SOL    HW139149   2.490   2.243  12.918  1.0602  0.6202 -0.5557
 9171SOL    HW239150   2.499   2.096  12.917 -1.6345  0.0018  0.8018
 9172SOL     OW39151   2.136   2.793   4.576 -0.0720  0.4916  0.1489
 9172SOL    HW139152   2.181   2.758   4.653  0.8619  1.9011  0.2591
 9172SOL    HW239153   2.187   2.870   4.548 -0.9686  0.9435 -0.2425
 9173SOL     OW39154   3.173   1.845   1.418  0.0762 -0.0679 -0.1041
 9173SOL    HW139155   3.096   1.901   1.430  0.0575  0.3326 -2.2010
 9173SOL    HW239156   3.240   1.886   1.472  0.4481 -1.2811  0.3500
 9174SOL     OW39157   2.955   1.180  17.715 -0.0764  0.0738 -0.1679
 9174SOL    HW139158   2.935   1.126  17.639 -0.0961 -0.1942  0.0291
 9174SOL    HW239159   2.950   1.117   0.029 -0.3445  0.6238  0.2889
 9175SOL     OW39160   3.898   1.790   4.730  0.2195  0.2045  0.0265
 9175SOL    HW139161   3.979   1.785   4.681 -0.2397 -2.0265 -0.5183
 9175SOL    HW239162   3.906   1.878   4.768 -1.5974  0.3121  0.1605
 9176SOL     OW39163   3.502   1.291  13.258  0.0963  0.1441 -0.0789
 9176SOL    HW139164   3.418   1.250  13.282 -0.1526  1.0462  0.5877
 9176SOL    HW239165   3.497   1.379  13.295  2.8225 -0.1221  0.9240
 9177SOL     OW39166   0.198   2.853   1.895 -0.0084  0.0711 -0.7690
 9177SOL    HW139167   0.269   2.891   1.843  0.8554  0.8120  0.9403
 9177SOL    HW239168   0.247   2.804   1.961 -1.2330 -0.6128 -0.3699
 9178SOL     OW39169   0.873   2.915   5.713 -0.8026 -0.1927 -0.2392
 9178SOL    HW139170   0.949   2.944   5.661 -0.3987  1.3037  1.2138
 9178SOL    HW239171   0.820   2.864   5.652 -1.9735 -2.4468  2.6755
 9179SOL     OW39172   1.865   2.461  11.007 -0.6242 -0.3461  0.5531
 9179SOL    HW139173   1.820   2.385  11.045 -1.5506  0.7818  1.7224
 9179SOL    HW239174   1.806   2.536  11.021  0.3802  0.6076 -0.3231
 9180SOL     OW39175   4.016   4.492  10.275  0.1238 -0.1038 -0.1932
 9180SOL    HW139176   4.076   4.460  10.343  1.1772  2.9048  0.2799
 9180SOL    HW239177   3.931   4.465  10.308  0.4828 -0.8959  0.0858
 9181SOL     OW39178   1.962   0.613   4.634  0.4744 -0.1643 -0.3788
 9181SOL    HW139179   2.045   0.627   4.589  0.2912  1.0985 -0.3066
 9181SOL    HW239180   1.976   0.535   4.688 -1.4986 -0.3339 -0.0930
 9182SOL     OW39181   4.138   3.088   5.679 -0.0464 -0.4465 -0.7880
 9182SOL    HW139182   4.077   3.150   5.639 -0.6582 -1.6584 -1.7439
 9182SOL    HW239183   4.220   3.137   5.677  0.3150 -1.1771 -3.6156
 9183SOL     OW39184   4.242   0.881  16.795 -0.1349 -0.5584 -0.5221
 9183SOL    HW139185   4.152   0.852  16.782 -0.7721  1.2793 -0.3216
 9183SOL    HW239186   4.251   0.857  16.887 -1.4635  2.3231  0.3606
 9184SOL     OW39187   4.352   0.478   6.003 -0.1089 -0.6283 -0.0489
 9184SOL    HW139188   4.375   0.444   6.089 -1.2456  1.0830  0.9221
 9184SOL    HW239189   4.438   0.479   5.961  0.3838  2.1792  1.0635
 9185SOL     OW39190   1.183   3.093  13.686  0.5199  0.5893  0.0631
 9185SOL    HW139191   1.150   3.059  13.769  0.5037 -2.1442 -1.0464
 9185SOL    HW239192   1.147   3.181  13.690  0.7358  0.6390  0.8836
 9186SOL     OW39193   0.181   0.524  14.665 -0.4113  0.2411 -0.3582
 9186SOL    HW139194   0.173   0.454  14.601  0.5790  0.7954 -1.0860
 9186SOL    HW239195   0.238   0.484  14.730 -0.7036 -0.0206 -0.2610
 9187SOL     OW39196   2.450   4.204   7.425  0.6129 -0.3458  0.4144
 9187SOL    HW139197   2.456   4.192   7.520 -2.9183 -1.0487  0.5569
 9187SOL    HW239198   2.543   4.193   7.403  0.8285 -0.7348  1.5464
 9188SOL     OW39199   1.397   2.410   5.865 -0.6474  0.5087 -0.0262
 9188SOL    HW139200   1.303   2.429   5.859 -0.8845 -0.5959  0.2589
 9188SOL    HW239201   1.389   2.323   5.903 -0.3313  0.5135  0.0493
 9189SOL     OW39202   1.949   3.369   6.322 -0.1629  0.1894 -0.1930
 9189SOL    HW139203   2.002   3.436   6.365 -2.2444  1.7260 -0.0253
 9189SOL    HW239204   1.915   3.316   6.394  1.1847 -1.9348 -1.1131
 9190SOL     OW39205   4.282   2.517   9.643  0.3648  0.5564 -0.3037
 9190SOL    HW139206   4.317   2.543   9.558 -0.0304  0.7199 -0.4178
 9190SOL    HW239207   4.292   2.423   9.651 -0.9180  0.3518 -1.1563
 9191SOL     OW39208   1.221   2.996   7.710  0.6814 -0.5981  0.0921
 9191SOL    HW139209   1.135   2.963   7.683 -0.2956  1.9014  0.0708
 9191SOL    HW239210   1.197   3.047   7.787  0.8337  1.3347 -1.1294
 9192SOL     OW39211   3.489   2.113  11.221 -0.0188 -0.1435  0.0399
 9192SOL    HW139212   3.560   2.129  11.283 -1.2617 -0.4971  1.5567
 9192SOL    HW239213   3.505   2.019  11.212  0.2710  0.2576 -3.4202
 9193SOL     OW39214   3.640   2.392   2.150  0.1645 -0.5025 -0.1927
 9193SOL    HW139215   3.592   2.444   2.086  1.2372 -0.5311 -1.0322
 9193SOL    HW239216   3.605   2.435   2.228  1.7678 -0.3933  0.4603
 9194SOL     OW39217   1.398   1.733   8.864 -0.8509  0.1169  0.6628
 9194SOL    HW139218   1.377   1.789   8.789  0.1118 -0.1900  0.1616
 9194SOL    HW239219   1.309   1.698   8.869 -1.7591  2.6372  2.0657
 9195SOL     OW39220   1.035   1.713   1.190  0.2103 -0.1571  0.2157
 9195SOL    HW139221   0.950   1.695   1.230  0.0622 -0.0219 -0.0333
 9195SOL    HW239222   1.084   1.676   1.263 -0.7130 -3.2138 -0.7444
 9196SOL     OW39223   4.280   0.115   5.969 -0.2915  0.1659 -0.6272
 9196SOL    HW139224   4.373   0.139   5.969  0.1127 -1.4141 -0.6825
 9196SOL    HW239225   4.251   0.123   6.059  1.2346  1.2620 -0.2336
 9197SOL     OW39226   4.622   1.915  13.062 -0.2000 -0.4002 -0.0271
 9197SOL    HW139227   4.688   1.980  13.085 -1.0968  0.5521 -0.1344
 9197SOL    HW239228   4.624   1.845  13.128 -1.5860 -1.3823 -1.0147
 9198SOL     OW39229   4.571   0.725   4.798  0.0768  0.4601  0.4566
 9198SOL    HW139230   4.620   0.648   4.771  1.1469  0.8728  1.2075
 9198SOL    HW239231   4.641   0.779   4.836  1.0617 -1.4019  1.3147
 9199SOL     OW39232   2.958   0.953   0.134  0.0271 -0.0127  0.2239
 9199SOL    HW139233   2.902   0.911   0.199  0.6755 -1.8396 -0.3884
 9199SOL    HW239234   3.042   0.923   0.169 -1.0236 -1.8221  1.2169
 9200SOL     OW39235   4.649   0.376   7.017 -0.0048  0.4315 -0.1473
 9200SOL    HW139236   4.646   0.282   7.034  5.2583  0.0048 -1.4765
 9200SOL    HW239237   4.624   0.400   7.106 -0.7153  0.6913 -0.4165
 9201SOL     OW39238   0.765   1.666   9.825  0.2108 -0.0064 -0.1708
 9201SOL    HW139239   0.730   1.704   9.906  1.0809 -0.5881  0.4757
 9201SOL    HW239240   0.710   1.588   9.825  1.9971 -1.2538  2.4954
 9202SOL     OW39241   1.566   2.944   6.297  0.4003  0.4666 -0.5061
 9202SOL    HW139242   1.484   2.951   6.247  0.8412  0.9871 -1.1487
 9202SOL    HW239243   1.594   3.035   6.289 -2.6849  1.5090  0.6172
 9203SOL     OW39244   1.187   2.994   7.042  0.9244  0.1707  0.1489
 9203SOL    HW139245   1.264   2.975   6.989  1.7957 -1.1353  1.8819
 9203SOL    HW239246   1.173   3.087   7.021  1.0206  0.5382  1.6845
 9204SOL     OW39247   3.849   4.311  10.580 -0.3824 -0.5156  0.2574
 9204SOL    HW139248   3.939   4.314  10.547 -1.1954  0.3490 -1.9143
 9204SOL    HW239249   3.810   4.314  10.492 -0.0867  0.4959  0.1661
 9205SOL     OW39250   4.460   2.204  15.971  0.4231  0.2463  0.0032
 9205SOL    HW139251   4.443   2.180  15.880  0.7311  1.4413 -0.3714
 9205SOL    HW239252   4.367   2.218  15.991  0.6394  1.4059  0.1832
 9206SOL     OW39253   1.793   2.176   9.077 -0.3431 -0.8417  0.7267
 9206SOL    HW139254   1.700   2.170   9.053 -0.0291  1.1054 -0.9724
 9206SOL    HW239255   1.813   2.085   9.099  1.2263 -0.6013  0.3148
 9207SOL     OW39256   2.004   2.433   2.859 -0.3201 -0.5560 -0.0524
 9207SOL    HW139257   2.038   2.356   2.906  2.0933  1.0213  0.8059
 9207SOL    HW239258   1.996   2.488   2.937  1.8355 -2.3518  1.4584
 9208SOL     OW39259   3.064   4.595  14.962 -0.0408 -0.2821  0.0029
 9208SOL    HW139260   3.055   4.690  14.972  2.5910 -0.0545  0.1504
 9208SOL    HW239261   2.974   4.566  14.946  0.1289 -1.0809  0.5225
 9209SOL     OW39262   0.360   1.247   7.353 -0.3365  0.1677  0.0529
 9209SOL    HW139263   0.328   1.169   7.310 -0.8105 -0.0310  0.7658
 9209SOL    HW239264   0.288   1.310   7.350 -1.5983 -1.4742 -3.1977
 9210SOL     OW39265   1.710   3.409   8.391 -0.7227  0.0032  0.2991
 9210SOL    HW139266   1.702   3.430   8.484 -0.7087 -1.5045  0.6416
 9210SOL    HW239267   1.643   3.473   8.370 -0.6367  0.2295  0.7315
 9211SOL     OW39268   2.770   4.403   6.637  0.3196 -0.2881 -0.2725
 9211SOL    HW139269   2.729   4.454   6.707  0.9559  1.2985 -1.0646
 9211SOL    HW239270   2.689   4.368   6.602 -0.7048  0.3509  1.4470
 9212SOL     OW39271   4.313   3.915   3.013 -0.2655 -0.8233 -0.0589
 9212SOL    HW139272   4.366   3.896   2.936 -0.7650  0.4420 -0.7040
 9212SOL    HW239273   4.382   3.957   3.065  1.1300 -3.3061  0.1273
 9213SOL     OW39274   1.927   3.048   2.228 -0.0429  0.5706 -0.5856
 9213SOL    HW139275   1.878   3.109   2.284 -2.3302 -1.3757 -0.4176
 9213SOL    HW239276   2.018   3.071   2.244 -0.1069 -0.1933  0.9178
 9214SOL     OW39277   2.706   4.647   1.853 -0.0577  0.0858  0.1502
 9214SOL    HW139278   2.651   4.608   1.785  1.7487  0.4167 -1.4821
 9214SOL    HW239279   2.670   4.736   1.852 -0.0276  0.0917 -0.1863
 9215SOL     OW39280   4.716   0.256  10.764 -0.3338 -0.0983  0.5168
 9215SOL    HW139281   0.055   0.202  10.765  0.2302  0.6675 -1.9262
 9215SOL    HW239282   4.727   0.313  10.688 -1.9819  0.5066  0.7459
 9216SOL     OW39283   1.814   0.658   8.825  0.1819 -0.1985 -0.1481
 9216SOL    HW139284   1.760   0.615   8.758  2.3472 -0.1768 -1.9175
 9216SOL    HW239285   1.858   0.724   8.772  0.6720  1.8664  2.8353
 9217SOL     OW39286   0.054   0.970   6.410 -0.8944 -0.8559  0.4453
 9217SOL    HW139287   0.010   1.043   6.453  2.2783  0.9578  0.6433
 9217SOL    HW239288   0.115   0.941   6.478  0.4752  5.2748  1.7464
 9218SOL     OW39289   2.706   0.279   8.393 -0.2429  0.4431  0.0171
 9218SOL    HW139290   2.704   0.274   8.297 -0.5573  1.2948 -0.0233
 9218SOL    HW239291   2.684   0.191   8.423  0.6472  1.2489  2.9462
 9219SOL     OW39292   3.430   2.875  15.586 -0.3561  0.3614 -0.3317
 9219SOL    HW139293   3.361   2.916  15.533 -0.6771  1.9880  1.3297
 9219SOL    HW239294   3.500   2.860  15.523  0.7241  0.9540  0.7260
 9220SOL     OW39295   3.512   3.612   2.332 -0.0783 -0.5889  0.2743
 9220SOL    HW139296   3.586   3.635   2.388  0.0359 -2.7772  1.0470
 9220SOL    HW239297   3.559   3.565   2.262  1.8583  0.1637  1.0806
 9221SOL     OW39298   4.431   2.769   4.512  0.6745 -0.2684 -0.2438
 9221SOL    HW139299   4.438   2.755   4.418  0.3246  1.0898 -0.4781
 9221SOL    HW239300   4.512   2.728   4.544 -1.1410 -2.5437  1.4519
 9222SOL     OW39301   0.060   1.963  16.591  0.0008  0.3945 -0.7436
 9222SOL    HW139302   4.738   1.922  16.530  2.1592 -1.7474 -1.5167
 9222SOL    HW239303   0.061   2.057  16.577  1.2082  0.5699  0.5105
 9223SOL     OW39304   1.269   0.500   7.932 -0.0307  0.0239 -0.3561
 9223SOL    HW139305   1.244   0.408   7.925 -0.9773  0.0455  2.5998
 9223SOL    HW239306   1.257   0.532   7.843  4.0754  2.6834  0.0623
 9224SOL     OW39307   0.190   1.972  13.698  0.2173  0.1135  0.0178
 9224SOL    HW139308   0.164   1.975  13.606  2.7711  1.5425 -0.6620
 9224SOL    HW239309   0.156   2.058  13.722  2.0975  0.6652  0.7005
 9225SOL     OW39310   3.250   3.561   2.815  0.0535 -0.0887  0.8877
 9225SOL    HW139311   3.270   3.646   2.775  3.2791 -0.4617  1.7333
 9225SOL    HW239312   3.272   3.507   2.739  1.0649  0.9064  0.4839
 9226SOL     OW39313   0.525   4.542   7.463  0.1987  0.1319 -0.7246
 9226SOL    HW139314   0.467   4.613   7.436  2.4454  1.8347 -1.1409
 9226SOL    HW239315   0.494   4.526   7.551  0.0737  1.0652 -0.5934
 9227SOL     OW39316   0.804   4.643   0.709  0.1003  0.6326  0.2226
 9227SOL    HW139317   0.729   4.611   0.759 -0.5031  0.0688 -1.0485
 9227SOL    HW239318   0.802   4.739   0.719 -0.9032  0.4471  1.8109
 9228SOL     OW39319   2.521   1.371   4.907  0.2557  0.3963 -0.0271
 9228SOL    HW139320   2.549   1.363   4.815  0.3795 -2.3932  0.2558
 9228SOL    HW239321   2.593   1.427   4.936  0.0036 -0.4395  2.2111
 9229SOL     OW39322   4.178   2.021   1.635 -0.2447  0.1886 -0.3327
 9229SOL    HW139323   4.234   2.096   1.614  2.4953 -2.0393 -0.9983
 9229SOL    HW239324   4.203   1.986   1.721  1.4378  0.0658 -0.8731
 9230SOL     OW39325   1.600   0.405  12.082 -0.3434  0.4415 -0.0680
 9230SOL    HW139326   1.543   0.373  12.152 -0.7420  1.4905  0.0940
 9230SOL    HW239327   1.664   0.334  12.079 -1.4904 -0.5939  0.2780
 9231SOL     OW39328   1.962   0.024   2.557 -0.0878 -0.2887 -0.0876
 9231SOL    HW139329   1.946   0.118   2.559 -3.2696 -0.7999 -0.9117
 9231SOL    HW239330   1.872   4.733   2.571  0.2379 -1.3160 -0.2609
 9232SOL     OW39331   0.619   3.062  13.474 -0.2644  0.4965 -1.1074
 9232SOL    HW139332   0.706   3.041  13.510 -1.3493  1.8230  2.3235
 9232SOL    HW239333   0.599   3.148  13.511  1.2951  0.3716  0.0757
 9233SOL     OW39334   1.247   2.697  12.830  0.7387  0.6924 -0.0495
 9233SOL    HW139335   1.222   2.788  12.814 -0.8265 -0.0899 -2.0711
 9233SOL    HW239336   1.165   2.652  12.808  1.1590  0.7543 -1.7959
 9234SOL     OW39337   4.583   0.165  11.008  0.2452  0.3296  0.3606
 9234SOL    HW139338   4.649   0.206  10.953  0.0593  0.9280  0.5807
 9234SOL    HW239339   4.580   0.079  10.965  2.8114  0.4468 -0.0442
 9235SOL     OW39340   0.505   1.053   6.015 -0.2010 -0.3056 -0.1145
 9235SOL    HW139341   0.492   1.143   5.983 -0.3356  0.0336  0.9069
 9235SOL    HW239342   0.524   1.070   6.107 -0.1014 -1.9173  0.1652
 9236SOL     OW39343   3.989   4.186   7.110  0.0663 -0.1135  0.1516
 9236SOL    HW139344   4.043   4.175   7.188  1.6945  2.3285 -0.6458
 9236SOL    HW239345   3.920   4.250   7.127 -0.2355 -0.8279  1.6689
 9237SOL     OW39346   1.365   3.526   5.108 -0.8991 -0.3295 -0.0230
 9237SOL    HW139347   1.348   3.432   5.120 -1.7413  0.1464  2.4611
 9237SOL    HW239348   1.412   3.544   5.189 -0.8783 -1.5514  0.2302
 9238SOL     OW39349   0.867   4.321   6.634  0.3393 -0.0528  0.9596
 9238SOL    HW139350   0.818   4.356   6.708 -0.6846  0.1551  0.1998
 9238SOL    HW239351   0.801   4.303   6.567  0.2321  1.4499  0.6592
 9239SOL     OW39352   0.725   3.788   3.589 -0.2303  1.2049  0.3115
 9239SOL    HW139353   0.714   3.705   3.541  4.4940  0.2958  0.7656
 9239SOL    HW239354   0.796   3.774   3.652 -0.4412 -0.1976  0.2330
 9240SOL     OW39355   4.394   0.396  12.558 -0.9980  0.0906 -0.2600
 9240SOL    HW139356   4.385   0.484  12.594  0.5739  0.4856 -0.8628
 9240SOL    HW239357   4.483   0.382  12.590 -0.9915 -0.6199 -0.5893
 9241SOL     OW39358   4.726   4.172   3.675 -1.2815 -0.2181  0.0532
 9241SOL    HW139359   0.061   4.116   3.655  0.9803  2.9426 -0.1519
 9241SOL    HW239360   4.684   4.121   3.744  0.8335 -2.0942 -0.0405
 9242SOL     OW39361   4.125   0.011   2.339 -0.2697  0.0831  0.2700
 9242SOL    HW139362   4.096   4.660   2.331 -1.4958  0.3178  1.9134
 9242SOL    HW239363   4.218   0.001   2.320  0.7060 -0.3527  5.1536
 9243SOL     OW39364   1.161   3.813   2.071  0.7073  0.0416  0.0224
 9243SOL    HW139365   1.186   3.836   2.160  1.9412 -1.1569 -0.0152
 9243SOL    HW239366   1.119   3.892   2.037  0.9238  0.9443  1.8876
 9244SOL     OW39367   3.029   4.598   8.541 -0.4635 -0.6653 -0.1658
 9244SOL    HW139368   3.024   4.644   8.625  0.7399 -2.1908  0.7427
 9244SOL    HW239369   3.113   4.552   8.544  0.0837  0.2764 -1.3036
 9245SOL     OW39370   2.647   4.246  13.752 -0.1681 -0.3981  0.1693
 9245SOL    HW139371   2.597   4.174  13.789 -1.4160  1.1629  1.5384
 9245SOL    HW239372   2.594   4.278  13.680 -2.4841  0.3643  2.2223
 9246SOL     OW39373   1.244   2.864  16.536  0.6635 -0.2873  0.4712
 9246SOL    HW139374   1.285   2.780  16.553 -0.3646 -1.2521 -1.7793
 9246SOL    HW239375   1.303   2.921  16.585  1.2008  0.9237 -1.5623
 9247SOL     OW39376   2.706   1.388   5.862 -0.1317  0.5053 -0.6776
 9247SOL    HW139377   2.787   1.413   5.818  0.5560  0.2718  0.4787
 9247SOL    HW239378   2.650   1.365   5.787  1.5225 -1.7282 -1.2397
 9248SOL     OW39379   4.578   4.049   6.223 -0.0932  1.3028  0.2212
 9248SOL    HW139380   4.659   4.057   6.274  1.4887  0.7356 -2.1547
 9248SOL    HW239381   4.609   4.059   6.132 -0.1629  1.2752  0.1947
 9249SOL     OW39382   2.407   0.171   6.670 -0.0067 -0.0259  0.1693
 9249SOL    HW139383   2.472   0.100   6.665  1.9917  1.8229  0.1682
 9249SOL    HW239384   2.362   0.184   6.587  0.1352 -0.7437 -0.0191
 9250SOL     OW39385   3.820   2.741   9.516  0.3221  0.4958  0.0151
 9250SOL    HW139386   3.820   2.714   9.424 -0.4780 -1.0800  0.4802
 9250SOL    HW239387   3.886   2.685   9.556 -1.3921 -1.2514  0.4538
 9251SOL     OW39388   1.321   1.133  10.428  0.4717 -0.1291 -0.0709
 9251SOL    HW139389   1.268   1.161  10.353 -2.4095 -0.6016  1.8069
 9251SOL    HW239390   1.320   1.210  10.484  1.5644 -0.6315  0.6382
 9252SOL     OW39391   3.383   1.006   2.468  0.7210 -0.2391  0.0005
 9252SOL    HW139392   3.451   1.016   2.401 -0.3132  0.1385 -0.9889
 9252SOL    HW239393   3.314   1.047   2.417  0.9542  1.3151  0.9054
 9253SOL     OW39394   2.091   3.877   9.355  1.1520  0.6119  0.1295
 9253SOL    HW139395   2.125   3.964   9.378 -3.0574  2.5253 -0.8172
 9253SOL    HW239396   1.996   3.882   9.370  0.7753 -0.7586 -1.8105
 9254SOL     OW39397   3.571   0.870  11.538 -0.7249  0.1127 -0.0886
 9254SOL    HW139398   3.488   0.895  11.579 -1.5367 -1.2354 -0.9136
 9254SOL    HW239399   3.626   0.945  11.560 -3.1584  2.4995 -2.1750
 9255SOL     OW39400   2.778   2.733   5.174  0.7963 -0.1999 -0.0352
 9255SOL    HW139401   2.760   2.824   5.198 -0.3267 -0.3079 -0.4967
 9255SOL    HW239402   2.710   2.692   5.121  1.0170 -2.9825  1.8880
 9256SOL     OW39403   4.555   0.430   3.322  0.2143  0.3191  0.7525
 9256SOL    HW139404   4.575   0.389   3.238 -2.4532  1.5917 -0.4978
 9256SOL    HW239405   4.469   0.397   3.346 -0.0081  0.8325  0.6608
 9257SOL     OW39406   2.551   4.487   2.019 -0.3396  0.3238  0.6021
 9257SOL    HW139407   2.597   4.520   1.943  0.5550 -1.6315  0.3050
 9257SOL    HW239408   2.609   4.514   2.091  3.0005 -0.3022 -1.8851
 9258SOL     OW39409   2.551   0.127   1.544  0.3306  0.1069 -0.5081
 9258SOL    HW139410   2.526   0.154   1.456 -0.0348 -0.0972 -0.4651
 9258SOL    HW239411   2.612   0.056   1.523  1.5856  0.8123  0.7569
 9259SOL     OW39412   4.279   4.639  16.480 -0.1162  0.0207  0.3218
 9259SOL    HW139413   4.322   4.677  16.557  1.8404  0.0291 -0.7731
 9259SOL    HW239414   4.324   4.555  16.488 -0.1290  0.0439  0.6343
 9260SOL     OW39415   3.466   4.670   3.419 -0.4421 -0.2784 -0.1264
 9260SOL    HW139416   3.555   4.636   3.427 -0.7311 -0.7389  1.1396
 9260SOL    HW239417   3.470   0.020   3.452  1.1083 -0.4958  0.2920
 9261SOL     OW39418   4.237   3.387   1.839  0.0531 -0.1136 -0.0119
 9261SOL    HW139419   4.161   3.393   1.780 -0.1493  0.4462  0.3039
 9261SOL    HW239420   4.256   3.479   1.857 -1.3256  0.4287 -1.2862
 9262SOL     OW39421   2.271   3.597   3.172  0.2105  0.1612 -0.4458
 9262SOL    HW139422   2.292   3.588   3.265  1.5823 -1.6440 -0.9216
 9262SOL    HW239423   2.231   3.512   3.152  0.9116 -0.7699  2.0518
 9263SOL     OW39424   4.243   1.123   1.592 -0.6618 -0.1280 -0.3706
 9263SOL    HW139425   4.231   1.213   1.622 -0.0047 -0.3377  0.5197
 9263SOL    HW239426   4.255   1.139   1.498 -0.9446 -2.6511 -0.8275
 9264SOL     OW39427   3.045   4.318  17.469  0.1728  0.0060 -0.3841
 9264SOL    HW139428   2.981   4.267  17.420  1.0505 -0.3472 -1.1725
 9264SOL    HW239429   3.045   4.266  17.549 -0.5532 -1.4749 -1.3398
 9265SOL     OW39430   3.412   3.889   5.022  0.4584  0.3674 -0.2328
 9265SOL    HW139431   3.353   3.814   5.025 -2.1529  2.4346 -0.0776
 9265SOL    HW239432   3.467   3.864   4.948 -3.1398 -0.7616 -2.5134
 9266SOL     OW39433   1.652   4.453   3.491  0.1191  0.0890 -0.1223
 9266SOL    HW139434   1.659   4.528   3.432 -2.5160 -1.0109 -1.8214
 9266SOL    HW239435   1.710   4.395   3.442 -1.2299 -0.4133 -1.1267
 9267SOL     OW39436   1.845   2.870   8.312  0.3614 -0.0449  0.2041
 9267SOL    HW139437   1.873   2.792   8.359  0.8154  0.8528  1.4162
 9267SOL    HW239438   1.801   2.929   8.373 -1.8653 -0.4226 -1.0156
 9268SOL     OW39439   0.198   1.953   2.285  0.2816  0.2050  0.1720
 9268SOL    HW139440   0.199   1.955   2.380 -0.6310  2.4759  0.1365
 9268SOL    HW239441   0.127   1.894   2.261  2.2051 -2.4947  1.0475
 9269SOL     OW39442   0.376   0.870  14.569  0.4464  0.3668 -0.6879
 9269SOL    HW139443   0.429   0.802  14.527  1.0105  0.9702 -0.9522
 9269SOL    HW239444   0.437   0.943  14.579  0.3501  0.4702 -0.8491
 9270SOL     OW39445   1.089   1.196   2.486  0.1464 -0.0750  0.1201
 9270SOL    HW139446   1.076   1.165   2.576  1.3414  1.3537  0.7650
 9270SOL    HW239447   1.000   1.209   2.452 -0.3168 -2.7673  0.2339
 9271SOL     OW39448   0.954   2.379   3.091 -0.7156  0.0934 -0.1493
 9271SOL    HW139449   0.988   2.290   3.081  0.3128  0.1277  2.9673
 9271SOL    HW239450   0.866   2.370   3.055  0.1594 -0.5730 -2.1142
 9272SOL     OW39451   2.127   3.540   6.812 -0.3083 -0.2428  0.7812
 9272SOL    HW139452   2.105   3.630   6.836 -2.6658 -0.0540 -2.1036
 9272SOL    HW239453   2.040   3.501   6.823 -0.6710  0.5112  0.5390
 9273SOL     OW39454   3.926   2.612  16.686 -0.1508 -0.4797 -0.0711
 9273SOL    HW139455   3.883   2.583  16.606  0.5069 -2.8115  0.4239
 9273SOL    HW239456   3.973   2.533  16.712  1.1795  0.0848 -0.7413
 9274SOL     OW39457   2.181   0.670   5.321  0.1842  0.3447 -0.2190
 9274SOL    HW139458   2.092   0.689   5.290  0.3967  1.8167  0.0774
 9274SOL    HW239459   2.197   0.576   5.321 -0.0527  0.2963 -1.5390
 9275SOL     OW39460   1.590   1.769  15.259 -0.1256  0.5540  0.3308
 9275SOL    HW139461   1.560   1.680  15.241  0.3071  0.2942  0.8824
 9275SOL    HW239462   1.555   1.787  15.346 -0.3123 -1.1665  0.6143
 9276SOL     OW39463   0.026   0.408   9.489 -0.4411 -0.2921  0.4524
 9276SOL    HW139464   4.712   0.441   9.561 -0.4602 -1.5134  1.0004
 9276SOL    HW239465   0.103   0.386   9.540  1.3867  0.8972 -1.8016
 9277SOL     OW39466   3.555   0.871  10.763 -0.4290 -0.0925  0.9185
 9277SOL    HW139467   3.466   0.877  10.727  0.5514  0.7442 -1.3482
 9277SOL    HW239468   3.525   0.863  10.854 -0.1329 -2.2030  0.8288
 9278SOL     OW39469   3.188   0.371   9.445  0.2480  0.6127  0.4589
 9278SOL    HW139470   3.219   0.399   9.359 -0.1015 -0.4068  0.0119
 9278SOL    HW239471   3.113   0.311   9.442 -0.6546  1.8275 -1.2292
 9279SOL     OW39472   4.650   1.148  10.946  0.6228  0.9940  0.1464
 9279SOL    HW139473   4.623   1.059  10.924  0.0684  1.0101  0.7806
 9279SOL    HW239474   4.567   1.185  10.977  0.2533  0.2446  0.0385
 9280SOL     OW39475   4.651   4.407   8.061 -0.0274  0.9842 -0.1056
 9280SOL    HW139476   4.721   4.384   8.123 -0.7472 -1.6228 -0.2513
 9280SOL    HW239477   4.578   4.351   8.087  0.7788  0.0967  0.2456
 9281SOL     OW39478   0.106   1.804   6.388 -0.3402 -0.3422 -0.1646
 9281SOL    HW139479   0.090   1.781   6.297 -0.5374 -0.6384 -0.0536
 9281SOL    HW239480   0.136   1.719   6.422 -0.4960 -0.7750 -1.1241
 9282SOL     OW39481   3.318   2.581   7.987  0.2002 -0.7105 -0.9200
 9282SOL    HW139482   3.266   2.501   7.977  0.6159 -1.0785 -0.0756
 9282SOL    HW239483   3.268   2.648   7.940 -0.1897  0.1835  0.7704
 9283SOL     OW39484   3.129   1.529   9.448  0.6626  0.4936 -0.1939
 9283SOL    HW139485   3.067   1.541   9.520  2.0744  2.3525  0.7164
 9283SOL    HW239486   3.102   1.600   9.389 -0.9603 -0.6032 -0.7638
 9284SOL     OW39487   3.213   2.363  10.147  0.1946  0.9573 -0.1110
 9284SOL    HW139488   3.261   2.362  10.065  1.7372  0.6839  0.7823
 9284SOL    HW239489   3.129   2.337  10.111  1.0123  0.3657 -1.5791
 9285SOL     OW39490   2.144   0.518  17.709 -0.4622  0.3758 -0.0956
 9285SOL    HW139491   2.069   0.574  17.690  0.4394  0.8751 -2.2020
 9285SOL    HW239492   2.158   0.537   0.044 -1.0492 -0.6204  0.1955
 9286SOL     OW39493   4.657   4.179   3.332 -0.1623  0.2480  0.5222
 9286SOL    HW139494   4.654   4.205   3.424 -2.0545  0.2854  0.4442
 9286SOL    HW239495   0.009   4.195   3.309  0.3810 -0.1735  2.3812
 9287SOL     OW39496   1.821   3.925   9.242  0.3875 -0.5522  0.8515
 9287SOL    HW139497   1.806   3.983   9.316  2.4137 -0.4377  1.1588
 9287SOL    HW239498   1.736   3.882   9.232 -0.4908  1.0904  1.3256
 9288SOL     OW39499   2.969   0.450   7.387 -0.4352 -0.1789 -0.3326
 9288SOL    HW139500   3.017   0.441   7.469  0.6878 -0.4207 -1.0130
 9288SOL    HW239501   2.978   0.365   7.344 -1.2216  0.9074 -2.6410
 9289SOL     OW39502   3.763   1.607  17.636  0.1493 -0.2858  0.3979
 9289SOL    HW139503   3.721   1.534  17.590 -0.2186  0.9104 -1.1839
 9289SOL    HW239504   3.704   1.616  17.711  2.7103  1.9662  2.1548
 9290SOL     OW39505   2.843   4.688  12.212 -0.2153  0.5425  0.6182
 9290SOL    HW139506   2.929   4.713  12.176  0.6087 -2.7629  0.2756
 9290SOL    HW239507   2.830   4.729  12.297  1.1102 -0.2223  1.1909
 9291SOL     OW39508   3.123   1.570   4.647  0.8172 -0.6228 -0.3771
 9291SOL    HW139509   3.134   1.492   4.592  1.2597 -1.7311  1.3019
 9291SOL    HW239510   3.177   1.637   4.604  1.1800 -1.7774 -1.7360
 9292SOL     OW39511   3.146   1.262  10.832  0.0073 -0.6167 -0.1975
 9292SOL    HW139512   3.167   1.279  10.740  0.5124  1.0045  0.2142
 9292SOL    HW239513   3.078   1.197  10.817 -1.9525  1.1107  1.1966
 9293SOL     OW39514   1.524   2.425  16.518  0.0765 -0.0731  0.4915
 9293SOL    HW139515   1.479   2.506  16.492 -1.0268 -0.5413  0.9232
 9293SOL    HW239516   1.595   2.438  16.580 -0.1116 -1.3296  0.9741
 9294SOL     OW39517   4.606   3.342   2.146  0.7886  0.3966 -0.3660
 9294SOL    HW139518   4.521   3.305   2.120  1.3515 -1.1121 -0.0905
 9294SOL    HW239519   4.642   3.253   2.151  0.8346  0.5719  2.3255
 9295SOL     OW39520   2.097   3.226   2.774  0.4402  0.4020 -0.3559
 9295SOL    HW139521   2.080   3.167   2.847 -1.0272  1.3192  0.0404
 9295SOL    HW239522   2.102   3.165   2.700 -0.3931 -0.9870  0.7310
 9296SOL     OW39523   3.881   3.954   1.775 -0.1156 -0.3596  0.3155
 9296SOL    HW139524   3.944   3.883   1.789  0.1406  0.4238  2.9907
 9296SOL    HW239525   3.883   3.997   1.860  2.6935 -2.0325  1.0853
 9297SOL     OW39526   1.634   4.085   3.710 -0.6004  0.0387  0.0812
 9297SOL    HW139527   1.669   4.173   3.724  0.7031 -0.9138  2.7952
 9297SOL    HW239528   1.645   4.037   3.792 -2.7013  3.2463  2.2125
 9298SOL     OW39529   2.099   3.152   0.352 -0.3263 -0.3678  0.1680
 9298SOL    HW139530   2.111   3.190   0.439 -1.2674  0.1218  0.0892
 9298SOL    HW239531   2.047   3.078   0.383 -0.6378 -0.1361  0.2069
 9299SOL     OW39532   3.582   3.872  13.366 -0.1045  0.1856  0.1043
 9299SOL    HW139533   3.628   3.875  13.282  0.0263 -0.7901  0.1345
 9299SOL    HW239534   3.567   3.779  13.384  0.0292  0.5080  1.8783
 9300SOL     OW39535   0.952   1.505   3.781  0.4308 -0.0170 -0.2565
 9300SOL    HW139536   0.868   1.551   3.779 -0.1381 -1.0540 -0.0918
 9300SOL    HW239537   1.003   1.582   3.807 -0.4757  0.8660 -1.0584
 9301SOL     OW39538   1.589   2.539  15.335 -0.1071 -0.2254  0.3005
 9301SOL    HW139539   1.644   2.461  15.325 -1.4623 -1.1557  0.1533
 9301SOL    HW239540   1.586   2.543  15.430 -2.4472  1.5918  0.1474
 9302SOL     OW39541   2.371   4.598   3.512 -0.4005 -0.3785  0.4895
 9302SOL    HW139542   2.295   4.550   3.480 -1.3438  2.2813 -1.2187
 9302SOL    HW239543   2.438   4.587   3.444 -1.9967 -0.2058 -1.1181
 9303SOL     OW39544   1.330   2.574   4.003 -0.0228  0.1124  0.1787
 9303SOL    HW139545   1.378   2.617   4.074 -0.6327  0.4222  0.3971
 9303SOL    HW239546   1.265   2.642   3.986 -2.3981 -2.3643 -0.5736
 9304SOL     OW39547   1.081   2.165   8.962 -0.1521 -0.1193  0.5368
 9304SOL    HW139548   1.083   2.094   9.026 -0.9236 -0.0158  0.6814
 9304SOL    HW239549   0.995   2.203   8.982  0.4044  2.5276 -2.0594
 9305SOL     OW39550   1.828   2.607  16.345 -0.0396 -0.2038 -0.0172
 9305SOL    HW139551   1.860   2.543  16.282 -2.8041 -1.0222 -0.5877
 9305SOL    HW239552   1.879   2.686  16.325 -1.9954  1.1679  0.4382
 9306SOL     OW39553   4.730   4.473  16.025 -0.2168 -0.6102  0.3394
 9306SOL    HW139554   0.002   4.379  16.039 -1.7457 -1.0410 -1.2973
 9306SOL    HW239555   4.648   4.482  16.074 -0.8189 -0.9264 -0.6140
 9307SOL     OW39556   2.061   1.881   1.275  0.8497 -0.1729  0.0954
 9307SOL    HW139557   2.012   1.846   1.200  1.0136  0.3002 -0.2317
 9307SOL    HW239558   2.118   1.806   1.295  1.6718 -0.1622 -2.2015
 9308SOL     OW39559   3.100   1.921  14.003  0.5672 -0.0883 -0.5843
 9308SOL    HW139560   3.102   1.985  14.074  2.6055 -0.2660 -0.5006
 9308SOL    HW239561   3.097   1.984  13.930 -0.2688  3.0932  2.1906
 9309SOL     OW39562   2.853   3.645   8.014 -0.0137  0.2180 -0.2627
 9309SOL    HW139563   2.810   3.684   8.089 -1.3767 -2.1828  0.2003
 9309SOL    HW239564   2.775   3.623   7.963  1.1719 -0.9307 -1.6102
 9310SOL     OW39565   2.316   1.635   7.243  0.0824 -0.0811 -0.0623
 9310SOL    HW139566   2.280   1.561   7.291  1.2543 -1.7077 -1.6848
 9310SOL    HW239567   2.239   1.692   7.236 -0.2498 -0.5384 -0.1039
 9311SOL     OW39568   1.524   0.039   6.872  0.5053  0.3372 -0.0471
 9311SOL    HW139569   1.467   4.706   6.849  0.4658  0.4823 -0.4061
 9311SOL    HW239570   1.607   4.732   6.871 -0.3832 -1.1557 -2.5151
 9312SOL     OW39571   4.537   3.735   3.999 -0.3103  0.5246 -0.2059
 9312SOL    HW139572   4.576   3.668   3.941 -0.2378  1.3151 -1.0714
 9312SOL    HW239573   4.538   3.800   3.928 -0.6758  0.6218 -0.1193
 9313SOL     OW39574   4.642   3.891   0.469 -0.2594 -0.3210  0.5378
 9313SOL    HW139575   4.606   3.824   0.412 -0.3049 -1.0659  1.4376
 9313SOL    HW239576   4.564   3.913   0.520 -0.6673 -0.2669 -0.1077
 9314SOL     OW39577   3.647   0.883   5.398  0.0284 -0.2096 -0.2303
 9314SOL    HW139578   3.555   0.860   5.381 -0.1880  0.1033  0.4921
 9314SOL    HW239579   3.671   0.799   5.436 -1.7426  0.6624  2.8142
 9315SOL     OW39580   0.530   0.450   7.186  0.5664  0.0115  0.0626
 9315SOL    HW139581   0.566   0.452   7.274  4.3554 -1.6938 -1.4600
 9315SOL    HW239582   0.475   0.373   7.203  2.5337 -1.3016  0.4153
 9316SOL     OW39583   3.338   1.325   8.910  0.4179 -0.4079 -0.0396
 9316SOL    HW139584   3.361   1.316   9.002 -1.3717 -0.1554  0.4477
 9316SOL    HW239585   3.271   1.257   8.902 -0.8889  0.7465  1.1276
 9317SOL     OW39586   3.643   1.506   1.376 -0.5823  0.3428  0.3740
 9317SOL    HW139587   3.668   1.587   1.420  0.8397  0.0083  0.1942
 9317SOL    HW239588   3.574   1.538   1.319  0.0289 -2.2374 -1.8091
 9318SOL     OW39589   1.996   0.570   1.610  0.1636 -0.0775  0.0544
 9318SOL    HW139590   1.938   0.516   1.556 -0.0327 -0.0511  0.2392
 9318SOL    HW239591   1.961   0.560   1.698 -1.8673  0.4416 -0.6939
 9319SOL     OW39592   3.975   1.789   1.934 -0.2509 -0.0521  0.3943
 9319SOL    HW139593   3.944   1.757   1.849 -1.6187  1.1379  0.4556
 9319SOL    HW239594   4.039   1.726   1.969  0.7478  0.1995 -0.9550
 9320SOL     OW39595   0.831   2.489   4.148  0.6026 -0.1706 -0.3213
 9320SOL    HW139596   0.807   2.412   4.097 -1.5663  1.9952 -2.5853
 9320SOL    HW239597   0.916   2.476   4.191  0.0301 -1.4705  0.4032
 9321SOL     OW39598   0.885   3.453   8.894 -0.4184 -0.9345 -0.3143
 9321SOL    HW139599   0.793   3.464   8.919 -0.2899  0.4572 -0.4679
 9321SOL    HW239600   0.894   3.359   8.913 -0.7910 -0.6292  1.3496
 9322SOL     OW39601   4.132   2.910   8.616 -0.0911 -0.6044 -0.3195
 9322SOL    HW139602   4.069   2.937   8.550  0.1362  1.3923  0.2812
 9322SOL    HW239603   4.136   2.983   8.678 -1.9061  0.8526 -1.9149
 9323SOL     OW39604   0.814   1.553   9.332 -0.2018  0.3732  0.0601
 9323SOL    HW139605   0.766   1.630   9.303  2.2363  1.0825 -2.1350
 9323SOL    HW239606   0.836   1.586   9.419 -1.1066 -1.4181  0.9530
 9324SOL     OW39607   0.017   0.800   2.769  0.0720  0.1775  0.4631
 9324SOL    HW139608   0.088   0.861   2.791  2.0762 -2.0727  0.2872
 9324SOL    HW239609   0.017   0.753   2.853 -0.5941  1.4735  1.1850
 9325SOL     OW39610   0.180   0.255   6.490 -0.2258 -0.2348 -0.1825
 9325SOL    HW139611   0.095   0.269   6.532 -0.8039  1.1707 -1.8454
 9325SOL    HW239612   0.157   0.274   6.399  1.6910 -0.6039 -0.7496
 9326SOL     OW39613   4.053   1.065   7.796  0.6941  0.4011 -0.0699
 9326SOL    HW139614   4.041   0.974   7.770  0.7179 -0.2601  2.2634
 9326SOL    HW239615   3.972   1.072   7.848  1.3144  3.1513  0.5363
 9327SOL     OW39616   4.326   1.769   2.312 -0.2077  0.3558  0.0044
 9327SOL    HW139617   4.311   1.699   2.248 -1.6307  0.3722  0.3240
 9327SOL    HW239618   4.240   1.789   2.348  0.3980 -0.7087  2.0443
 9328SOL     OW39619   2.097   3.355  15.434  0.3148  0.5274 -0.5131
 9328SOL    HW139620   2.020   3.386  15.387  0.3173 -0.6162 -1.2646
 9328SOL    HW239621   2.047   3.320  15.508 -0.2845  2.3780 -0.0539
 9329SOL     OW39622   0.451   0.686   6.978  0.4484 -0.1336 -0.0144
 9329SOL    HW139623   0.385   0.649   6.920  1.2938  0.6517 -1.4857
 9329SOL    HW239624   0.450   0.616   7.043  0.5553  1.0082  1.2026
 9330SOL     OW39625   3.161   4.502   3.388 -0.3305  0.2977  0.0177
 9330SOL    HW139626   3.128   4.590   3.408 -0.6794  0.0453  0.5451
 9330SOL    HW239627   3.255   4.521   3.388 -0.3470  0.3784 -0.2015
 9331SOL     OW39628   1.108   4.319   1.895 -0.1444 -0.0106 -0.2044
 9331SOL    HW139629   1.078   4.409   1.908 -0.1012  0.1310 -1.0660
 9331SOL    HW239630   1.198   4.340   1.919  0.4022 -2.0994 -0.4748
 9332SOL     OW39631   2.164   0.195   0.672  0.6834  0.2155 -0.1270
 9332SOL    HW139632   2.092   0.238   0.626  1.0333  0.7518 -0.1796
 9332SOL    HW239633   2.168   0.114   0.622 -1.1617 -0.7150  1.2187
 9333SOL     OW39634   1.374   2.372   7.506 -0.3771  0.3549  0.3510
 9333SOL    HW139635   1.346   2.286   7.475 -1.3835  1.5739 -2.1911
 9333SOL    HW239636   1.422   2.398   7.427 -0.4355  0.6017  0.3962
 9334SOL     OW39637   1.288   2.670  13.435  0.3848  0.4950  0.1411
 9334SOL    HW139638   1.204   2.627  13.451  0.0893  1.2957  0.7597
 9334SOL    HW239639   1.294   2.712  13.521  1.7728 -1.7774  1.1311
 9335SOL     OW39640   2.269   2.915   1.777 -0.4432  0.8607  0.3577
 9335SOL    HW139641   2.278   2.866   1.696 -0.9240 -0.1412  0.9068
 9335SOL    HW239642   2.285   2.840   1.836 -0.6969  1.5443  1.2995
 9336SOL     OW39643   4.216   3.256   4.126  0.0638 -0.4328 -0.3324
 9336SOL    HW139644   4.301   3.253   4.170 -0.1070  0.7759  0.0787
 9336SOL    HW239645   4.152   3.257   4.198  0.3888  2.2473 -0.0949
 9337SOL     OW39646   0.554   4.362   4.360  0.2973 -0.5157 -0.1652
 9337SOL    HW139647   0.629   4.319   4.318  1.8263  1.2587  0.7409
 9337SOL    HW239648   0.576   4.341   4.450  0.0488  3.2417  0.7681
 9338SOL     OW39649   2.466   4.441  15.144  0.1024  0.0383 -0.2102
 9338SOL    HW139650   2.484   4.371  15.207  3.7171  0.4891 -0.7783
 9338SOL    HW239651   2.553   4.481  15.139 -0.3738  1.0908 -0.0577
 9339SOL     OW39652   2.088   0.157   0.966 -0.2006  0.0512  0.4551
 9339SOL    HW139653   2.175   0.147   1.005 -1.2615 -2.3694  2.1302
 9339SOL    HW239654   2.114   0.161   0.874  0.2962  0.4908  0.6165
 9340SOL     OW39655   0.653   3.319  14.376 -0.0801  0.2134 -0.2932
 9340SOL    HW139656   0.678   3.321  14.284 -2.9958  0.1935 -1.0822
 9340SOL    HW239657   0.647   3.413  14.396 -0.2804  0.1071  0.1480
 9341SOL     OW39658   3.205   2.310   7.869  0.0377  0.5296 -0.2825
 9341SOL    HW139659   3.119   2.286   7.904 -0.2198  2.6173  0.5443
 9341SOL    HW239660   3.188   2.339   7.779  0.4132  1.4414 -0.0629
 9342SOL     OW39661   3.850   2.330   4.074 -0.0768 -0.2774  0.3846
 9342SOL    HW139662   3.781   2.396   4.081  1.0633  1.0493 -0.7545
 9342SOL    HW239663   3.867   2.308   4.165  1.5897 -0.9607 -0.0948
 9343SOL     OW39664   2.475   2.908  12.462  0.4678 -0.4357  0.3713
 9343SOL    HW139665   2.529   2.848  12.513  0.4124 -2.1485 -1.5977
 9343SOL    HW239666   2.417   2.842  12.424  1.6216 -0.3538 -1.5273
 9344SOL     OW39667   2.589   0.143   2.293  0.1012  0.0543 -0.4904
 9344SOL    HW139668   2.528   0.132   2.221  0.9744  1.0853 -1.3888
 9344SOL    HW239669   2.541   0.104   2.366  2.8861 -0.7242  0.9288
 9345SOL     OW39670   2.578   0.125   3.650  0.1478 -0.0537 -0.5091
 9345SOL    HW139671   2.621   0.177   3.583 -0.9275 -0.0893 -1.2253
 9345SOL    HW239672   2.586   0.038   3.611 -0.4092 -0.0235 -0.6926
 9346SOL     OW39673   4.295   1.874  10.026  0.4307 -0.8619 -0.4363
 9346SOL    HW139674   4.255   1.957  10.000  1.0860 -0.2538  0.5114
 9346SOL    HW239675   4.282   1.872  10.121  0.2316 -0.6950 -0.4590
 9347SOL     OW39676   1.301   3.268   2.271  0.5013  0.3741 -0.5369
 9347SOL    HW139677   1.304   3.210   2.195  1.6379 -1.6148  1.0100
 9347SOL    HW239678   1.355   3.339   2.238  1.0539  0.4862  0.5841
 9348SOL     OW39679   4.010   0.712   5.051 -0.0392  0.3024 -0.3864
 9348SOL    HW139680   4.054   0.757   4.978 -0.0091  0.7757 -0.0733
 9348SOL    HW239681   4.086   0.687   5.104 -0.5258 -1.9501 -0.7231
 9349SOL     OW39682   2.201   3.227   9.044 -0.3685  0.2955  0.5396
 9349SOL    HW139683   2.138   3.208   8.975  1.4373  0.2421 -1.0951
 9349SOL    HW239684   2.234   3.137   9.048 -1.4974 -0.2145 -2.1807
 9350SOL     OW39685   1.499   3.543   5.337  0.5446 -0.5352 -0.1964
 9350SOL    HW139686   1.583   3.528   5.381  0.7762 -0.2361 -0.5384
 9350SOL    HW239687   1.452   3.590   5.406  0.0882 -0.5097 -0.5290
 9351SOL     OW39688   1.930   4.347   0.556  0.0216  0.1397 -0.1457
 9351SOL    HW139689   1.993   4.413   0.526  0.9232  0.1685  1.7996
 9351SOL    HW239690   1.916   4.389   0.641  0.2910 -0.3683  0.1455
 9352SOL     OW39691   1.716   1.451   0.062  0.4457  0.2520  0.2555
 9352SOL    HW139692   1.754   1.488   0.142 -1.0497  0.1235  1.0293
 9352SOL    HW239693   1.797   1.454   0.011  0.9893 -1.8173  0.9560
 9353SOL     OW39694   0.976   2.634   1.658  0.0359  0.4860 -0.7224
 9353SOL    HW139695   0.998   2.702   1.595 -0.8209  1.0283 -0.4364
 9353SOL    HW239696   0.947   2.692   1.728  0.4843 -0.1656  0.0096
 9354SOL     OW39697   4.162   1.422   8.879  0.1670 -0.3800 -0.2694
 9354SOL    HW139698   4.252   1.423   8.847  0.0800 -0.6384 -0.5316
 9354SOL    HW239699   4.151   1.334   8.914  0.4083  0.4732  1.8927
 9355SOL     OW39700   0.504   4.386   2.317  0.8886  0.2441  0.1701
 9355SOL    HW139701   0.496   4.403   2.223 -0.9738 -2.0842 -0.0949
 9355SOL    HW239702   0.494   4.472   2.357  0.9828  1.6458 -2.8727
 9356SOL     OW39703   2.640   0.746   3.174  0.1481  0.0143  0.5653
 9356SOL    HW139704   2.685   0.710   3.098  1.7862  2.7610  0.2491
 9356SOL    HW239705   2.630   0.834   3.138 -0.5034 -0.9408 -1.6303
 9357SOL     OW39706   3.066   0.739   4.711 -0.5127  0.1086  0.0458
 9357SOL    HW139707   3.101   0.695   4.634  2.4509  0.5905  1.1078
 9357SOL    HW239708   2.975   0.757   4.686 -0.6411  1.7807  1.7117
 9358SOL     OW39709   4.163   4.420   5.896 -0.1916 -0.0779 -0.1023
 9358SOL    HW139710   4.213   4.485   5.847  1.0499 -2.2148 -1.6646
 9358SOL    HW239711   4.072   4.449   5.884 -0.3323  0.6895  2.7400
 9359SOL     OW39712   2.777   2.110   5.641 -0.4372  0.1060 -0.0699
 9359SOL    HW139713   2.848   2.098   5.703 -0.6886 -1.3720 -0.0840
 9359SOL    HW239714   2.789   2.034   5.585 -0.9647  0.0588 -0.1199
 9360SOL     OW39715   1.908   1.656   6.797  0.1853  0.2952 -0.2107
 9360SOL    HW139716   1.844   1.659   6.725  1.4164 -1.5329 -1.3850
 9360SOL    HW239717   1.985   1.609   6.763  1.6096  1.8246  0.9018
 9361SOL     OW39718   0.515   4.138   5.490 -0.0354  0.1869 -0.0128
 9361SOL    HW139719   0.471   4.076   5.433 -0.5681 -0.6302  1.2842
 9361SOL    HW239720   0.468   4.220   5.474  1.9364  1.0719 -1.2967
 9362SOL     OW39721   3.878   2.284   8.121 -0.5370  0.2411  0.0191
 9362SOL    HW139722   3.940   2.274   8.193 -2.0410  1.6327  1.4937
 9362SOL    HW239723   3.920   2.243   8.046  1.3810 -0.4604  1.4734
 9363SOL     OW39724   1.554   2.698  13.067  0.1902  0.0248  0.2958
 9363SOL    HW139725   1.550   2.728  13.158 -0.7182  0.5294  0.0921
 9363SOL    HW239726   1.502   2.767  13.025 -1.1560 -0.0035  1.9119
 9364SOL     OW39727   0.908   3.888   6.702  0.1515 -0.0482  0.9080
 9364SOL    HW139728   0.870   3.934   6.627 -0.4796 -0.5863  0.8947
 9364SOL    HW239729   0.999   3.864   6.682  0.2517  1.0445  0.0521
 9365SOL     OW39730   2.573   0.678   2.248  0.2310  0.1490  0.1608
 9365SOL    HW139731   2.513   0.684   2.322 -0.2206 -1.7632 -0.0627
 9365SOL    HW239732   2.609   0.594   2.276 -0.8801 -0.7677 -1.1568
 9366SOL     OW39733   2.916   2.211   1.004  0.3547  0.0233  0.0573
 9366SOL    HW139734   2.939   2.190   0.914 -0.7992  0.3876 -0.3220
 9366SOL    HW239735   2.966   2.146   1.054  0.7041  0.2704  0.0339
 9367SOL     OW39736   3.340   0.095   4.108 -0.4541  0.2110 -0.7438
 9367SOL    HW139737   3.378   0.037   4.042  0.3551  0.3846 -0.4276
 9367SOL    HW239738   3.305   0.165   4.053 -0.2530  1.5098  0.7823
 9368SOL     OW39739   1.197   3.293   7.822  0.5199  0.0764  0.2805
 9368SOL    HW139740   1.235   3.245   7.895 -1.6396  0.2421  1.5301
 9368SOL    HW239741   1.231   3.376   7.855  0.5735  0.2556 -0.2269
 9369SOL     OW39742   3.431   4.192   5.926  0.3743 -0.0630  0.0709
 9369SOL    HW139743   3.526   4.201   5.934  0.8121 -2.8854 -1.9747
 9369SOL    HW239744   3.407   4.271   5.877  1.1130 -0.0718 -0.3194
 9370SOL     OW39745   4.705   3.854   5.995  0.3301 -0.0643  0.0334
 9370SOL    HW139746   4.698   3.871   5.901  1.0325  0.8888  0.1572
 9370SOL    HW239747   0.057   3.856   6.021  0.1209  0.6285  0.7043
 9371SOL     OW39748   4.053   3.676   9.085  0.0140  0.0947  0.0502
 9371SOL    HW139749   4.118   3.672   9.154  0.0146 -3.2115 -0.1105
 9371SOL    HW239750   3.971   3.643   9.122 -0.6183  0.8212 -0.7096
 9372SOL     OW39751   2.631   0.441   3.014  0.1286 -0.0612  0.2711
 9372SOL    HW139752   2.614   0.351   3.042 -1.2923  1.0940  3.0498
 9372SOL    HW239753   2.725   0.442   2.995 -0.1803 -0.7991 -1.3736
 9373SOL     OW39754   3.398   0.631  16.425 -0.1046 -0.1611 -0.5386
 9373SOL    HW139755   3.412   0.582  16.505 -0.1802 -1.5284 -1.3705
 9373SOL    HW239756   3.413   0.720  16.457  0.4666 -1.2069  2.0449
 9374SOL     OW39757   1.952   4.208   7.086 -0.6099 -0.2521  0.0631
 9374SOL    HW139758   1.933   4.197   7.179 -0.9699  2.0358  0.2598
 9374SOL    HW239759   1.970   4.124   7.044 -0.7836 -0.0560 -0.4155
 9375SOL     OW39760   2.788   0.816   9.405 -0.2200  0.3315  0.0348
 9375SOL    HW139761   2.768   0.759   9.331  2.9287 -2.7041  1.5252
 9375SOL    HW239762   2.793   0.754   9.478  0.8991 -0.3689 -0.6422
 9376SOL     OW39763   0.397   1.188   7.064 -0.4847  0.1509  0.0772
 9376SOL    HW139764   0.353   1.273   7.058  0.5149  0.7956  1.8624
 9376SOL    HW239765   0.316   1.140   7.049 -0.9025  1.3028 -1.3547
 9377SOL     OW39766   1.298   1.537   8.409  0.1286 -0.4721  0.3607
 9377SOL    HW139767   1.258   1.516   8.325 -2.5985  2.7987  0.8700
 9377SOL    HW239768   1.318   1.447   8.438  0.6771 -1.2054 -2.3394
 9378SOL     OW39769   2.449   1.076  16.673  0.2408  0.3010 -0.5511
 9378SOL    HW139770   2.403   1.103  16.594  1.2494 -1.8279 -1.8581
 9378SOL    HW239771   2.378   1.026  16.714  0.7644  1.2040  1.4671
 9379SOL     OW39772   4.625   4.110  14.833  0.2645  0.0903  0.5289
 9379SOL    HW139773   4.600   4.195  14.869  3.2083  0.2167  2.2596
 9379SOL    HW239774   4.539   4.084  14.799 -0.1332  0.3665  1.3302
 9380SOL     OW39775   4.130   2.121  14.134  0.2413 -0.1806 -0.4349
 9380SOL    HW139776   4.209   2.070  14.119 -1.0417 -2.8275  1.6239
 9380SOL    HW239777   4.074   2.051  14.168  0.1833 -0.1055 -0.3741
 9381SOL     OW39778   2.470   4.274   3.510  0.2756  0.1953 -0.0798
 9381SOL    HW139779   2.416   4.198   3.488  4.6921 -2.0048 -3.4058
 9381SOL    HW239780   2.428   4.323   3.580 -0.1235 -0.2168 -0.0290
 9382SOL     OW39781   2.529   3.021   5.033 -0.3733 -0.2204 -0.0147
 9382SOL    HW139782   2.618   2.989   5.043 -0.8676 -1.1294  1.4934
 9382SOL    HW239783   2.512   3.022   4.939  1.0938  0.3464 -0.2727
 9383SOL     OW39784   2.076   4.468  10.212 -0.0962 -0.3488  0.0536
 9383SOL    HW139785   2.065   4.488  10.305 -3.5688  3.2280 -1.1900
 9383SOL    HW239786   1.991   4.483  10.171 -0.8492 -0.0101  1.7320
 9384SOL     OW39787   0.902   1.655  14.777 -0.1875  0.3097  0.2171
 9384SOL    HW139788   0.930   1.745  14.793 -1.9637  0.9226 -0.1850
 9384SOL    HW239789   0.843   1.638  14.850  2.0988  0.2581  2.0395
 9385SOL     OW39790   2.617   1.773   5.138 -0.4041  0.0637 -0.3944
 9385SOL    HW139791   2.649   1.764   5.049  1.4358 -1.6361  0.4258
 9385SOL    HW239792   2.545   1.711   5.149  0.3352 -1.1025 -2.0897
 9386SOL     OW39793   3.864   3.204   7.448  0.2866  0.1311  0.1229
 9386SOL    HW139794   3.831   3.116   7.463  1.1134  0.1511  2.0747
 9386SOL    HW239795   3.799   3.245   7.390  0.2790  0.7130  0.5403
 9387SOL     OW39796   2.686   1.295   3.135 -0.4072  0.4278 -0.6290
 9387SOL    HW139797   2.649   1.349   3.206  2.5274 -0.7752  1.8036
 9387SOL    HW239798   2.667   1.210   3.174 -0.7845  0.7883 -0.0267
 9388SOL     OW39799   4.148   0.397  10.069 -0.1509  0.0936  0.0462
 9388SOL    HW139800   4.125   0.490  10.060 -1.7076 -0.5798 -2.9837
 9388SOL    HW239801   4.193   0.391  10.153 -0.2054  0.6055  0.1149
 9389SOL     OW39802   4.029   0.879  16.458 -0.1233 -0.0039 -0.2820
 9389SOL    HW139803   4.102   0.847  16.510  0.3650  0.8229 -0.4680
 9389SOL    HW239804   3.970   0.927  16.517 -1.8681 -2.0273 -0.3507
 9390SOL     OW39805   4.033   3.480   5.323  0.6759  0.0708  0.3042
 9390SOL    HW139806   4.049   3.572   5.304  1.0523  0.3909  2.1957
 9390SOL    HW239807   3.962   3.462   5.261  0.2050 -0.4953  1.0205
 9391SOL     OW39808   4.730   3.727  12.533 -0.0544  0.0201 -0.0517
 9391SOL    HW139809   0.082   3.733  12.508  0.4156 -0.3416  1.6286
 9391SOL    HW239810   4.738   3.737  12.628  1.1199  0.1501 -0.1669
 9392SOL     OW39811   3.123   1.519   7.427  0.2961  0.0700  0.4992
 9392SOL    HW139812   3.108   1.581   7.499 -0.0157  1.4959 -0.7892
 9392SOL    HW239813   3.217   1.534   7.421 -0.0763  1.9981 -0.6858
 9393SOL     OW39814   4.413   3.211   6.975  0.0132 -0.5197 -0.0336
 9393SOL    HW139815   4.394   3.144   7.040 -1.3311  0.5108  0.6208
 9393SOL    HW239816   4.452   3.153   6.909 -2.8498 -1.9173 -0.4892
 9394SOL     OW39817   4.380   2.432   2.939  0.2436 -0.3510 -0.2930
 9394SOL    HW139818   4.348   2.493   3.005  2.2984  1.1288 -0.6705
 9394SOL    HW239819   4.346   2.349   2.974 -2.4691  0.3078 -1.3989
 9395SOL     OW39820   3.975   0.561   3.517 -1.0724  0.3763 -0.5058
 9395SOL    HW139821   3.963   0.633   3.579 -2.8246 -1.2377  1.0440
 9395SOL    HW239822   3.961   0.481   3.568 -1.4806 -0.0004 -1.2218
 9396SOL     OW39823   0.465   4.497   6.680 -0.2019 -0.3040  0.3392
 9396SOL    HW139824   0.467   4.512   6.585 -2.7523 -1.7937  0.0418
 9396SOL    HW239825   0.548   4.541   6.698 -0.1485 -0.9765  1.7284
 9397SOL     OW39826   4.404   0.132   0.324 -0.0287 -0.1241 -0.2435
 9397SOL    HW139827   4.314   0.158   0.341 -0.7930 -1.9832 -1.4886
 9397SOL    HW239828   4.428   0.194   0.255 -1.9785 -1.2438 -1.9103
 9398SOL     OW39829   1.041   2.222  15.091 -0.3024  0.0969 -0.2089
 9398SOL    HW139830   1.028   2.230  15.186 -1.6758 -2.6230 -0.1689
 9398SOL    HW239831   0.951   2.239  15.065 -0.8817 -1.4866  0.7640
 9399SOL     OW39832   1.969   4.617  10.919  0.4176  0.4961  0.4410
 9399SOL    HW139833   1.964   4.686  10.985  1.8666  1.7851 -0.8216
 9399SOL    HW239834   2.039   4.647  10.862  0.4738 -2.3548 -1.0020
 9400SOL     OW39835   3.130   3.689  16.217  0.2143 -0.7268  0.0940
 9400SOL    HW139836   3.102   3.646  16.299  3.0684 -1.6972  0.5401
 9400SOL    HW239837   3.126   3.781  16.241 -0.8370 -0.6263 -0.4576
 9401SOL     OW39838   4.295   0.870   0.437 -0.2622  0.1494  0.7964
 9401SOL    HW139839   4.239   0.901   0.508  0.9438 -1.6756  2.5637
 9401SOL    HW239840   4.235   0.895   0.367 -0.6886 -0.9645  0.7523
 9402SOL     OW39841   4.388   0.366  15.782 -0.1194  0.5544  0.0386
 9402SOL    HW139842   4.330   0.439  15.760  0.8276  1.4320  0.3715
 9402SOL    HW239843   4.471   0.380  15.736  0.0659  0.8671  0.4608
 9403SOL     OW39844   2.533   0.179   8.834 -0.1409 -0.1034  0.2242
 9403SOL    HW139845   2.460   0.240   8.838  0.4778  0.6173  0.4630
 9403SOL    HW239846   2.522   0.133   8.917 -0.5095 -1.4714 -0.5736
 9404SOL     OW39847   4.385   1.535   3.188  0.2549  0.7003  0.1942
 9404SOL    HW139848   4.396   1.594   3.114 -0.8438  0.7387  0.0717
 9404SOL    HW239849   4.290   1.534   3.187  0.2484  1.5813 -0.0524
 9405SOL     OW39850   2.990   4.497   8.046  0.0543  0.0999  0.2021
 9405SOL    HW139851   3.016   4.522   7.958  1.9656 -0.8961  0.4960
 9405SOL    HW239852   3.045   4.554   8.100 -1.6235  0.8149  1.1528
 9406SOL     OW39853   4.174   1.254   7.963 -0.5733 -0.4781  0.0100
 9406SOL    HW139854   4.152   1.207   8.043 -1.2877 -0.2369 -0.0512
 9406SOL    HW239855   4.135   1.199   7.895  1.5440 -1.6409 -0.3044
 9407SOL     OW39856   0.130   2.147   6.835  0.2107  0.0848 -0.2669
 9407SOL    HW139857   0.133   2.096   6.754  1.9551  0.2021 -0.2681
 9407SOL    HW239858   0.169   2.231   6.812  0.7838 -0.6132 -1.7883
 9408SOL     OW39859   0.716   4.596  16.115  0.8391 -0.1450 -0.1125
 9408SOL    HW139860   0.794   4.653  16.115  1.6573 -1.2566 -1.6920
 9408SOL    HW239861   0.693   4.609  16.207  1.0818 -1.2709  0.0993
 9409SOL     OW39862   4.708   2.295   9.216  0.2077 -0.2583 -0.3263
 9409SOL    HW139863   0.002   2.372   9.262  1.0249 -0.2134 -1.0000
 9409SOL    HW239864   4.721   2.324   9.126  0.4488 -0.6136 -0.4062
 9410SOL     OW39865   0.741   0.019   8.249  0.4961  0.0522  0.2856
 9410SOL    HW139866   0.790   0.091   8.288  0.4301 -0.1646  0.7653
 9410SOL    HW239867   0.806   4.693   8.269  2.9929  2.5816  0.5520
 9411SOL     OW39868   4.112   0.791  11.389 -0.3982 -0.2509  0.4054
 9411SOL    HW139869   4.028   0.819  11.353  1.8456  3.5117 -1.9394
 9411SOL    HW239870   4.101   0.699  11.414  0.8298 -0.3986  0.3860
 9412SOL     OW39871   4.723   2.902   3.360 -0.9574 -0.2793 -0.2208
 9412SOL    HW139872   0.040   2.833   3.328  0.0705  1.3869 -1.9409
 9412SOL    HW239873   4.686   2.944   3.282  1.4611 -1.1394 -1.8058
 9413SOL     OW39874   2.561   0.758  16.686 -0.2261  0.7532  0.0366
 9413SOL    HW139875   2.495   0.779  16.620 -1.7924  0.9386  1.6711
 9413SOL    HW239876   2.637   0.759  16.628  0.2961  1.3510  0.7403
 9414SOL     OW39877   3.914   3.459  11.840  0.8855 -0.4009  0.1574
 9414SOL    HW139878   3.969   3.499  11.772 -0.6950  0.9374 -0.3475
 9414SOL    HW239879   3.959   3.492  11.918  0.7712  1.0278 -0.3641
 9415SOL     OW39880   2.555   3.368   3.330 -0.0633  0.3068 -0.0689
 9415SOL    HW139881   2.618   3.341   3.263 -1.5792 -1.7593 -0.6473
 9415SOL    HW239882   2.597   3.325   3.404 -0.2084 -0.0692 -0.2062
 9416SOL     OW39883   0.843   1.031   4.033 -0.1826 -0.9168  0.1324
 9416SOL    HW139884   0.894   0.982   4.098 -1.7916 -1.7165  0.8036
 9416SOL    HW239885   0.773   1.069   4.086 -0.1442 -1.6678  0.7289
 9417SOL     OW39886   2.160   0.533   5.030 -0.3171 -0.6291  0.4575
 9417SOL    HW139887   2.087   0.508   4.973 -0.4655  0.8820 -0.0223
 9417SOL    HW239888   2.117   0.607   5.072 -2.2799 -2.0851  1.0335
 9418SOL     OW39889   3.958   0.519   5.447 -0.6899 -0.5456 -0.0680
 9418SOL    HW139890   3.938   0.436   5.491 -1.4415  0.6881  1.8617
 9418SOL    HW239891   3.894   0.520   5.375  1.0027 -0.8937 -1.5973
 9419SOL     OW39892   2.878   0.625   9.642 -0.2398 -0.2534 -0.1614
 9419SOL    HW139893   2.849   0.539   9.613 -0.4241 -0.2937  0.1413
 9419SOL    HW239894   2.888   0.608   9.736  0.5733 -0.3206 -0.2599
 9420SOL     OW39895   3.727   4.552   4.724 -0.3440 -0.6011  0.3386
 9420SOL    HW139896   3.743   4.485   4.790 -0.8045 -0.3148  0.7436
 9420SOL    HW239897   3.796   4.616   4.742 -1.7669  0.4486  2.1107
 9421SOL     OW39898   1.495   4.263   8.646  0.1838  0.1915 -0.5033
 9421SOL    HW139899   1.445   4.339   8.617  0.5169  0.9188  0.8198
 9421SOL    HW239900   1.533   4.229   8.565 -0.9792 -1.5026 -0.3358
 9422SOL     OW39901   3.593   1.038   1.837 -0.2107  0.1581  0.1583
 9422SOL    HW139902   3.580   0.966   1.899  0.3590 -1.1157 -1.2092
 9422SOL    HW239903   3.535   1.009   1.766  1.4448 -0.1286 -1.0600
 9423SOL     OW39904   1.391   2.086   4.805 -0.4347  0.0894  0.4081
 9423SOL    HW139905   1.311   2.043   4.774  0.1361 -0.1739 -0.7253
 9423SOL    HW239906   1.459   2.036   4.760 -0.9255  0.3012 -0.5826
 9424SOL     OW39907   3.041   2.383   7.601  0.4129  0.1885  0.6601
 9424SOL    HW139908   3.046   2.478   7.600  0.1646  0.1980  0.2384
 9424SOL    HW239909   2.974   2.361   7.536 -1.9001  2.8125  2.1775
 9425SOL     OW39910   1.664   2.808   2.336 -0.5853 -0.1370  0.6040
 9425SOL    HW139911   1.700   2.800   2.424 -1.0069  1.8837  0.9639
 9425SOL    HW239912   1.620   2.891   2.352  0.3136  0.4572  0.0139
 9426SOL     OW39913   1.133   1.697   8.833  0.1734 -0.3791 -0.1962
 9426SOL    HW139914   1.098   1.645   8.761  2.3749 -2.3462  0.1842
 9426SOL    HW239915   1.066   1.765   8.839  0.1653 -0.5125  1.1095
 9427SOL     OW39916   1.750   4.601  14.171 -0.3909 -0.4639  0.5619
 9427SOL    HW139917   1.746   4.686  14.128 -1.4465 -0.2297  1.1119
 9427SOL    HW239918   1.796   4.616  14.254  1.4263  0.5550 -0.6407
 9428SOL     OW39919   2.532   4.302   8.108  0.4505 -0.4648  0.2655
 9428SOL    HW139920   2.626   4.286   8.100  0.0884 -1.8563 -1.1293
 9428SOL    HW239921   2.513   4.384   8.062 -0.7324 -0.4513  0.7693
 9429SOL     OW39922   4.676   3.149   5.243  0.3166 -0.3488  0.4161
 9429SOL    HW139923   4.592   3.103   5.244  0.4577 -0.6109  0.2073
 9429SOL    HW239924   4.672   3.191   5.157 -1.8459 -0.6786  0.3667
 9430SOL     OW39925   0.426   2.221  14.212  0.8007 -0.5002  0.4481
 9430SOL    HW139926   0.338   2.185  14.213  0.0269  1.3699  0.0476
 9430SOL    HW239927   0.473   2.142  14.186 -0.3228 -1.6742  2.0401
 9431SOL     OW39928   4.711   4.153   8.627 -0.0970 -0.3375 -0.0299
 9431SOL    HW139929   4.694   4.245   8.648  0.6596 -0.3467  0.6159
 9431SOL    HW239930   0.050   4.144   8.679 -0.9121 -0.4935  1.1949
 9432SOL     OW39931   1.482   1.605   0.012 -0.2485  0.1574  0.6261
 9432SOL    HW139932   1.417   1.547   0.051 -0.4165  0.7736  1.2839
 9432SOL    HW239933   1.556   1.545   0.007 -0.1466  0.6057 -3.1590
 9433SOL     OW39934   0.093   2.299  11.669  0.6380  0.5130  0.1103
 9433SOL    HW139935   0.141   2.349  11.602 -0.0900  0.1035 -0.7116
 9433SOL    HW239936   0.165   2.277  11.729  0.9436  0.4818 -0.2698
 9434SOL     OW39937   2.207   4.718   0.524 -0.4583 -0.2051  0.3905
 9434SOL    HW139938   2.242   0.023   0.447  1.1135 -0.4192  0.9809
 9434SOL    HW239939   2.140   4.661   0.484  0.0294 -1.2152  1.0175
 9435SOL     OW39940   1.589   4.707   1.678  0.0390  0.2063  0.4674
 9435SOL    HW139941   1.581   0.035   1.745  0.4062  0.5611  0.1549
 9435SOL    HW239942   1.683   4.705   1.659  0.1050 -0.0235  0.8141
 9436SOL     OW39943   1.594   2.651  12.511 -0.2859 -0.0022 -0.5252
 9436SOL    HW139944   1.628   2.724  12.459 -0.1914  1.0501  1.0198
 9436SOL    HW239945   1.674   2.641  12.562  0.2793  1.1283 -1.2164
 9437SOL     OW39946   4.644   2.185   6.973  0.3172  0.4852  0.2134
 9437SOL    HW139947   4.569   2.176   6.915  1.1821  1.8177 -1.1144
 9437SOL    HW239948   4.708   2.159   6.907  0.7881  0.8656  0.5232
 9438SOL     OW39949   0.019   1.344  16.276  0.6957  0.4074 -0.3836
 9438SOL    HW139950   4.711   1.408  16.224 -0.9926 -0.1397  0.4889
 9438SOL    HW239951   0.018   1.275  16.210  1.1989 -1.3368  1.4319
 9439SOL     OW39952   3.301   4.294  17.389  0.9281 -0.4125  0.3624
 9439SOL    HW139953   3.210   4.325  17.387  1.2398  0.5799  1.8830
 9439SOL    HW239954   3.348   4.362  17.341  1.8926  0.5369  2.6495
 9440SOL     OW39955   3.777   0.207   3.082 -0.2572 -0.7006  0.1732
 9440SOL    HW139956   3.819   0.263   3.147 -1.1896 -0.4037  0.5324
 9440SOL    HW239957   3.851   0.150   3.061 -1.0995 -1.2651 -1.3188
 9441SOL     OW39958   2.245   2.709   2.368  0.1047 -0.0282  0.5183
 9441SOL    HW139959   2.160   2.675   2.397 -0.0645  1.7394  2.0709
 9441SOL    HW239960   2.251   2.645   2.298  1.4807 -1.2583  1.7717
 9442SOL     OW39961   0.393   1.821  12.092  0.4177  0.8103  0.0277
 9442SOL    HW139962   0.466   1.851  12.037  0.9355  0.5697  0.5846
 9442SOL    HW239963   0.438   1.791  12.171  1.9645  1.9145 -0.4250
 9443SOL     OW39964   3.984   0.497   9.244  0.4464  0.0879  0.4630
 9443SOL    HW139965   3.908   0.442   9.265  0.3568 -0.8790 -2.4432
 9443SOL    HW239966   3.945   0.584   9.250  1.2549  0.5581 -1.1657
 9444SOL     OW39967   2.219   0.379  17.123  0.2945 -0.0296  0.3957
 9444SOL    HW139968   2.123   0.380  17.118  0.2483 -0.4971  1.2858
 9444SOL    HW239969   2.232   0.285  17.127  0.5037  0.0272  1.0598
 9445SOL     OW39970   3.014   4.227   6.926 -0.2152 -0.6307 -0.1202
 9445SOL    HW139971   3.025   4.319   6.950 -0.5202 -1.0307  1.5120
 9445SOL    HW239972   3.036   4.233   6.833  2.9577 -1.2511  0.5690
 9446SOL     OW39973   1.974   4.141   2.914  0.0521  0.2151  0.3499
 9446SOL    HW139974   1.976   4.236   2.923  1.8147  0.3310 -1.2555
 9446SOL    HW239975   1.958   4.126   2.821 -0.4985 -0.3403  0.5323
 9447SOL     OW39976   1.883   1.528  12.205  0.5309 -0.4669 -0.2174
 9447SOL    HW139977   1.901   1.536  12.298 -3.5513 -0.0370  0.5030
 9447SOL    HW239978   1.856   1.436  12.196  2.4556 -1.0194 -0.4233
 9448SOL     OW39979   2.506   2.497   5.558  0.5708  0.8088  0.5229
 9448SOL    HW139980   2.577   2.440   5.587  1.8296  1.1133 -1.9832
 9448SOL    HW239981   2.516   2.474   5.465 -1.6558  0.5613  0.3311
 9449SOL     OW39982   1.185   1.212   5.418  0.0909  0.6310  0.0100
 9449SOL    HW139983   1.186   1.308   5.423 -1.2945  0.6236  0.3853
 9449SOL    HW239984   1.143   1.181   5.498  0.7186 -1.4023 -0.4570
 9450SOL     OW39985   3.753   3.611  16.660 -0.0256  0.2171  0.0681
 9450SOL    HW139986   3.677   3.609  16.601 -1.6469 -1.3161  2.1932
 9450SOL    HW239987   3.811   3.555  16.608  2.3859  0.9710  1.9657
 9451SOL     OW39988   4.737   3.472  16.285  0.3856 -0.1921 -0.0530
 9451SOL    HW139989   4.651   3.486  16.325  0.8869 -0.5739  1.1511
 9451SOL    HW239990   0.058   3.484  16.357 -0.4128  0.0835  0.5766
 9452SOL     OW39991   1.899   2.096   1.359  0.0177 -1.1533 -0.1228
 9452SOL    HW139992   1.949   2.016   1.344  0.1585 -1.2866  1.1195
 9452SOL    HW239993   1.891   2.098   1.454  2.4226 -1.7693  0.0898
 9453SOL     OW39994   0.354   1.092   2.035 -0.0168  0.1353 -0.3362
 9453SOL    HW139995   0.317   1.036   2.103  3.1566 -1.1529  0.3311
 9453SOL    HW239996   0.391   1.020   1.983  3.3271  1.2831  0.4112
 9454SOL     OW39997   0.235   0.584  13.424 -0.0088  0.0451  0.4203
 9454SOL    HW139998   0.225   0.496  13.459  0.1979  0.6375  1.9397
 9454SOL    HW239999   0.286   0.560  13.346 -0.9239 -0.6751  0.0388
 9455SOL     OW40000   1.233   2.448   9.084  0.6338  0.2810  0.1455
 9455SOL    HW140001   1.269   2.537   9.091 -0.1824  0.5461  0.8855
 9455SOL    HW240002   1.304   2.396   9.121  1.1620  0.8257 -0.0911
 9456SOL     OW40003   1.227   2.896  16.174  0.4050  0.1631  0.1342
 9456SOL    HW140004   1.287   2.909  16.101  1.4162  0.0845  0.9474
 9456SOL    HW240005   1.244   2.805  16.197  4.0940  0.8640  0.2553
 9457SOL     OW40006   3.139   2.503   3.276 -0.0886  0.0571 -0.1866
 9457SOL    HW140007   3.085   2.437   3.233  1.3802  1.2743 -3.9220
 9457SOL    HW240008   3.144   2.468   3.365  0.0325  2.2603  0.6724
 9458SOL     OW40009   3.194   1.033   4.641  0.4128 -0.1239 -0.0478
 9458SOL    HW140010   3.179   1.009   4.550 -1.0973 -0.5444  0.2935
 9458SOL    HW240011   3.190   0.950   4.689 -0.5878 -0.9738 -1.6114
 9459SOL     OW40012   3.136   4.551   5.840  0.3749 -0.6759  0.2701
 9459SOL    HW140013   3.114   4.616   5.773  2.6194  0.8681  1.0047
 9459SOL    HW240014   3.133   4.604   5.921  1.7908  1.2330 -0.9125
 9460SOL     OW40015   2.426   1.346   1.468  1.0248 -0.2005 -0.0107
 9460SOL    HW140016   2.453   1.260   1.436  1.0431 -0.1733 -0.0676
 9460SOL    HW240017   2.363   1.327   1.538  1.7901 -0.1596  0.6916
 9461SOL     OW40018   0.089   1.454  11.509  0.0096  0.0763  0.6735
 9461SOL    HW140019   0.139   1.398  11.449 -0.5272 -0.5096  0.7770
 9461SOL    HW240020   0.084   1.539  11.465 -0.7866  0.3413  1.2909
 9462SOL     OW40021   3.080   4.014   6.644  0.6612 -0.1420 -0.1138
 9462SOL    HW140022   3.119   3.962   6.574 -2.1683  0.6377 -2.3110
 9462SOL    HW240023   3.055   3.946   6.707 -3.8453 -0.9061 -2.6568
 9463SOL     OW40024   2.339   0.583  17.312  0.5323 -0.5723  0.3323
 9463SOL    HW140025   2.383   0.613  17.232 -1.9202 -3.4112 -2.0562
 9463SOL    HW240026   2.304   0.503  17.274 -1.3356  0.1597  0.4992
 9464SOL     OW40027   0.155   0.291   5.681 -0.3371  0.2292 -0.2083
 9464SOL    HW140028   0.242   0.266   5.648 -0.2508  1.7694 -1.1957
 9464SOL    HW240029   0.105   0.246   5.614  0.9943 -1.1752 -0.2481
 9465SOL     OW40030   3.753   0.708   7.510 -0.2397 -0.2599  0.0542
 9465SOL    HW140031   3.659   0.698   7.526 -0.2882  2.0158  1.2326
 9465SOL    HW240032   3.777   0.618   7.491  1.3076  0.5277 -1.7354
 9466SOL     OW40033   3.381   1.810   2.058 -0.3393  0.0044 -0.2205
 9466SOL    HW140034   3.338   1.743   2.005  1.8459 -0.7436 -1.0880
 9466SOL    HW240035   3.403   1.752   2.131  1.9646 -1.1643 -1.8317
 9467SOL     OW40036   3.582   3.218   8.210  0.0714 -0.6044  0.0169
 9467SOL    HW140037   3.519   3.155   8.174 -1.1599  0.8132 -0.2865
 9467SOL    HW240038   3.653   3.163   8.244 -0.2397 -0.5842  0.7043
 9468SOL     OW40039   0.759   0.848   2.071 -0.0245 -0.3021 -0.2029
 9468SOL    HW140040   0.767   0.875   1.980 -2.3250  0.8834 -0.0443
 9468SOL    HW240041   0.852   0.832   2.089  0.8894  2.1724 -2.7300
 9469SOL     OW40042   1.198   0.404   0.751  0.2001  0.3759 -0.0102
 9469SOL    HW140043   1.110   0.395   0.714 -0.5347 -0.8092  2.0772
 9469SOL    HW240044   1.210   0.499   0.748 -0.9854  0.5447  0.4745
 9470SOL     OW40045   2.004   3.973   3.799 -0.2000 -0.3604  0.4616
 9470SOL    HW140046   1.942   3.974   3.725  0.7928  1.0257 -0.3426
 9470SOL    HW240047   2.077   4.025   3.765  0.1119 -0.8147  0.4366
 9471SOL     OW40048   4.624   3.940  14.527  0.3869 -0.1776  0.4840
 9471SOL    HW140049   4.675   3.983  14.595  0.5215 -2.0755  1.5799
 9471SOL    HW240050   4.537   3.965  14.558 -0.5495 -1.1897 -1.3477
 9472SOL     OW40051   0.110   1.331   6.103 -0.7690 -0.1082 -0.5001
 9472SOL    HW140052   0.127   1.333   6.198  1.4874 -0.1230 -0.9092
 9472SOL    HW240053   0.046   1.401   6.089 -2.5846 -2.1486 -2.2663
 9473SOL     OW40054   0.823   0.640   4.334 -0.5800  0.0577  0.1882
 9473SOL    HW140055   0.873   0.558   4.329 -0.5716  0.1870 -2.0155
 9473SOL    HW240056   0.742   0.603   4.369  0.8722 -1.5886  1.8023
 9474SOL     OW40057   2.607   2.233   2.684 -0.0980  0.2283 -0.2738
 9474SOL    HW140058   2.517   2.252   2.660 -0.1623 -1.3885 -1.2845
 9474SOL    HW240059   2.615   2.297   2.755 -0.0682  0.4119 -0.4409
 9475SOL     OW40060   3.961   3.065   2.328 -0.1798  0.2927 -0.5463
 9475SOL    HW140061   4.043   3.112   2.311  0.6433 -1.9055 -2.6636
 9475SOL    HW240062   3.995   2.981   2.358  0.2250  0.8025  0.4277
 9476SOL     OW40063   3.518   3.491   8.849  0.3170  0.0869  0.2150
 9476SOL    HW140064   3.514   3.559   8.782  0.0127  0.1693  0.3210
 9476SOL    HW240065   3.554   3.416   8.801  1.1959  0.7377 -0.1330
 9477SOL     OW40066   3.263   4.706   5.471  0.1835 -1.0857 -0.0149
 9477SOL    HW140067   3.223   4.734   5.553 -2.6375 -1.2544 -1.3228
 9477SOL    HW240068   3.307   0.048   5.448 -1.7870 -0.4279 -1.4316
 9478SOL     OW40069   1.107   3.015  13.933  0.0228 -0.1323  1.0317
 9478SOL    HW140070   1.055   2.954  13.986 -0.0939  0.1336  1.2214
 9478SOL    HW240071   1.189   2.968  13.925 -1.5280 -2.9465  1.5513
 9479SOL     OW40072   1.420   4.080  13.550 -0.3177 -0.2059  0.5527
 9479SOL    HW140073   1.362   4.084  13.474  0.9311 -1.1471 -0.4452
 9479SOL    HW240074   1.390   4.157  13.599 -0.7577  0.0311 -0.0872
 9480SOL     OW40075   1.262   1.753  17.702 -0.2109  0.5286 -0.1612
 9480SOL    HW140076   1.351   1.724  17.721 -0.3293  0.7757  0.7411
 9480SOL    HW240077   1.282   1.836  17.659  2.4261 -0.2942 -0.5141
 9481SOL     OW40078   2.129   3.300  17.720 -0.0181 -0.0859 -0.7727
 9481SOL    HW140079   2.195   3.268  17.657  0.2496 -0.8841 -0.0814
 9481SOL    HW240080   2.130   3.395  17.703  1.8318  0.1127  0.5164
 9482SOL     OW40081   2.898   0.447   2.956  0.7827  0.2576  0.1637
 9482SOL    HW140082   2.956   0.478   3.026  0.3834  0.4988  0.3821
 9482SOL    HW240083   2.929   0.356   2.954  0.9500  0.4102 -4.4814
 9483SOL     OW40084   4.529   0.778  15.911  0.1187 -0.2661  0.3397
 9483SOL    HW140085   4.558   0.697  15.952 -0.7248  0.3498  2.1830
 9483SOL    HW240086   4.459   0.813  15.967  0.4237 -0.0412  0.5855
 9484SOL     OW40087   2.730   0.251  17.388  0.1355 -0.2166  0.0128
 9484SOL    HW140088   2.791   0.300  17.332 -1.1447 -0.8638 -1.9707
 9484SOL    HW240089   2.766   0.164  17.369  0.4129  0.0468 -0.6976
 9485SOL     OW40090   2.982   3.441   2.472 -0.1153 -0.3593  0.1716
 9485SOL    HW140091   2.928   3.520   2.476 -1.7655 -1.3362 -3.4830
 9485SOL    HW240092   3.063   3.480   2.441 -0.7712  0.5322 -0.3989
 9486SOL     OW40093   0.180   3.786   0.584  0.4687 -0.0900  0.2966
 9486SOL    HW140094   0.100   3.836   0.565  0.5131 -0.1663 -0.0800
 9486SOL    HW240095   0.177   3.729   0.508  1.1716 -2.0537  1.7387
 9487SOL     OW40096   1.410   4.522   1.894  0.0081  1.0928 -0.2239
 9487SOL    HW140097   1.414   4.426   1.886 -1.1550  0.8889  1.6163
 9487SOL    HW240098   1.436   4.537   1.803  1.6540 -3.8470 -0.5876
 9488SOL     OW40099   4.540   4.017   2.618  0.6321 -0.5683  0.3465
 9488SOL    HW140100   4.502   4.089   2.566 -2.3630  0.5097  4.0414
 9488SOL    HW240101   4.600   3.992   2.548  1.1012  0.9787  0.2065
 9489SOL     OW40102   4.493   3.849   2.339  0.0504  0.6290  0.0114
 9489SOL    HW140103   4.456   3.762   2.331 -0.4989  0.8886 -0.2490
 9489SOL    HW240104   4.580   3.822   2.369 -0.4868  0.6757  1.6126
 9490SOL     OW40105   0.145   1.962   5.909 -0.0177 -0.2260 -0.0152
 9490SOL    HW140106   0.112   2.049   5.932  2.1805  0.8801 -1.0391
 9490SOL    HW240107   0.085   1.911   5.964  0.7738 -1.1489 -0.0069
 9491SOL     OW40108   0.955   0.836   8.109  0.8467  0.3424 -0.4739
 9491SOL    HW140109   0.984   0.749   8.136 -2.6956 -1.0269 -0.9408
 9491SOL    HW240110   1.004   0.840   8.027 -0.3863 -0.1929 -1.2467
 9492SOL     OW40111   4.086   3.739   5.295 -0.3612  0.0116 -0.5044
 9492SOL    HW140112   4.115   3.767   5.208  0.9391  0.9424  0.2166
 9492SOL    HW240113   4.164   3.743   5.351  0.6897  0.0934 -1.9527
 9493SOL     OW40114   0.915   1.031   5.540  0.3399 -0.2885  0.0587
 9493SOL    HW140115   0.954   1.100   5.594  0.4717  0.4665 -0.9989
 9493SOL    HW240116   0.828   1.068   5.553  0.1081 -0.4830 -0.9817
 9494SOL     OW40117   3.678   0.646  16.608  0.2365  0.2766  0.0127
 9494SOL    HW140118   3.736   0.651  16.683  2.2756  1.7655 -1.6693
 9494SOL    HW240119   3.621   0.570  16.621  0.2562  0.3918  0.7702
 9495SOL     OW40120   2.415   0.078   9.321 -0.1543 -0.1971 -0.9353
 9495SOL    HW140121   2.373   0.010   9.373  0.1135  1.8085  1.9487
 9495SOL    HW240122   2.498   0.033   9.308 -0.2702 -0.9566  0.9405
 9496SOL     OW40123   3.074   1.971  16.122 -0.3842  0.2299 -0.6983
 9496SOL    HW140124   3.103   1.909  16.055  1.7822 -0.8544  1.2568
 9496SOL    HW240125   3.143   2.037  16.114 -0.2633  0.3220  1.1750
 9497SOL     OW40126   1.263   2.674   5.068 -0.6027 -0.0553 -0.3928
 9497SOL    HW140127   1.267   2.649   5.160  1.9858 -0.6215 -0.6497
 9497SOL    HW240128   1.171   2.670   5.043  0.0083 -1.0135 -2.4724
 9498SOL     OW40129   0.617   1.289   3.436  0.0921 -0.2763 -0.1409
 9498SOL    HW140130   0.710   1.299   3.459  0.4119 -1.4807 -0.8806
 9498SOL    HW240131   0.630   1.220   3.371 -1.3731 -2.3836  1.8006
 9499SOL     OW40132   0.577   3.443   7.463  0.3183  0.4884  0.8050
 9499SOL    HW140133   0.636   3.500   7.512 -0.3724  0.7277  1.3528
 9499SOL    HW240134   0.644   3.418   7.399  0.1588 -2.7978  1.9001
 9500SOL     OW40135   4.320   1.846   8.392  0.3205 -0.3689 -0.3609
 9500SOL    HW140136   4.367   1.918   8.434 -2.9858  1.1054  0.8115
 9500SOL    HW240137   4.232   1.880   8.383 -0.2803 -1.7636  0.1608
 9501SOL     OW40138   3.390   3.810   3.017  0.1578 -0.2487  0.3126
 9501SOL    HW140139   3.443   3.870   2.965 -1.0269  0.0614 -0.5303
 9501SOL    HW240140   3.363   3.749   2.949  0.5409  1.0962 -1.0517
 9502SOL     OW40141   4.280   0.508   9.102  0.3348 -0.1174  0.3520
 9502SOL    HW140142   4.213   0.570   9.130  0.1627 -0.0834 -0.1399
 9502SOL    HW240143   4.317   0.487   9.188 -3.2243  0.9727  2.1333
 9503SOL     OW40144   3.288   2.518   4.649 -0.3033  0.4842  0.2091
 9503SOL    HW140145   3.254   2.532   4.737  2.3313 -0.9254  1.4779
 9503SOL    HW240146   3.216   2.526   4.588  1.5068 -3.8867 -2.4893
 9504SOL     OW40147   0.304   2.128   9.762  0.1763  0.0332 -0.7264
 9504SOL    HW140148   0.307   2.194   9.832 -2.6246  1.7931 -2.2734
 9504SOL    HW240149   0.238   2.166   9.704 -1.0697  0.9345  1.2371
 9505SOL     OW40150   4.193   3.523   6.911  0.9166 -0.3797 -0.0874
 9505SOL    HW140151   4.209   3.439   6.868  2.2287  0.9808 -2.2566
 9505SOL    HW240152   4.131   3.570   6.855  0.9246  0.5540  0.6894
 9506SOL     OW40153   0.601   1.308   8.838  0.3516  0.1539 -0.2440
 9506SOL    HW140154   0.630   1.399   8.847 -1.2691  0.3195  3.3278
 9506SOL    HW240155   0.597   1.277   8.929 -2.1762 -0.0471 -0.4340
 9507SOL     OW40156   0.299   3.542   6.419 -0.3102 -0.4800  1.0303
 9507SOL    HW140157   0.205   3.547   6.406 -0.0151  0.6066 -0.7139
 9507SOL    HW240158   0.313   3.475   6.352  0.3690  1.4825 -0.8027
 9508SOL     OW40159   2.934   3.877   6.315 -0.5081  0.4773 -0.2313
 9508SOL    HW140160   2.890   3.953   6.353 -1.7228 -0.1101 -0.4662
 9508SOL    HW240161   3.010   3.874   6.373 -1.0041  2.5280  0.5247
 9509SOL     OW40162   2.651   3.604   5.311 -0.1138 -0.2413 -0.1288
 9509SOL    HW140163   2.611   3.535   5.258 -0.1151 -0.0727 -0.3449
 9509SOL    HW240164   2.741   3.571   5.309 -0.9596 -2.3883 -2.1752
 9510SOL     OW40165   1.505   1.265   6.482  0.1739 -0.1684  0.2584
 9510SOL    HW140166   1.555   1.312   6.550 -0.3349  1.3404 -0.4025
 9510SOL    HW240167   1.564   1.198   6.449 -0.7776 -0.7211 -0.2894
 9511SOL     OW40168   4.635   1.677   0.948 -0.0675 -0.3249 -0.0285
 9511SOL    HW140169   4.681   1.761   0.946 -0.1417 -0.2665  0.5279
 9511SOL    HW240170   4.698   1.622   0.901 -0.7535 -1.0513 -0.0981
 9512SOL     OW40171   1.409   1.963   3.448  0.1837  0.0046  0.7681
 9512SOL    HW140172   1.327   2.012   3.442  1.0551  1.7922  3.2899
 9512SOL    HW240173   1.400   1.937   3.540  0.1990 -0.5300  0.6179
 9513SOL     OW40174   1.449   2.606   4.619  0.3791  0.2697  0.1780
 9513SOL    HW140175   1.502   2.667   4.671  0.4073 -0.7836  1.3838
 9513SOL    HW240176   1.387   2.584   4.688 -0.3879  1.6694 -0.0596
 9514SOL     OW40177   3.553   3.467   5.960 -0.5554  0.1312  0.2691
 9514SOL    HW140178   3.471   3.503   5.994  0.9634  0.8907  3.2148
 9514SOL    HW240179   3.548   3.503   5.872 -2.3991  1.1979  0.8100
 9515SOL     OW40180   1.472   1.229  12.355  0.0638 -0.4552 -0.0371
 9515SOL    HW140181   1.465   1.318  12.319  1.2568 -0.6724 -0.8521
 9515SOL    HW240182   1.528   1.246  12.431 -1.8998  0.6461  1.1525
 9516SOL     OW40183   1.897   0.764  14.610 -0.5733 -0.1581 -0.1066
 9516SOL    HW140184   1.973   0.779  14.665 -0.8895  1.0483 -0.0098
 9516SOL    HW240185   1.826   0.763  14.674 -1.0742 -0.2514 -0.6559
 9517SOL     OW40186   1.835   1.321   8.950 -0.3416  0.0655 -0.1440
 9517SOL    HW140187   1.814   1.283   9.035  0.4577 -0.5442 -0.2175
 9517SOL    HW240188   1.775   1.394   8.956 -0.5132  0.0199 -1.2158
 9518SOL     OW40189   4.476   4.104  11.885  0.8033 -0.0712 -0.0966
 9518SOL    HW140190   4.532   4.180  11.873 -0.7362  0.9500 -0.9220
 9518SOL    HW240191   4.468   4.080  11.792 -2.1858  2.5087 -0.5287
 9519SOL     OW40192   1.045   3.276   5.940  0.0767 -0.3548  0.3089
 9519SOL    HW140193   1.132   3.246   5.966 -0.0300 -0.4705  0.5287
 9519SOL    HW240194   1.036   3.359   5.988 -0.5602 -0.6843  0.7462
 9520SOL     OW40195   0.193   1.590   5.101 -0.5873  0.0759  0.2946
 9520SOL    HW140196   0.162   1.510   5.145 -1.5073  0.6842  0.7489
 9520SOL    HW240197   0.285   1.570   5.085 -0.3288 -0.1455  2.0510
 9521SOL     OW40198   3.092   0.178   2.650 -0.0040  0.0156 -0.3210
 9521SOL    HW140199   3.134   0.235   2.715  2.8164 -1.1427 -1.1795
 9521SOL    HW240200   3.164   0.147   2.596  0.0833  1.1108 -0.8307
 9522SOL     OW40201   3.999   3.247   3.768 -0.4158  0.6815  0.2349
 9522SOL    HW140202   3.975   3.230   3.859 -1.7116  1.3977  0.0323
 9522SOL    HW240203   4.091   3.273   3.764 -0.0208 -0.3456  2.6060
 9523SOL     OW40204   3.691   3.632   2.093 -0.2075 -0.2894 -0.3700
 9523SOL    HW140205   3.608   3.670   2.063  0.2683  0.8664 -0.2070
 9523SOL    HW240206   3.697   3.558   2.032  0.2701  0.2291 -0.9507
 9524SOL     OW40207   1.656   3.947   7.194  0.2597 -0.6087  0.7246
 9524SOL    HW140208   1.614   3.986   7.271 -1.6828  0.0833 -0.6949
 9524SOL    HW240209   1.667   3.858   7.228 -0.8319 -0.3182  1.8209
 9525SOL     OW40210   1.755   0.499   3.307 -0.1559 -0.1939 -0.1447
 9525SOL    HW140211   1.788   0.563   3.244  0.2700 -0.0481  0.2232
 9525SOL    HW240212   1.829   0.501   3.368  1.0558 -1.0910 -1.6026
 9526SOL     OW40213   3.130   4.729   6.066  0.3503  0.6411  0.6820
 9526SOL    HW140214   3.159   0.079   6.085 -0.6252  0.8938  0.9517
 9526SOL    HW240215   3.159   4.678   6.142  0.6430 -1.0617 -0.5819
 9527SOL     OW40216   0.620   2.953  14.438  0.3958  0.1001 -0.3343
 9527SOL    HW140217   0.558   3.022  14.462 -0.9730 -1.4069  0.5068
 9527SOL    HW240218   0.573   2.870  14.432  0.4380  0.0253  0.3404
 9528SOL     OW40219   0.814   3.451   2.674  0.1713  0.0795  0.2209
 9528SOL    HW140220   0.719   3.456   2.664  0.0492  0.3059  1.5089
 9528SOL    HW240221   0.845   3.536   2.642  2.4039 -0.9803 -0.3962
 9529SOL     OW40222   3.371   0.216  16.336  0.0312  0.0790  0.8205
 9529SOL    HW140223   3.358   0.126  16.366 -1.1488  0.3235  1.0458
 9529SOL    HW240224   3.281   0.241  16.314 -0.3782 -0.7514  1.5293
 9530SOL     OW40225   0.914   4.542   8.886 -0.1714 -0.6873  0.9887
 9530SOL    HW140226   0.862   4.589   8.821  0.7279  1.9960  2.1685
 9530SOL    HW240227   0.855   4.475   8.920 -0.9905 -0.8921 -0.8282
 9531SOL     OW40228   2.111   2.329   2.168 -0.5157 -0.0570 -0.0711
 9531SOL    HW140229   2.048   2.396   2.194 -1.9533 -1.7056  0.6979
 9531SOL    HW240230   2.070   2.308   2.084 -0.2851 -2.4644  0.4387
 9532SOL     OW40231   4.714   0.222   8.638  0.2683  0.0084 -0.8295
 9532SOL    HW140232   4.730   0.128   8.645  0.8059  0.2307  1.0346
 9532SOL    HW240233   0.064   0.256   8.646  0.4096  0.0217 -2.4082
 9533SOL     OW40234   0.613   1.970   7.901  0.3093  0.5510  0.5947
 9533SOL    HW140235   0.571   2.042   7.854  0.8487  1.1933  1.1096
 9533SOL    HW240236   0.577   1.890   7.862 -0.7853  0.6421  1.4438
 9534SOL     OW40237   0.426   3.412   7.138 -0.1695 -0.3221  0.0908
 9534SOL    HW140238   0.424   3.323   7.173 -1.0350 -0.8568 -1.3279
 9534SOL    HW240239   0.417   3.383   7.047 -0.0138  1.2702 -0.4374
 9535SOL     OW40240   0.155   2.410   6.089 -0.2735  0.2437 -0.2305
 9535SOL    HW140241   0.241   2.438   6.119 -0.5342 -0.1981  0.9151
 9535SOL    HW240242   0.114   2.487   6.049 -0.3476  0.9573  1.2230
 9536SOL     OW40243   2.063   4.718   7.656 -0.0981  0.7370 -0.1736
 9536SOL    HW140244   2.070   4.636   7.607  1.8167  1.4084 -1.0255
 9536SOL    HW240245   2.000   4.697   7.725 -0.9041  1.7324 -0.6055
 9537SOL     OW40246   1.805   4.286  11.851  0.0667  0.6723  0.2423
 9537SOL    HW140247   1.758   4.351  11.799  1.4099  1.6116  0.1902
 9537SOL    HW240248   1.734   4.271  11.913 -0.5473  2.1910 -0.0861
 9538SOL     OW40249   0.607   2.271  14.673  0.6134 -0.0778 -0.5225
 9538SOL    HW140250   0.572   2.327  14.742  2.1129 -0.9105  0.9356
 9538SOL    HW240251   0.598   2.338  14.605  3.0973  0.6079 -0.1803
 9539SOL     OW40252   0.627   0.439   8.346 -0.0158 -0.2721  0.4817
 9539SOL    HW140253   0.670   0.511   8.300 -1.6148  0.6478  0.4147
 9539SOL    HW240254   0.588   0.485   8.420  0.8103 -1.8828  1.9173
 9540SOL     OW40255   0.406   3.096   1.520 -0.0352  0.2119  0.4097
 9540SOL    HW140256   0.459   3.050   1.456  0.8969  0.1453  1.2412
 9540SOL    HW240257   0.464   3.165   1.552  1.2543 -0.3341 -0.7592
 9541SOL     OW40258   3.480   0.184   8.673 -0.2666 -0.4865  0.4475
 9541SOL    HW140259   3.436   0.253   8.723 -0.9333 -0.2471 -0.4658
 9541SOL    HW240260   3.522   0.241   8.608 -1.0516  0.8366  1.1085
 9542SOL     OW40261   0.315   3.892   2.853  0.2491  0.1558 -0.3715
 9542SOL    HW140262   0.277   3.806   2.870 -0.8467  0.5147 -1.0050
 9542SOL    HW240263   0.365   3.871   2.774 -0.7912 -0.4421 -0.8773
 9543SOL     OW40264   2.623   2.473   2.964 -0.0768 -0.0554  0.9364
 9543SOL    HW140265   2.647   2.507   2.877 -0.6177  0.7960  1.1267
 9543SOL    HW240266   2.708   2.473   3.008  0.7202  1.3646 -0.5913
 9544SOL     OW40267   2.077   2.021   0.183 -0.2294 -0.1086  0.5998
 9544SOL    HW140268   1.992   2.014   0.141  0.1675  0.8351 -0.3478
 9544SOL    HW240269   2.081   1.946   0.242 -1.0456  1.3743  2.5355
 9545SOL     OW40270   3.554   2.239  10.120 -0.1767 -0.3739  0.3587
 9545SOL    HW140271   3.583   2.148  10.123 -0.4407 -0.4564  0.3573
 9545SOL    HW240272   3.467   2.217  10.088 -0.0533  0.9040 -0.9001
 9546SOL     OW40273   3.467   0.739   1.203 -0.0765 -0.9365 -0.5018
 9546SOL    HW140274   3.378   0.704   1.193 -1.2329  2.0970 -0.9446
 9546SOL    HW240275   3.504   0.694   1.278  1.9010  1.5182 -0.0164
 9547SOL     OW40276   4.317   3.801  17.055  0.1030  0.1866 -0.1228
 9547SOL    HW140277   4.237   3.758  17.086  0.3725  1.6820  2.6629
 9547SOL    HW240278   4.280   3.889  17.055 -0.4423 -0.0369  0.5078
 9548SOL     OW40279   1.019   0.176  11.842  0.3571 -0.7576 -0.1193
 9548SOL    HW140280   0.997   0.182  11.749  0.3077  3.2966  0.1573
 9548SOL    HW240281   1.110   0.204  11.846  0.0823  0.1908 -0.5182
 9549SOL     OW40282   2.714   1.074   3.646 -0.0385 -0.6067 -0.4699
 9549SOL    HW140283   2.648   1.032   3.702  1.6168 -0.8055  1.3362
 9549SOL    HW240284   2.704   1.162   3.683 -1.7906 -1.2667  0.6246
 9550SOL     OW40285   0.215   4.448   4.692  0.0741 -0.2144 -0.0008
 9550SOL    HW140286   0.122   4.444   4.669 -0.1304  2.2767  0.4195
 9550SOL    HW240287   0.236   4.532   4.653 -1.3622 -0.0272 -0.3799
 9551SOL     OW40288   3.091   3.092  11.989  0.1165  0.4543 -0.6162
 9551SOL    HW140289   3.037   3.164  12.021  0.5807 -0.1713  1.5634
 9551SOL    HW240290   3.177   3.132  12.002  0.8210 -0.5814 -2.0947
 9552SOL     OW40291   3.165   3.062   9.326 -0.1871  0.3735  0.0065
 9552SOL    HW140292   3.171   3.032   9.417 -2.8853  0.0936  0.1007
 9552SOL    HW240293   3.238   3.015   9.288 -0.6086 -0.0159 -0.3177
 9553SOL     OW40294   3.336   4.421   7.371 -0.6446  0.0007  0.0716
 9553SOL    HW140295   3.352   4.505   7.414 -0.4415  0.7880 -1.5659
 9553SOL    HW240296   3.288   4.454   7.296 -2.9782  1.1203  2.0428
 9554SOL     OW40297   1.987   0.475   9.023 -0.2649  0.1079 -0.4662
 9554SOL    HW140298   2.041   0.548   8.991  0.2307 -0.0459  0.0306
 9554SOL    HW240299   2.011   0.482   9.115  0.0122 -0.5690 -0.4858
 9555SOL     OW40300   3.493   3.849   8.831 -0.3218  0.0615  0.0251
 9555SOL    HW140301   3.531   3.783   8.772  2.7632  2.9498 -1.2907
 9555SOL    HW240302   3.403   3.862   8.803 -0.3857  2.0544  1.1757
 9556SOL     OW40303   1.837   0.027   0.776 -0.2372 -0.9254 -0.3307
 9556SOL    HW140304   1.827   0.045   0.683 -2.8075 -0.6614 -0.0189
 9556SOL    HW240305   1.802   0.109   0.811 -1.1441 -1.0703 -0.8762
 9557SOL     OW40306   0.201   4.180   4.002  0.4911  0.2829  0.1228
 9557SOL    HW140307   0.294   4.199   4.016  1.2756 -2.2628 -1.5437
 9557SOL    HW240308   0.190   4.095   3.958 -1.2892  0.4213  0.2904
 9558SOL     OW40309   0.402   3.732   2.615  0.5632 -0.9856  0.4604
 9558SOL    HW140310   0.469   3.736   2.547 -0.4196  4.2983 -0.2227
 9558SOL    HW240311   0.329   3.728   2.554  1.5544 -0.0209 -0.7822
 9559SOL     OW40312   4.233   1.672   5.434 -0.1437 -0.4755 -0.5377
 9559SOL    HW140313   4.244   1.630   5.519 -2.9689 -0.6153 -0.2324
 9559SOL    HW240314   4.202   1.596   5.384 -0.9055 -1.9820  2.2478
 9560SOL     OW40315   1.135   0.930   8.279  0.1561  0.6768  0.3087
 9560SOL    HW140316   1.129   1.024   8.295 -1.2344  0.7139 -0.4524
 9560SOL    HW240317   1.057   0.913   8.226  0.6781 -1.2241  0.1451
 9561SOL     OW40318   2.709   3.641   3.610 -0.2764 -0.5555  0.4208
 9561SOL    HW140319   2.781   3.618   3.551 -1.3270 -0.5657 -0.8534
 9561SOL    HW240320   2.647   3.692   3.557  1.1977  2.4491  1.5422
 9562SOL     OW40321   4.179   3.880  13.331 -0.0130 -0.1077  0.6893
 9562SOL    HW140322   4.208   3.871  13.421 -2.6402  0.3848  1.5928
 9562SOL    HW240323   4.092   3.916  13.349 -0.3414 -1.5044  1.8520
 9563SOL     OW40324   1.455   2.323   3.461  0.3767 -0.1029 -0.3964
 9563SOL    HW140325   1.439   2.411   3.428 -1.8906 -0.2987  0.1876
 9563SOL    HW240326   1.447   2.338   3.555  1.6963 -1.6393 -0.0369
 9564SOL     OW40327   4.679   1.242   4.596 -0.1255 -0.0580  0.2784
 9564SOL    HW140328   4.647   1.331   4.610 -0.0061  0.4247 -2.5807
 9564SOL    HW240329   4.647   1.191   4.672 -1.2712  0.7209  0.3172
 9565SOL     OW40330   1.769   4.536   6.553 -0.2622  0.4410 -0.2279
 9565SOL    HW140331   1.729   4.451   6.570  0.0468  0.4062  0.3182
 9565SOL    HW240332   1.714   4.565   6.481  1.3195  2.0554 -0.7863
 9566SOL     OW40333   3.723   3.631   3.551 -0.2347 -0.1136  0.4358
 9566SOL    HW140334   3.657   3.693   3.524 -1.5066 -1.5231  0.3088
 9566SOL    HW240335   3.719   3.639   3.647 -1.4026  1.5065  0.2428
 9567SOL     OW40336   0.879   3.218   5.447  0.1017 -0.6029 -0.2412
 9567SOL    HW140337   0.937   3.196   5.374  1.3353 -1.6166  1.0328
 9567SOL    HW240338   0.830   3.283   5.398 -0.8318 -0.7985  0.4144
 9568SOL     OW40339   3.214   4.170  17.132 -0.1773  0.3512  0.3368
 9568SOL    HW140340   3.254   4.181  17.218  0.6594  1.3137 -0.1804
 9568SOL    HW240341   3.208   4.074  17.138 -0.3233  0.4618  2.0155
 9569SOL     OW40342   2.844   0.667   3.561 -0.4645 -0.5087 -0.2372
 9569SOL    HW140343   2.794   0.626   3.491 -2.5976 -0.4260  1.2669
 9569SOL    HW240344   2.855   0.759   3.536  0.4475 -0.4416  0.3891
   4.74010   4.74010  17.75799
