Membrane in water
40344
    1TMC1    C1    1   4.070   4.357  11.316 -0.6113 -0.4154 -0.3051
    1TMC1    C2    2   4.054   4.491  11.336  0.0370  0.2210 -0.2788
    1TMC1    C3    3   4.147   4.576  11.303  0.1534 -0.1658  0.1209
    1TMC1    C4    4   4.192   4.316  11.265 -0.0177 -0.4912 -0.2367
    1TMC1    C5    5   4.277   4.408  11.222  0.1016 -0.2210 -0.0517
    1TMC1    C6    6   4.260   4.541  11.237 -0.2835 -0.2221  0.6511
    1TMC1     C    7   3.974   4.262  11.365 -0.7047 -0.0802  0.5552
    1TMC1     O    8   3.885   4.314  11.431 -0.3197 -0.0228  0.2640
    1TMC1     H    9   3.960   4.524  11.379 -0.4448 -0.0286 -1.1366
    1TMC1    H1   10   4.213   4.209  11.257  0.7593 -0.4122  0.9068
    1TMC1    H2   11   4.332   4.616  11.205 -1.7588  0.7357 -0.4713
    1TMC1    C7   12   4.395   4.361  11.148  0.5550 -0.0266 -0.3384
    1TMC1    C8   13   4.142   4.706  11.358  0.6647  0.6728  0.2142
    1TMC1    O1   14   4.417   4.240  11.144  0.9509 -0.0691  0.3354
    1TMC1    O2   15   4.221   0.054  11.320  0.2250 -0.2591  0.1142
    1TMC1    O3   16   4.469   4.466  11.110 -0.0338  0.1665 -0.0897
    1TMC1    H3   17   4.558   4.433  11.088 -0.4668 -2.0604  1.4988
    1TMC1    O5   18   4.066   4.712  11.469  0.6731  0.0592  0.5190
    1TMC1    H5   19   4.011   4.632  11.483 -1.9184  1.7891  0.1672
    2MPD2     C   20   3.810   3.801  11.516 -0.5428  0.1421  0.4641
    2MPD2    C1   21   3.792   3.921  11.574 -0.4486 -0.2117  0.1836
    2MPD2    C2   22   3.845   4.034  11.512 -0.0834 -0.5219  0.0567
    2MPD2    C3   23   3.930   4.019  11.405  0.2118 -0.1577  0.2538
    2MPD2    C4   24   3.958   3.898  11.355  0.1116  0.1779 -0.5222
    2MPD2    C5   25   3.904   3.787  11.417  0.1430  0.0792  0.3132
    2MPD2     H   26   3.847   4.124  11.572  0.7050 -1.1664  1.0079
    2MPD2    H1   27   4.038   3.883  11.283  0.9953  0.2730  0.4564
    2MPD2    H2   28   3.753   3.717  11.552 -2.5905  1.1534 -0.4136
    2MPD2    H3   29   3.935   3.689  11.383 -0.2900  0.3044 -0.7364
    2MPD2     N   30   4.005   4.127  11.349 -0.1196  0.1964 -0.0213
    2MPD2    H5   31   4.084   4.099  11.293 -0.5289  1.1908 -1.1047
    2MPD2    N1   32   3.700   3.930  11.679 -0.4793  0.3712 -0.1871
    2MPD2    H7   33   3.702   4.022  11.721 -2.0709 -0.2200  1.2017
    3TMC1    C1   34   2.914   0.195  10.853 -0.1691 -0.9785 -0.3977
    3TMC1    C2   35   3.004   0.298  10.837 -0.1072  0.4370 -0.1591
    3TMC1    C3   36   3.129   0.255  10.795 -0.2157  0.4204  0.7120
    3TMC1    C4   37   2.936   0.067  10.821  0.4930 -0.3540  0.4241
    3TMC1    C5   38   3.067   0.034  10.788  0.4589  0.3400  0.2482
    3TMC1    C6   39   3.166   0.127  10.774  0.3275  0.3921  0.2648
    3TMC1     C   40   2.779   0.221  10.880 -0.0863  0.1158  0.2713
    3TMC1     O   41   2.706   0.126  10.895  0.3081 -0.1101 -0.2140
    3TMC1     H   42   2.997   0.399  10.877 -0.7300  0.7881 -1.1575
    3TMC1    H1   43   2.869   4.722  10.839  0.7405 -0.5294  0.5348
    3TMC1    H2   44   3.268   0.093  10.758 -0.1101 -1.1817  0.8607
    3TMC1    C7   45   3.102   4.630  10.761  0.4379 -0.6415 -0.1785
    3TMC1    C8   46   3.239   0.352  10.787  0.0224  0.2220 -0.2958
    3TMC1    O1   47   3.219   4.584  10.749  0.4764 -0.0852  0.1219
    3TMC1    O2   48   3.339   0.303  10.739  0.4674  0.3057 -0.0217
    3TMC1    O3   49   2.994   4.560  10.724  0.4595 -1.2009  0.0404
    3TMC1    H3   50   2.921   4.622  10.702 -0.4839 -1.8688  1.3090
    3TMC1    O5   51   3.203   0.481  10.778 -0.0769  1.0769 -0.0213
    3TMC1    H5   52   3.126   0.508  10.832 -1.5270 -2.3957 -0.3560
    4MPD2     C   53   2.391   0.542  10.955 -0.5580  0.2511  0.0685
    4MPD2    C1   54   2.504   0.604  11.007  0.4499  0.3650  0.0449
    4MPD2    C2   55   2.621   0.540  10.996 -0.3778 -0.4035  0.4458
    4MPD2    C3   56   2.635   0.409  10.934 -0.4907 -0.4468 -0.2057
    4MPD2    C4   57   2.525   0.344  10.891 -1.1145 -0.3130 -0.3466
    4MPD2    C5   58   2.407   0.408  10.912  0.0768 -0.0162  0.5818
    4MPD2     H   59   2.712   0.596  11.014 -0.6173 -0.1557  0.8619
    4MPD2    H1   60   2.521   0.243  10.852  0.8605 -0.2288 -0.8044
    4MPD2    H2   61   2.293   0.588  10.961 -0.8281 -0.5474  1.8205
    4MPD2    H3   62   2.314   0.356  10.892  0.2668 -1.1081  2.5288
    4MPD2     N   63   2.761   0.353  10.919 -0.0441 -0.0638 -0.5263
    4MPD2    H5   64   2.843   0.400  10.957 -0.9792  1.1342  0.0154
    4MPD2    N1   65   2.501   0.738  11.060  0.4765 -0.3184  0.0996
    4MPD2    H7   66   2.579   0.776  11.115  0.3346 -1.9112  1.4099
    5TCq1    O1   67   0.247   1.162  12.414 -0.3969 -0.0351 -0.6433
    5TCq1    C1   68   0.191   1.154  12.286 -0.1902 -0.7542 -0.0005
    5TCq1    O2   69   0.241   1.116  12.181  0.1487  0.1205  0.4939
    5TCq1    C2   70   0.083   1.248  12.286 -0.3869  0.3224  0.2645
    5TCq1    C3   71   0.017   1.278  12.404 -0.0483 -0.1511  0.4026
    5TCq1    C4   72   4.672   1.382  12.405 -0.3658 -0.2579  0.6067
    5TCq1    C5   73   4.643   1.453  12.289  0.5878 -0.2246 -0.7378
    5TCq1    C6   74   4.722   1.428  12.174  0.8668  0.1233  0.0148
    5TCq1    C7   75   0.078   1.330  12.172 -1.0104  0.5268 -0.4500
    5TCq1    C8   76   4.691   1.476  12.041 -0.3055  0.4853 -0.2036
    5TCq1    O4   77   4.737   1.415  11.942  0.8785  0.0700  0.0476
    5TCq1    C9   78   4.581   1.399  12.514  0.0721 -0.3533 -0.1946
    5TCq1    O5   79   4.607   1.338  12.620  0.8154  0.0246  0.2556
    5TCq1    O6   80   4.484   1.479  12.505  0.0586 -0.2955  0.5697
    5TCq1    H1   81   0.206   1.234  12.467 -0.2187 -0.9843  0.8040
    5TCq1    H2   82   0.015   1.221  12.496  0.5850  2.2949  1.9134
    5TCq1    H3   83   4.564   1.526  12.282 -0.1416 -0.9481 -0.1046
    5TCq1    H4   84   0.127   1.303  12.079  1.7412 -0.6391  1.3236
    6MPD2     C   85   4.514   1.784  11.938  0.7045  0.0920  0.2445
    6MPD2    C1   86   4.565   1.657  11.927 -0.2992  0.1075  0.2304
    6MPD2    C2   87   4.570   1.600  11.801 -0.2384 -0.2038  0.4985
    6MPD2    C3   88   4.516   1.671  11.690 -0.3705 -0.1789 -0.1691
    6MPD2    C4   89   4.454   1.790  11.706 -0.6832 -0.5294  0.3746
    6MPD2    C5   90   4.456   1.849  11.829 -0.1856 -0.0627 -0.2016
    6MPD2     H   91   4.612   1.501  11.789  1.8314  0.4231  2.4219
    6MPD2    H1   92   4.395   1.843  11.633  1.8541  0.6731 -0.8095
    6MPD2    H2   93   4.519   1.841  12.030  0.5911  1.0868 -0.3599
    6MPD2    H3   94   4.401   1.940  11.850  0.9486  0.5810 -0.0232
    6MPD2     N   95   4.511   1.594  11.569  0.0192  0.1119 -0.2489
    6MPD2    H5   96   4.538   1.497  11.576 -0.4234 -0.0349 -0.6332
    6MPD2    N1   97   4.620   1.600  12.043 -0.3718 -0.3204 -0.6678
    6MPD2    H7   98   4.609   1.654  12.128 -1.9635 -1.7467  0.0262
    7TCq1    O1   99   0.914   1.608  12.798 -0.4787 -0.2008  0.2611
    7TCq1    C1  100   0.918   1.501  12.878 -0.4894  0.4222  0.0153
    7TCq1    O2  101   0.828   1.419  12.894 -0.3733 -0.5092  0.2185
    7TCq1    C2  102   1.037   1.508  12.953  0.0087 -0.2691 -0.0183
    7TCq1    C3  103   1.086   1.630  12.989  0.1599 -0.9838 -0.0723
    7TCq1    C4  104   1.215   1.619  13.041  0.0871 -0.2096  0.1640
    7TCq1    C5  105   1.276   1.498  13.066  1.0761 -0.2928 -0.4064
    7TCq1    C6  106   1.221   1.382  13.030  0.2075 -0.0255 -0.1122
    7TCq1    C7  107   1.100   1.386  12.964 -0.2063  0.2460 -0.3806
    7TCq1    C8  108   1.261   1.255  13.085  0.3682  0.4085 -0.3489
    7TCq1    O4  109   1.175   1.167  13.088 -0.2575 -0.1747  0.3741
    7TCq1    C9  110   1.284   1.733  13.096  0.1012  0.0031 -0.4342
    7TCq1    O5  111   1.240   1.845  13.065 -0.2979  0.3443 -0.2917
    7TCq1    O6  112   1.384   1.717  13.174 -0.7975  0.3326 -0.6131
    7TCq1    H1  113   1.000   1.655  12.803 -0.1804 -0.7879  0.7756
    7TCq1    H2  114   1.027   1.719  13.007  2.5234  0.9853 -2.0865
    7TCq1    H3  115   1.360   1.495  13.135  1.3922  1.5838 -0.7017
    7TCq1    H4  116   1.055   1.296  12.924 -3.0213  1.6528 -0.3699
    8MPD2     C  117   1.582   0.952  13.344 -0.2841 -0.3920  0.7960
    8MPD2    C1  118   1.448   0.948  13.316  0.1189 -0.3504 -1.0745
    8MPD2    C2  119   1.380   1.044  13.244 -0.1218 -0.5277  0.0886
    8MPD2    C3  120   1.455   1.147  13.190  0.3134 -0.5393  0.6065
    8MPD2    C4  121   1.590   1.158  13.209  0.4177 -0.1520 -0.3296
    8MPD2    C5  122   1.649   1.063  13.288 -0.7463  0.1400  0.6148
    8MPD2     H  123   1.272   1.029  13.240  0.0204 -1.0688 -1.4306
    8MPD2    H1  124   1.649   1.241  13.172 -1.1287  0.4181 -1.5587
    8MPD2    H2  125   1.635   0.873  13.397 -2.1278 -0.8229  1.9668
    8MPD2    H3  126   1.755   1.073  13.308 -1.0365  1.7812  1.3481
    8MPD2     N  127   1.392   1.254  13.120 -0.1779  0.0356  0.4017
    8MPD2    H5  128   1.450   1.326  13.078 -0.9866  0.6942  0.4340
    8MPD2    N1  129   1.382   0.835  13.368  0.2911  0.1218  0.0871
    8MPD2    H7  130   1.431   0.785  13.442 -2.7709  0.6539  2.4982
    9TMC1    C1  131   3.938   0.503  11.499  0.2223 -0.0957  0.8030
    9TMC1    C2  132   4.061   0.534  11.440  0.0720  0.8229  0.0295
    9TMC1    C3  133   4.103   0.443  11.344  1.1971  0.4589  0.4437
    9TMC1    C4  134   3.864   0.396  11.466 -0.1084 -0.4643  0.7160
    9TMC1    C5  135   3.909   0.317  11.363 -0.8477 -0.7339  0.0884
    9TMC1    C6  136   4.027   0.342  11.300  0.2428 -0.5443 -0.1484
    9TMC1     C  137   3.885   0.610  11.581 -0.0178  0.5993 -0.1433
    9TMC1     O  138   3.934   0.721  11.575  0.5457 -0.1803  0.1189
    9TMC1     H  139   4.106   0.632  11.448  2.1084 -0.3305  2.7098
    9TMC1    H1  140   3.759   0.386  11.492  0.2419  2.7106  3.3086
    9TMC1    H2  141   4.049   0.291  11.207  1.3203 -1.8709  0.8284
    9TMC1    C7  142   3.833   0.198  11.342  0.0177 -0.1582  0.0847
    9TMC1    C8  143   4.197   0.502  11.252 -0.0600  0.2336 -1.3915
    9TMC1    O1  144   3.753   0.159  11.429  0.0148  0.1207  0.2061
    9TMC1    O2  145   4.220   0.476  11.134  0.1961  0.5461 -0.0558
    9TMC1    O3  146   3.800   0.211  11.216  0.2646  0.0305 -0.1712
    9TMC1    H3  147   3.838   0.282  11.160  2.7344  0.4590  2.0155
    9TMC1    O5  148   4.294   0.553  11.325 -0.1232 -0.1267  0.5635
    9TMC1    H5  149   4.284   0.554  11.422 -0.0546 -0.1124  0.5708
   10MPD2     C  150   3.706   0.761  11.778 -0.4110 -0.1768  0.9349
   10MPD2    C1  151   3.725   0.624  11.769 -0.2405 -0.0926  0.0515
   10MPD2    C2  152   3.661   0.549  11.864 -0.6860 -0.9253 -0.5171
   10MPD2    C3  153   3.570   0.588  11.959  0.4281 -0.0154  0.0016
   10MPD2    C4  154   3.546   0.725  11.956  0.2127 -0.5218 -0.7842
   10MPD2    C5  155   3.609   0.806  11.868  0.5341 -0.3261 -0.0232
   10MPD2     H  156   3.693   0.445  11.857 -3.0459 -1.6334 -0.7951
   10MPD2    H1  157   3.463   0.770  12.009 -0.0338  0.8579 -2.3693
   10MPD2    H2  158   3.762   0.838  11.726 -0.5037 -0.3657  0.5598
   10MPD2    H3  159   3.583   0.911  11.879 -0.1852 -0.5341  0.2521
   10MPD2     N  160   3.504   0.499  12.044 -0.3172  0.1935  0.3397
   10MPD2    H5  161   3.437   0.545  12.104  0.7436  1.3605  0.6369
   10MPD2    N1  162   3.797   0.558  11.673  0.4310  0.4394  0.4998
   10MPD2    H7  163   3.790   0.457  11.678  2.0917  0.3560  1.2489
   11TCq1    O1  164   4.130   0.224  14.513  0.2735  0.0925 -0.8117
   11TCq1    C1  165   4.124   0.194  14.643  0.1358 -0.8725  0.0587
   11TCq1    O2  166   4.054   0.254  14.723  0.1269  0.0521  0.0152
   11TCq1    C2  167   4.105   0.051  14.633 -0.8302 -0.0217 -0.2984
   11TCq1    C3  168   4.214   4.693  14.629 -0.6024  0.1100  0.0313
   11TCq1    C4  169   4.164   4.564  14.605  0.0559 -0.4971  0.6743
   11TCq1    C5  170   4.031   4.535  14.574  0.2739  0.3739  0.3519
   11TCq1    C6  171   3.941   4.637  14.562 -0.1447 -0.6773  0.9708
   11TCq1    C7  172   3.975   0.024  14.595  0.3020 -0.5897 -0.2081
   11TCq1    C8  173   3.821   4.619  14.475  0.3261 -1.0136 -0.1753
   11TCq1    O4  174   3.737   4.711  14.475 -0.0096 -0.2368  0.3640
   11TCq1    C9  175   4.257   4.460  14.610  0.3850  0.3045  0.6786
   11TCq1    O5  176   4.377   4.494  14.626  0.9441  0.1845  0.1033
   11TCq1    O6  177   4.213   4.346  14.579  0.2307  0.0759 -0.1475
   11TCq1    H1  178   4.186   0.164  14.459 -0.2148  2.7790 -4.2513
   11TCq1    H2  179   4.316   4.722  14.652 -0.9009  1.5165 -0.4157
   11TCq1    H3  180   4.001   4.435  14.546 -0.1057  1.0141 -1.5413
   11TCq1    H4  181   3.893   0.095  14.605  0.0899 -1.0500  1.3930
   12MPD2     C  182   3.642   4.561  14.238  0.1932 -0.3945  0.4218
   12MPD2    C1  183   3.745   4.475  14.295  0.4622  0.0381 -0.1286
   12MPD2    C2  184   3.784   4.357  14.233  0.0255  0.1041  0.9041
   12MPD2    C3  185   3.727   4.323  14.116  0.3387  0.2272  0.4102
   12MPD2    C4  186   3.622   4.403  14.064 -0.3583 -0.1834  0.5755
   12MPD2    C5  187   3.579   4.515  14.129 -0.1689 -0.6163  0.5919
   12MPD2     H  188   3.868   4.306  14.279 -0.6410 -0.1228  1.8629
   12MPD2    H1  189   3.580   4.366  13.971  1.0251  0.9017 -0.4860
   12MPD2    H2  190   3.600   4.648  14.287  1.9833  0.2151  0.8577
   12MPD2    H3  191   3.496   4.573  14.090  0.9593  1.4961  1.3267
   12MPD2     N  192   3.777   4.208  14.043  0.3783  0.1853 -0.2967
   12MPD2    H5  193   3.717   4.177  13.968 -0.4377 -0.0794  0.4699
   12MPD2    N1  194   3.830   4.510  14.398 -1.0361 -0.8445 -0.4434
   12MPD2    H7  195   3.915   4.456  14.412  1.3639  2.6285 -1.2952
   13TCq1    O1  196   4.406   0.242  11.174  0.5341  0.2375 -0.7651
   13TCq1    C1  197   4.464   0.234  11.054 -0.3619 -0.2921 -0.5315
   13TCq1    O2  198   4.564   0.295  11.022  0.4680 -0.8281 -0.0415
   13TCq1    C2  199   4.398   0.122  10.987  0.2983  0.5346  0.2521
   13TCq1    C3  200   4.472   0.030  10.919  0.1904 -0.4174  0.0725
   13TCq1    C4  201   4.399   4.660  10.863  0.0052 -0.2962 -0.8061
   13TCq1    C5  202   4.262   4.648  10.878 -0.2997 -0.1231 -0.2800
   13TCq1    C6  203   4.195   0.016  10.940  0.1251  0.0743  0.3615
   13TCq1    C7  204   4.262   0.126  10.992  0.4120  0.2083  0.1070
   13TCq1    C8  205   4.067   4.732  10.994 -1.0489  0.3463 -0.8463
   13TCq1    O4  206   4.005   0.089  11.033 -0.1401  0.2918 -0.4882
   13TCq1    C9  207   4.466   4.549  10.799  0.9873  0.3401  0.8622
   13TCq1    O5  208   4.588   4.554  10.788  0.1205 -0.3922  0.1994
   13TCq1    O6  209   4.389   4.460  10.757  0.9593 -0.9381 -0.2738
   13TCq1    H1  210   4.346   0.170  11.204  1.0808 -1.2831 -3.2657
   13TCq1    H2  211   4.576   0.050  10.896 -0.2913  2.4892  0.4466
   13TCq1    H3  212   4.216   4.557  10.841  0.3952  0.4478 -2.5316
   13TCq1    H4  213   4.208   0.213  11.026  1.0159  0.6103  0.0380
   14MPD2     C  214   3.898   4.409  11.056  0.9203  0.1528  0.6363
   14MPD2    C1  215   3.921   4.544  11.059  0.4308 -0.4003 -0.2459
   14MPD2    C2  216   3.822   4.614  11.123 -0.1593  1.1087  0.7494
   14MPD2    C3  217   3.707   4.564  11.174 -0.3369 -0.1622 -0.1982
   14MPD2    C4  218   3.687   4.427  11.170 -0.2387 -0.2460  0.2335
   14MPD2    C5  219   3.782   4.355  11.107  0.2817  0.2627  0.4462
   14MPD2     H  220   3.819   4.722  11.107  0.0128  1.0930  0.6165
   14MPD2    H1  221   3.603   4.374  11.213  0.1497 -0.2014  1.0553
   14MPD2    H2  222   3.973   4.344  11.014  0.3911 -0.0181 -0.0474
   14MPD2    H3  223   3.766   4.248  11.107 -0.4399  0.3643 -1.2724
   14MPD2     N  224   3.623   4.654  11.254  0.0103 -0.3524  0.0854
   14MPD2    H5  225   3.644   0.014  11.263  0.2648 -0.5353  1.4032
   14MPD2    N1  226   4.031   4.599  10.990 -0.7842  0.2944 -0.9265
   14MPD2    H7  227   4.100   4.538  10.946 -0.9750 -0.9139  0.4407
   15TCq1    O1  228   1.393   4.205   2.185 -0.3298 -0.4660  0.3452
   15TCq1    C1  229   1.337   4.087   2.174 -0.2718  0.0011 -0.5152
   15TCq1    O2  230   1.218   4.065   2.157 -0.4264  0.0789  0.1347
   15TCq1    C2  231   1.441   3.993   2.133  0.2453  0.2033 -0.1811
   15TCq1    C3  232   1.557   3.980   2.206 -0.3430 -0.3179  0.2026
   15TCq1    C4  233   1.645   3.877   2.169  0.1384  0.9850 -0.3625
   15TCq1    C5  234   1.619   3.794   2.063  0.5145 -0.3372  0.2190
   15TCq1    C6  235   1.493   3.800   2.003 -0.0443 -0.0288  0.5705
   15TCq1    C7  236   1.406   3.902   2.034  1.0384  0.2108  0.2077
   15TCq1    C8  237   1.465   3.704   1.898  0.9275  0.2286 -0.0151
   15TCq1    O4  238   1.551   3.613   1.881 -0.6747 -0.5077 -0.0471
   15TCq1    C9  239   1.765   3.861   2.246  0.5063  0.3285 -0.4260
   15TCq1    O5  240   1.856   3.799   2.183 -0.1541  0.0327 -0.5261
   15TCq1    O6  241   1.784   3.930   2.351  0.4020 -0.6377  0.4290
   15TCq1    H1  242   1.489   4.209   2.168 -0.8492  0.3525 -2.3739
   15TCq1    H2  243   1.581   4.042   2.292  0.5989  1.8309 -1.5832
   15TCq1    H3  244   1.689   3.714   2.041 -1.2432 -1.4970 -1.1042
   15TCq1    H4  245   1.318   3.922   1.973  1.8646  2.4401 -0.2486
   16MPD2     C  246   1.163   3.685   1.692  0.0650  0.1885 -0.4633
   16MPD2    C1  247   1.290   3.654   1.731  0.1881  0.2701  0.7273
   16MPD2    C2  248   1.358   3.556   1.669 -0.2494  0.9755  0.0445
   16MPD2    C3  249   1.290   3.462   1.585  0.8616 -0.6436 -0.1521
   16MPD2    C4  250   1.166   3.496   1.542 -0.1648  0.2365  0.8537
   16MPD2    C5  251   1.105   3.607   1.590 -0.3456 -0.2759  0.7553
   16MPD2     H  252   1.462   3.538   1.692 -0.4393 -0.0107  0.1379
   16MPD2    H1  253   1.106   3.446   1.467  1.3495  0.2010 -0.3260
   16MPD2    H2  254   1.108   3.761   1.746  0.1002 -1.4186  1.8292
   16MPD2    H3  255   1.003   3.625   1.557 -0.5773 -0.9936  1.0632
   16MPD2     N  256   1.352   3.342   1.542  0.1993 -0.5108 -0.2480
   16MPD2    H5  257   1.448   3.338   1.575  0.2099 -1.2143 -0.3673
   16MPD2    N1  258   1.347   3.729   1.836 -0.2106 -0.4320  0.3049
   16MPD2    H7  259   1.293   3.806   1.875 -0.9732  0.3571 -2.3343
   17TMC1    C1  260   3.035   3.923  12.059 -0.0999  0.4192  0.2358
   17TMC1    C2  261   3.129   3.825  12.072 -0.1648 -0.2025  0.2322
   17TMC1    C3  262   3.091   3.716  12.152 -0.4865  0.7002  0.0708
   17TMC1    C4  263   2.910   3.917  12.112 -0.1429  0.2148  0.0226
   17TMC1    C5  264   2.877   3.810  12.192 -0.6461 -0.0575  0.1826
   17TMC1    C6  265   2.969   3.712  12.212  0.0818  0.0634  0.0766
   17TMC1     C  266   3.051   4.024  11.960 -0.4705  0.4007  0.1472
   17TMC1     O  267   2.984   4.126  11.979  0.0872 -0.2616  0.8467
   17TMC1     H  268   3.232   3.845  12.045 -0.3652 -1.4496 -1.4995
   17TMC1    H1  269   2.849   4.005  12.093 -0.3040  0.0778 -0.1042
   17TMC1    H2  270   2.943   3.634  12.283  0.2777 -0.0368  0.0368
   17TMC1    C7  271   2.769   3.820  12.281 -0.5972  0.0083  0.2204
   17TMC1    C8  272   3.188   3.617  12.187 -0.0150 -0.0877  0.4578
   17TMC1    O1  273   2.681   3.905  12.247 -0.2814  0.1028  0.2181
   17TMC1    O2  274   3.180   3.532  12.275  0.1249  0.7106 -0.3762
   17TMC1    O3  275   2.835   3.819  12.396 -0.4000  0.2613 -0.4666
   17TMC1    H3  276   2.924   3.777  12.398  0.0042  1.1443 -0.0102
   17TMC1    O5  277   3.244   3.593  12.072  0.5499 -0.4737 -0.7756
   17TMC1    H5  278   3.258   3.665  12.007 -2.5295 -0.8683 -1.8722
   18MPD2     C  279   3.190   4.215  11.779  0.4703 -0.2902 -0.1860
   18MPD2    C1  280   3.196   4.077  11.772  0.5525  0.3945 -0.0226
   18MPD2    C2  281   3.274   4.020  11.671  0.4655  0.3631  0.3967
   18MPD2    C3  282   3.351   4.092  11.577  1.3664  0.4949 -0.2960
   18MPD2    C4  283   3.342   4.227  11.588 -0.2849 -0.2377 -0.1843
   18MPD2    C5  284   3.262   4.289  11.688 -0.0841  0.0479 -0.0580
   18MPD2     H  285   3.259   3.915  11.651 -0.1931  0.5241  0.0456
   18MPD2    H1  286   3.398   4.294  11.524 -0.1068 -1.0724 -0.9005
   18MPD2    H2  287   3.130   4.257  11.858  0.6534 -0.9043  0.2850
   18MPD2    H3  288   3.283   4.395  11.699 -1.2808  0.2516  0.1892
   18MPD2     N  289   3.428   4.038  11.470 -0.5317 -0.0373  0.3331
   18MPD2    H5  290   3.483   4.106  11.419 -0.6065 -2.2931 -2.7614
   18MPD2    N1  291   3.143   3.988  11.863 -0.3672 -0.9551  0.4072
   18MPD2    H7  292   3.187   3.897  11.867 -0.8442 -1.2096 -0.0903
   19TMC2    C1  293   0.722   4.506  13.784 -0.3436 -0.6772 -0.4120
   19TMC2    C2  294   0.678   4.580  13.677 -0.4161  0.7792  0.4835
   19TMC2    C3  295   0.551   4.630  13.682 -0.6276  0.1814 -0.1405
   19TMC2    C4  296   0.641   4.477  13.892 -0.0127 -0.0650  0.8265
   19TMC2    C5  297   0.510   4.523  13.890 -0.4320  0.0359  0.0865
   19TMC2    C6  298   0.464   4.602  13.789  0.1752  0.4498 -0.2178
   19TMC2     C  299   0.842   4.427  13.757 -0.1323 -0.0424  0.8302
   19TMC2     O  300   0.888   4.434  13.643  0.3476  0.0749  0.5617
   19TMC2     H  301   0.736   4.590  13.586  1.0547  1.8498  1.5400
   19TMC2    H1  302   0.677   4.422  13.979  1.4840 -0.1688  0.1366
   19TMC2    H2  303   0.359   4.626  13.779  0.2939  1.2215  0.3630
   19TMC2    C7  304   0.430   4.443  13.975 -0.5290  0.1981  0.5374
   19TMC2    C8  305   0.476   4.647  13.563  1.0135 -0.0041 -1.1671
   19TMC2    O1  306   0.480   4.360  14.044 -0.2793 -0.1257  0.2750
   19TMC2    O2  307   0.371   4.591  13.546 -0.4711 -0.2452  0.2893
   19TMC2    O5  308   0.555   4.710  13.474 -0.3140  0.8929 -0.2187
   19TMC2    H5  309   0.620   0.016  13.532 -0.5667  0.4591  0.3949
   20MPD2     C  310   1.073   4.234  13.778  0.7011 -0.2176  0.2848
   20MPD2    C1  311   0.994   4.279  13.882 -0.0178 -0.7047  0.3565
   20MPD2    C2  312   1.035   4.259  14.014  0.0550  0.6835  0.0996
   20MPD2    C3  313   1.150   4.188  14.044 -0.4301  0.4424 -0.3565
   20MPD2    C4  314   1.225   4.145  13.940 -0.9173 -0.1473  0.5636
   20MPD2    C5  315   1.174   4.153  13.812 -0.0506 -0.9177  0.5104
   20MPD2     H  316   0.972   4.295  14.094  1.4019  2.1778  0.4877
   20MPD2    H1  317   1.319   4.093  13.953 -0.1283  1.6923  2.1320
   20MPD2    H2  318   1.047   4.257  13.676  2.3661  1.5191  0.2431
   20MPD2    H3  319   1.236   4.104  13.737  0.8283  0.0271  0.6121
   20MPD2     N  320   1.198   4.167  14.177 -0.0339  0.5908  0.0727
   20MPD2    H5  321   1.291   4.126  14.185  0.2957  1.1111 -1.1274
   20MPD2    N1  322   0.880   4.361  13.869  0.2347 -0.3515 -0.0180
   20MPD2    H7  323   0.832   4.390  13.953 -0.7039 -1.5001 -0.1767
   21TMC2    C1  324   3.143   4.595  14.245 -0.1153  0.6635  0.0221
   21TMC2    C2  325   3.218   4.499  14.313 -1.0312  0.6325  0.3204
   21TMC2    C3  326   3.177   4.450  14.439  0.2898  0.1890 -0.2376
   21TMC2    C4  327   3.030   4.637  14.303 -0.1621  0.7842  0.1829
   21TMC2    C5  328   2.990   4.591  14.430  0.2599 -0.7126 -0.0138
   21TMC2    C6  329   3.061   4.493  14.497  0.5935  0.3342 -0.3312
   21TMC2     C  330   3.212   4.659  14.130 -0.0516 -0.5027 -1.1989
   21TMC2     O  331   3.249   4.587  14.039  0.0974 -0.5147 -0.1588
   21TMC2     H  332   3.317   4.479  14.274 -0.4434  3.8538  0.1373
   21TMC2    H1  333   2.983   4.723  14.257 -0.6825 -0.6472 -1.9983
   21TMC2    H2  334   3.026   4.454  14.592  2.9160  0.8454  0.7207
   21TMC2    C7  335   2.927   4.686  14.516  0.4029  0.6541 -0.2699
   21TMC2    C8  336   3.267   4.385  14.537 -0.2664 -0.2400  0.2149
   21TMC2    O1  337   2.963   4.675  14.630 -0.2924 -0.1095 -0.5624
   21TMC2    O2  338   3.266   4.410  14.656 -0.0362 -0.0923 -0.0693
   21TMC2    O5  339   3.380   4.380  14.468 -0.4474  0.0273 -0.1320
   21TMC2    H5  340   3.371   4.349  14.376  0.3138 -1.6697  0.3630
   22MPD2     C  341   3.147   0.309  14.451 -0.0418 -0.2515  0.1202
   22MPD2    C1  342   3.210   0.195  14.467 -0.2723 -0.0972 -0.2286
   22MPD2    C2  343   3.231   0.107  14.363  0.2541  0.0807 -0.0019
   22MPD2    C3  344   3.190   0.150  14.240  0.5295  0.4072  0.1295
   22MPD2    C4  345   3.147   0.280  14.213  0.6963 -0.4166 -0.0517
   22MPD2    C5  346   3.111   0.352  14.325  0.3256 -0.1961  0.3130
   22MPD2     H  347   3.275   0.010  14.382 -2.4387 -1.0804  0.2831
   22MPD2    H1  348   3.112   0.319  14.118  0.8662  0.0118  0.0618
   22MPD2    H2  349   3.129   0.372  14.538  0.6047  2.3216 -1.6102
   22MPD2    H3  350   3.047   0.439  14.318  2.2781  1.2349  0.2081
   22MPD2     N  351   3.208   0.061  14.130  0.4626 -0.1542 -0.3346
   22MPD2    H5  352   3.223   0.112  14.043 -0.1766  0.8804  0.1639
   22MPD2    N1  353   3.257   0.153  14.593  0.0174 -0.7914  0.0149
   22MPD2    H7  354   3.317   0.071  14.588  1.7298  0.5068 -0.8219
   23TMC2    C1  355   3.936   0.670  14.736 -0.2416 -0.2915  0.3005
   23TMC2    C2  356   3.879   0.748  14.832  0.1247  0.1435 -0.8196
   23TMC2    C3  357   3.749   0.776  14.816  0.6401  0.3839  0.0982
   23TMC2    C4  358   3.871   0.637  14.620  0.7693  0.0501  0.6157
   23TMC2    C5  359   3.741   0.677  14.609 -0.2702  0.6746  0.1600
   23TMC2    C6  360   3.678   0.752  14.705 -0.2015  0.1979 -0.4900
   23TMC2     C  361   4.079   0.660  14.748  0.0802 -1.0629 -0.1869
   23TMC2     O  362   4.123   0.613  14.851 -0.2814 -0.5867  0.1059
   23TMC2     H  363   3.929   0.757  14.928  0.8902 -0.1182 -1.1965
   23TMC2    H1  364   3.910   0.566  14.548 -1.9928 -1.1045  0.2662
   23TMC2    H2  365   3.573   0.774  14.690  0.1200  1.6317 -0.5812
   23TMC2    C7  366   3.680   0.653  14.477 -0.0804  0.5055 -0.5745
   23TMC2    C8  367   3.697   0.879  14.898 -0.1721  0.7800 -0.4694
   23TMC2    O1  368   3.753   0.600  14.390 -0.3586 -0.2058  0.0262
   23TMC2    O2  369   3.588   0.870  14.954  0.3021 -0.1200  0.2287
   23TMC2    O5  370   3.755   0.990  14.868 -0.0382 -0.7927 -0.1872
   23TMC2    H5  371   3.833   0.973  14.811  0.8102  1.9400  0.1739
   24MPD2     C  372   4.545   0.695  14.556 -0.4473  0.7691 -0.2421
   24MPD2    C1  373   4.501   0.651  14.681 -0.2001  0.0341 -0.5158
   24MPD2    C2  374   4.361   0.646  14.704  0.5140  0.3379  0.4676
   24MPD2    C3  375   4.272   0.687  14.600  0.2184  0.0783 -1.1584
   24MPD2    C4  376   4.320   0.735  14.480 -0.1583 -0.8989  0.0235
   24MPD2    C5  377   4.455   0.732  14.459 -0.1333  0.0685 -0.5648
   24MPD2     H  378   4.336   0.602  14.799 -2.5410 -0.1304 -0.5355
   24MPD2    H1  379   4.249   0.772  14.406 -0.6212  3.0172  2.4586
   24MPD2    H2  380   4.648   0.692  14.522 -0.1865  0.7294  0.5518
   24MPD2    H3  381   4.503   0.757  14.365 -0.4587 -1.3601 -1.1207
   24MPD2     N  382   4.135   0.687  14.630 -0.2002 -0.3292 -0.0819
   24MPD2    H5  383   4.074   0.727  14.560  1.6170  1.4832 -0.6028
   24MPD2    N1  384   4.595   0.605  14.787  0.7744 -0.2946 -0.1159
   24MPD2    H7  385   4.548   0.566  14.869  0.3640  0.4851  0.0155
   25TMC2    C1  386   3.155   3.379  11.557 -0.1905  0.1781 -0.3050
   25TMC2    C2  387   3.240   3.478  11.585 -0.4536  0.4752 -0.0028
   25TMC2    C3  388   3.200   3.584  11.660 -0.3377 -0.4970  0.2561
   25TMC2    C4  389   3.023   3.382  11.600 -0.1134 -0.1249  0.5613
   25TMC2    C5  390   2.984   3.485  11.673  0.2319  0.0086  0.5575
   25TMC2    C6  391   3.069   3.585  11.716 -0.4002  0.0366 -0.4274
   25TMC2     C  392   3.204   3.284  11.459 -0.4853 -0.0383  0.4782
   25TMC2     O  393   3.323   3.290  11.437 -0.1878  0.0567  0.1184
   25TMC2     H  394   3.341   3.480  11.548  0.5733  0.4216  2.7991
   25TMC2    H1  395   2.955   3.300  11.578 -0.1759  0.2012 -0.4637
   25TMC2    H2  396   3.041   3.666  11.783  1.2604  0.2716 -0.0186
   25TMC2    C7  397   2.868   3.480  11.762 -0.6281 -0.2798 -1.0774
   25TMC2    C8  398   3.287   3.665  11.743  0.8972 -0.2316  0.0522
   25TMC2    O1  399   2.826   3.372  11.794 -0.3453 -0.4207 -0.2077
   25TMC2    O2  400   3.240   3.737  11.827 -0.1435 -0.3692 -0.4817
   25TMC2    O5  401   3.379   3.579  11.787 -0.1218  0.5394  0.2869
   25TMC2    H5  402   3.413   3.521  11.715  0.7687  1.4310 -0.0152
   26MPD2     C  403   3.159   2.881  11.145 -0.0508 -0.2077  0.7701
   26MPD2    C1  404   3.054   2.878  11.229 -0.2275  0.4951  0.3548
   26MPD2    C2  405   3.044   2.984  11.321 -0.4295 -0.6973 -0.3618
   26MPD2    C3  406   3.140   3.077  11.341  0.2926  0.4084 -0.1701
   26MPD2    C4  407   3.246   3.076  11.263 -0.3723 -0.2391  0.0396
   26MPD2    C5  408   3.253   2.982  11.163  0.0999 -0.1376  0.1544
   26MPD2     H  409   2.956   2.992  11.384 -0.5720  1.2743 -0.8179
   26MPD2    H1  410   3.314   3.160  11.259 -1.4613  0.5993 -0.6441
   26MPD2    H2  411   3.184   2.805  11.071 -2.6789  1.7181 -2.1215
   26MPD2    H3  412   3.334   2.999  11.092 -0.6869 -3.0517 -1.4358
   26MPD2     N  413   3.112   3.189  11.425 -0.1962  0.0788 -0.5039
   26MPD2    H5  414   3.020   3.206  11.466 -0.4663  0.3454 -1.2213
   26MPD2    N1  415   2.960   2.774  11.225 -0.7501  0.1907  0.1925
   26MPD2    H7  416   2.968   2.707  11.149 -0.2461  1.0580 -0.5183
   27TMC2    C1  417   2.569   1.162  12.038  0.1928 -0.2725 -1.1670
   27TMC2    C2  418   2.672   1.252  12.017 -0.2834  0.5799  0.0144
   27TMC2    C3  419   2.754   1.284  12.117  0.4697 -0.2649  0.9544
   27TMC2    C4  420   2.552   1.107  12.162  0.8169 -0.4496 -0.0257
   27TMC2    C5  421   2.651   1.129  12.259  0.7935  0.7885 -0.0364
   27TMC2    C6  422   2.747   1.229  12.240  0.2502  0.5744 -0.5609
   27TMC2     C  423   2.451   1.192  11.965  0.1645 -0.8218 -0.5645
   27TMC2     O  424   2.465   1.281  11.883  0.3403 -0.0407 -0.5334
   27TMC2     H  425   2.690   1.300  11.921  1.0016 -1.7835 -0.9223
   27TMC2    H1  426   2.477   1.033  12.187 -0.2669  0.2918 -1.0951
   27TMC2    H2  427   2.791   1.278  12.326  0.0963  1.0133 -0.7344
   27TMC2    C7  428   2.639   1.075  12.395  0.8348 -0.4842 -0.0897
   27TMC2    C8  429   2.854   1.380  12.073  0.0175  0.0683 -0.3907
   27TMC2    O1  430   2.533   1.019  12.421 -0.9272  0.0417  0.2709
   27TMC2    O2  431   2.840   1.445  11.973  0.0653 -0.1062 -0.1443
   27TMC2    O5  432   2.975   1.344  12.128  0.2514  0.5693 -0.2822
   27TMC2    H5  433   2.977   1.291  12.210 -0.6564  1.9672  0.6442
   28MPD2     C  434   1.936   1.208  11.908 -0.3695 -0.3514  0.4777
   28MPD2    C1  435   1.962   1.121  12.008  0.9179 -0.0789  0.2700
   28MPD2    C2  436   2.095   1.091  12.035 -0.1987  0.3949  0.2199
   28MPD2    C3  437   2.199   1.147  11.969  0.0356 -0.0365  0.7342
   28MPD2    C4  438   2.168   1.234  11.861 -0.4131  0.0474  0.3092
   28MPD2    C5  439   2.036   1.266  11.833 -0.0786 -0.0149 -0.2167
   28MPD2     H  440   2.123   1.025  12.116  0.2767  0.7062  0.3116
   28MPD2    H1  441   2.252   1.281  11.811 -0.9780 -0.9857 -1.6161
   28MPD2    H2  442   1.834   1.241  11.895 -1.0274 -1.9078  1.7190
   28MPD2    H3  443   2.010   1.323  11.745 -0.8439  0.7662  0.5221
   28MPD2     N  444   2.338   1.125  12.011 -0.1794  0.4073 -0.0587
   28MPD2    H5  445   2.344   1.066  12.093 -2.9416 -0.5228 -0.5311
   28MPD2    N1  446   1.847   1.070  12.072 -0.3016 -0.1415 -0.2177
   28MPD2    H7  447   1.756   1.103  12.042 -0.2756  0.3253  0.2077
   29TMC2    C1  448   2.044   3.079  14.529 -0.7121  0.3587  0.1657
   29TMC2    C2  449   1.984   2.982  14.606 -0.4833 -0.0006 -0.4831
   29TMC2    C3  450   1.907   3.032  14.700  0.5370 -0.7375  0.1418
   29TMC2    C4  451   2.018   3.212  14.536 -0.1614  0.2720  1.0812
   29TMC2    C5  452   1.931   3.249  14.633  0.7324 -0.7540 -0.2217
   29TMC2    C6  453   1.871   3.161  14.719 -0.0570 -0.3606 -0.5335
   29TMC2     C  454   2.094   3.044  14.394 -0.5236 -0.4419 -0.1495
   29TMC2     O  455   2.154   3.125  14.323  0.3483 -0.5472 -0.0442
   29TMC2     H  456   2.008   2.876  14.607  0.2600  0.1747  0.6444
   29TMC2    H1  457   2.058   3.289  14.472  0.3642  0.4070  1.5706
   29TMC2    H2  458   1.805   3.196  14.797  3.4977  0.0235  2.3181
   29TMC2    C7  459   1.863   3.376  14.624  0.2482 -1.0666 -0.4406
   29TMC2    C8  460   1.860   2.944  14.801 -0.3045  0.5636 -0.0942
   29TMC2    O1  461   1.743   3.378  14.641  0.0669  0.2075  0.9945
   29TMC2    O2  462   1.821   2.994  14.904 -0.0890  0.5488  0.1251
   29TMC2    O5  463   1.807   2.833  14.751 -0.4799  0.1918 -0.1500
   29TMC2    H5  464   1.844   2.802  14.666  1.3761  2.7563 -0.2962
   30MPD2     C  465   2.162   2.645  14.065  0.1717 -0.0780  0.5454
   30MPD2    C1  466   2.062   2.612  14.156 -0.3435  0.4471  0.3850
   30MPD2    C2  467   2.024   2.712  14.246  0.4284  0.5201 -0.7651
   30MPD2    C3  468   2.096   2.829  14.260 -0.0810 -0.4255 -0.4006
   30MPD2    C4  469   2.196   2.855  14.176  0.3504 -0.0778 -0.0048
   30MPD2    C5  470   2.226   2.767  14.076  0.7655  0.1780  0.2679
   30MPD2     H  471   1.936   2.698  14.308  1.6254 -3.8111 -0.0331
   30MPD2    H1  472   2.269   2.935  14.175 -0.1633  0.3873 -1.1808
   30MPD2    H2  473   2.190   2.576  13.987 -3.3401 -0.4886 -0.3519
   30MPD2    H3  474   2.303   2.805  14.010 -0.7603  1.9820 -0.4910
   30MPD2     N  475   2.050   2.913  14.365  1.0135  0.2169  0.4485
   30MPD2    H5  476   1.978   2.873  14.424 -0.5644  0.8279 -1.0723
   30MPD2    N1  477   1.996   2.489  14.157  0.0445  0.2937  0.3098
   30MPD2    H7  478   1.932   2.468  14.233  0.3497 -2.1534 -0.1354
   31TMC2    C1  479   4.528   1.561  15.088  0.1814 -0.3014 -0.0311
   31TMC2    C2  480   4.430   1.635  15.143  0.3250  0.1313 -0.0182
   31TMC2    C3  481   4.338   1.575  15.219 -0.2072  0.3695 -0.0815
   31TMC2    C4  482   4.537   1.426  15.106 -0.0880 -0.0004  0.2850
   31TMC2    C5  483   4.436   1.369  15.179 -0.0099  0.4735 -0.2425
   31TMC2    C6  484   4.339   1.444  15.244 -0.5584  0.7880  0.0347
   31TMC2     C  485   4.586   1.618  14.969  0.2113  0.7676  0.1538
   31TMC2     O  486   4.535   1.718  14.920 -0.2447 -0.1770  0.0589
   31TMC2     H  487   4.420   1.741  15.125  1.6122  0.2887  0.1884
   31TMC2    H1  488   4.607   1.364  15.051 -0.9455 -0.5689 -0.1507
   31TMC2    H2  489   4.279   1.395  15.320 -0.6633 -0.4996 -0.8660
   31TMC2    C7  490   4.464   1.232  15.224  0.4584 -0.5100 -0.2360
   31TMC2    C8  491   4.258   1.665  15.296 -0.2169  0.4550  0.4111
   31TMC2    O1  492   4.417   1.206  15.336  0.1701  0.6023 -0.1627
   31TMC2    O2  493   4.304   1.769  15.342  0.1773 -0.0063  0.2336
   31TMC2    O5  494   4.131   1.620  15.317 -0.1586 -0.3692  0.3202
   31TMC2    H5  495   4.125   1.525  15.290  0.3420  0.3639 -2.3347
   32MPD2     C  496   0.234   1.694  14.657  0.3258 -0.6603 -0.1983
   32MPD2    C1  497   0.110   1.739  14.655 -0.1251  0.3914  0.7927
   32MPD2    C2  498   0.014   1.687  14.733 -0.0624 -0.3981  1.0343
   32MPD2    C3  499   0.054   1.600  14.834  0.0151  0.1888 -0.3711
   32MPD2    C4  500   0.187   1.562  14.851  0.2963 -0.1615  0.0357
   32MPD2    C5  501   0.274   1.607  14.753  0.1693 -0.1220  0.4245
   32MPD2     H  502   4.648   1.715  14.724  0.1124 -0.1417 -0.1840
   32MPD2    H1  503   0.220   1.500  14.933  0.2789 -2.2915 -1.5786
   32MPD2    H2  504   0.309   1.735  14.589 -1.1201 -1.3097 -2.1993
   32MPD2    H3  505   0.380   1.588  14.757 -0.0146 -0.9598  1.2258
   32MPD2     N  506   4.706   1.558  14.936 -0.0192  0.6191  0.1257
   32MPD2    H5  507   4.737   1.482  14.996 -0.0892  0.6141  0.1547
   32MPD2    N1  508   0.085   1.840  14.561 -0.4531  0.2231 -0.2654
   32MPD2    H7  509   0.168   1.881  14.518  0.4906 -0.2256  1.1414
   33TMC2    C1  510   3.645   4.675  10.760  0.4496 -0.1279  0.5328
   33TMC2    C2  511   3.593   0.012  10.861 -0.3688 -0.1580 -0.4209
   33TMC2    C3  512   3.623   0.147  10.864  0.8420  0.0905  0.0469
   33TMC2    C4  513   3.715   4.726  10.654 -0.2047 -0.6234 -0.2129
   33TMC2    C5  514   3.739   0.120  10.661 -0.1982  0.7686 -0.1300
   33TMC2    C6  515   3.696   0.205  10.764 -0.6232  0.6844 -0.2876
   33TMC2     C  516   3.649   4.531  10.782  0.3864  0.6975  0.1351
   33TMC2     O  517   3.570   4.482  10.861  0.3143 -0.5689  0.2860
   33TMC2     H  518   3.532   4.709  10.941 -1.1881 -0.0262 -0.9818
   33TMC2    H1  519   3.763   4.662  10.580 -1.0637 -1.6680  0.1385
   33TMC2    H2  520   3.730   0.308  10.771  1.3929 -0.0855  1.2065
   33TMC2    C7  521   3.848   0.178  10.570  0.1330 -0.7027 -0.5837
   33TMC2    C8  522   3.561   0.224  10.970 -0.3072 -0.3380  0.1353
   33TMC2    O1  523   3.905   0.096  10.503  0.2484  0.7263  0.0533
   33TMC2    O2  524   3.524   0.178  11.077  0.2225  0.1223  0.2636
   33TMC2    O5  525   3.536   0.354  10.931 -0.0790 -0.2267  0.3613
   33TMC2    H5  526   3.522   0.357  10.834 -0.0796  1.2330  0.3995
   34MPD2     C  527   3.875   4.075  10.749  0.0936 -0.3748 -0.0297
   34MPD2    C1  528   3.772   4.114  10.826  0.1220 -0.6232 -0.4385
   34MPD2    C2  529   3.722   4.241  10.813 -0.1709  0.1015 -1.1116
   34MPD2    C3  530   3.777   4.328  10.717 -0.0605 -0.0495  0.4790
   34MPD2    C4  531   3.889   4.289  10.653 -0.5655  0.1713  0.7947
   34MPD2    C5  532   3.935   4.161  10.661 -0.0893  0.1286 -0.2291
   34MPD2     H  533   3.641   4.266  10.880  0.0834 -2.9470  0.3152
   34MPD2    H1  534   3.931   4.359  10.582  0.2509  0.2904  1.4042
   34MPD2    H2  535   3.911   3.974  10.768 -0.8639 -0.7316 -0.1240
   34MPD2    H3  536   4.020   4.135  10.599 -1.0920 -1.9268 -0.7244
   34MPD2     N  537   3.745   4.465  10.704 -0.1432  0.2420 -0.4364
   34MPD2    H5  538   3.803   4.527  10.647  0.9088  0.0890  0.4691
   34MPD2    N1  539   3.723   4.016  10.917 -0.7972 -0.4891  0.7572
   34MPD2    H7  540   3.787   3.939  10.932 -0.1529  0.2014  1.6084
   35TMC2    C1  541   4.659   0.842  11.959 -0.2571 -0.1487  0.3399
   35TMC2    C2  542   4.671   0.889  12.086 -0.6256 -0.0441 -0.4052
   35TMC2    C3  543   4.639   0.798  12.187 -0.2449  0.6170 -0.4066
   35TMC2    C4  544   4.607   0.719  11.935  0.3376 -0.2070  0.5562
   35TMC2    C5  545   4.567   0.642  12.037 -0.6657  0.5238  0.0115
   35TMC2    C6  546   4.575   0.677  12.166 -0.3908 -0.3427  0.1677
   35TMC2     C  547   0.013   0.890  11.857  1.3913  0.3758  0.2900
   35TMC2     O  548   0.018   1.014  11.851 -0.0530 -0.0400 -0.1344
   35TMC2     H  549   4.728   0.980  12.103 -0.5540 -0.9031  4.1797
   35TMC2    H1  550   4.589   0.692  11.831 -1.4344 -1.5581  1.2248
   35TMC2    H2  551   4.516   0.630  12.244  1.0630 -0.9433  0.8998
   35TMC2    C7  552   4.516   0.511  11.997 -0.6232  0.2726  0.8978
   35TMC2    C8  553   4.626   0.850  12.318  0.1337  0.1179 -0.0392
   35TMC2    O1  554   4.485   0.492  11.883  0.5497  0.5552 -0.1991
   35TMC2    O2  555   4.647   0.784  12.416 -0.1325 -0.3004  0.5464
   35TMC2    O5  556   4.636   0.987  12.304  0.1671 -0.1726  0.1223
   35TMC2    H5  557   4.600   1.020  12.219  2.9071  1.4870 -0.3789
   36MPD2     C  558   0.387   0.885  11.530  0.4461  0.4649 -0.1714
   36MPD2    C1  559   0.403   0.780  11.625 -0.5139 -0.3997  0.0398
   36MPD2    C2  560   0.294   0.745  11.702 -0.4613  0.1520  0.2878
   36MPD2    C3  561   0.178   0.814  11.692 -0.6924 -0.0913 -0.3078
   36MPD2    C4  562   0.157   0.913  11.603  0.5995 -0.0369  0.1684
   36MPD2    C5  563   0.262   0.940  11.516 -0.5336  0.7377 -0.5286
   36MPD2     H  564   0.298   0.673  11.782 -1.8888  0.7595  0.9029
   36MPD2    H1  565   0.065   0.968  11.591  0.4730 -0.2076  0.3573
   36MPD2    H2  566   0.468   0.908  11.461  0.2715 -1.7323 -1.1239
   36MPD2    H3  567   0.242   1.016  11.441  0.6361  1.0001 -0.5745
   36MPD2     N  568   0.084   0.789  11.788 -0.0875  0.6715  0.4197
   36MPD2    H5  569   0.085   0.696  11.828 -1.9991  1.0120  1.2621
   36MPD2    N1  570   0.535   0.733  11.648 -0.0797  0.3177  0.3404
   36MPD2    H7  571   0.607   0.787  11.601 -1.7065  2.2465  0.0562
   37TMC2    C1  572   2.920   0.662  12.597  0.9011  0.6306  0.8051
   37TMC2    C2  573   2.794   0.657  12.646 -0.3147  0.5281  0.6347
   37TMC2    C3  574   2.696   0.687  12.557 -0.9969 -0.0437  0.5014
   37TMC2    C4  575   2.945   0.690  12.464 -0.5164  0.2644 -0.7366
   37TMC2    C5  576   2.843   0.724  12.376 -0.4461  0.0256  0.3105
   37TMC2    C6  577   2.719   0.733  12.425 -0.4431  0.3015  0.7605
   37TMC2     C  578   3.019   0.714  12.692  0.2104  0.2952  0.7451
   37TMC2     O  579   3.003   0.694  12.814  0.1308  0.4429 -0.4394
   37TMC2     H  580   2.771   0.645  12.751 -0.3698 -1.1997  0.4287
   37TMC2    H1  581   3.038   0.663  12.415 -0.4531 -1.8062  0.5371
   37TMC2    H2  582   2.636   0.760  12.360  2.1055  2.0871 -1.7591
   37TMC2    C7  583   2.883   0.808  12.265  0.3864  0.5678 -0.1361
   37TMC2    C8  584   2.554   0.675  12.599  0.2037 -0.9869  0.0790
   37TMC2    O1  585   3.002   0.853  12.267 -0.3525  0.4784 -0.0506
   37TMC2    O2  586   2.458   0.700  12.529 -0.1016 -0.1498 -0.0339
   37TMC2    O5  587   2.557   0.569  12.683  0.1510 -0.1829 -0.3322
   37TMC2    H5  588   2.636   0.512  12.672  0.6344  0.4982 -0.4584
   38MPD2     C  589   3.420   1.006  12.760  0.1000  0.3517 -0.0778
   38MPD2    C1  590   3.359   1.029  12.642 -0.0961 -0.2135 -0.1507
   38MPD2    C2  591   3.266   0.948  12.598  0.0764  0.5235  0.3740
   38MPD2    C3  592   3.223   0.847  12.675 -0.1652 -0.0763 -0.6447
   38MPD2    C4  593   3.275   0.823  12.801 -0.2503  0.9469 -0.4222
   38MPD2    C5  594   3.373   0.906  12.846  0.6765 -0.6283 -1.0323
   38MPD2     H  595   3.224   0.965  12.499  0.9843  0.2871 -0.0508
   38MPD2    H1  596   3.245   0.745  12.869 -0.9714  1.4032 -0.2181
   38MPD2    H2  597   3.490   1.073  12.809 -0.3951  0.0767  1.0023
   38MPD2    H3  598   3.417   0.902  12.944  0.6523 -2.2279 -1.0864
   38MPD2     N  599   3.101   0.789  12.625 -0.0045 -0.2303 -0.1199
   38MPD2    H5  600   3.075   0.817  12.531  2.8295 -0.7311 -1.0516
   38MPD2    N1  601   3.401   1.149  12.566 -0.0296 -0.0429  0.2530
   38MPD2    H7  602   3.491   1.189  12.592  1.1298 -3.3861  1.3809
   39TMC2    C1  603   1.968   2.131   1.277 -0.0183 -0.0678  0.5797
   39TMC2    C2  604   1.947   2.015   1.205  0.6753 -0.1063  0.3177
   39TMC2    C3  605   2.025   1.909   1.231 -0.7607  0.5185  0.1150
   39TMC2    C4  606   2.063   2.135   1.376  0.1118 -0.0698 -0.5840
   39TMC2    C5  607   2.135   2.018   1.395  0.8700 -0.2796  0.2320
   39TMC2    C6  608   2.114   1.905   1.326  0.0400 -1.4554  0.0974
   39TMC2     C  609   1.854   2.221   1.283 -0.3228 -0.2802  0.1375
   39TMC2     O  610   1.768   2.196   1.196  0.2316 -0.2089  0.6360
   39TMC2     H  611   1.859   1.990   1.146 -0.2345  0.8312  1.2623
   39TMC2    H1  612   2.091   2.226   1.428  0.4499 -0.3302 -0.3056
   39TMC2    H2  613   2.174   1.815   1.337  1.6802 -0.2605  0.8136
   39TMC2    C7  614   2.247   2.015   1.485 -0.5652  0.3390 -0.0552
   39TMC2    C8  615   1.988   1.787   1.160  0.1223  0.0864 -0.5274
   39TMC2    O1  616   2.296   1.910   1.522  0.4575 -0.2963  0.3335
   39TMC2    O2  617   2.025   1.673   1.201 -0.1740  0.2177  0.7231
   39TMC2    O5  618   1.982   1.825   1.033  0.0137 -0.3793 -0.4010
   39TMC2    H5  619   1.991   1.920   1.010 -0.1530 -0.2918 -0.0874
   40MPD2     C  620   1.790   2.527   1.477  0.2653  0.6416  0.0449
   40MPD2    C1  621   1.759   2.413   1.403 -0.2786 -0.1515  0.6517
   40MPD2    C2  622   1.629   2.382   1.370 -0.1508  0.8329  0.5077
   40MPD2    C3  623   1.521   2.466   1.408 -0.0108 -0.0416  0.4120
   40MPD2    C4  624   1.554   2.584   1.478  0.2495 -0.4107 -0.1907
   40MPD2    C5  625   1.688   2.607   1.521  0.3913  0.6066 -0.7443
   40MPD2     H  626   1.601   2.290   1.320 -1.0188  1.9293 -1.0680
   40MPD2    H1  627   1.476   2.645   1.520  2.0073  0.8916  1.1716
   40MPD2    H2  628   1.889   2.550   1.515  0.1111  3.8748 -1.5613
   40MPD2    H3  629   1.707   2.692   1.585 -2.7746  0.4086  0.4867
   40MPD2     N  630   1.383   2.434   1.383 -0.3837  0.0217 -0.1428
   40MPD2    H5  631   1.324   2.515   1.397  1.4933  1.2155  0.8925
   40MPD2    N1  632   1.864   2.327   1.373 -0.3828 -0.2434  0.1099
   40MPD2    H7  633   1.950   2.342   1.425  1.3531 -0.3347 -2.7666
   41TMC2    C1  634   0.736   0.651  12.614  0.4776 -0.2505 -0.3278
   41TMC2    C2  635   0.839   0.739  12.622  0.0611  0.6743  0.0311
   41TMC2    C3  636   0.917   0.763  12.515 -0.3471 -0.2771 -0.2617
   41TMC2    C4  637   0.707   0.583  12.499  0.2352  0.0900 -0.0587
   41TMC2    C5  638   0.794   0.608  12.396  0.1181  0.0997 -0.8612
   41TMC2    C6  639   0.896   0.700  12.400 -0.1268 -0.0126 -0.2520
   41TMC2     C  640   0.635   0.638  12.721  0.4946  0.6634  0.3281
   41TMC2     O  641   0.544   0.562  12.697  0.0602  0.4049  0.3090
   41TMC2     H  642   0.865   0.775  12.720 -0.9939  1.5713 -0.0118
   41TMC2    H1  643   0.619   0.519  12.496 -0.9784  1.8449 -2.1154
   41TMC2    H2  644   0.966   0.715  12.319  0.2818  0.5749  0.2057
   41TMC2    C7  645   0.745   0.568  12.257  0.2335  0.0856 -0.2656
   41TMC2    C8  646   1.016   0.863  12.519  0.1453 -0.0773  0.3731
   41TMC2    O1  647   0.731   0.657  12.177  0.1093 -0.4883  0.5573
   41TMC2    O2  648   1.059   0.909  12.413 -0.4418 -0.0212 -1.1172
   41TMC2    O5  649   1.094   0.832  12.626  0.1214  0.3570 -0.2459
   41TMC2    H5  650   1.054   0.768  12.688 -0.7242  1.8829  0.8057
   42MPD2     C  651   0.514   0.607  12.985  0.4287  0.4521 -0.0902
   42MPD2    C1  652   0.585   0.722  12.958 -0.0902  0.5219 -0.3402
   42MPD2    C2  653   0.609   0.819  13.055 -0.4526 -0.0867  0.3377
   42MPD2    C3  654   0.554   0.806  13.177 -0.4535 -0.2817 -0.8133
   42MPD2    C4  655   0.493   0.687  13.211 -0.0895 -0.1469  0.1348
   42MPD2    C5  656   0.479   0.592  13.115  0.0068  0.1444  0.0400
   42MPD2     H  657   0.673   0.906  13.041  0.9764 -0.9865  1.2337
   42MPD2    H1  658   0.458   0.674  13.313  1.0655 -1.5560  0.3488
   42MPD2    H2  659   0.509   0.523  12.917  0.1424 -0.7185  1.3825
   42MPD2    H3  660   0.435   0.497  13.145  1.6633 -0.4283  0.6136
   42MPD2     N  661   0.554   0.889  13.288  0.1052  0.6577 -0.0716
   42MPD2    H5  662   0.512   0.851  13.372 -1.3093  0.3796 -0.9100
   42MPD2    N1  663   0.650   0.723  12.831 -0.6373  0.3477  0.3555
   42MPD2    H7  664   0.721   0.796  12.828 -1.2912  0.9633 -0.4778
   43TMC2    C1  665   1.845   4.090   0.776 -0.9405 -0.2267  0.4241
   43TMC2    C2  666   1.727   4.154   0.812  0.2990  0.2884  0.1161
   43TMC2    C3  667   1.707   4.202   0.940 -0.1927  0.1386 -0.5219
   43TMC2    C4  668   1.940   4.064   0.874  0.3114  0.1363  0.0437
   43TMC2    C5  669   1.923   4.127   0.996 -0.2988  0.5748  0.0899
   43TMC2    C6  670   1.803   4.181   1.035 -0.2086 -0.3750  0.4417
   43TMC2     C  671   1.895   4.051   0.639  0.1982  0.1297 -0.0039
   43TMC2     O  672   1.962   3.950   0.629  0.5033 -0.1280  0.2538
   43TMC2     H  673   1.655   4.172   0.732 -0.6909 -0.7020  0.7803
   43TMC2    H1  674   2.037   4.025   0.842  0.3961  0.5147 -0.1686
   43TMC2    H2  675   1.775   4.215   1.133 -1.5659 -0.0735 -0.0510
   43TMC2    C7  676   2.033   4.125   1.085  0.5783  0.6521 -0.7202
   43TMC2    C8  677   1.600   4.305   0.970 -0.7793 -0.6890  0.2420
   43TMC2    O1  678   2.140   4.100   1.029  0.0369  0.1584 -0.0823
   43TMC2    O2  679   1.629   4.400   1.041  0.0107  0.0493 -0.0659
   43TMC2    O5  680   1.499   4.296   0.881  0.1624 -0.3023 -0.8678
   43TMC2    H5  681   1.495   4.219   0.821 -1.9411 -0.8437 -0.0288
   44MPD2     C  682   1.855   4.043   0.139 -0.3252 -0.2595 -0.3177
   44MPD2    C1  683   1.881   3.945   0.230  0.9019 -0.4172 -0.4079
   44MPD2    C2  684   1.876   3.974   0.365 -0.5526 -0.1529 -0.2770
   44MPD2    C3  685   1.857   4.106   0.408  0.5054 -0.3421  0.2387
   44MPD2    C4  686   1.831   4.201   0.313  0.3313  0.2064  0.4457
   44MPD2    C5  687   1.828   4.174   0.182 -0.1480  0.5984  0.8938
   44MPD2     H  688   1.892   3.887   0.429 -0.5916  0.3673  0.4396
   44MPD2    H1  689   1.793   4.300   0.337 -0.6276  0.3346 -1.6509
   44MPD2    H2  690   1.847   4.020   0.033 -0.3305  0.1608 -0.4097
   44MPD2    H3  691   1.779   4.232   0.104 -0.9939  1.3264  1.9597
   44MPD2     N  692   1.845   4.135   0.546 -0.3176  0.0117  0.1638
   44MPD2    H5  693   1.815   4.228   0.574  0.8428  1.7093 -4.2360
   44MPD2    N1  694   1.900   3.806   0.201  0.3013  0.1783  0.0647
   44MPD2    H7  695   1.922   3.748   0.281 -2.8106  0.4377  1.1044
   45TMC2    C1  696   2.577   0.617  10.087  0.0133  1.0272  0.4106
   45TMC2    C2  697   2.704   0.583  10.121 -0.0230  0.1541  0.1256
   45TMC2    C3  698   2.791   0.689  10.138  0.3858 -0.3295  0.2215
   45TMC2    C4  699   2.541   0.750  10.076 -0.3494 -0.8434  0.5929
   45TMC2    C5  700   2.630   0.845  10.100 -0.1405  0.1357 -0.9727
   45TMC2    C6  701   2.756   0.823  10.124  0.0952 -0.0734  0.3748
   45TMC2     C  702   2.494   0.516  10.025 -0.1840 -0.5831 -0.0755
   45TMC2     O  703   2.512   0.399  10.059 -0.2058  0.0538  0.1090
   45TMC2     H  704   2.731   0.485  10.159  0.5672 -0.6066 -2.2906
   45TMC2    H1  705   2.437   0.774  10.054 -0.4536 -1.3287  0.5560
   45TMC2    H2  706   2.827   0.904  10.137 -0.3130  0.5231 -1.1648
   45TMC2    C7  707   2.584   0.980  10.136 -0.3863 -0.8747 -0.6958
   45TMC2    C8  708   2.919   0.664  10.207 -0.7612  0.6929 -0.7279
   45TMC2    O1  709   2.653   1.031  10.222 -0.3837 -0.6410  0.3342
   45TMC2    O2  710   2.979   0.760  10.259  0.1977  0.2136 -0.2191
   45TMC2    O5  711   2.978   0.573  10.130  0.2448  0.4673  0.1338
   45TMC2    H5  712   2.922   0.502  10.091  1.2594 -1.0000  1.3816
   46MPD2     C  713   2.368   0.350   9.810  0.2620 -0.0730  0.8677
   46MPD2    C1  714   2.379   0.491   9.812  0.2166  0.2431  0.2610
   46MPD2    C2  715   2.326   0.555   9.698 -0.0678 -0.1574 -0.0175
   46MPD2    C3  716   2.275   0.493   9.585 -0.6210  0.0070 -0.1308
   46MPD2    C4  717   2.279   0.352   9.586  0.3568 -0.0010  0.3494
   46MPD2    C5  718   2.321   0.286   9.692 -0.1906 -0.1962 -0.6263
   46MPD2     H  719   2.323   0.663   9.697  1.9212 -0.1008  0.1936
   46MPD2    H1  720   2.240   0.302   9.498 -0.4268  2.1459 -0.5389
   46MPD2    H2  721   2.371   0.296   9.904 -2.1845 -1.4228  0.1555
   46MPD2    H3  722   2.322   0.177   9.699 -1.5566 -0.1196  1.0040
   46MPD2     N  723   2.201   0.579   9.490 -0.2272 -0.7079 -0.3821
   46MPD2    H5  724   2.197   0.680   9.496  0.8991 -0.6449 -0.7099
   46MPD2    N1  725   2.438   0.571   9.911  0.6642 -0.3044 -0.1437
   46MPD2    H7  726   2.444   0.670   9.892  1.0451  0.1840  2.3958
   47TMC2    C1  727   1.070   0.766   8.905  0.1349  0.2968 -0.4715
   47TMC2    C2  728   1.044   0.698   8.788  0.5283 -0.5717  0.5546
   47TMC2    C3  729   1.011   0.769   8.674  0.4043  0.0838  0.5166
   47TMC2    C4  730   1.066   0.898   8.905  0.1462 -0.3872 -0.2647
   47TMC2    C5  731   1.045   0.964   8.786  0.2412 -0.2184 -0.1713
   47TMC2    C6  732   1.014   0.907   8.671 -0.2760 -0.6613  0.4888
   47TMC2     C  733   1.153   0.694   9.005 -0.4009  0.5481 -0.2102
   47TMC2     O  734   1.222   0.607   8.960 -0.2774 -0.1889  0.4913
   47TMC2     H  735   1.051   0.591   8.770 -0.0183 -0.7301  1.2483
   47TMC2    H1  736   1.105   0.948   8.993 -1.9390  0.9074 -0.0841
   47TMC2    H2  737   0.982   0.958   8.581  1.9947 -0.7487 -0.3732
   47TMC2    C7  738   1.069   1.104   8.775 -0.2726 -0.8986  0.4205
   47TMC2    C8  739   0.980   0.704   8.552  0.2411 -0.8417  0.2168
   47TMC2    O1  740   1.041   1.172   8.871 -0.8650  1.1091 -0.4608
   47TMC2    O2  741   0.921   0.752   8.458  0.6348  0.5805 -0.0068
   47TMC2    O5  742   1.074   0.609   8.534  0.0462 -0.5545  0.4366
   47TMC2    H5  743   1.142   0.610   8.605  0.6345 -0.6337 -0.1225
   48MPD2     C  744   1.301   0.600   9.244  0.3650  0.5393  0.8824
   48MPD2    C1  745   1.176   0.658   9.249  0.1575  0.1692  0.4040
   48MPD2    C2  746   1.100   0.646   9.361 -0.1405  0.4225 -0.0210
   48MPD2    C3  747   1.140   0.568   9.469  0.5545 -0.6947 -0.2349
   48MPD2    C4  748   1.270   0.523   9.466  0.3993  0.5343  0.3134
   48MPD2    C5  749   1.354   0.529   9.354  0.2761  0.5753  0.4001
   48MPD2     H  750   1.000   0.687   9.352  0.3576  1.1487 -2.0592
   48MPD2    H1  751   1.316   0.483   9.556 -1.5724  0.4946  1.3161
   48MPD2    H2  752   1.372   0.617   9.165 -0.9369 -1.0408 -0.6486
   48MPD2    H3  753   1.456   0.493   9.350  0.2489  0.2338  3.2728
   48MPD2     N  754   1.052   0.571   9.582  0.4398  0.4223 -0.2916
   48MPD2    H5  755   0.970   0.631   9.579 -1.0860 -1.7680 -1.8772
   48MPD2    N1  756   1.115   0.715   9.134  0.7776  0.8029  0.3581
   48MPD2    H7  757   1.037   0.777   9.155  0.1342  1.1652 -3.1119
   49TMC2    C1  758   3.326   3.583  10.266  0.6086  0.2461  0.1230
   49TMC2    C2  759   3.402   3.486  10.203  0.4638  0.0916 -0.0410
   49TMC2    C3  760   3.334   3.396  10.122 -0.1423  0.6857 -0.6433
   49TMC2    C4  761   3.188   3.587  10.263 -0.2925 -1.0167  0.1628
   49TMC2    C5  762   3.135   3.495  10.178 -0.2108 -1.1481  0.4120
   49TMC2    C6  763   3.194   3.396  10.107 -0.1654 -0.5698  0.1158
   49TMC2     C  764   3.400   3.706  10.311  0.4260 -0.9909 -0.1989
   49TMC2     O  765   3.516   3.713  10.272 -0.5479  0.2607  0.2878
   49TMC2     H  766   3.509   3.500  10.199  0.5911 -1.0811 -0.7121
   49TMC2    H1  767   3.130   3.658  10.321 -0.0787 -0.1433 -0.7139
   49TMC2    H2  768   3.144   3.330  10.036 -0.9676 -2.4141  2.3869
   49TMC2    C7  769   2.988   3.473  10.181 -0.4804  1.0416  0.4176
   49TMC2    C8  770   3.414   3.296  10.051  0.1727  0.9063 -0.4584
   49TMC2    O1  771   2.924   3.412  10.096 -0.1995 -0.2898 -0.0227
   49TMC2    O2  772   3.356   3.198  10.012  0.3530  0.0922  0.0352
   49TMC2    O5  773   3.528   3.344   9.998  0.0383  0.2485  0.5837
   49TMC2    H5  774   3.539   3.439  10.021  1.0271  0.1621  0.4689
   50MPD2     C  775   3.515   3.957  10.448 -0.3385 -0.4892 -0.1395
   50MPD2    C1  776   3.403   3.885  10.490 -0.1146 -0.1646  0.0190
   50MPD2    C2  777   3.341   3.919  10.604  0.1353 -0.3897 -0.1612
   50MPD2    C3  778   3.377   4.028  10.688 -0.8456 -1.0939  0.3245
   50MPD2    C4  779   3.476   4.107  10.628 -0.6629 -0.5428  0.1987
   50MPD2    C5  780   3.547   4.065  10.519 -0.2585  0.6449  0.2159
   50MPD2     H  781   3.255   3.859  10.630 -0.5211  0.6793  0.1518
   50MPD2    H1  782   3.506   4.203  10.670 -3.6251  1.2546 -1.7801
   50MPD2    H2  783   3.573   3.948  10.357 -1.1080 -1.9792 -0.4814
   50MPD2    H3  784   3.608   4.143  10.474  2.0071 -1.4718 -0.4307
   50MPD2     N  785   3.326   4.047  10.817  0.0126 -0.2841 -0.0379
   50MPD2    H5  786   3.361   4.132  10.861  2.3589 -0.9285 -0.6205
   50MPD2    N1  787   3.348   3.771  10.422  0.2837 -0.0746  0.7078
   50MPD2    H7  788   3.270   3.724  10.467 -0.2546 -1.2263 -1.4125
   51TMC2    C1  789   3.694   2.331   0.971  1.2086 -0.3069  0.6682
   51TMC2    C2  790   3.588   2.402   1.021  0.2610  0.5508 -0.3167
   51TMC2    C3  791   3.605   2.535   1.032  0.3064 -0.5059  0.1282
   51TMC2    C4  792   3.814   2.396   0.966 -0.3180  0.1481 -0.4835
   51TMC2    C5  793   3.830   2.532   0.989  0.3320  0.0870  0.9829
   51TMC2    C6  794   3.724   2.606   1.015  0.3403 -0.2158  0.0157
   51TMC2     C  795   3.689   2.192   1.000 -0.6119  0.0223  0.1177
   51TMC2     O  796   3.591   2.148   1.058 -0.0414  0.4002  0.2945
   51TMC2     H  797   3.489   2.360   1.035  1.3430 -1.3072  1.6361
   51TMC2    H1  798   3.905   2.337   0.956  0.1450  0.6315  0.8489
   51TMC2    H2  799   3.726   2.715   1.016 -0.0501 -0.1736 -2.5439
   51TMC2    C7  800   3.963   2.587   0.987 -0.2571 -0.3861 -0.4167
   51TMC2    C8  801   3.487   2.601   1.087 -0.1153  0.0214 -0.4445
   51TMC2    O1  802   4.048   2.518   0.928 -0.5581  0.0385  0.4920
   51TMC2    O2  803   3.383   2.541   1.089 -0.1725 -0.4661 -0.7702
   51TMC2    O5  804   3.529   2.694   1.167  0.5110 -0.7792 -0.5434
   51TMC2    H5  805   3.620   2.732   1.170 -0.9507  3.0163 -4.4804
   52MPD2     C  806   3.913   1.726   1.027 -1.0904 -0.0268  0.0669
   52MPD2    C1  807   3.987   1.804   0.943 -0.2656  0.1428 -0.2661
   52MPD2    C2  808   3.946   1.938   0.921  0.5568  0.0029 -0.6983
   52MPD2    C3  809   3.830   1.992   0.978 -0.1203 -0.1001  0.2127
   52MPD2    C4  810   3.761   1.908   1.058  0.4915 -0.6396  0.5073
   52MPD2    C5  811   3.799   1.781   1.084 -0.2300  0.0351  0.3863
   52MPD2     H  812   4.004   2.002   0.854 -0.0970  1.8564  0.5244
   52MPD2    H1  813   3.678   1.950   1.113  0.7848  0.2516  0.2694
   52MPD2    H2  814   3.946   1.629   1.062 -0.2433  0.5704  0.9268
   52MPD2    H3  815   3.741   1.720   1.153  0.5008  0.7211  1.5939
   52MPD2     N  816   3.798   2.127   0.949 -0.4078 -0.2713  0.1572
   52MPD2    H5  817   3.855   2.172   0.877  2.3263 -1.6866  1.4380
   52MPD2    N1  818   4.109   1.757   0.884 -0.0774  0.1226 -0.1115
   52MPD2    H7  819   4.153   1.818   0.815  0.0387  0.7491  0.5160
   53TMC2    C1  820   3.145   1.253  11.704  0.5821 -0.2222 -0.9845
   53TMC2    C2  821   3.211   1.255  11.587 -0.5206  0.5760  0.1445
   53TMC2    C3  822   3.295   1.355  11.566 -0.3553  0.1723  0.1078
   53TMC2    C4  823   3.158   1.350  11.807 -0.7124  0.5327 -0.2988
   53TMC2    C5  824   3.254   1.444  11.785 -0.5315 -0.1912  0.2879
   53TMC2    C6  825   3.321   1.453  11.665  0.0177  0.0327 -0.2910
   53TMC2     C  826   3.033   1.164  11.709 -0.9051 -0.0722  0.1822
   53TMC2     O  827   2.984   1.131  11.604 -0.1371 -0.3509 -0.0190
   53TMC2     H  828   3.187   1.185  11.508 -0.3938  1.2590 -0.4993
   53TMC2    H1  829   3.119   1.342  11.908 -0.1435  0.4958 -0.0848
   53TMC2    H2  830   3.399   1.526  11.649  0.5135 -0.2381  0.8999
   53TMC2    C7  831   3.273   1.544  11.887  0.5013 -0.2893 -0.0519
   53TMC2    C8  832   3.368   1.358  11.446 -0.6253 -0.0935  0.3818
   53TMC2    O1  833   3.171   1.580  11.949  0.2928 -0.1146 -0.3448
   53TMC2    O2  834   3.416   1.260  11.390  0.7915  0.2993  0.8754
   53TMC2    O5  835   3.347   1.486  11.404  0.2724 -0.2263 -0.3408
   53TMC2    H5  836   3.271   1.524  11.453 -0.8692 -0.9512 -1.5497
   54MPD2     C  837   2.795   1.007  11.794  0.5598 -0.2232 -0.3663
   54MPD2    C1  838   2.896   1.043  11.884  0.2454 -0.0578  0.4616
   54MPD2    C2  839   2.893   0.993  12.013 -0.4924  0.3966 -0.2023
   54MPD2    C3  840   2.787   0.901  12.048 -0.7118 -0.4742  0.6613
   54MPD2    C4  841   2.685   0.869  11.964  0.3869 -0.3524 -0.2745
   54MPD2    C5  842   2.699   0.920  11.837  0.3323  0.4542  1.3381
   54MPD2     H  843   2.970   1.017  12.086 -0.0090 -1.5437 -0.0775
   54MPD2    H1  844   2.618   0.790  11.994 -1.8545  2.0112  0.9472
   54MPD2    H2  845   2.796   1.047  11.693  1.5918  1.6693  0.3875
   54MPD2    H3  846   2.626   0.886  11.764  2.1799 -1.2020  0.2590
   54MPD2     N  847   2.781   0.824  12.165  0.3346 -0.2507  0.3549
   54MPD2    H5  848   2.696   0.768  12.173  0.3066 -0.4460 -1.5009
   54MPD2    N1  849   3.001   1.134  11.843 -0.1480  0.1293  0.1927
   54MPD2    H7  850   3.062   1.172  11.915 -0.9897 -0.4123  1.1829
   55TMC2    C1  851   0.253   3.395  17.558  0.7781  0.6022 -0.7029
   55TMC2    C2  852   0.239   3.352  17.426  0.3388  0.6869 -0.5999
   55TMC2    C3  853   0.230   3.219  17.408 -0.2050  0.3207  0.4939
   55TMC2    C4  854   0.258   3.305  17.664  0.3856  0.0150  0.8393
   55TMC2    C5  855   0.254   3.171  17.632  0.1183 -0.4365 -0.5300
   55TMC2    C6  856   0.236   3.124  17.507  0.4637 -0.0175  0.6211
   55TMC2     C  857   0.230   3.536  17.590 -0.6219  0.2353  0.4082
   55TMC2     O  858   0.209   3.561  17.710 -0.8011 -0.8645 -0.2322
   55TMC2     H  859   0.241   3.431  17.351  1.3062  1.1406 -0.1051
   55TMC2    H1  860   0.287   3.332   0.012 -0.0900  1.4728  0.5789
   55TMC2    H2  861   0.250   3.020  17.483  0.8293  0.4054 -1.0160
   55TMC2    C7  862   0.287   3.074  17.738  0.2941  0.3010  0.1176
   55TMC2    C8  863   0.196   3.176  17.279  0.7065  0.1560 -0.2388
   55TMC2    O1  864   0.337   2.966  17.711  0.3180 -0.1039 -0.0194
   55TMC2    O2  865   0.187   3.249  17.185 -0.2024  0.4846 -0.5114
   55TMC2    O5  866   0.089   3.095  17.319  0.1117 -0.0476 -0.4723
   55TMC2    H5  867   0.093   3.064  17.412  1.2113  1.0832 -0.1265
   56MPD2     C  868   0.238   3.844  17.389 -0.1902  0.6531  0.7494
   56MPD2    C1  869   0.204   3.763  17.491  0.1764 -0.4708  0.2646
   56MPD2    C2  870   0.151   3.826  17.602 -0.1597  0.4158 -0.1779
   56MPD2    C3  871   0.105   3.959  17.597  0.5133 -0.6952  0.8070
   56MPD2    C4  872   0.132   4.038  17.492 -0.3267  0.0097 -0.2661
   56MPD2    C5  873   0.203   3.982  17.392  0.3352 -0.6095  0.0514
   56MPD2     H  874   0.126   3.769  17.691 -4.0845 -0.9445 -2.1200
   56MPD2    H1  875   0.097   4.140  17.489 -2.4493 -0.7912 -2.6736
   56MPD2    H2  876   0.277   3.807  17.295  1.4483 -1.1906  2.1521
   56MPD2    H3  877   0.229   4.041  17.305 -1.0890  1.0956  0.7793
   56MPD2     N  878   0.051   4.013  17.713  0.0905 -0.0472 -0.0326
   56MPD2    H5  879   0.047   3.953   0.042  0.2071  1.2922  0.9512
   56MPD2    N1  880   0.244   3.627  17.488  0.0268  0.0657  0.7184
   56MPD2    H7  881   0.297   3.602  17.405  0.4476 -0.5441  1.1712
   57TMC2    C1  882   4.110   4.392  13.861 -0.1315  0.0322  0.4378
   57TMC2    C2  883   4.138   4.375  13.991  0.3976 -1.1858  0.6583
   57TMC2    C3  884   4.256   4.305  14.016 -0.0123 -0.1319 -0.7184
   57TMC2    C4  885   4.190   4.359  13.754 -0.5581 -0.2167  0.3329
   57TMC2    C5  886   4.305   4.297  13.787 -0.3198 -0.1895 -0.4570
   57TMC2    C6  887   4.341   4.267  13.917 -0.3834  0.6612  0.7268
   57TMC2     C  888   3.982   4.447  13.846 -0.5301  0.6636 -0.5105
   57TMC2     O  889   3.928   4.514  13.928 -1.1398  0.3873  0.1179
   57TMC2     H  890   4.079   4.411  14.074  0.2618  0.8482 -0.3104
   57TMC2    H1  891   4.147   4.367  13.654  1.0081 -1.0224 -0.4117
   57TMC2    H2  892   4.442   4.230  13.938 -1.4527 -3.3678 -1.1249
   57TMC2    C7  893   4.380   4.229  13.676  0.3321 -0.2345  0.3936
   57TMC2    C8  894   4.307   4.327  14.153 -0.2791 -0.7418 -0.3306
   57TMC2    O1  895   4.439   4.125  13.702  0.8400 -0.4300  0.4314
   57TMC2    O2  896   4.418   4.373  14.173  0.1764  0.1969  0.2260
   57TMC2    O5  897   4.239   4.238  14.229  0.5541  0.4511  0.1482
   57TMC2    H5  898   4.155   4.207  14.189  1.1978 -1.6240  0.4087
   58MPD2     C  899   3.529   4.368  13.630  0.2260 -0.7401  0.4376
   58MPD2    C1  900   3.570   4.473  13.708  0.0158  1.0714  0.5945
   58MPD2    C2  901   3.700   4.473  13.743 -0.0305 -0.1257 -0.1501
   58MPD2    C3  902   3.792   4.376  13.712 -0.3591  0.2454 -0.3422
   58MPD2    C4  903   3.745   4.276  13.634 -0.1619  0.3272  0.1528
   58MPD2    C5  904   3.614   4.272  13.593 -0.2234 -0.1994 -0.4101
   58MPD2     H  905   3.735   4.549  13.813  0.2298  0.3122 -0.7567
   58MPD2    H1  906   3.816   4.199  13.604 -0.2552 -0.1009  1.0278
   58MPD2    H2  907   3.426   4.373  13.596  0.0993  0.3091  0.9786
   58MPD2    H3  908   3.581   4.194  13.526 -1.7084 -0.1781  0.2958
   58MPD2     N  909   3.925   4.373  13.744  0.4075  0.1074 -0.2986
   58MPD2    H5  910   3.980   4.302  13.698  0.4567 -0.4341  0.5874
   58MPD2    N1  911   3.482   4.582  13.733 -0.1945 -0.4941  0.6741
   58MPD2    H7  912   3.514   4.674  13.762 -2.3000  1.0740 -1.8498
   59TMC2    C1  913   1.598   0.164  12.573 -0.1557 -0.0323  0.3482
   59TMC2    C2  914   1.637   0.285  12.514  0.2612  0.4803  0.1740
   59TMC2    C3  915   1.574   0.326  12.403 -0.8091  0.0292 -0.2916
   59TMC2    C4  916   1.490   0.099  12.522  0.3546 -0.8327  0.3788
   59TMC2    C5  917   1.435   0.130  12.399 -0.3900  0.1360  0.0547
   59TMC2    C6  918   1.481   0.246  12.337 -0.3377  0.2391  0.4090
   59TMC2     C  919   1.665   0.139  12.699 -0.5799 -1.5570  0.5541
   59TMC2     O  920   1.696   0.234  12.770 -0.5731  0.6946 -0.4595
   59TMC2     H  921   1.711   0.351  12.557 -0.9971  0.8317  1.8233
   59TMC2    H1  922   1.460   0.010  12.575 -0.8583 -1.1022 -0.7434
   59TMC2    H2  923   1.442   0.291  12.247  1.0386  1.6166  0.5073
   59TMC2    C7  924   1.312   0.068  12.360  0.0982 -0.5274  0.7352
   59TMC2    C8  925   1.674   0.387  12.315  0.1311  0.3155  0.5143
   59TMC2    O1  926   1.265   4.727  12.438  0.1464  0.0145 -0.5107
   59TMC2    O2  927   1.750   0.474  12.364  0.3658 -0.4639 -0.5506
   59TMC2    O5  928   1.719   0.276  12.247  0.1119 -0.6384  0.4568
   59TMC2    H5  929   1.660   0.204  12.216  0.9150 -0.2674 -1.9033
   60MPD2     C  930   1.842   4.571  12.779  0.6258 -0.6397  0.2580
   60MPD2    C1  931   1.796   4.697  12.803  0.3122 -0.5386  0.1793
   60MPD2    C2  932   1.872   0.029  12.904 -0.7069  0.7220 -0.3391
   60MPD2    C3  933   1.971   4.699  12.970  0.2711 -0.3018 -0.2196
   60MPD2    C4  934   2.008   4.575  12.935 -0.2941  0.8312 -1.0084
   60MPD2    C5  935   1.938   4.505  12.836  0.2527  0.8401  0.6051
   60MPD2     H  936   1.860   0.136  12.915  1.3183  0.7082  1.8078
   60MPD2    H1  937   2.080   4.518  12.994 -0.4344 -0.0359 -1.6721
   60MPD2    H2  938   1.783   4.518  12.704  0.9297  1.1153 -1.2259
   60MPD2    H3  939   1.969   4.404  12.809 -0.2265  1.1992 -1.3345
   60MPD2     N  940   2.045   0.019  13.073 -0.2465  0.0311  0.5788
   60MPD2    H5  941   2.124   4.704  13.107 -0.5586 -0.2679  0.8286
   60MPD2    N1  942   1.704   0.010  12.712 -0.1967  0.1728 -1.0153
   60MPD2    H7  943   1.685   4.682  12.638  0.1399 -2.8818  1.6558
   61TMC2    C1  944   0.421   1.603  15.278  0.8731  0.4292  0.3138
   61TMC2    C2  945   0.411   1.531  15.396  0.1580 -0.1042 -0.7496
   61TMC2    C3  946   0.446   1.609  15.504  0.2296  0.3001 -0.1653
   61TMC2    C4  947   0.456   1.735  15.263  0.3140 -0.3187  0.9314
   61TMC2    C5  948   0.480   1.803  15.382 -0.0855  0.1111 -0.8465
   61TMC2    C6  949   0.472   1.744  15.502  0.2568 -1.0264  0.5281
   61TMC2     C  950   0.426   1.520  15.159 -0.1552  0.2642  0.2609
   61TMC2     O  951   0.376   1.406  15.170  0.8680  0.3234 -0.1259
   61TMC2     H  952   0.387   1.426  15.395 -1.9261  0.3715  0.2859
   61TMC2    H1  953   0.449   1.782  15.166 -2.6715  0.8700  1.7044
   61TMC2    H2  954   0.485   1.799  15.594 -2.2259 -2.3758  1.6898
   61TMC2    C7  955   0.537   1.931  15.367  0.1237 -0.4601 -1.3359
   61TMC2    C8  956   0.468   1.538  15.633  0.9528 -0.5434 -0.4283
   61TMC2    O1  957   0.555   1.958  15.250  0.0231  0.3644  0.4868
   61TMC2    O2  958   0.482   1.592  15.742  0.0831  0.0144  0.1152
   61TMC2    O5  959   0.514   1.412  15.606  0.0858  0.1944  0.2419
   61TMC2    H5  960   0.551   1.381  15.521  0.3261 -2.3358  1.2755
   62MPD2     C  961   0.495   1.373  14.903  0.4980  0.1178  0.5009
   62MPD2    C1  962   0.555   1.493  14.947 -0.3543 -0.0507 -0.2582
   62MPD2    C2  963   0.656   1.542  14.868 -0.9662  0.5510  0.9305
   62MPD2    C3  964   0.705   1.478  14.752 -0.2572 -0.4411  0.0204
   62MPD2    C4  965   0.642   1.365  14.710 -0.0230  0.2157  0.1401
   62MPD2    C5  966   0.541   1.313  14.787  0.2480 -0.0462 -0.1611
   62MPD2     H  967   0.706   1.631  14.906  0.0734 -0.7053  2.4601
   62MPD2    H1  968   0.666   1.325  14.612  1.4067  0.2195  0.5012
   62MPD2    H2  969   0.420   1.314  14.955  0.6522 -2.7492 -2.5576
   62MPD2    H3  970   0.482   1.233  14.744 -0.3894  1.9596 -3.0641
   62MPD2     N  971   0.802   1.532  14.663 -0.0475 -0.0353  0.4710
   62MPD2    H5  972   0.840   1.479  14.585  2.1714 -0.5863  1.9509
   62MPD2    N1  973   0.528   1.556  15.071  0.8825 -0.1849 -0.4151
   62MPD2    H7  974   0.582   1.640  15.086 -0.0626  0.4674 -0.6664
   63TMC2    C1  975   0.019   1.719  10.063 -0.4447  0.1409  0.3499
   63TMC2    C2  976   0.105   1.700  10.169 -0.1685 -0.2826 -0.0113
   63TMC2    C3  977   0.184   1.805  10.208 -0.3779 -0.3105  0.1924
   63TMC2    C4  978   4.735   1.840  10.007 -0.7801  0.3857  0.5242
   63TMC2    C5  979   0.069   1.949  10.051  0.6954 -0.5926  0.6688
   63TMC2    C6  980   0.166   1.934  10.151 -0.1626 -0.2226 -0.1303
   63TMC2     C  981   4.677   1.606  10.017  0.4127  0.2075  0.4244
   63TMC2     O  982   4.565   1.626   9.967 -0.4802 -0.0158  0.3160
   63TMC2     H  983   0.102   1.608  10.227 -0.7943 -0.2097  0.0715
   63TMC2    H1  984   4.668   1.849   9.922 -1.2725  1.6655  1.0436
   63TMC2    H2  985   0.227   2.016  10.188  0.2759  0.2976 -2.0182
   63TMC2    C7  986   0.058   2.077   9.983  0.2368 -0.2144  0.5401
   63TMC2    C8  987   0.238   1.798  10.345  0.4681  0.1859 -0.2527
   63TMC2    O1  988   0.160   2.141   9.998  0.5313  0.3681 -0.2404
   63TMC2    O2  989   0.276   1.695  10.398 -0.4621  0.6570  0.8467
   63TMC2    O5  990   0.213   1.916  10.400 -0.1652  0.0683 -0.3787
   63TMC2    H5  991   0.174   1.986  10.344 -2.2483  1.2149  2.5388
   64MPD2     C  992   4.589   1.104  10.023  0.8145 -0.1722 -0.0265
   64MPD2    C1  993   4.714   1.128  10.079 -0.0843  0.0541  0.1809
   64MPD2    C2  994   0.017   1.259  10.087 -0.0212 -0.4813 -0.3806
   64MPD2    C3  995   4.685   1.360  10.027  0.2515  0.2048  0.3577
   64MPD2    C4  996   4.566   1.331   9.965  0.9883 -0.1929  0.9506
   64MPD2    C5  997   4.524   1.200   9.956 -0.4217 -0.2087  0.3145
   64MPD2     H  998   0.113   1.284  10.132  1.3150  0.8415 -3.9247
   64MPD2    H1  999   4.497   1.400   9.919  0.1101 -0.8353  1.2891
   64MPD2    H2 1000   4.551   1.004  10.007  0.5997 -0.7158  3.9925
   64MPD2    H3 1001   4.433   1.164   9.911  1.0297 -0.9261 -2.0622
   64MPD2     N 1002   0.001   1.487  10.050 -0.3303  0.6335 -0.8947
   64MPD2    H5 1003   0.101   1.493  10.069 -0.0801 -1.0987 -1.7058
   64MPD2    N1 1004   0.061   1.035  10.136 -0.8987 -0.1956 -0.1513
   64MPD2    H7 1005   0.152   1.058  10.174 -0.9557  0.9351 -0.6965
   65TMC2    C1 1006   2.296   1.042  15.808 -0.2813 -0.1660  0.1017
   65TMC2    C2 1007   2.409   1.109  15.830  0.3896  0.2868 -0.7839
   65TMC2    C3 1008   2.446   1.193  15.724  0.7950  0.0755  0.4799
   65TMC2    C4 1009   2.214   1.063  15.703 -1.0181 -0.5498 -0.5435
   65TMC2    C5 1010   2.253   1.149  15.605  0.3994  0.3153 -0.1994
   65TMC2    C6 1011   2.375   1.215  15.614 -0.1379  0.7871  0.6095
   65TMC2     C 1012   2.273   0.948  15.919  0.2642 -0.2957 -0.4385
   65TMC2     O 1013   2.338   0.950  16.020 -0.2050  0.2047 -0.0685
   65TMC2     H 1014   2.474   1.088  15.914 -0.0715  0.8048 -0.2952
   65TMC2    H1 1015   2.124   1.006  15.687 -1.9405  0.3724  1.4680
   65TMC2    H2 1016   2.413   1.276  15.533 -0.1825  1.5798  1.1955
   65TMC2    C7 1017   2.155   1.234  15.546  0.5696  0.1188  0.3217
   65TMC2    C8 1018   2.587   1.240  15.709  0.1340  0.2465 -0.0264
   65TMC2    O1 1019   2.199   1.300  15.457  0.1536  0.4931  0.2343
   65TMC2    O2 1020   2.626   1.278  15.599 -0.3135  0.0233  0.7469
   65TMC2    O5 1021   2.667   1.198  15.815  0.0248  0.1097 -0.1531
   65TMC2    H5 1022   2.618   1.216  15.898  0.1493 -0.7483  0.1104
   66MPD2     C 1023   2.178   0.710  16.070 -0.4033  0.2917 -0.3388
   66MPD2    C1 1024   2.137   0.735  15.938  0.1917 -1.0024 -0.1310
   66MPD2    C2 1025   2.048   0.650  15.872  0.0690 -1.4035 -0.3911
   66MPD2    C3 1026   2.003   0.536  15.938  0.4299  0.3225 -0.4626
   66MPD2    C4 1027   2.049   0.506  16.065 -0.2967 -0.6056  0.6673
   66MPD2    C5 1028   2.139   0.587  16.129 -0.2550 -0.3820 -0.5527
   66MPD2     H 1029   2.016   0.676  15.772  0.8219 -1.5095 -0.6607
   66MPD2    H1 1030   2.015   0.421  16.123 -1.0510 -0.3763  0.5608
   66MPD2    H2 1031   2.240   0.778  16.127 -2.0586  1.5837 -0.0626
   66MPD2    H3 1032   2.170   0.557  16.229 -3.7702 -0.3746  0.5324
   66MPD2     N 1033   1.907   0.449  15.883  0.5906 -0.5751 -0.7597
   66MPD2    H5 1034   1.878   0.373  15.944  1.4534 -1.2110 -1.1280
   66MPD2    N1 1035   2.186   0.851  15.869  0.2710  0.0672  0.1994
   66MPD2    H7 1036   2.142   0.859  15.778  0.0461 -0.2560  0.2800
   67TMC2    C1 1037   1.744   0.335  14.362 -0.0408  0.5825 -0.3657
   67TMC2    C2 1038   1.675   0.443  14.392 -0.0334 -0.4848  0.5780
   67TMC2    C3 1039   1.720   0.512  14.502  0.0479  0.5019  0.8773
   67TMC2    C4 1040   1.841   0.279  14.443  0.3189 -0.0641  0.8044
   67TMC2    C5 1041   1.875   0.350  14.555  0.1288  0.0318  0.5336
   67TMC2    C6 1042   1.814   0.468  14.592 -0.1245  0.1228 -0.8093
   67TMC2     C 1043   1.722   0.259  14.234 -0.3626  0.3555  0.7782
   67TMC2     O 1044   1.808   0.179  14.207  0.2549 -0.5180 -0.1662
   67TMC2     H 1045   1.602   0.490  14.328  0.4423 -2.4473 -1.4138
   67TMC2    H1 1046   1.907   0.198  14.412  2.7307  2.5121 -0.7424
   67TMC2    H2 1047   1.839   0.520  14.684  1.2416  0.0626 -1.1606
   67TMC2    C7 1048   1.991   0.307  14.621 -0.4988  0.2077  0.2121
   67TMC2    C8 1049   1.651   0.636  14.540 -0.6796 -0.3868  0.1660
   67TMC2    O1 1050   2.079   0.257  14.557  0.1092 -0.3780  0.4355
   67TMC2    O2 1051   1.529   0.636  14.540 -0.5104  0.4179 -0.4907
   67TMC2    O5 1052   1.730   0.721  14.606  0.2638 -0.0186  0.5855
   67TMC2    H5 1053   1.826   0.704  14.596  0.4142  0.6632  0.9559
   68MPD2     C 1054   1.623   0.158  13.976 -0.1643 -0.3171 -0.1916
   68MPD2    C1 1055   1.548   0.226  14.069  0.2794  0.5252 -0.3192
   68MPD2    C2 1056   1.410   0.228  14.043  0.3059  0.2952  0.3717
   68MPD2    C3 1057   1.351   0.182  13.926  0.4329  0.4869  0.3155
   68MPD2    C4 1058   1.434   0.111  13.841  0.7742 -0.0857  0.5642
   68MPD2    C5 1059   1.571   0.107  13.856  0.3500 -0.1879 -0.2637
   68MPD2     H 1060   1.355   0.275  14.124 -0.8033 -0.3164 -0.0282
   68MPD2    H1 1061   1.385   0.075  13.752  1.9589  0.4643 -0.3141
   68MPD2    H2 1062   1.730   0.156  13.995  0.1099 -0.1640 -1.7429
   68MPD2    H3 1063   1.632   0.063  13.779  0.0023  1.5658 -1.5322
   68MPD2     N 1064   1.210   0.184  13.900  0.1798 -0.0110 -0.2257
   68MPD2    H5 1065   1.194   0.150  13.806  1.9702  1.0410 -0.9257
   68MPD2    N1 1066   1.593   0.282  14.190 -0.2912  0.5320 -0.0442
   68MPD2    H7 1067   1.522   0.320  14.252  0.0654 -0.5229  1.0257
   69TMC2    C1 1068   3.929   1.550  12.519 -0.3382  0.7230 -0.0125
   69TMC2    C2 1069   4.019   1.659  12.504  0.1586  0.3335  0.8277
   69TMC2    C3 1070   4.077   1.687  12.385 -0.3018  0.5008  0.3719
   69TMC2    C4 1071   3.893   1.481  12.408 -0.0888 -0.2475 -0.3548
   69TMC2    C5 1072   3.949   1.515  12.289  0.0947  0.5338  0.1552
   69TMC2    C6 1073   4.042   1.611  12.276 -0.1222  0.2363 -0.2106
   69TMC2     C 1074   3.878   1.498  12.647 -0.1911 -0.3220  0.0373
   69TMC2     O 1075   3.791   1.415  12.650 -0.0896  0.0300 -0.4387
   69TMC2     H 1076   4.041   1.711  12.597  1.6471 -0.9880  1.2309
   69TMC2    H1 1077   3.834   1.390  12.420 -1.4251  0.9469  2.1127
   69TMC2    H2 1078   4.097   1.624  12.183 -0.3205  0.1785 -0.3352
   69TMC2    C7 1079   3.938   1.413  12.194 -0.3128 -0.0199  0.6544
   69TMC2    C8 1080   4.200   1.759  12.367  0.2954 -0.0068  0.1325
   69TMC2    O1 1081   3.906   1.299  12.232  0.3323 -0.0952 -0.7183
   69TMC2    O2 1082   4.239   1.815  12.259 -0.4000 -0.2671  0.2975
   69TMC2    O5 1083   4.236   1.790  12.501  0.5487  0.6500  0.7543
   69TMC2    H5 1084   4.252   1.717  12.565 -3.0014 -1.3437 -0.5959
   70MPD2     C 1085   4.098   1.516  12.943 -0.2649  0.2548 -0.3571
   70MPD2    C1 1086   3.995   1.464  12.866  0.2809 -0.1106 -0.8186
   70MPD2    C2 1087   3.922   1.352  12.906 -0.0637 -0.9908  0.0066
   70MPD2    C3 1088   3.955   1.288  13.028  0.3111 -0.2283  0.4498
   70MPD2    C4 1089   4.054   1.345  13.100 -1.0251 -1.3579  0.1034
   70MPD2    C5 1090   4.129   1.454  13.061  0.1801  0.5867  0.0754
   70MPD2     H 1091   3.844   1.322  12.838  0.4164 -0.1186 -0.9456
   70MPD2    H1 1092   4.084   1.296  13.193 -1.3439 -1.3064  0.2315
   70MPD2    H2 1093   4.149   1.605  12.910  0.4453 -0.1819 -0.4310
   70MPD2    H3 1094   4.195   1.501  13.132 -0.3113 -2.7505  2.7199
   70MPD2     N 1095   3.908   1.156  13.072  0.5891 -0.7672 -0.1146
   70MPD2    H5 1096   3.965   1.121  13.149 -0.5818 -0.5065  0.8683
   70MPD2    N1 1097   3.968   1.533  12.748  0.5251  0.2152 -0.1913
   70MPD2    H7 1098   4.036   1.604  12.724 -0.5933  0.9662 -1.1464
   71TMC2    C1 1099   1.190   1.560   1.394 -0.2836 -0.2734  0.6329
   71TMC2    C2 1100   1.234   1.619   1.515 -0.5024 -0.1801 -0.4205
   71TMC2    C3 1101   1.188   1.561   1.627 -0.6431  0.6398  0.3374
   71TMC2    C4 1102   1.106   1.446   1.387 -0.3387  0.6817  0.1649
   71TMC2    C5 1103   1.066   1.394   1.510 -0.3336 -0.3718 -0.7155
   71TMC2    C6 1104   1.111   1.446   1.627  0.1245  0.1164  0.3567
   71TMC2     C 1105   1.222   1.639   1.280 -0.1069  0.0419  0.8206
   71TMC2     O 1106   1.259   1.756   1.294 -0.1710  0.6285  0.3929
   71TMC2     H 1107   1.290   1.711   1.525  0.0915 -0.5733 -0.0817
   71TMC2    H1 1108   1.080   1.405   1.290 -0.4944 -0.0295  0.5088
   71TMC2    H2 1109   1.074   1.408   1.722  0.7164 -1.8794 -0.2135
   71TMC2    C7 1110   0.966   1.292   1.519 -1.1785 -0.1488 -0.7826
   71TMC2    C8 1111   1.186   1.638   1.744  0.6912  0.2504  0.7476
   71TMC2    O1 1112   0.940   1.245   1.634 -0.3112  0.0767 -0.5384
   71TMC2    O2 1113   1.213   1.597   1.854 -0.2116 -0.0140  0.5794
   71TMC2    O5 1114   1.157   1.761   1.713 -0.6887 -0.4484  0.6804
   71TMC2    H5 1115   1.114   1.766   1.624  0.2405  1.0264  0.3115
   72MPD2     C 1116   1.257   1.695   0.775  0.4778 -0.3787 -0.1340
   72MPD2    C1 1117   1.271   1.789   0.872  0.2777 -0.4768 -0.5166
   72MPD2    C2 1118   1.251   1.751   1.003  0.0473  0.4372  0.1128
   72MPD2    C3 1119   1.237   1.618   1.037 -0.2045 -0.0291  0.4674
   72MPD2    C4 1120   1.230   1.522   0.940 -0.2475  0.4283 -0.0802
   72MPD2    C5 1121   1.243   1.564   0.809 -0.5637  0.3807  0.7070
   72MPD2     H 1122   1.248   1.830   1.078  0.4419  0.9654 -0.4249
   72MPD2    H1 1123   1.191   1.423   0.960  0.7560  0.3241  1.3317
   72MPD2    H2 1124   1.269   1.720   0.671 -3.3671 -0.1922 -0.5442
   72MPD2    H3 1125   1.222   1.491   0.732  0.2338  0.4607  0.4122
   72MPD2     N 1126   1.225   1.570   1.166 -0.4363  0.1530  0.4063
   72MPD2    H5 1127   1.202   1.471   1.164 -0.8971  0.3165 -3.4817
   72MPD2    N1 1128   1.292   1.931   0.839  0.1189  0.1027  0.0392
   72MPD2    H7 1129   1.297   1.994   0.918 -1.6982 -1.2668  1.2817
   73TMC2    C1 1130   0.666   3.966  14.169  0.5376 -0.9683  0.0962
   73TMC2    C2 1131   0.650   4.091  14.223  0.3240  0.1052  0.2287
   73TMC2    C3 1132   0.728   4.136  14.327 -0.7307  0.6296  0.2204
   73TMC2    C4 1133   0.767   3.891  14.214 -0.2321 -0.0225 -0.5954
   73TMC2    C5 1134   0.851   3.944  14.312 -0.4627 -0.5641  0.6986
   73TMC2    C6 1135   0.839   4.066  14.363 -0.0343 -0.0921 -0.0267
   73TMC2     C 1136   0.666   3.949  14.029  0.3510 -0.0621 -0.4770
   73TMC2     O 1137   0.748   3.870  13.987  0.1650  0.2344  0.6152
   73TMC2     H 1138   0.569   4.156  14.192 -0.0814 -0.7736 -0.5605
   73TMC2    H1 1139   0.783   3.788  14.184 -0.6039  0.3700 -2.1137
   73TMC2    H2 1140   0.895   4.085  14.454 -0.0420  0.0636 -0.0548
   73TMC2    C7 1141   0.991   3.917  14.289  0.1128 -0.6713  0.0461
   73TMC2    C8 1142   0.702   4.266  14.383  0.5236 -0.4109 -0.3934
   73TMC2    O1 1143   1.073   3.952  14.374  0.1287  0.4547 -0.3375
   73TMC2    O2 1144   0.597   4.325  14.376  0.5179 -0.3966  0.3032
   73TMC2    O5 1145   0.815   4.332  14.411  0.1962  0.6017  0.0219
   73TMC2    H5 1146   0.901   4.291  14.387  0.4966  1.3283 -0.1463
   74MPD2     C 1147   0.631   4.184  13.582 -0.1386  0.0191 -0.0449
   74MPD2    C1 1148   0.720   4.090  13.629  0.0775  0.8718  0.1639
   74MPD2    C2 1149   0.709   4.047  13.762 -0.1728 -0.5726 -0.2533
   74MPD2    C3 1150   0.598   4.081  13.836 -0.0349 -0.3051  0.5405
   74MPD2    C4 1151   0.510   4.177  13.784  0.0980 -0.4626  0.0168
   74MPD2    C5 1152   0.527   4.223  13.659 -0.3641 -0.2339  0.2148
   74MPD2     H 1153   0.792   3.988  13.798  2.0052  0.5444 -3.4291
   74MPD2    H1 1154   0.423   4.198  13.844 -1.7375  0.5945 -3.0248
   74MPD2    H2 1155   0.643   4.227  13.483 -1.1544 -0.0343 -0.1876
   74MPD2    H3 1156   0.459   4.301  13.625 -0.4411  0.3205  1.6342
   74MPD2     N 1157   0.583   4.042  13.969  0.3037  0.1754  0.1310
   74MPD2    H5 1158   0.512   4.091  14.022  1.4786  0.8356  1.0895
   74MPD2    N1 1159   0.820   4.058  13.544 -0.4191  0.5339 -0.2239
   74MPD2    H7 1160   0.841   4.106  13.458 -1.0185  0.5792 -0.3467
   75TMC2    C1 1161   0.982   0.167  13.945 -0.2951 -0.2551  0.8271
   75TMC2    C2 1162   0.890   0.124  14.041 -0.4941  0.0556  0.6420
   75TMC2    C3 1163   0.761   0.105  13.993  0.3517 -0.2273 -0.3002
   75TMC2    C4 1164   0.951   0.199  13.815 -0.9929 -0.6049  0.6967
   75TMC2    C5 1165   0.824   0.172  13.778 -0.4339  0.5797  0.0816
   75TMC2    C6 1166   0.721   0.139  13.863  0.5272 -0.1583 -0.6745
   75TMC2     C 1167   1.114   0.187  13.996 -0.0003 -0.8094  0.7848
   75TMC2     O 1168   1.133   0.167  14.119 -0.1476 -0.1953 -0.3085
   75TMC2     H 1169   0.913   0.113  14.146 -0.8762 -0.0011  0.7183
   75TMC2    H1 1170   1.030   0.220  13.743 -1.1754 -0.9601  0.3879
   75TMC2    H2 1171   0.620   0.145  13.825  0.2194 -0.2713  0.1281
   75TMC2    C7 1172   0.791   0.214  13.645 -0.3014 -0.1178 -0.2072
   75TMC2    C8 1173   0.644   0.084  14.082 -0.0057  0.0805 -0.2620
   75TMC2    O1 1174   0.706   0.144  13.591 -0.4874 -0.7399  0.0957
   75TMC2    O2 1175   0.538   0.134  14.059  0.4701  0.6315  0.0235
   75TMC2    O5 1176   0.665   4.699  14.126  0.3944  0.1537  0.3329
   75TMC2    H5 1177   0.759   4.672  14.132  0.2207 -0.8056 -1.1994
   76TMC2    C1 1178   4.136   4.462  12.008 -0.8961 -0.2445  0.1484
   76TMC2    C2 1179   4.027   4.422  11.931 -1.3060  0.2764  0.8102
   76TMC2    C3 1180   4.022   4.287  11.916 -0.1263 -0.6925  0.2280
   76TMC2    C4 1181   4.229   4.378  12.066 -0.1424  0.4587 -0.2996
   76TMC2    C5 1182   4.210   4.252  12.039 -0.0532  0.0143 -0.0357
   76TMC2    C6 1183   4.117   4.200  11.959  0.6543  0.2770  0.0704
   76TMC2     C 1184   4.157   4.608  12.011 -0.2819 -1.1073 -0.0475
   76TMC2     O 1185   4.127   4.657  11.902 -0.3428 -0.2727  0.4335
   76TMC2     H 1186   3.941   4.484  11.906 -0.8485  0.6353  0.1473
   76TMC2    H1 1187   4.307   4.418  12.130 -1.1906 -1.1650  1.9706
   76TMC2    H2 1188   4.118   4.092  11.945  1.0742  0.1627  0.9692
   76TMC2    C7 1189   4.311   4.158  12.075  0.0941 -0.2574 -0.0999
   76TMC2    C8 1190   3.928   4.233  11.816 -0.9564 -0.5302 -0.1191
   76TMC2    O1 1191   4.287   4.044  12.102  0.0042 -0.3970 -0.1327
   76TMC2    O2 1192   3.829   4.170  11.846  0.2854 -0.3927 -0.6059
   76TMC2    O5 1193   3.926   4.329  11.733 -0.6448 -0.4302 -0.8172
   76TMC2    H5 1194   4.015   4.358  11.704 -1.8373 -0.5474 -4.6233
   77MPD2     C 1195   4.129   0.316  12.256  0.7211  0.0309  0.3295
   77MPD2    C1 1196   4.128   0.288  12.120 -0.7698 -0.8562 -0.0750
   77MPD2    C2 1197   4.148   0.161  12.077  0.3754 -0.4538  0.1373
   77MPD2    C3 1198   4.140   0.054  12.165  0.0854 -0.0010 -0.0960
   77MPD2    C4 1199   4.140   0.081  12.295  0.1129  0.0252 -0.1946
   77MPD2    C5 1200   4.143   0.211  12.345 -0.3212 -0.2547 -0.4619
   77MPD2     H 1201   4.150   0.148  11.969  2.2982  0.0791  0.1204
   77MPD2    H1 1202   4.138   0.004  12.372  2.8041 -0.7211 -0.8626
   77MPD2    H2 1203   4.136   0.417  12.294 -0.3685 -0.5173  1.9883
   77MPD2    H3 1204   4.144   0.225  12.452  3.4887  2.4519 -0.8344
   77MPD2     N 1205   4.165   4.656  12.135 -0.0134 -0.3964  0.4264
   77MPD2    H5 1206   4.161   4.590  12.212  0.3726  0.2568  1.0062
   77MPD2    N1 1207   4.113   0.390  12.019 -0.2649  0.5812 -0.5475
   77MPD2    H7 1208   4.126   0.357  11.924  1.8416  2.0190 -0.7498
   78TMC2    C1 1209   1.639   1.604   0.929  0.0095  0.4467 -0.3598
   78TMC2    C2 1210   1.583   1.537   0.823  0.1543 -0.0199 -0.0262
   78TMC2    C3 1211   1.583   1.401   0.820 -0.0887  0.0011 -0.3329
   78TMC2    C4 1212   1.694   1.533   1.037  0.4237 -0.2802 -0.6743
   78TMC2    C5 1213   1.706   1.400   1.022 -0.4434  0.2699  0.6481
   78TMC2    C6 1214   1.652   1.331   0.913  0.2691 -0.1927  0.0282
   78TMC2     C 1215   1.673   1.749   0.925  0.6958 -0.1226  0.0798
   78TMC2     O 1216   1.683   1.800   1.038 -0.0611 -0.0028 -0.2132
   78TMC2     H 1217   1.522   1.587   0.749  2.0784  1.3772 -0.6686
   78TMC2    H1 1218   1.738   1.597   1.112 -1.4541 -0.8239  0.8976
   78TMC2    H2 1219   1.660   1.225   0.895  0.4040 -0.2525  0.4476
   78TMC2    C7 1220   1.777   1.314   1.116 -0.2355  0.1294  0.4943
   78TMC2    C8 1221   1.509   1.324   0.722 -0.5108  0.3032  0.5919
   78TMC2    O1 1222   1.820   1.203   1.081  1.0534 -0.3951  0.2297
   78TMC2    O2 1223   1.451   1.218   0.745  0.1131 -0.1572 -0.0322
   78TMC2    O5 1224   1.495   1.396   0.614  0.5671 -0.0641 -0.3511
   78TMC2    H5 1225   1.547   1.479   0.603  3.1618 -1.3891  1.7119
   79MPD1     C 1226   1.698   2.204   0.701 -0.1226  0.3299 -0.2776
   79MPD1    C1 1227   1.728   2.156   0.823 -0.3295  0.1171 -0.6232
   79MPD1    C2 1228   1.722   2.024   0.859 -0.2141  0.2591  0.2684
   79MPD1    C3 1229   1.662   1.941   0.771 -0.1633  0.1646 -0.0279
   79MPD1    C4 1230   1.612   1.983   0.650 -0.0055 -1.2580 -0.3996
   79MPD1    C5 1231   1.630   2.120   0.613  0.1939 -0.7692  0.4644
   79MPD1     H 1232   1.754   1.991   0.957 -1.3776 -0.7408  0.3026
   79MPD1    H1 1233   1.568   1.914   0.579 -0.4586 -1.1170 -0.2579
   79MPD1    H2 1234   1.730   2.302   0.668 -0.9092  0.7113  0.0832
   79MPD1    H3 1235   1.607   2.159   0.515 -2.0847  0.6914  1.5665
   79MPD1     N 1236   1.653   1.802   0.799 -0.0837  0.4572 -0.9752
   79MPD1    H5 1237   1.634   1.738   0.722  0.8171  0.3123 -1.0774
   79MPD1    N1 1238   1.786   2.245   0.911 -0.4420 -0.5833 -0.0653
   79MPD1    H6 1239   1.764   2.341   0.887 -0.0853 -0.2656  0.8755
   79MPD1    H7 1240   1.777   2.219   1.009 -3.5623 -1.2284 -0.5095
   80TMC2    C1 1241   2.986   0.647  11.705  0.2915 -0.0190  0.3742
   80TMC2    C2 1242   2.895   0.638  11.601 -0.5597  0.6667 -0.5804
   80TMC2    C3 1243   2.779   0.566  11.638 -0.2140  0.7112  0.4369
   80TMC2    C4 1244   2.978   0.603  11.832 -0.3565  0.4488  0.0157
   80TMC2    C5 1245   2.866   0.526  11.849 -1.4850  0.0976 -0.0076
   80TMC2    C6 1246   2.761   0.515  11.758 -0.0272 -0.3745  0.0919
   80TMC2     C 1247   3.100   0.727  11.662  0.2228  0.7698  0.0553
   80TMC2     O 1248   3.131   0.731  11.542  0.4516 -0.0092  0.0963
   80TMC2     H 1249   2.904   0.696  11.510 -1.6640  0.5704 -0.7453
   80TMC2    H1 1250   3.063   0.619  11.898 -0.4595 -3.0672  0.9964
   80TMC2    H2 1251   2.680   0.445  11.777  1.1032 -1.8461 -0.4788
   80TMC2    C7 1252   2.838   0.465  11.977 -0.0809 -0.2258  0.4782
   80TMC2    C8 1253   2.691   0.535  11.532 -0.2772  0.2227 -0.0118
   80TMC2    O1 1254   2.738   0.396  11.980  0.2174 -0.1715 -0.1250
   80TMC2    O2 1255   2.707   0.578  11.418 -0.1809  0.1318  0.0108
   80TMC2    O5 1256   2.568   0.522  11.587 -0.1131  0.0048 -0.1134
   80TMC2    H5 1257   2.558   0.528  11.685  0.5696  2.8271 -0.2189
   81MPD2     C 1258   3.346   0.886  11.637  0.0723 -0.1242  0.4433
   81MPD2    C1 1259   3.258   0.897  11.743  0.1414 -0.3601 -0.0270
   81MPD2    C2 1260   3.284   0.985  11.845  0.1029  0.4321  0.2701
   81MPD2    C3 1261   3.387   1.081  11.842 -0.6807  0.5148 -0.1702
   81MPD2    C4 1262   3.460   1.086  11.726  0.3006 -0.3982  0.3055
   81MPD2    C5 1263   3.441   0.990  11.624  0.1564 -0.5393 -0.0553
   81MPD2     H 1264   3.229   0.983  11.938  1.7136  0.6937  1.2221
   81MPD2    H1 1265   3.528   1.169  11.709 -0.2453  0.0799  0.4549
   81MPD2    H2 1266   3.326   0.816  11.556 -0.8965  0.7483 -0.0702
   81MPD2    H3 1267   3.493   1.001  11.529 -0.1265 -2.3856 -0.4253
   81MPD2     N 1268   3.428   1.168  11.948  0.5539 -0.2239 -0.6131
   81MPD2    H5 1269   3.511   1.223  11.930  0.4482  0.4189  0.9085
   81MPD2    N1 1270   3.148   0.810  11.759 -0.9750  0.7200  0.0230
   81MPD2    H7 1271   3.104   0.812  11.851  1.6187  1.2186  1.2674
   82TMC2    C1 1272   2.139   4.715  11.115 -0.1589  0.7416  0.2315
   82TMC2    C2 1273   2.252   4.725  11.195 -0.1538 -0.2581 -0.1870
   82TMC2    C3 1274   2.296   4.613  11.254  0.9540 -0.3771 -0.2314
   82TMC2    C4 1275   2.083   4.589  11.095 -1.0565 -0.5625 -0.3466
   82TMC2    C5 1276   2.142   4.483  11.150 -0.6482  0.4697 -0.3438
   82TMC2    C6 1277   2.250   4.491  11.233  0.1736  0.4609  0.7972
   82TMC2     C 1278   2.091   0.085  11.037  0.5338 -0.1470  0.2816
   82TMC2     O 1279   2.030   0.049  10.938  0.3441 -0.0546  0.4249
   82TMC2     H 1280   2.302   0.079  11.219 -1.4662  0.2883  0.4433
   82TMC2    H1 1281   1.997   4.571  11.032 -0.7666  0.3415 -0.9973
   82TMC2    H2 1282   2.303   4.404  11.270 -0.0469 -0.5195 -1.1994
   82TMC2    C7 1283   2.048   4.378  11.190  0.5948  0.2310  0.3627
   82TMC2    C8 1284   2.423   4.607  11.332 -0.5568  0.1472  0.1069
   82TMC2    O1 1285   2.051   4.356  11.308 -0.6420 -0.2169  0.0864
   82TMC2    O2 1286   2.437   4.508  11.404 -0.0576 -0.0696 -0.5382
   82TMC2    O5 1287   2.516   4.648  11.244 -0.1412  0.0324  0.2942
   82TMC2    H5 1288   2.478   4.713  11.181  3.9110  0.1820 -1.9996
   83MPD2     C 1289   1.919   0.558  10.972 -0.2991  0.2063 -0.3226
   83MPD2    C1 1290   1.894   0.442  10.895 -0.3679 -0.0375 -0.1629
   83MPD2    C2 1291   1.956   0.325  10.936 -0.0527  0.0885 -0.3321
   83MPD2    C3 1292   2.054   0.324  11.038 -0.1441  0.1651  0.5962
   83MPD2    C4 1293   2.090   0.447  11.093 -0.2688 -0.0262  0.3476
   83MPD2    C5 1294   2.017   0.558  11.067 -0.0772 -0.5781  0.1977
   83MPD2     H 1295   1.943   0.232  10.882  0.6057  0.4184 -1.0597
   83MPD2    H1 1296   2.161   0.456  11.175 -0.4112  0.6198  0.3991
   83MPD2    H2 1297   1.859   0.646  10.951 -0.8971 -0.1650 -0.1615
   83MPD2    H3 1298   2.040   0.649  11.121  1.0245  0.7836 -2.5876
   83MPD2     N 1299   2.123   0.213  11.079 -0.0929 -0.4759  0.0997
   83MPD2    H5 1300   2.186   0.216  11.159 -0.0346 -2.5492  0.1457
   83MPD2    N1 1301   1.792   0.453  10.796 -0.2703  0.2119 -0.8774
   83MPD2    H7 1302   1.752   0.544  10.778  3.9008  2.1490 -0.1746
   84TMC2    C1 1303   3.222   4.150  11.205  1.1798  0.2751 -0.2272
   84TMC2    C2 1304   3.170   4.051  11.287 -0.3894 -0.2170  0.1727
   84TMC2    C3 1305   3.168   3.919  11.239  0.5187 -0.0690  0.0695
   84TMC2    C4 1306   3.271   4.120  11.082  0.3403 -0.1910  0.2935
   84TMC2    C5 1307   3.248   3.990  11.033 -0.0894 -0.0451 -0.2826
   84TMC2    C6 1308   3.203   3.890  11.113 -0.1392  0.3469 -0.9727
   84TMC2     C 1309   3.175   4.282  11.234 -0.2609  0.4332  0.6575
   84TMC2     O 1310   3.093   4.286  11.323  0.1740 -0.4481 -0.0665
   84TMC2     H 1311   3.137   4.055  11.391 -0.2106  3.4739  0.0923
   84TMC2    H1 1312   3.306   4.199  11.017 -1.1661  0.0789 -0.1911
   84TMC2    H2 1313   3.170   3.793  11.076  1.4173 -0.0497 -1.3452
   84TMC2    C7 1314   3.253   3.954  10.894  0.0395  0.0809 -0.1365
   84TMC2    C8 1315   3.113   3.825  11.332  0.5159  0.4142  0.0050
   84TMC2    O1 1316   3.222   3.840  10.858  0.1746 -0.1019  0.1297
   84TMC2    O2 1317   3.025   3.853  11.417 -0.8840  0.4596 -0.2358
   84TMC2    O5 1318   3.146   3.702  11.283 -0.0845  0.2768 -0.1440
   84TMC2    H5 1319   3.233   3.703  11.237  0.6545 -0.6064  1.2145
   85TMC2    C1 1320   4.704   1.847  16.388  0.3774  0.1263 -0.3995
   85TMC2    C2 1321   0.043   1.955  16.415  0.0075  0.6131 -0.4835
   85TMC2    C3 1322   0.077   2.041  16.315  0.8919 -1.4339  0.0612
   85TMC2    C4 1323   4.646   1.830  16.264 -0.6927  0.0316  0.2366
   85TMC2    C5 1324   4.699   1.906  16.168  0.5579 -0.1385  0.4755
   85TMC2    C6 1325   0.048   2.007  16.185  0.1488  0.8273  0.1518
   85TMC2     C 1326   4.649   1.784  16.502 -0.2536 -0.7423 -0.0135
   85TMC2     O 1327   4.704   1.797  16.611  0.0403 -0.3293  0.0013
   85TMC2     H 1328   0.071   1.979  16.517 -1.9068  1.0240 -0.0520
   85TMC2    H1 1329   4.568   1.758  16.241  0.7865 -1.9621  1.4584
   85TMC2    H2 1330   0.105   2.049  16.103  2.3800 -2.1016  0.2005
   85TMC2    C7 1331   4.664   1.869  16.033  0.3795  0.2808 -0.0859
   85TMC2    C8 1332   0.174   2.145  16.340  0.3691 -0.1535 -0.1728
   85TMC2    O1 1333   4.618   1.757  16.014 -0.0689 -0.6848  0.3841
   85TMC2    O2 1334   0.235   2.201  16.256 -0.1691  0.0669  0.1638
   85TMC2    O5 1335   0.135   2.207  16.460 -0.2738  0.0235 -0.2488
   85TMC2    H5 1336   0.053   2.173  16.500 -2.0487  1.3516 -2.7794
   86MPD2     C 1337   4.342   1.454  16.722 -0.3475  0.5721 -0.0972
   86MPD2    C1 1338   4.286   1.480  16.598 -0.2845 -0.2603 -0.0879
   86MPD2    C2 1339   4.362   1.566  16.522 -0.6347  0.0718 -0.4629
   86MPD2    C3 1340   4.477   1.629  16.564 -0.5167  0.0376 -0.5850
   86MPD2    C4 1341   4.527   1.594  16.688 -0.2655 -0.6161 -0.2707
   86MPD2    C5 1342   4.457   1.513  16.772 -0.1035  0.4807  0.4462
   86MPD2     H 1343   4.323   1.586  16.423  0.3030 -4.1053 -1.6816
   86MPD2    H1 1344   4.623   1.621  16.730 -0.0089 -1.3307 -0.3914
   86MPD2    H2 1345   4.287   1.393  16.793 -1.6209  1.3139 -0.4460
   86MPD2    H3 1346   4.500   1.495  16.869 -0.2005 -1.6348  0.0973
   86MPD2     N 1347   4.536   1.723  16.474 -0.0284  0.2340  0.6871
   86MPD2    H5 1348   4.498   1.744  16.382  0.9250  1.4524  0.5724
   86MPD2    N1 1349   4.171   1.418  16.552 -0.4209 -0.0984 -0.3113
   86MPD2    H7 1350   4.142   1.432  16.456 -0.7877  1.0450 -0.0421
   87TMC2    C1 1351   1.579   0.145   1.227 -0.4537  0.2446  0.2523
   87TMC2    C2 1352   1.617   0.062   1.335  0.6158  0.0946  0.1607
   87TMC2    C3 1353   1.643   0.134   1.451  0.2777 -0.0092 -0.9169
   87TMC2    C4 1354   1.545   0.277   1.238  0.4699  0.8625  0.0799
   87TMC2    C5 1355   1.564   0.326   1.363 -0.0513  0.4185  0.6408
   87TMC2    C6 1356   1.617   0.265   1.473 -0.5650 -0.5861 -0.0519
   87TMC2     C 1357   1.593   0.090   1.094  0.4459 -0.2960  0.1889
   87TMC2     O 1358   1.535   0.137   0.998  0.8079 -0.0806 -0.2999
   87TMC2     H 1359   1.636   4.694   1.325  2.0344  0.5371 -2.0101
   87TMC2    H1 1360   1.507   0.335   1.154 -0.4188 -1.3754 -1.0617
   87TMC2    H2 1361   1.651   0.314   1.563  1.2308 -1.4098 -0.2980
   87TMC2    C7 1362   1.551   0.468   1.379  0.1125  0.3525 -0.5842
   87TMC2    C8 1363   1.663   0.059   1.568 -0.8586 -0.3380  0.4705
   87TMC2    O1 1364   1.625   0.517   1.465  0.0371  0.6074  0.0015
   87TMC2    O2 1365   1.598   0.067   1.672  0.7761 -0.4879 -0.5725
   87TMC2    O5 1366   1.779   4.728   1.549  0.4764 -0.0361  0.5213
   87TMC2    H5 1367   1.833   0.009   1.470 -0.6270  1.8116  0.2300
   88MPD2     C 1368   1.543   0.754   1.340 -0.3954 -0.4142  0.4806
   88MPD2    C1 1369   1.436   0.671   1.306  0.3336 -0.6318  0.0631
   88MPD2    C2 1370   1.312   0.724   1.266  0.0048 -0.2593  1.1663
   88MPD2    C3 1371   1.299   0.865   1.255 -0.0584  0.2528  0.7260
   88MPD2    C4 1372   1.404   0.947   1.291  0.1759  0.1964  0.1383
   88MPD2    C5 1373   1.523   0.893   1.335 -0.4360  0.5259 -0.0542
   88MPD2     H 1374   1.227   0.667   1.230  0.7201 -0.4786 -0.1511
   88MPD2    H1 1375   1.406   1.054   1.272 -1.0783 -0.3207 -2.8223
   88MPD2    H2 1376   1.644   0.722   1.359 -0.6671 -1.7020 -0.2781
   88MPD2    H3 1377   1.611   0.956   1.340  1.9962 -2.8894  0.2751
   88MPD2     N 1378   1.181   0.928   1.198  0.5436  0.1187 -0.3977
   88MPD2    H5 1379   1.176   1.028   1.180  0.4881  0.2990  0.6329
   88MPD2    N1 1380   1.446   0.529   1.314  0.5545  0.1769  0.3435
   88MPD2    H7 1381   1.372   0.472   1.273 -0.2489  0.5900  1.2159
   89TMC2    C1 1382   2.807   2.624   1.588  0.6626 -0.0226  0.1629
   89TMC2    C2 1383   2.883   2.694   1.679 -1.0808  0.1774 -0.2360
   89TMC2    C3 1384   2.909   2.823   1.638 -0.0933  0.1160 -0.0962
   89TMC2    C4 1385   2.745   2.672   1.477  0.0577  0.2519 -0.5745
   89TMC2    C5 1386   2.769   2.805   1.450 -0.4310  0.3628  0.2031
   89TMC2    C6 1387   2.859   2.882   1.526 -0.6563 -0.4611  0.4526
   89TMC2     C 1388   2.775   2.490   1.631 -0.1773  0.8014  0.6546
   89TMC2     O 1389   2.838   2.452   1.730  0.8598  0.1895 -0.0915
   89TMC2     H 1390   2.949   2.647   1.751 -0.3505 -0.6315 -1.4387
   89TMC2    H1 1391   2.701   2.603   1.404 -0.2416 -0.0610 -0.1013
   89TMC2    H2 1392   2.888   2.982   1.496  1.7404 -1.4534 -0.4663
   89TMC2    C7 1393   2.701   2.862   1.341 -0.1934 -0.5675 -0.2959
   89TMC2    C8 1394   3.011   2.898   1.712 -0.4611  0.7973 -0.4665
   89TMC2    O1 1395   2.670   2.780   1.258 -0.0607 -0.5195 -0.0506
   89TMC2    O2 1396   3.072   2.994   1.664  0.1646  0.5358 -0.3502
   89TMC2    O5 1397   3.021   2.857   1.842  0.4229  0.2765  0.3216
   89TMC2    H5 1398   2.951   2.796   1.875  0.3693  0.1270 -0.0747
   90MPD2     C 1399   2.480   2.073   1.652  0.2019  0.1593 -0.7590
   90MPD2    C1 1400   2.428   2.163   1.557 -0.5776  0.0394 -0.2035
   90MPD2    C2 1401   2.490   2.278   1.533  0.0846 -0.5485 -0.4788
   90MPD2    C3 1402   2.610   2.314   1.600  0.0159  0.0485 -0.4939
   90MPD2    C4 1403   2.662   2.232   1.699  0.2158  0.3417  0.0364
   90MPD2    C5 1404   2.598   2.112   1.715 -1.1202 -0.6826 -0.6369
   90MPD2     H 1405   2.449   2.346   1.459  0.4448  0.2179  0.0285
   90MPD2    H1 1406   2.756   2.245   1.751  0.5365  0.2739 -0.5305
   90MPD2    H2 1407   2.438   1.981   1.691  0.2350  0.4904  0.0496
   90MPD2    H3 1408   2.636   2.040   1.786  0.2104  0.5996 -0.0557
   90MPD2     N 1409   2.669   2.430   1.564  0.5575 -0.0149  0.6909
   90MPD2    H5 1410   2.623   2.490   1.497  0.7621 -0.8702 -0.2129
   90MPD2    N1 1411   2.310   2.142   1.486 -0.1566  0.2379  0.0227
   90MPD2    H7 1412   2.266   2.221   1.439  1.2768 -0.1886 -2.0330
   91TMC2    C1 1413   4.032   2.924  16.475  0.1540  0.2878 -0.5919
   91TMC2    C2 1414   4.112   2.964  16.577  0.5123  0.6388  0.1194
   91TMC2    C3 1415   4.071   2.948  16.704 -0.0072 -0.2802 -0.2950
   91TMC2    C4 1416   3.902   2.877  16.497  0.5673 -0.7260 -0.5281
   91TMC2    C5 1417   3.872   2.846  16.633 -0.0277  0.5258 -0.1248
   91TMC2    C6 1418   3.953   2.883  16.736  0.6621 -0.3229  0.0397
   91TMC2     C 1419   4.089   2.923  16.342 -0.6542 -0.5497  0.3338
   91TMC2     O 1420   3.998   2.919  16.259  0.2167  0.8402  0.2579
   91TMC2     H 1421   4.212   3.007  16.567  1.7912 -2.3739  0.0036
   91TMC2    H1 1422   3.838   2.834  16.421  0.3228  1.5788 -1.5940
   91TMC2    H2 1423   3.933   2.865  16.841  1.0508 -1.7785 -0.1298
   91TMC2    C7 1424   3.738   2.813  16.684  0.1628  0.2822 -0.3675
   91TMC2    C8 1425   4.175   2.930  16.800  0.4318  0.4075  0.1612
   91TMC2    O1 1426   3.716   2.822  16.802  0.3736 -0.6351  0.0191
   91TMC2    O2 1427   4.241   3.031  16.831  0.4328 -0.0429 -0.4725
   91TMC2    O5 1428   4.226   2.809  16.768  0.1648 -0.2046 -0.1303
   91TMC2    H5 1429   4.156   2.753  16.727  0.9084 -0.5044 -0.9951
   92MPD2     C 1430   4.229   2.909  16.082 -0.7164  0.3364 -0.0282
   92MPD2    C1 1431   4.292   2.935  16.201  0.6310 -0.0718 -0.5259
   92MPD2    C2 1432   4.426   2.965  16.198  0.0013 -0.5724  0.1678
   92MPD2    C3 1433   4.502   2.973  16.076  0.2787  0.6032  0.5358
   92MPD2    C4 1434   4.438   2.946  15.952  0.7397  1.0492  0.1201
   92MPD2    C5 1435   4.307   2.909  15.965 -0.5516 -0.1263 -0.2367
   92MPD2     H 1436   4.484   2.972  16.290 -0.2832 -1.9947  0.4488
   92MPD2    H1 1437   4.477   2.956  15.851 -1.2019  2.9415 -0.4463
   92MPD2    H2 1438   4.125   2.880  16.072 -0.1599 -1.8798  0.5104
   92MPD2    H3 1439   4.258   2.866  15.878 -1.8596  0.6409  0.1169
   92MPD2     N 1440   4.641   3.012  16.084 -0.3120 -0.1778 -0.0060
   92MPD2    H5 1441   4.677   3.042  16.173  0.9855  0.6565 -0.8088
   92MPD2    N1 1442   4.227   2.931  16.327 -0.6883 -0.4452 -0.4212
   92MPD2    H7 1443   4.282   2.945  16.411  1.0930  0.6744 -1.7588
   93TMC2    C1 1444   1.065   3.326  13.871  0.1719  0.1472 -0.5299
   93TMC2    C2 1445   1.006   3.377  13.983 -0.8422 -0.0004  0.2704
   93TMC2    C3 1446   1.080   3.440  14.083 -0.2744 -0.0027  0.9416
   93TMC2    C4 1447   1.201   3.349  13.856  0.5595 -0.1840 -0.1053
   93TMC2    C5 1448   1.263   3.421  13.945  0.1119 -0.0853  0.0354
   93TMC2    C6 1449   1.214   3.467  14.068 -0.1921  0.0685  0.6749
   93TMC2     C 1450   1.003   3.225  13.789 -0.6721  0.9168  0.2150
   93TMC2     O 1451   1.067   3.190  13.691  0.3808 -0.8031  0.1949
   93TMC2     H 1452   0.900   3.377  14.006 -1.2069  1.5990 -1.4279
   93TMC2    H1 1453   1.259   3.292  13.784  0.4004  2.9261 -2.6571
   93TMC2    H2 1454   1.283   3.518  14.134  0.0837  1.7878 -0.9378
   93TMC2    C7 1455   1.402   3.439  13.920  0.2318  0.3970 -0.1720
   93TMC2    C8 1456   1.003   3.491  14.203 -0.4350 -0.0672 -0.4074
   93TMC2    O1 1457   1.475   3.437  14.018 -0.0350 -0.1988 -0.1998
   93TMC2    O2 1458   0.878   3.507  14.201  0.3949  0.4112  0.2441
   93TMC2    O5 1459   1.077   3.554  14.290 -0.1313  0.0412 -0.0465
   93TMC2    H5 1460   1.165   3.514  14.307 -0.2127 -0.0861  0.0774
   94MPD2     C 1461   0.829   2.988  13.709 -0.5516 -0.4600  0.3282
   94MPD2    C1 1462   0.785   3.103  13.778  0.5204 -0.3349  0.2279
   94MPD2    C2 1463   0.651   3.101  13.811  0.1368  0.1804  0.3142
   94MPD2    C3 1464   0.569   2.993  13.789  0.1437 -0.2736  0.2145
   94MPD2    C4 1465   0.619   2.887  13.726  0.7628 -0.0059 -0.4282
   94MPD2    C5 1466   0.748   2.882  13.669 -0.0747  0.3007 -0.1177
   94MPD2     H 1467   0.617   3.193  13.857  1.6258  0.5590  0.6765
   94MPD2    H1 1468   0.553   2.802  13.711 -0.7467  2.0169 -5.2165
   94MPD2    H2 1469   0.932   2.978  13.675  0.3631  3.4512  1.8647
   94MPD2    H3 1470   0.784   2.793  13.620 -1.5231 -1.2264  1.5904
   94MPD2     N 1471   0.432   2.988  13.824 -0.5525  0.3377 -0.1865
   94MPD2    H5 1472   0.375   2.912  13.787  1.4045 -0.7967 -0.8499
   94MPD2    N1 1473   0.868   3.212  13.819  0.2662  0.2145 -0.2918
   94MPD2    H7 1474   0.817   3.285  13.868  1.7162 -0.4442  2.2090
   95TMC2    C1 1475   1.087   0.062  16.458 -0.2919  0.0929  0.4311
   95TMC2    C2 1476   1.032   4.686  16.502  0.1081 -0.2203 -0.0650
   95TMC2    C3 1477   0.981   4.689  16.632 -0.0227 -0.0529  0.1627
   95TMC2    C4 1478   1.085   0.174  16.533  0.5146 -0.7635  0.1441
   95TMC2    C5 1479   1.033   0.171  16.661 -0.4650 -0.0575 -0.0559
   95TMC2    C6 1480   0.983   0.057  16.716 -0.0707  0.3467  0.7660
   95TMC2     C 1481   1.159   0.071  16.336  0.5193  0.1747  0.5206
   95TMC2     O 1482   1.229   0.167  16.321 -0.5787  0.0739 -0.2107
   95TMC2     H 1483   1.038   4.592  16.447 -1.9348 -0.1485 -0.4346
   95TMC2    H1 1484   1.128   0.262  16.486  1.2181 -1.1799  0.0125
   95TMC2    H2 1485   0.936   0.062  16.814 -0.9207 -0.9782  0.4278
   95TMC2    C7 1486   1.065   0.288  16.745 -0.2443  0.2179 -0.0868
   95TMC2    C8 1487   0.943   4.560  16.679  0.5335 -0.5586 -0.4594
   95TMC2    O1 1488   1.052   0.273  16.863 -0.4534 -0.3111  0.2434
   95TMC2    O2 1489   0.856   4.491  16.631 -0.1086  0.8205  0.3707
   95TMC2    O5 1490   0.986   4.556  16.808 -0.0737  0.0462  0.8499
   95TMC2    H5 1491   1.065   4.613  16.809  0.1098 -0.1822 -0.6402
   96MPD2     C 1492   1.171   4.724  15.813  0.1985  0.0852 -0.3349
   96MPD2    C1 1493   1.256   0.066  15.899  0.5944  0.1935  0.6380
   96MPD2    C2 1494   1.242   0.074  16.036  0.0308  0.3550 -0.2151
   96MPD2    C3 1495   1.145   4.728  16.100  0.8118 -0.4180 -0.6203
   96MPD2    C4 1496   1.067   4.649  16.020 -0.7825 -0.3122 -0.0405
   96MPD2    C5 1497   1.075   4.649  15.877  0.0037 -0.2057  0.1255
   96MPD2     H 1498   1.307   0.140  16.094 -1.6517  1.5316  0.3360
   96MPD2    H1 1499   0.990   4.589  16.067 -1.8975 -0.0576 -1.5684
   96MPD2    H2 1500   1.180   4.714  15.705 -0.7438 -1.5861 -0.2531
   96MPD2    H3 1501   1.011   4.589  15.814 -0.6087 -0.7315  1.2599
   96MPD2     N 1502   1.113   4.725  16.239  0.3716  0.2394  0.6899
   96MPD2    H5 1503   1.025   4.680  16.262 -0.3081  0.1387 -2.1180
   96MPD2    N1 1504   1.362   0.123  15.822  0.2766  0.3138 -0.2779
   96MPD2    H7 1505   1.372   0.091  15.726 -2.2371  0.6480 -0.6437
   97TMC2    C1 1506   3.633   2.431  17.622  0.0659  0.2502 -0.1572
   97TMC2    C2 1507   3.700   2.394  17.507  0.6690  0.0373  0.4484
   97TMC2    C3 1508   3.714   2.492  17.412  0.1247  0.4199  0.4283
   97TMC2    C4 1509   3.598   2.560  17.645  0.0695  0.6556  0.2644
   97TMC2    C5 1510   3.611   2.653  17.545 -0.6548  0.2575 -0.3980
   97TMC2    C6 1511   3.676   2.625  17.429 -0.2826  0.0703  0.2679
   97TMC2     C 1512   3.591   2.337  17.731  0.1971 -0.2266  0.4629
   97TMC2     O 1513   3.507   2.385   0.050 -0.7265 -0.0366  0.4115
   97TMC2     H 1514   3.720   2.290  17.484  0.0312 -0.1443  0.7358
   97TMC2    H1 1515   3.542   2.588  17.733  0.3859  0.7992  0.4200
   97TMC2    H2 1516   3.710   2.699  17.357  0.0673 -3.0799 -2.7980
   97TMC2    C7 1517   3.611   2.786  17.598  0.2867  0.4759  0.0839
   97TMC2    C8 1518   3.819   2.460  17.320 -0.1114  0.2388  0.4590
   97TMC2    O1 1519   3.628   2.810  17.718 -0.9802  0.0261  0.1890
   97TMC2    O2 1520   3.812   2.349  17.268 -0.2251  0.3283 -0.1708
   97TMC2    O5 1521   3.926   2.501  17.394 -0.1711  0.1595 -0.2027
   97TMC2    H5 1522   3.907   2.591  17.429 -1.4724  0.5006 -1.7581
   98MPD2     C 1523   3.553   1.884   0.211  0.1339 -0.2161  0.5489
   98MPD2    C1 1524   3.479   2.002   0.230  0.4192  0.0893  0.5517
   98MPD2    C2 1525   3.506   2.109   0.151  0.0354 -0.3368 -0.3759
   98MPD2    C3 1526   3.607   2.101   0.054  0.0597 -0.1273  1.0386
   98MPD2    C4 1527   3.680   1.994   0.044 -0.4451  0.0931 -0.3124
   98MPD2    C5 1528   3.655   1.889   0.124  0.4557  0.2863  0.0692
   98MPD2     H 1529   3.439   2.194   0.154 -1.5719 -1.5721 -0.8179
   98MPD2    H1 1530   3.760   1.984  17.723 -1.5239 -0.5504 -1.4049
   98MPD2    H2 1531   3.549   1.800   0.280  0.6751 -0.5596  0.1568
   98MPD2    H3 1532   3.713   1.798   0.107 -0.2607  0.1173 -1.3938
   98MPD2     N 1533   3.642   2.210  17.717 -0.7705 -0.4324 -0.3474
   98MPD2    H5 1534   3.719   2.200  17.652  0.0964  0.1614  0.5896
   98MPD2    N1 1535   3.374   2.004   0.328  0.2317 -0.2511 -0.2672
   98MPD2    H7 1536   3.351   1.917   0.374  1.4873 -0.7513 -0.5880
   99TMC2    C1 1537   2.051   4.118   1.922  0.7642  0.4028  0.0469
   99TMC2    C2 1538   2.112   4.102   2.042  0.2291 -0.0348 -0.0128
   99TMC2    C3 1539   2.036   4.124   2.159 -0.6586  0.0522  0.2245
   99TMC2    C4 1540   1.926   4.159   1.906 -0.7291  0.1365  0.4908
   99TMC2    C5 1541   1.849   4.156   2.017 -0.5771 -0.0580  0.0542
   99TMC2    C6 1542   1.903   4.143   2.141 -0.0195  0.4829  0.7567
   99TMC2     C 1543   2.139   4.123   1.803  0.8533  0.2483  0.1324
   99TMC2     O 1544   2.255   4.130   1.840 -0.1653 -0.0618  0.0166
   99TMC2     H 1545   2.209   4.057   2.059 -0.0679 -0.6476  0.1008
   99TMC2    H1 1546   1.886   4.190   1.810 -0.8731  1.3452  0.9436
   99TMC2    H2 1547   1.841   4.163   2.227 -0.7151  1.1512  0.0961
   99TMC2    C7 1548   1.708   4.180   2.003  0.3623  0.2654  0.0333
   99TMC2    C8 1549   2.097   4.110   2.289 -0.2523  0.7106  0.3161
   99TMC2    O1 1550   1.650   4.224   2.103  0.0310  0.5218 -0.4230
   99TMC2    O2 1551   2.203   4.160   2.319 -0.5614 -0.2749  0.7273
   99TMC2    O5 1552   2.002   4.078   2.379  0.3030 -0.5411 -0.0894
   99TMC2    H5 1553   1.931   4.027   2.334 -0.1571 -0.6210  0.7409
  100MPD2     C 1554   2.265   4.140   1.537  0.3844  0.5858  0.2170
  100MPD2    C1 1555   2.127   4.129   1.553  0.1289  0.6931  0.3492
  100MPD2    C2 1556   2.042   4.123   1.447 -0.2747  0.1119 -0.4282
  100MPD2    C3 1557   2.087   4.141   1.319 -0.4934 -0.1759  1.2291
  100MPD2    C4 1558   2.222   4.172   1.303  0.1376 -0.0018 -0.3388
  100MPD2    C5 1559   2.312   4.163   1.408  0.2820  0.0538 -0.2298
  100MPD2     H 1560   1.939   4.099   1.469  0.2529 -1.2050  0.5954
  100MPD2    H1 1561   2.260   4.193   1.204 -0.8752  1.3142 -0.4583
  100MPD2    H2 1562   2.329   4.155   1.623 -1.0759 -1.5270  1.7008
  100MPD2    H3 1563   2.418   4.175   1.391  0.3688 -0.4213 -0.0229
  100MPD2     N 1564   2.003   4.151   1.211  0.1775 -0.3226  0.3023
  100MPD2    H5 1565   1.905   4.143   1.234  0.2435 -0.2665  0.6030
  100MPD2    N1 1566   2.067   4.111   1.682  0.1324 -0.3474 -0.6347
  100MPD2    H7 1567   1.968   4.088   1.684  0.4016 -1.3839  1.5785
  101TMC2    C1 1568   2.789   0.951  13.422 -0.2045  0.0748 -1.1667
  101TMC2    C2 1569   2.680   1.022  13.452  0.6422  0.4949 -0.6515
  101TMC2    C3 1570   2.670   1.155  13.425 -0.1318 -0.1660  0.3047
  101TMC2    C4 1571   2.899   1.015  13.365 -0.3451  0.3814 -0.4619
  101TMC2    C5 1572   2.880   1.147  13.337 -0.3279 -0.1712  0.5107
  101TMC2    C6 1573   2.765   1.219  13.358 -0.4461  0.6648  0.9600
  101TMC2     C 1574   2.761   0.813  13.397 -0.3306 -0.4681  0.1513
  101TMC2     O 1575   2.676   0.764  13.467 -0.1739 -0.4451 -0.0534
  101TMC2     H 1576   2.602   0.969  13.505  1.5146  0.9460  1.0707
  101TMC2    H1 1577   2.988   0.962  13.334 -1.2854 -0.2347 -2.0895
  101TMC2    H2 1578   2.752   1.324  13.331  2.3640  0.8107  0.1663
  101TMC2    C7 1579   2.976   1.211  13.247 -0.0842 -1.1312 -0.6295
  101TMC2    C8 1580   2.541   1.221  13.451 -0.4871  0.1009 -0.1105
  101TMC2    O1 1581   2.928   1.256  13.143  0.0666  0.3333  0.2137
  101TMC2    O2 1582   2.461   1.178  13.531  0.2467  0.0183  0.3901
  101TMC2    O5 1583   2.501   1.300  13.340 -0.2196 -0.1612  0.5658
  101TMC2    H5 1584   2.563   1.282  13.266  0.3280 -1.8175  1.4306
  102MPD2     C 1585   2.832   0.609  13.097  0.0517 -0.2970 -0.4603
  102MPD2    C1 1586   2.768   0.648  13.212 -0.2997  0.1089 -0.2877
  102MPD2    C2 1587   2.665   0.572  13.257 -0.1824 -0.1443  0.4914
  102MPD2    C3 1588   2.620   0.462  13.180  0.2966 -0.1731 -0.4327
  102MPD2    C4 1589   2.672   0.443  13.057  0.2455  0.2335 -0.0962
  102MPD2    C5 1590   2.789   0.512  13.024 -0.2506  0.7240  0.2501
  102MPD2     H 1591   2.610   0.598  13.346 -1.0298  1.6740 -0.5648
  102MPD2    H1 1592   2.642   0.361  12.993 -1.1508 -1.4158  2.6908
  102MPD2    H2 1593   2.914   0.669  13.060  0.6458  0.7535  2.5297
  102MPD2    H3 1594   2.836   0.493  12.928 -2.2490  0.0218 -0.5882
  102MPD2     N 1595   2.508   0.390  13.232 -0.2727 -0.1270  0.7488
  102MPD2    H5 1596   2.474   0.418  13.323 -1.7137 -0.2093  0.2325
  102MPD2    N1 1597   2.817   0.765  13.280 -0.6320  0.0306  0.3082
  102MPD2    H7 1598   2.886   0.816  13.225  0.4876 -1.3389  0.4172
  103TMC2    C1 1599   0.333   4.384  12.174 -0.3146  0.0314  0.4549
  103TMC2    C2 1600   0.423   4.295  12.230 -0.1593  0.4619 -0.2976
  103TMC2    C3 1601   0.555   4.332  12.238  0.6900 -0.0020 -1.0188
  103TMC2    C4 1602   0.366   4.509  12.124  0.4800  0.2844 -0.4190
  103TMC2    C5 1603   0.496   4.549  12.140 -0.1692  0.1384 -0.2536
  103TMC2    C6 1604   0.596   4.458  12.187  0.0857  0.2831 -0.3536
  103TMC2     C 1605   0.199   4.341  12.138 -0.2498  0.2920 -0.0647
  103TMC2     O 1606   0.132   4.430  12.097  0.2193  0.0199  0.0537
  103TMC2     H 1607   0.384   4.219  12.297 -1.2467  2.2012  1.0714
  103TMC2    H1 1608   0.297   4.583  12.085  0.5282  0.7669  0.4176
  103TMC2    H2 1609   0.700   4.488  12.191  0.3384 -1.0407  2.8899
  103TMC2    C7 1610   0.528   4.681  12.180 -0.2971 -0.3249 -0.1987
  103TMC2    C8 1611   0.655   4.235  12.295  0.1927 -0.4854  0.2104
  103TMC2    O1 1612   0.605   4.683  12.278 -0.3653 -0.2826 -0.6340
  103TMC2    O2 1613   0.772   4.275  12.304  0.1157  0.6119  0.2417
  103TMC2    O5 1614   0.627   4.118  12.237 -0.1394 -0.1660  0.3024
  103TMC2    H5 1615   0.530   4.107  12.236 -0.1549 -0.0176  0.0811
  104MPD2     C 1616   0.056   3.998  12.122  0.1781 -0.2826 -0.7057
  104MPD2    C1 1617   0.056   4.136  12.141  0.1793 -0.4102 -0.0886
  104MPD2    C2 1618   4.674   4.200  12.120  0.2359 -0.4626 -0.6304
  104MPD2    C3 1619   4.555   4.139  12.107 -0.2807 -0.3277 -0.9345
  104MPD2    C4 1620   4.554   4.004  12.091 -0.1928  0.0694  0.7282
  104MPD2    C5 1621   4.677   3.939  12.094  0.5616 -0.3984 -0.4838
  104MPD2     H 1622   4.668   4.308  12.118 -2.3753 -0.5864  0.6527
  104MPD2    H1 1623   4.468   3.938  12.080 -1.2980  1.4816  0.8042
  104MPD2    H2 1624   0.147   3.941  12.124  1.0952  1.2324  0.7894
  104MPD2    H3 1625   4.674   3.833  12.071  0.9134 -0.8443  1.5521
  104MPD2     N 1626   4.433   4.212  12.099 -0.2595 -0.7008  0.4840
  104MPD2    H5 1627   4.448   4.313  12.099 -1.3753 -0.5329  1.1376
  104MPD2    N1 1628   0.180   4.206  12.154 -0.4251 -0.0490  0.0641
  104MPD2    H7 1629   0.262   4.149  12.175 -1.4317 -2.1042 -1.6774
  105TMC2    C1 1630   1.448   4.399   0.254 -0.2605 -0.4082  0.3943
  105TMC2    C2 1631   1.416   4.528   0.228 -0.2264 -0.0995  0.0878
  105TMC2    C3 1632   1.400   4.610   0.336 -0.2882 -0.0923 -0.8273
  105TMC2    C4 1633   1.494   4.368   0.382  0.4311  0.2498  0.9072
  105TMC2    C5 1634   1.479   4.456   0.483  0.3344 -0.2721  0.0484
  105TMC2    C6 1635   1.420   4.579   0.462  0.0298  0.0980 -0.4306
  105TMC2     C 1636   1.477   4.299   0.140  0.4320  0.0054 -0.1137
  105TMC2     O 1637   1.488   4.181   0.176 -0.2982 -1.1221 -0.3824
  105TMC2     H 1638   1.367   4.561   0.137  1.0991  0.6437 -0.3703
  105TMC2    H1 1639   1.551   4.277   0.395  0.6766  0.0840 -1.3449
  105TMC2    H2 1640   1.406   4.655   0.538  1.7887 -0.0696  0.0588
  105TMC2    C7 1641   1.596   4.450   0.570  0.1941  0.3302 -0.1002
  105TMC2    C8 1642   1.361   0.011   0.305 -0.3294 -0.0276 -0.3376
  105TMC2    O1 1643   1.668   4.350   0.571  0.4356 -0.4133 -0.0213
  105TMC2    O2 1644   1.282   0.084   0.366  0.0592  0.6862  0.9183
  105TMC2    O5 1645   1.455   0.061   0.224 -0.8774 -0.1089 -0.1721
  105TMC2    H5 1646   1.513   0.004   0.169 -0.5271  0.7602 -0.6935
  106MPD2     C 1647   1.785   4.191  17.503 -0.1175  0.7973 -0.4153
  106MPD2    C1 1648   1.783   4.327  17.524  0.7225 -0.6223 -0.4635
  106MPD2    C2 1649   1.696   4.388  17.610 -0.6076 -0.3844  0.1809
  106MPD2    C3 1650   1.621   4.304  17.689  0.6010 -0.0129  0.2899
  106MPD2    C4 1651   1.623   4.167  17.674 -0.7332  0.0093  0.0244
  106MPD2    C5 1652   1.712   4.109  17.584 -0.2998  0.6181  0.5976
  106MPD2     H 1653   1.688   4.495  17.627  0.7668 -0.5850  2.1486
  106MPD2    H1 1654   1.562   4.098  17.731  1.4724 -1.8115  0.1861
  106MPD2    H2 1655   1.859   4.142  17.441  1.0124  0.3312  1.3183
  106MPD2    H3 1656   1.722   4.003  17.566 -0.9934  0.4848  0.9998
  106MPD2     N 1657   1.543   4.369   0.042  0.1080  0.3557 -0.3322
  106MPD2    H5 1658   1.557   4.468   0.056  1.3068  0.1048  0.2355
  106MPD2    N1 1659   1.863   4.423  17.452 -0.7124  0.5439  0.1117
  106MPD2    H7 1660   1.856   4.522  17.477 -0.0032  0.8683 -0.9937
  107TMC2    C1 1661   2.594   0.100  11.501 -0.4593 -0.4025 -1.0414
  107TMC2    C2 1662   2.510   0.202  11.463  0.2120 -0.2981  0.1108
  107TMC2    C3 1663   2.544   0.277  11.359 -0.1753  0.8632 -0.1410
  107TMC2    C4 1664   2.708   0.076  11.435  0.2011 -0.1316 -0.6713
  107TMC2    C5 1665   2.735   0.149  11.326  0.7577 -0.4659  0.3354
  107TMC2    C6 1666   2.661   0.262  11.286  0.6291  0.2266 -0.2957
  107TMC2     C 1667   2.570   0.031  11.632  0.0758  0.3200  0.0637
  107TMC2     O 1668   2.496   0.081  11.715 -0.3261 -0.6719 -0.4228
  107TMC2     H 1669   2.420   0.225  11.519 -1.1345 -1.3411 -1.6414
  107TMC2    H1 1670   2.773   4.733  11.464  1.5881  1.1868 -0.0702
  107TMC2    H2 1671   2.679   0.301  11.187  0.1738  0.1198 -0.4190
  107TMC2    C7 1672   2.865   0.137  11.259  0.5173 -0.1356  0.4021
  107TMC2    C8 1673   2.437   0.341  11.286  0.3549 -0.6366  0.6883
  107TMC2    O1 1674   2.889   0.220  11.171 -0.1782 -0.2462 -0.3834
  107TMC2    O2 1675   2.322   0.299  11.294 -0.1828 -0.4972  0.6174
  107TMC2    O5 1676   2.486   0.468  11.286  0.2553 -0.4137  0.1177
  107TMC2    H5 1677   2.582   0.468  11.306  0.1859 -2.7064  0.4470
  108MPD2     C 1678   2.645   4.399  11.699 -0.6555 -0.0167 -0.6185
  108MPD2    C1 1679   2.591   4.528  11.718 -0.4391  0.6045  0.1977
  108MPD2    C2 1680   2.505   4.549  11.831  0.3712  0.2085 -0.1832
  108MPD2    C3 1681   2.494   4.458  11.930 -0.4733  0.5992  0.4477
  108MPD2    C4 1682   2.569   4.343  11.913 -0.1497 -0.0676  0.6677
  108MPD2    C5 1683   2.640   4.308  11.798 -0.6646 -0.1601  0.0898
  108MPD2     H 1684   2.461   4.647  11.837  0.2425  0.1857 -0.6957
  108MPD2    H1 1685   2.571   4.263  11.986 -0.3956  1.4069  2.2859
  108MPD2    H2 1686   2.706   4.377  11.612 -0.5597  0.2321 -0.6149
  108MPD2    H3 1687   2.695   4.215  11.786  0.4187  0.1154  2.9336
  108MPD2     N 1688   2.429   4.473  12.054  0.3639 -0.3710  0.0014
  108MPD2    H5 1689   2.443   4.400  12.124  2.4153  1.2887  1.3484
  108MPD2    N1 1690   2.614   4.634  11.625 -0.5099  0.1749 -0.7995
  108MPD2    H7 1691   2.659   4.608  11.538  1.1644 -0.3902  0.2433
  109TMC2    C1 1692   3.095   0.983   0.627  0.0062 -0.6364 -0.1663
  109TMC2    C2 1693   3.146   0.955   0.506  0.1058  1.1979 -0.6259
  109TMC2    C3 1694   3.123   1.046   0.405 -0.1324  0.5512 -0.4940
  109TMC2    C4 1695   3.019   1.090   0.647 -0.2339 -0.4085  0.8910
  109TMC2    C5 1696   2.996   1.178   0.546  0.5774  0.0266 -0.3536
  109TMC2    C6 1697   3.050   1.167   0.420 -0.5008 -0.3767  0.0312
  109TMC2     C 1698   3.069   0.865   0.714 -0.3071  0.2448  0.1028
  109TMC2     O 1699   3.144   0.770   0.690 -0.3233 -0.2231 -0.1720
  109TMC2     H 1700   3.214   0.871   0.496 -0.5076  0.4749  1.2444
  109TMC2    H1 1701   2.989   1.108   0.750 -0.8186 -0.1765  0.6812
  109TMC2    H2 1702   3.017   1.230   0.338 -2.6749 -1.3377  0.1810
  109TMC2    C7 1703   2.963   1.316   0.576 -0.5930  0.3906  0.0187
  109TMC2    C8 1704   3.189   1.021   0.271  0.1746  0.0334 -0.4186
  109TMC2    O1 1705   3.029   1.396   0.514 -0.1859  0.2407 -0.2449
  109TMC2    O2 1706   3.219   1.117   0.196 -0.1422 -0.0550 -0.3951
  109TMC2    O5 1707   3.226   0.891   0.250  0.6672  0.4023 -0.8666
  109TMC2    H5 1708   3.175   0.827   0.304 -0.4042  0.1552 -2.1597
  110MPD2     C 1709   2.815   0.601   1.063  0.4491 -0.1822 -0.7151
  110MPD2    C1 1710   2.746   0.714   1.027  0.0604 -0.0258  0.6681
  110MPD2    C2 1711   2.782   0.788   0.921 -0.5824 -0.0620 -0.0273
  110MPD2    C3 1712   2.902   0.772   0.861  0.1890 -0.4341 -0.2154
  110MPD2    C4 1713   2.970   0.657   0.897 -0.1159 -0.3743 -0.3158
  110MPD2    C5 1714   2.927   0.570   0.995 -0.3353  0.7935 -0.0376
  110MPD2     H 1715   2.724   0.878   0.907 -1.1228 -0.4225 -0.0983
  110MPD2    H1 1716   3.068   0.633   0.857 -1.4404 -2.2590 -2.4076
  110MPD2    H2 1717   2.786   0.547   1.152 -0.2114  1.9482  0.3646
  110MPD2    H3 1718   2.981   0.480   1.024 -0.3330 -0.0077 -2.4828
  110MPD2     N 1719   2.949   0.875   0.778 -0.5042  0.6986 -0.6063
  110MPD2    H5 1720   2.883   0.951   0.767 -0.9041  0.7025  1.9151
  110MPD2    N1 1721   2.639   0.756   1.106 -0.1369  0.0789  0.2114
  110MPD2    H7 1722   2.619   0.712   1.195  0.8780  0.7435  0.7682
  111TMC2    C1 1723   2.098   1.440  12.148  0.1702 -0.2519 -0.1751
  111TMC2    C2 1724   2.028   1.373  12.239 -0.5724 -0.2724  0.1018
  111TMC2    C3 1725   2.096   1.289  12.320  0.7295 -0.6700  0.1178
  111TMC2    C4 1726   2.236   1.442  12.150  0.4733 -0.2755 -0.2224
  111TMC2    C5 1727   2.304   1.366  12.245  0.4469 -0.0879 -0.2003
  111TMC2    C6 1728   2.236   1.282  12.329  0.3015 -0.1012 -0.2202
  111TMC2     C 1729   2.035   1.519  12.045 -0.9710 -0.2704  0.0889
  111TMC2     O 1730   2.110   1.559  11.959  0.0149 -0.2802  0.2324
  111TMC2     H 1731   1.920   1.367  12.244 -0.7248 -0.2736 -3.0155
  111TMC2    H1 1732   2.285   1.509  12.080  1.3217 -2.6737 -1.9177
  111TMC2    H2 1733   2.283   1.227  12.409  0.5989 -0.3238 -0.5476
  111TMC2    C7 1734   2.434   1.407  12.292 -0.0964 -0.5005 -0.2383
  111TMC2    C8 1735   2.016   1.214  12.415 -0.9753 -0.6153 -0.1293
  111TMC2    O1 1736   2.480   1.355  12.390  0.2422 -0.2883  0.1019
  111TMC2    O2 1737   1.904   1.256  12.447 -0.0398 -0.3374 -0.3515
  111TMC2    O5 1738   2.079   1.107  12.473 -0.4955 -0.1976  0.2359
  111TMC2    H5 1739   2.169   1.082  12.443  0.1788  2.3675  0.1496
  112MPD2     C 1740   1.656   1.761  11.804  0.1573 -0.2285 -0.0589
  112MPD2    C1 1741   1.791   1.746  11.778 -0.0707  0.6908 -0.1994
  112MPD2    C2 1742   1.874   1.684  11.868  0.0211 -0.4989  0.4083
  112MPD2    C3 1743   1.820   1.621  11.977 -0.3203 -0.5397 -0.7103
  112MPD2    C4 1744   1.684   1.627  11.999  0.6923  0.1946 -0.1353
  112MPD2    C5 1745   1.607   1.692  11.909  0.8260 -0.2252 -0.1726
  112MPD2     H 1746   1.980   1.685  11.848  0.0066 -2.0011  0.2409
  112MPD2    H1 1747   1.643   1.561  12.075 -2.6061  0.8246 -1.3846
  112MPD2    H2 1748   1.588   1.819  11.743  2.2950  1.2529 -1.0531
  112MPD2    H3 1749   1.500   1.680  11.926  0.8668 -0.5783 -0.1488
  112MPD2     N 1750   1.904   1.547  12.070 -0.4763  0.2406  0.1824
  112MPD2    H5 1751   1.849   1.510  12.147 -1.3389  2.1741  0.5117
  112MPD2    N1 1752   1.844   1.791  11.651 -0.5080  0.1972 -0.1653
  112MPD2    H7 1753   1.940   1.763  11.633 -0.1317  2.2509 -1.3363
  113TMC2    C1 1754   0.905   4.240   0.871  0.2405 -0.3510  0.1303
  113TMC2    C2 1755   0.814   4.335   0.901 -0.1901 -0.2709  0.6450
  113TMC2    C3 1756   0.709   4.354   0.812 -0.1555  0.2257  0.4930
  113TMC2    C4 1757   0.885   4.146   0.774  1.1060  0.5089  0.0109
  113TMC2    C5 1758   0.771   4.169   0.687 -0.0977  0.0328 -0.3377
  113TMC2    C6 1759   0.691   4.278   0.700 -0.2494 -0.2367 -0.0494
  113TMC2     C 1760   1.028   4.242   0.950 -0.7749  0.4878 -0.1662
  113TMC2     O 1761   1.039   4.337   1.028  0.5068  0.3509  0.3552
  113TMC2     H 1762   0.836   4.395   0.989  1.5646 -0.1111  0.1067
  113TMC2    H1 1763   0.964   4.088   0.729 -1.1883 -2.9389  0.4023
  113TMC2    H2 1764   0.609   4.287   0.630  2.1883  1.1112 -2.6876
  113TMC2    C7 1765   0.748   4.089   0.567 -0.8513  0.6861 -0.5205
  113TMC2    C8 1766   0.625   4.468   0.842 -0.0384 -0.1477  0.7607
  113TMC2    O1 1767   0.684   4.130   0.470 -0.2883 -0.1455 -1.0324
  113TMC2    O2 1768   0.613   4.513   0.956  0.3088 -0.0088 -0.5801
  113TMC2    O5 1769   0.552   4.511   0.741 -0.3070  0.4937 -0.1841
  113TMC2    H5 1770   0.563   4.471   0.652 -0.2738  1.5106 -0.6362
  114MPD2     C 1771   1.452   4.017   1.119  0.4647  0.4104  0.2123
  114MPD2    C1 1772   1.375   4.117   1.176  0.6931 -0.0560  0.3095
  114MPD2    C2 1773   1.256   4.153   1.119 -0.0596 -1.4501  0.2833
  114MPD2    C3 1774   1.209   4.080   1.011 -0.0596  0.0865 -0.4094
  114MPD2    C4 1775   1.275   3.973   0.964  0.3325 -0.0855 -0.8793
  114MPD2    C5 1776   1.398   3.941   1.023 -0.9362 -0.1652  0.5497
  114MPD2     H 1777   1.199   4.233   1.163 -0.3884 -0.5609 -1.7444
  114MPD2    H1 1778   1.230   3.908   0.890 -1.6123 -0.2045  0.4253
  114MPD2    H2 1779   1.546   3.988   1.164 -0.9406 -0.5469  2.4956
  114MPD2    H3 1780   1.437   3.842   1.002 -0.3300  0.2805 -0.4247
  114MPD2     N 1781   1.094   4.119   0.944  0.4426  0.3893 -0.5413
  114MPD2    H5 1782   1.045   4.051   0.887  2.0084  0.1074 -1.5660
  114MPD2    N1 1783   1.411   4.180   1.297 -0.0220 -0.1086  0.4062
  114MPD2    H7 1784   1.342   4.237   1.345 -2.0807 -0.7800 -1.7871
  115TMC2    C1 1785   1.777   2.009  17.634 -0.5802  0.0831  0.0451
  115TMC2    C2 1786   1.909   1.988  17.665 -0.1560 -0.7562 -0.2916
  115TMC2    C3 1787   1.989   2.090  17.655  0.5854  0.0873  0.4443
  115TMC2    C4 1788   1.726   2.136  17.606 -0.5598  0.2538 -0.0372
  115TMC2    C5 1789   1.819   2.236  17.616 -0.5993  0.1843  0.7693
  115TMC2    C6 1790   1.954   2.218  17.644  0.0938 -1.3600  0.4665
  115TMC2     C 1791   1.698   1.888  17.646  0.7134 -0.1310 -0.0078
  115TMC2     O 1792   1.748   1.777  17.637  0.6804  0.5129 -0.2901
  115TMC2     H 1793   1.938   1.887  17.692 -1.0874 -1.0036 -0.2169
  115TMC2    H1 1794   1.622   2.160  17.587 -0.5979 -0.6019 -0.9580
  115TMC2    H2 1795   2.028   2.296  17.653  0.5157 -1.4430 -2.2614
  115TMC2    C7 1796   1.783   2.374  17.581  0.4942  0.2156 -0.2985
  115TMC2    C8 1797   2.127   2.048  17.691 -0.1425  0.5417 -0.5742
  115TMC2    O1 1798   1.671   2.410  17.607  0.5582  0.6763 -0.2573
  115TMC2    O2 1799   2.161   1.945  17.749 -0.1553 -0.2876 -0.0200
  115TMC2    O5 1800   2.206   2.128  17.621 -0.1234  0.2091 -0.1776
  115TMC2    H5 1801   2.170   2.185  17.550  0.5118 -0.3267 -0.9362
  116MPD2     C 1802   1.217   1.702  17.620  0.0183 -0.4911  0.0186
  116MPD2    C1 1803   1.339   1.639  17.586 -0.6705  0.1303  0.3565
  116MPD2    C2 1804   1.454   1.715  17.604  0.1328 -0.1580  0.0613
  116MPD2    C3 1805   1.454   1.845  17.649  0.0798 -0.4112 -0.4668
  116MPD2    C4 1806   1.335   1.911  17.674  0.0207  1.1123  0.2026
  116MPD2    C5 1807   1.227   1.832  17.661  0.3402  0.2378  0.0372
  116MPD2     H 1808   1.546   1.671  17.566  1.4672  0.6131  2.4299
  116MPD2    H1 1809   1.330   2.015  17.707 -1.5987  1.0640  0.0689
  116MPD2    H2 1810   1.123   1.648  17.614 -0.0057 -0.4110 -0.3025
  116MPD2    H3 1811   1.127   1.871  17.676  1.0400  2.4767 -1.1818
  116MPD2     N 1812   1.567   1.924  17.664  0.2330  0.4497 -0.0580
  116MPD2    H5 1813   1.547   2.021  17.684  1.3973  0.3598  1.5320
  116MPD2    N1 1814   1.344   1.504  17.544 -0.5985 -0.0264  0.2903
  116MPD2    H7 1815   1.256   1.460  17.520 -1.0491  1.6801 -1.2114
  117TMC2    C1 1816   0.101   3.652  14.254 -0.2518 -0.0612 -0.2016
  117TMC2    C2 1817   0.198   3.602  14.332  0.2353 -0.0412  0.3638
  117TMC2    C3 1818   0.309   3.683  14.350 -0.1769  0.6230  0.7274
  117TMC2    C4 1819   0.106   3.768  14.192 -0.1608  0.2107 -0.7269
  117TMC2    C5 1820   0.214   3.845  14.225  0.1054 -0.5862  0.2364
  117TMC2    C6 1821   0.325   3.802  14.296  0.0043  0.7358 -0.2240
  117TMC2     C 1822   0.007   3.558  14.192  0.4073  0.0409  0.1217
  117TMC2     O 1823   0.045   3.444  14.165  0.4661  0.0195 -0.5056
  117TMC2     H 1824   0.172   3.517  14.393  0.2579 -1.0387 -1.0005
  117TMC2    H1 1825   0.038   3.807  14.117  0.3594  1.5004 -0.5318
  117TMC2    H2 1826   0.417   3.857  14.314  0.0399  0.3786  0.7062
  117TMC2    C7 1827   0.239   3.972  14.160  1.0032  0.4112  0.4744
  117TMC2    C8 1828   0.378   3.675  14.473 -0.1457 -0.3620  0.3307
  117TMC2    O1 1829   0.356   4.010  14.156 -0.3176  0.2274  0.0360
  117TMC2    O2 1830   0.386   3.778  14.536 -0.1689  0.3314  0.4687
  117TMC2    O5 1831   0.392   3.548  14.513 -0.2177 -0.0574 -0.7764
  117TMC2    H5 1832   0.375   3.483  14.441  0.6007 -2.8181  1.5290
  118MPD2     C 1833   4.716   4.219  14.056  0.0174 -0.7090  0.5424
  118MPD2    C1 1834   0.108   4.174  14.076 -0.1568 -0.3989 -0.0440
  118MPD2    C2 1835   0.214   4.259  14.051  0.3062 -0.3672 -0.3433
  118MPD2    C3 1836   0.192   4.384  14.012 -0.0024  0.9171 -0.4245
  118MPD2    C4 1837   0.063   4.436  14.003  0.2242 -0.5356 -0.4878
  118MPD2    C5 1838   4.694   4.349  14.030  0.4096  0.6366  0.7379
  118MPD2     H 1839   0.316   4.223  14.064  0.8826  1.9176  1.3365
  118MPD2    H1 1840   0.043   4.540  13.979  0.6713  0.0900  1.8366
  118MPD2    H2 1841   4.630   4.153  14.065  0.4113 -1.0668  1.7165
  118MPD2    H3 1842   4.593   4.386  14.024 -0.2049 -0.8285  1.9927
  118MPD2     N 1843   0.296   4.468  13.973  0.0701 -0.2053  0.6062
  118MPD2    H5 1844   0.274   4.563  13.944 -0.1728 -0.2562  0.6223
  118MPD2    N1 1845   0.126   4.038  14.124 -0.2190 -0.1028 -0.0579
  118MPD2    H7 1846   0.034   3.999  14.142 -0.2145  0.0344  0.2616
  119TMC2    C1 1847   3.098   4.453  13.319  0.1224  0.1315  0.6028
  119TMC2    C2 1848   3.112   4.390  13.193  0.5617  0.3926 -0.6242
  119TMC2    C3 1849   3.001   4.338  13.137 -0.3096 -0.0976 -0.2448
  119TMC2    C4 1850   2.980   4.440  13.390 -0.4404 -0.4014  0.2615
  119TMC2    C5 1851   2.871   4.388  13.331  0.2845 -0.3647 -0.4438
  119TMC2    C6 1852   2.879   4.348  13.200  0.0886  0.2893  0.2390
  119TMC2     C 1853   3.188   4.559  13.361 -0.2122  0.8141  0.5299
  119TMC2     O 1854   3.154   4.623  13.462  0.2152 -0.0845  0.1005
  119TMC2     H 1855   3.201   4.412  13.134  0.0381  1.4591 -1.0156
  119TMC2    H1 1856   2.977   4.484  13.488 -1.4777 -3.4500  1.6033
  119TMC2    H2 1857   2.787   4.320  13.150  0.5549  1.7263 -1.4216
  119TMC2    C7 1858   2.739   4.413  13.382  0.1991 -0.4516  0.4924
  119TMC2    C8 1859   3.006   4.368  12.989 -0.3472 -0.0099 -0.1935
  119TMC2    O1 1860   2.645   4.379  13.305 -0.3208 -0.9866  0.5992
  119TMC2    O2 1861   2.917   4.429  12.930 -0.2898 -0.2749 -0.4846
  119TMC2    O5 1862   3.112   4.312  12.929  0.3917  0.3058 -0.1810
  119TMC2    H5 1863   3.157   4.255  12.995 -1.3379 -0.8240  0.0011
  120MPD2     C 1864   3.569   0.160  13.293 -0.9233 -0.0003 -0.9840
  120MPD2    C1 1865   3.446   0.163  13.363  0.2719  0.0982 -0.4004
  120MPD2    C2 1866   3.355   0.060  13.354 -0.2050  0.1618  0.0481
  120MPD2    C3 1867   3.379   4.692  13.278  0.7881 -0.0494 -0.1534
  120MPD2    C4 1868   3.495   4.694  13.212 -0.1766 -0.3152 -0.3281
  120MPD2    C5 1869   3.589   0.052  13.215  0.3538 -0.3368 -0.3832
  120MPD2     H 1870   3.254   0.075  13.391  1.1344 -0.8027  4.1326
  120MPD2    H1 1871   3.516   4.609  13.149 -0.0743 -0.0481 -0.6532
  120MPD2    H2 1872   3.639   0.242  13.301 -1.3890  0.3708 -0.6871
  120MPD2    H3 1873   3.682   0.044  13.160  2.0773  1.0589  2.2669
  120MPD2     N 1874   3.293   4.578  13.275  0.0902  0.3850 -0.2018
  120MPD2    H5 1875   3.331   4.507  13.212  0.0305  1.0258 -0.9532
  120MPD2    N1 1876   3.436   0.265  13.461 -0.2119 -0.9156 -0.0795
  120MPD2    H7 1877   3.509   0.334  13.452  0.6204 -1.6747  0.8320
  121TMC2    C1 1878   0.257   1.731  14.173 -0.1969 -0.3715  0.2247
  121TMC2    C2 1879   0.332   1.663  14.263 -0.1077 -0.1227  0.1121
  121TMC2    C3 1880   0.269   1.571  14.341 -0.2656 -0.2883 -0.4239
  121TMC2    C4 1881   0.119   1.722  14.162  0.3223 -0.1557 -0.5776
  121TMC2    C5 1882   0.063   1.625  14.244 -0.3560 -0.0779  0.2693
  121TMC2    C6 1883   0.134   1.556  14.338  0.1542 -0.8187  0.2475
  121TMC2     C 1884   0.325   1.842  14.104  0.4360 -0.5875 -0.1209
  121TMC2     O 1885   0.420   1.895  14.153  0.2333 -0.0473  0.0682
  121TMC2     H 1886   0.439   1.680  14.267 -0.1770  0.3998 -0.2733
  121TMC2    H1 1887   0.057   1.798  14.116 -1.3192 -1.2232 -0.1137
  121TMC2    H2 1888   0.089   1.472  14.391  0.8719 -0.5938  1.2204
  121TMC2    C7 1889   4.688   1.553  14.191 -0.6404  0.2655 -0.4139
  121TMC2    C8 1890   0.336   1.450  14.378  0.0549 -0.3187 -0.2877
  121TMC2    O1 1891   4.670   1.436  14.220 -0.2004  0.2686 -0.5034
  121TMC2    O2 1892   0.452   1.433  14.336  0.2700 -0.1864  0.3522
  121TMC2    O5 1893   0.285   1.393  14.487  0.3519  0.4599 -0.1784
  121TMC2    H5 1894   0.208   1.433  14.534 -0.7353  0.6539 -2.1380
  122MPD2     C 1895   0.397   2.077  13.923  0.1441 -0.2649  0.5207
  122MPD2    C1 1896   0.315   1.970  13.890 -0.1696 -0.6815 -0.7101
  122MPD2    C2 1897   0.256   1.969  13.761  0.3536  0.4774  0.1155
  122MPD2    C3 1898   0.270   2.079  13.676  0.5448  0.0317 -0.5319
  122MPD2    C4 1899   0.339   2.189  13.720 -0.1829 -1.3365 -0.2011
  122MPD2    C5 1900   0.398   2.189  13.842  0.4504  0.4827  0.0849
  122MPD2     H 1901   0.196   1.883  13.733 -1.1790  1.5032  0.2624
  122MPD2    H1 1902   0.353   2.275  13.656  2.7258  0.3241  2.6602
  122MPD2    H2 1903   0.445   2.082  14.020  1.0093  0.7582  0.0341
  122MPD2    H3 1904   0.455   2.276  13.872 -2.4566  2.6331 -0.7190
  122MPD2     N 1905   0.215   2.090  13.548 -0.2998 -0.0409 -0.0385
  122MPD2    H5 1906   0.230   2.181  13.505  1.7668  0.0502  0.8729
  122MPD2    N1 1907   0.270   1.868  13.980 -0.3294  0.1028  0.0758
  122MPD2    H7 1908   0.196   1.806  13.949  0.8342 -0.9294 -0.6610
  123TMC2    C1 1909   3.780   0.583  10.052  0.2878  0.0479  0.0056
  123TMC2    C2 1910   3.739   0.707  10.010 -0.4411 -0.2073  0.3474
  123TMC2    C3 1911   3.719   0.736   9.878  0.4328 -0.8151 -0.9233
  123TMC2    C4 1912   3.794   0.486   9.961 -0.1206 -0.8425  0.6092
  123TMC2    C5 1913   3.775   0.514   9.831 -0.2088 -0.2440 -1.5341
  123TMC2    C6 1914   3.729   0.640   9.782 -0.1672 -0.8911  0.5828
  123TMC2     C 1915   3.732   0.542  10.178  0.5833  0.8684 -0.4495
  123TMC2     O 1916   3.719   0.626  10.268  0.3091  0.4381  0.0582
  123TMC2     H 1917   3.696   0.775  10.083  0.4436 -1.2968  1.8990
  123TMC2    H1 1918   3.841   0.392   9.987  2.4526  1.0502  2.7134
  123TMC2    H2 1919   3.713   0.675   9.681 -0.6401  1.2469  1.4113
  123TMC2    C7 1920   3.751   0.399   9.748 -0.5763 -0.2633  0.0108
  123TMC2    C8 1921   3.675   0.867   9.853  0.1449  0.4035 -0.2496
  123TMC2    O1 1922   3.702   0.306   9.813  0.0467 -0.1098 -0.4074
  123TMC2    O2 1923   3.710   0.958   9.929 -0.6729 -0.5563  0.0232
  123TMC2    O5 1924   3.563   0.857   9.778  0.4017  0.1442 -0.0295
  123TMC2    H5 1925   3.561   0.764   9.746 -2.5246 -0.1174  0.8469
  124MPD2     C 1926   3.470   0.183  10.430  0.5597 -0.5321 -0.4380
  124MPD2    C1 1927   3.482   0.145  10.300  0.0787 -0.5099 -0.1642
  124MPD2    C2 1928   3.553   0.228  10.219 -0.0123  0.4979  0.2012
  124MPD2    C3 1929   3.614   0.342  10.264 -0.4965  0.6238  0.0564
  124MPD2    C4 1930   3.602   0.384  10.394  0.3880 -0.0562  0.2523
  124MPD2    C5 1931   3.525   0.303  10.473 -0.1568  0.0177  0.3936
  124MPD2     H 1932   3.574   0.204  10.115 -1.9297  1.8814 -0.4972
  124MPD2    H1 1933   3.642   0.478  10.431 -1.5427  0.3434  1.3100
  124MPD2    H2 1934   3.409   0.126  10.499  1.5314 -2.1343 -0.9065
  124MPD2    H3 1935   3.522   0.342  10.574 -1.0592 -0.8715  0.7072
  124MPD2     N 1936   3.668   0.414  10.160  0.7059  0.3970  0.0876
  124MPD2    H5 1937   3.661   0.378  10.065 -0.9074  0.8679  0.0240
  124MPD2    N1 1938   3.422   0.027  10.254 -0.0870  1.0253 -0.1804
  124MPD2    H7 1939   3.380   4.710  10.327  0.6392 -1.0047 -1.3096
  125TMC2    C1 1940   0.672   1.804   8.644  0.8332  0.7749 -0.2308
  125TMC2    C2 1941   0.674   1.945   8.647  0.8112 -0.0085  0.4271
  125TMC2    C3 1942   0.795   2.003   8.630  0.4763 -1.2305 -0.2541
  125TMC2    C4 1943   0.791   1.728   8.641  0.0840 -0.3022 -1.5012
  125TMC2    C5 1944   0.907   1.796   8.639  1.0110 -0.2306  0.2902
  125TMC2    C6 1945   0.911   1.928   8.615 -0.7201  0.3499  0.5150
  125TMC2     C 1946   0.574   1.751   8.735  0.5196 -0.3487 -0.1893
  125TMC2     O 1947   0.541   1.631   8.734  0.1381 -0.5677  0.3918
  125TMC2     H 1948   0.582   2.003   8.640  0.6955 -0.0588  1.5781
  125TMC2    H1 1949   0.776   1.620   8.644 -0.7185 -0.1660 -0.3899
  125TMC2    H2 1950   1.001   1.982   8.589 -0.1684 -0.0888  1.5243
  125TMC2    C7 1951   1.020   1.720   8.582  0.4632 -0.2679  0.2260
  125TMC2    C8 1952   0.798   2.146   8.640  0.6709  0.0892 -0.4820
  125TMC2    O1 1953   1.081   1.782   8.501  0.4219 -0.0801 -0.0985
  125TMC2    O2 1954   0.699   2.221   8.624  0.2328  0.2491 -0.0933
  125TMC2    O5 1955   0.898   2.168   8.730 -0.0417 -0.5252  0.0983
  125TMC2    H5 1956   0.960   2.092   8.738 -0.0289 -0.4533  0.7363
  126MPD1     C 1957   0.298   1.803   9.157  0.6283 -0.1317  0.5463
  126MPD1    C1 1958   0.321   1.930   9.113 -0.1394  0.7326  0.1280
  126MPD1    C2 1959   0.408   1.937   9.001 -0.7141  0.2458 -0.2597
  126MPD1    C3 1960   0.457   1.829   8.928 -0.4935  0.1810 -0.1813
  126MPD1    C4 1961   0.435   1.708   8.986  1.0119 -0.7900  0.1253
  126MPD1    C5 1962   0.343   1.701   9.083  0.3039  0.6351 -0.1367
  126MPD1     H 1963   0.437   2.038   8.976 -0.7017  0.7221  1.6353
  126MPD1    H1 1964   0.485   1.619   8.952  1.6386 -1.2129  2.1596
  126MPD1    H2 1965   0.227   1.771   9.232  1.9265 -1.0986  1.3555
  126MPD1    H3 1966   0.336   1.603   9.129  0.6296  0.1219 -1.1794
  126MPD1     N 1967   0.550   1.846   8.827 -0.1605  0.1734 -0.0364
  126MPD1    H5 1968   0.578   1.943   8.817 -0.6674  0.0694 -2.4689
  126MPD1    N1 1969   0.300   2.041   9.194 -1.0127  0.1263  0.2143
  126MPD1    H6 1970   0.295   2.128   9.142 -0.7000 -0.5922 -1.0034
  126MPD1    H7 1971   0.218   2.026   9.252  0.6099 -0.0034  2.4725
  127TMC2    C1 1972   4.665   0.317  10.085  0.4957  0.0595  0.5851
  127TMC2    C2 1973   4.630   0.189  10.057  0.2742 -0.6162  0.5786
  127TMC2    C3 1974   4.503   0.153  10.082  0.3284  0.4325  0.2358
  127TMC2    C4 1975   4.583   0.405  10.153  0.0593  0.1244 -0.1643
  127TMC2    C5 1976   4.453   0.360  10.168  0.0367  0.0275  0.6618
  127TMC2    C6 1977   4.410   0.240  10.128  0.0488 -0.3434  0.6615
  127TMC2     C 1978   0.049   0.372  10.025 -0.1121 -0.0925  0.5766
  127TMC2     O 1979   0.124   0.282   9.988  0.5325  0.0420  0.0499
  127TMC2     H 1980   4.693   0.120  10.002  1.9444  0.8591  0.5976
  127TMC2    H1 1981   4.614   0.498  10.199  1.3145 -1.0055  1.2812
  127TMC2    H2 1982   4.310   0.199  10.138 -0.0512 -0.3666 -0.4457
  127TMC2    C7 1983   4.371   0.449  10.248 -0.7986 -0.0398 -0.5950
  127TMC2    C8 1984   4.455   0.024  10.041  0.1954 -0.5045 -0.4486
  127TMC2    O1 1985   4.401   0.565  10.256 -0.3895 -0.5349 -0.1789
  127TMC2    O2 1986   4.347   0.002   9.987 -0.2542  0.2252 -0.3999
  127TMC2    O5 1987   4.533   4.663  10.087 -0.4931  0.1432  0.1026
  127TMC2    H5 1988   4.613   4.690  10.138  1.7742 -2.2575 -2.1814
  128MPD2     C 1989   0.121   0.711   9.905 -0.6683 -0.2013 -0.4619
  128MPD2    C1 1990   0.153   0.582   9.942 -0.2154 -0.4038  0.2180
  128MPD2    C2 1991   0.281   0.536   9.936  0.4183  0.1143 -0.3937
  128MPD2    C3 1992   0.377   0.598   9.869 -0.0820  0.1628  0.2942
  128MPD2    C4 1993   0.353   0.724   9.813  0.2945  0.1240  0.4592
  128MPD2    C5 1994   0.230   0.781   9.841  0.4513 -0.9002 -0.0915
  128MPD2     H 1995   0.307   0.444   9.988  1.9136 -0.8107 -2.7353
  128MPD2    H1 1996   0.427   0.789   9.769 -0.7702  0.1799 -1.2487
  128MPD2    H2 1997   0.020   0.746   9.888 -0.5147  0.4697  0.0038
  128MPD2    H3 1998   0.202   0.873   9.791  1.9766  0.6226  1.8358
  128MPD2     N 1999   0.512   0.551   9.881 -0.5194 -0.1616  0.4769
  128MPD2    H5 2000   0.537   0.469   9.935  0.0085  0.9272  1.9077
  128MPD2    N1 2001   0.048   0.508  10.004  1.0326  0.2060 -0.3066
  128MPD2    H7 2002   4.707   0.565  10.030  1.2743  0.3089  0.2071
  129TMC2    C1 2003   4.212   0.866   1.494  0.4751  0.3422  0.2575
  129TMC2    C2 2004   4.146   0.986   1.516 -0.0602  0.2557  0.4461
  129TMC2    C3 2005   4.017   0.972   1.575  0.4311  1.0662 -0.6219
  129TMC2    C4 2006   4.161   0.745   1.523  0.1680  1.0103  0.3975
  129TMC2    C5 2007   4.034   0.736   1.587  0.2427 -0.5555  0.1136
  129TMC2    C6 2008   3.961   0.855   1.611  0.3940 -0.8190  0.1605
  129TMC2     C 2009   4.319   0.863   1.392 -1.4391  0.4158 -0.4717
  129TMC2     O 2010   4.379   0.759   1.401 -0.3258  0.3569 -0.5860
  129TMC2     H 2011   4.192   1.082   1.500 -0.4962  0.0141 -2.2714
  129TMC2    H1 2012   4.212   0.657   1.486 -3.7628 -0.6596 -1.0950
  129TMC2    H2 2013   3.856   0.840   1.635 -0.3238  1.1321 -1.7882
  129TMC2    C7 2014   3.969   0.611   1.601  0.4626  0.1859  1.1225
  129TMC2    C8 2015   3.939   1.092   1.611  0.2912  0.2843  0.2029
  129TMC2    O1 2016   3.847   0.617   1.613 -0.1985 -0.1073 -0.3352
  129TMC2    O2 2017   3.854   1.098   1.702 -0.1769  0.1059 -0.1973
  129TMC2    O5 2018   3.960   1.190   1.513  1.0791 -0.1487  0.8146
  129TMC2    H5 2019   4.010   1.166   1.432 -1.5918  1.1278 -1.2010
  130MPD2     C 2020   4.536   0.933   1.192  0.2915 -0.3718 -0.0932
  130MPD2    C1 2021   4.415   0.995   1.208  0.9555  0.0252  0.6881
  130MPD2    C2 2022   4.389   1.096   1.117 -0.1820 -0.3075  0.5164
  130MPD2    C3 2023   4.472   1.143   1.020  0.6918  0.7094 -0.0300
  130MPD2    C4 2024   4.595   1.077   1.006  0.4559 -0.5980  0.0814
  130MPD2    C5 2025   4.628   0.974   1.096 -0.3049 -0.2774 -0.0327
  130MPD2     H 2026   4.289   1.138   1.116 -0.0777 -0.1529 -2.2294
  130MPD2    H1 2027   4.670   1.122   0.943  0.9695 -0.8481  0.5137
  130MPD2    H2 2028   4.556   0.852   1.261 -0.4173 -0.7717 -0.3577
  130MPD2    H3 2029   4.727   0.930   1.096 -0.5965 -0.9281  2.3582
  130MPD2     N 2030   4.420   1.246   0.941  0.1144  0.1888 -0.1663
  130MPD2    H5 2031   4.331   1.280   0.977 -0.2238 -2.5712  1.5809
  130MPD2    N1 2032   4.318   0.968   1.303 -0.7436 -0.4699  0.1441
  130MPD2    H7 2033   4.234   1.024   1.305  0.4208  1.2021  1.3654
  131TMC2    C1 2034   3.323   0.315   9.279 -0.1760 -0.3874  0.4724
  131TMC2    C2 2035   3.367   0.273   9.159 -0.9102  0.0378  0.3670
  131TMC2    C3 2036   3.413   0.373   9.081 -0.1031 -0.1340  0.4071
  131TMC2    C4 2037   3.318   0.446   9.329 -0.0432 -0.4865  0.6037
  131TMC2    C5 2038   3.370   0.535   9.248 -0.3510 -0.5257 -0.2171
  131TMC2    C6 2039   3.419   0.507   9.122  0.0286  0.2524 -0.2073
  131TMC2     C 2040   3.274   0.213   9.364  0.6609  0.1226  0.2087
  131TMC2     O 2041   3.260   0.241   9.483 -0.0992 -0.1677  0.3056
  131TMC2     H 2042   3.384   0.168   9.137 -0.8966  0.5411 -2.0232
  131TMC2    H1 2043   3.266   0.462   9.423  1.6963 -0.6814  1.6058
  131TMC2    H2 2044   3.466   0.587   9.065 -1.1226  1.1438  0.0899
  131TMC2    C7 2045   3.399   0.659   9.303 -0.7641  0.2226 -0.6189
  131TMC2    C8 2046   3.474   0.346   8.958  0.2497  0.9062 -0.5403
  131TMC2    O1 2047   3.329   0.681   9.402  0.0257  0.3613  0.1731
  131TMC2    O2 2048   3.437   0.254   8.890  0.3352  0.4095  0.3154
  131TMC2    O5 2049   3.602   0.372   8.979 -0.2386  0.0466 -0.6596
  131TMC2    H5 2050   3.618   0.444   9.043 -0.2319 -1.8502  1.4677
  132MPD2     C 2051   3.190   4.602   9.298 -0.3377  0.7778 -0.0897
  132MPD2    C1 2052   3.234   4.708   9.375 -0.1238  0.0986 -0.0811
  132MPD2    C2 2053   3.248   4.691   9.517 -0.2808  0.1607  0.5669
  132MPD2    C3 2054   3.213   4.570   9.579  0.4206  0.1646 -0.1044
  132MPD2    C4 2055   3.153   4.472   9.498  0.9362 -0.2167  0.3031
  132MPD2    C5 2056   3.148   4.488   9.362  0.0481 -0.4485 -0.0763
  132MPD2     H 2057   3.273   0.030   9.588  2.3967 -1.1970  1.1410
  132MPD2    H1 2058   3.128   4.375   9.539 -0.9696  0.5795  1.0310
  132MPD2    H2 2059   3.183   4.599   9.190  0.8830  1.8804 -0.2037
  132MPD2    H3 2060   3.106   4.406   9.305  1.7349 -0.2197 -1.6419
  132MPD2     N 2061   3.231   4.567   9.721 -0.4782  0.1457  0.3928
  132MPD2    H5 2062   3.301   4.633   9.753 -0.7106 -0.3499  1.8744
  132MPD2    N1 2063   3.252   0.090   9.308  0.2914  0.3093  0.2807
  132MPD2    H7 2064   3.249   0.094   9.207 -0.1307  0.5019  0.2978
  133TMC2    C1 2065   2.632   1.287   9.763  0.1734 -0.3598 -0.2917
  133TMC2    C2 2066   2.728   1.192   9.780  0.2555  0.2699  0.2182
  133TMC2    C3 2067   2.822   1.195   9.875  0.0961  0.5710  0.2171
  133TMC2    C4 2068   2.631   1.401   9.846 -0.0902  0.5405 -0.0313
  133TMC2    C5 2069   2.719   1.404   9.949  0.1284  0.5430 -0.1496
  133TMC2    C6 2070   2.816   1.304   9.965  0.7185  0.1874  0.3744
  133TMC2     C 2071   2.516   1.244   9.688 -0.0139  0.5409 -0.4539
  133TMC2     O 2072   2.510   1.127   9.650  0.0110  0.5651  0.1164
  133TMC2     H 2073   2.724   1.109   9.710 -1.7311 -0.5115  1.2738
  133TMC2    H1 2074   2.547   1.470   9.852 -0.6846 -0.3177  1.5889
  133TMC2    H2 2075   2.898   1.316  10.034  1.9730  0.8316 -1.2211
  133TMC2    C7 2076   2.730   1.521  10.022 -0.3506  0.4698 -0.3819
  133TMC2    C8 2077   2.906   1.075   9.877  0.6195  0.6648 -0.1642
  133TMC2    O1 2078   2.689   1.615   9.957  0.0104 -0.2947 -0.0330
  133TMC2    O2 2079   2.879   0.976   9.809 -0.1954 -0.8118 -0.2198
  133TMC2    O5 2080   2.974   1.068  10.001  0.6642 -0.6184 -0.1940
  133TMC2    H5 2081   3.009   1.155  10.030  2.4503 -0.7564 -1.9852
  134MPD2     C 2082   2.224   1.431   9.589  0.6114  0.0144 -0.0007
  134MPD2    C1 2083   2.293   1.315   9.619 -0.0610 -0.2155  0.6413
  134MPD2    C2 2084   2.236   1.195   9.590 -0.1049 -0.8293  0.1592
  134MPD2    C3 2085   2.126   1.183   9.510 -0.1024 -0.8879 -0.8765
  134MPD2    C4 2086   2.063   1.300   9.481 -0.8261  0.5608 -0.7065
  134MPD2    C5 2087   2.114   1.422   9.516  0.1316  0.0380  0.2926
  134MPD2     H 2088   2.293   1.106   9.616  2.5432  0.0394 -2.6019
  134MPD2    H1 2089   1.975   1.293   9.418 -2.9909  1.6347  2.2121
  134MPD2    H2 2090   2.271   1.526   9.610  0.7507 -0.2568  0.8855
  134MPD2    H3 2091   2.061   1.507   9.476 -0.8682 -0.5510  0.3629
  134MPD2     N 2092   2.068   1.065   9.460 -0.3593  0.4825  0.2318
  134MPD2    H5 2093   1.994   1.079   9.391  0.4323  0.9698 -0.5157
  134MPD2    N1 2094   2.419   1.336   9.681  0.3698  0.5458 -0.0783
  134MPD2    H7 2095   2.453   1.429   9.707  1.2332 -0.0454  0.9086
  135TMC2    C1 2096   0.294   2.999   9.019  0.3477  0.1747 -0.1280
  135TMC2    C2 2097   0.264   3.129   9.056  0.6551  0.2230  0.4604
  135TMC2    C3 2098   0.173   3.146   9.150 -0.9763 -0.8591 -0.0427
  135TMC2    C4 2099   0.248   2.885   9.086  0.1585  0.1880  0.3685
  135TMC2    C5 2100   0.153   2.908   9.182 -0.1149 -0.0297 -0.4848
  135TMC2    C6 2101   0.121   3.036   9.218  0.1841  0.0456 -0.4717
  135TMC2     C 2102   0.389   2.998   8.914 -0.9233  0.4392 -1.0824
  135TMC2     O 2103   0.416   3.104   8.860 -0.3266  0.0852  0.0734
  135TMC2     H 2104   0.307   3.222   9.018  0.4010  0.6457  1.2020
  135TMC2    H1 2105   0.280   2.787   9.053  1.6371 -0.0351  2.4335
  135TMC2    H2 2106   0.053   3.045   9.302  0.4771 -1.1362 -0.1087
  135TMC2    C7 2107   0.090   2.787   9.227 -0.4572  1.3140  0.2392
  135TMC2    C8 2108   0.122   3.280   9.168 -0.1221  0.5967  0.4166
  135TMC2    O1 2109   0.140   2.680   9.198  0.4631  0.4272  0.2622
  135TMC2    O2 2110   0.004   3.305   9.194 -0.0814 -0.4585  0.3667
  135TMC2    O5 2111   0.229   3.365   9.191  0.3088 -0.3294 -0.3784
  135TMC2    H5 2112   0.314   3.318   9.187 -0.4310 -1.7235  0.2592
  136MPD2     C 2113   0.574   2.931   8.693 -0.1838  0.0325  0.1493
  136MPD2    C1 2114   0.570   2.866   8.817  1.0121 -0.9405 -0.1572
  136MPD2    C2 2115   0.666   2.767   8.840 -0.4981 -0.0052  0.0909
  136MPD2    C3 2116   0.769   2.736   8.754  0.1421 -0.0365  0.0497
  136MPD2    C4 2117   0.766   2.796   8.632  0.1708 -0.6436 -0.2085
  136MPD2    C5 2118   0.669   2.892   8.598  0.1486 -0.3003  0.0011
  136MPD2     H 2119   0.668   2.735   8.944 -1.0599 -0.1016  0.0737
  136MPD2    H1 2120   0.839   2.763   8.559  0.3118  2.2170 -1.3527
  136MPD2    H2 2121   0.489   2.992   8.664 -1.8789 -1.3316  2.1283
  136MPD2    H3 2122   0.671   2.932   8.497 -4.0174 -1.2553 -0.4650
  136MPD2     N 2123   0.866   2.639   8.786  0.4622 -0.2595 -0.4140
  136MPD2    H5 2124   0.928   2.610   8.711  1.9254  0.6201  0.4400
  136MPD2    N1 2125   0.476   2.891   8.919  0.1675 -0.5129 -0.0659
  136MPD2    H7 2126   0.465   2.823   8.993 -3.8412  0.9852  0.7163
  137TMC2    C1 2127   0.521   0.751   8.932  0.5675 -0.7276  0.5305
  137TMC2    C2 2128   0.621   0.666   8.892  0.1467  0.2890 -0.3938
  137TMC2    C3 2129   0.604   0.532   8.917 -0.3165  0.8831  0.6441
  137TMC2    C4 2130   0.407   0.717   8.996  0.0238 -0.4520  0.3805
  137TMC2    C5 2131   0.400   0.588   9.029  0.1441  0.1475 -0.4585
  137TMC2    C6 2132   0.496   0.493   8.993  0.0709 -0.1028  0.3326
  137TMC2     C 2133   0.547   0.894   8.929 -0.6598 -0.2377  0.2040
  137TMC2     O 2134   0.490   0.963   9.010 -0.1217  0.0325 -0.0712
  137TMC2     H 2135   0.719   0.698   8.859  0.5982  0.9214  1.5557
  137TMC2    H1 2136   0.332   0.791   9.023  1.8818  2.3415 -2.1522
  137TMC2    H2 2137   0.478   0.391   9.026 -2.8408 -0.3239 -1.9219
  137TMC2    C7 2138   0.295   0.535   9.109 -0.4138 -0.4350 -0.4725
  137TMC2    C8 2139   0.722   0.453   8.903  0.0341  0.7150 -0.1047
  137TMC2    O1 2140   0.319   0.436   9.177  0.3847 -0.4558  1.1161
  137TMC2    O2 2141   0.834   0.492   8.938  0.0563  0.3858 -0.1657
  137TMC2    O5 2142   0.678   0.327   8.907 -0.4924  0.2012  0.4913
  137TMC2    H5 2143   0.584   0.331   8.878 -0.3614  3.9534  0.6528
  138MPD2     C 2144   0.686   1.109   8.657 -0.5196  0.5529 -0.3621
  138MPD2    C1 2145   0.662   1.068   8.788 -0.3938 -0.4886 -0.3936
  138MPD2    C2 2146   0.670   1.166   8.883  0.1325  0.1031  0.5872
  138MPD2    C3 2147   0.728   1.289   8.862 -0.6610 -0.4751 -0.8647
  138MPD2    C4 2148   0.759   1.327   8.733  0.3787 -0.3306  0.2777
  138MPD2    C5 2149   0.736   1.235   8.631 -0.0071  0.0152 -0.5050
  138MPD2     H 2150   0.656   1.130   8.985 -0.0380 -0.1198  0.4837
  138MPD2    H1 2151   0.775   1.431   8.706 -1.6166 -0.5421 -1.6347
  138MPD2    H2 2152   0.658   1.045   8.574  3.4171 -1.1659 -0.3903
  138MPD2    H3 2153   0.739   1.269   8.528  2.6496 -0.4845 -0.5875
  138MPD2     N 2154   0.725   1.394   8.964 -0.3919 -0.2084  0.5872
  138MPD2    H5 2155   0.680   1.381   9.054  0.0031  0.7051  0.9221
  138MPD2    N1 2156   0.616   0.932   8.811 -0.1733  0.7068  0.0436
  138MPD2    H7 2157   0.614   0.872   8.729  4.0696  2.4288 -1.3459
  139TMC2    C1 2158   0.096   4.352  13.270 -0.0869  0.4922 -1.0483
  139TMC2    C2 2159   0.146   4.405  13.156  1.1152  0.2664 -0.3269
  139TMC2    C3 2160   0.073   4.497  13.091 -0.1149 -0.1279 -0.6693
  139TMC2    C4 2161   4.731   4.406  13.342  1.1052  0.7213 -0.0722
  139TMC2    C5 2162   4.663   4.509  13.274  0.5178  0.3800  0.4136
  139TMC2    C6 2163   4.697   4.546  13.143  0.4582 -0.2548  0.7747
  139TMC2     C 2164   0.164   4.238  13.326  0.5517 -0.0230  0.0677
  139TMC2     O 2165   0.207   4.157  13.247  0.2440  0.0688 -0.1979
  139TMC2     H 2166   0.228   4.357  13.104  1.6929  0.6649  0.2039
  139TMC2    H1 2167   4.682   4.357  13.426  1.6531 -2.3280 -1.5038
  139TMC2    H2 2168   4.656   4.637  13.099  0.8218 -0.0609  0.8324
  139TMC2    C7 2169   4.564   4.588  13.352 -0.3650 -0.2015 -0.3405
  139TMC2    C8 2170   0.117   4.562  12.971 -0.2509 -0.0338 -0.1545
  139TMC2    O1 2171   4.486   4.666  13.304 -0.3981  0.1518  0.0526
  139TMC2    O2 2172   0.049   4.561  12.870  0.0173  0.4823 -0.2421
  139TMC2    O5 2173   0.257   4.547  12.971  0.9036 -0.3937  0.3027
  139TMC2    H5 2174   0.297   4.552  13.061  0.6216  0.4529  0.3827
  140MPD2     C 2175   0.138   4.123  13.671  0.3864  0.1146  0.2583
  140MPD2    C1 2176   0.198   4.126  13.546  0.3356  0.4694 -0.3708
  140MPD2    C2 2177   0.293   4.036  13.508 -0.3210 -0.7034 -0.7295
  140MPD2    C3 2178   0.327   3.937  13.593 -0.5686 -0.1257 -0.5585
  140MPD2    C4 2179   0.271   3.930  13.719  0.2269 -0.6440  0.1266
  140MPD2    C5 2180   0.177   4.021  13.749 -0.0447 -0.2637 -0.2040
  140MPD2     H 2181   0.356   4.038  13.420 -0.1249  0.7456 -0.5548
  140MPD2    H1 2182   0.298   3.864  13.800  1.9104 -2.2738 -1.7754
  140MPD2    H2 2183   0.069   4.199  13.706 -0.5519 -1.3013  1.4808
  140MPD2    H3 2184   0.142   4.029  13.852 -0.6752 -1.3539 -0.3318
  140MPD2     N 2185   0.424   3.839  13.556  0.3589 -0.3791  0.4259
  140MPD2    H5 2186   0.470   3.857  13.468 -0.4796  1.3839  0.3451
  140MPD2    N1 2187   0.149   4.228  13.463 -0.1719  0.1369  0.1223
  140MPD2    H7 2188   0.114   4.310  13.510  0.9855  0.9754 -0.4649
  141TMC2    C1 2189   0.579   1.077  13.427 -0.6823  0.3366  0.3922
  141TMC2    C2 2190   0.476   1.029  13.503 -0.0329  0.1820 -0.0298
  141TMC2    C3 2191   0.475   1.070  13.638  0.4163  0.6817 -0.4410
  141TMC2    C4 2192   0.668   1.176  13.465 -0.3481  0.1013  0.2456
  141TMC2    C5 2193   0.658   1.214  13.601 -0.2800  0.3132 -0.7205
  141TMC2    C6 2194   0.570   1.155  13.687 -0.6493 -0.2302  0.3216
  141TMC2     C 2195   0.614   1.010  13.298 -0.0549 -0.0914 -0.4959
  141TMC2     O 2196   0.682   1.069  13.212 -0.3591  0.7148 -0.1343
  141TMC2     H 2197   0.385   0.988  13.459 -0.7946  1.4468  0.3625
  141TMC2    H1 2198   0.743   1.210  13.394 -1.1390 -0.7629 -1.0104
  141TMC2    H2 2199   0.561   1.191  13.789 -0.3671  0.5966  0.0592
  141TMC2    C7 2200   0.756   1.313  13.644 -0.0005  0.4548  1.0404
  141TMC2    C8 2201   0.362   1.057  13.719 -0.2511 -0.4701 -0.3827
  141TMC2    O1 2202   0.835   1.350  13.555 -0.3779 -0.2899  0.4733
  141TMC2    O2 2203   0.249   1.045  13.668 -0.2310 -0.1617 -0.0772
  141TMC2    O5 2204   0.387   1.019  13.843 -0.3701 -0.0585 -0.3546
  141TMC2    H5 2205   0.485   1.021  13.855 -0.6183  1.6398  1.3962
  142TMC2    C1 2206   3.566   4.317   9.737 -0.1654 -0.3165 -0.4545
  142TMC2    C2 2207   3.504   4.252   9.633 -0.2116 -0.1887 -0.0589
  142TMC2    C3 2208   3.483   4.325   9.517  0.4763  0.4024 -0.0540
  142TMC2    C4 2209   3.616   4.445   9.721 -0.3559 -0.2221  0.4151
  142TMC2    C5 2210   3.602   4.503   9.602  0.3335 -0.1598  0.3179
  142TMC2    C6 2211   3.535   4.449   9.492 -1.3251 -0.3318  0.2558
  142TMC2     C 2212   3.544   4.260   9.868  0.4405  0.4858  0.2164
  142TMC2     O 2213   3.481   4.156   9.867 -0.4960 -0.6009  0.0024
  142TMC2     H 2214   3.465   4.153   9.652  0.1910 -0.0449  1.4644
  142TMC2    H1 2215   3.663   4.494   9.805 -0.5553  1.1043 -0.2523
  142TMC2    H2 2216   3.507   4.507   9.404  1.3914  0.4979 -0.0707
  142TMC2    C7 2217   3.632   4.646   9.598  0.6225  0.2514 -0.1136
  142TMC2    C8 2218   3.426   4.248   9.411  0.5446 -0.6231  0.5176
  142TMC2    O1 2219   3.646   4.697   9.709 -0.2578  0.5875  0.8496
  142TMC2    O2 2220   3.337   4.164   9.431 -0.4360  0.2801 -0.0173
  142TMC2    O5 2221   3.453   4.311   9.291 -0.0803 -0.6751 -0.3992
  142TMC2    H5 2222   3.529   4.374   9.291 -0.2797 -0.4333 -1.3010
  143MPD2     C 2223   3.442   4.313  10.377 -0.6212  0.5262  0.1783
  143MPD2    C1 2224   3.382   4.233  10.280  0.4132 -0.4042 -0.5397
  143MPD2    C2 2225   3.421   4.239  10.145 -0.7692 -0.3185 -1.0996
  143MPD2    C3 2226   3.526   4.328  10.110  0.9189 -0.9357 -0.0965
  143MPD2    C4 2227   3.573   4.409  10.206 -0.5063 -0.7299  0.0283
  143MPD2    C5 2228   3.533   4.398  10.338 -0.1495  0.2051  0.1600
  143MPD2     H 2229   3.375   4.178  10.067  2.6399 -4.3092  0.0292
  143MPD2    H1 2230   3.661   4.466  10.179  0.1760 -1.1727  1.2886
  143MPD2    H2 2231   3.412   4.311  10.481 -1.9049  2.1781 -0.1680
  143MPD2    H3 2232   3.581   4.455  10.416 -2.1629 -0.5701  1.9621
  143MPD2     N 2233   3.582   4.341   9.979 -0.7531 -0.0078  0.2437
  143MPD2    H5 2234   3.638   4.423   9.960  2.5249 -2.4524 -0.5127
  143MPD2    N1 2235   3.275   4.150  10.318 -0.3898  0.3462 -0.0715
  143MPD2    H7 2236   3.245   4.154  10.415  2.2518 -2.9303  0.8792
  144TMC2    C1 2237   1.394   2.875   0.684 -0.5064 -0.1288  0.1319
  144TMC2    C2 2238   1.460   2.763   0.644 -0.4222 -0.0430 -0.2752
  144TMC2    C3 2239   1.551   2.700   0.730 -0.5939 -0.7753  0.8241
  144TMC2    C4 2240   1.412   2.937   0.806 -0.5402 -0.0185 -0.6923
  144TMC2    C5 2241   1.516   2.873   0.885  0.2708 -0.1734 -0.0321
  144TMC2    C6 2242   1.586   2.757   0.848  0.3741 -0.1442  0.5013
  144TMC2     C 2243   1.313   2.942   0.581 -0.2884 -0.1081 -0.5438
  144TMC2     O 2244   1.326   2.883   0.473 -0.0693  0.7939  0.0970
  144TMC2     H 2245   1.433   2.714   0.551 -1.3291 -1.5337  0.7779
  144TMC2    H1 2246   1.342   3.007   0.850  1.1637  0.5077  1.2003
  144TMC2    H2 2247   1.662   2.715   0.912 -0.4391  0.2994  1.7673
  144TMC2    C7 2248   1.583   2.959   0.985  0.3605  0.1188 -0.8833
  144TMC2    C8 2249   1.620   2.572   0.693  0.5481 -0.1138  0.1621
  144TMC2    O1 2250   1.679   2.908   1.043 -1.0832  0.1253  0.2413
  144TMC2    O2 2251   1.593   2.502   0.597  0.0903  0.0718 -0.4411
  144TMC2    O5 2252   1.624   2.512   0.815 -0.0663  0.7034 -0.1725
  144TMC2    H5 2253   1.589   2.572   0.884 -0.8063  1.1802 -0.9618
  145MPD2     C 2254   0.917   3.203   0.392 -0.0891  0.3528 -0.5245
  145MPD2    C1 2255   0.976   3.084   0.349  0.7646  0.6984  0.4399
  145MPD2    C2 2256   1.076   3.030   0.424 -0.0547 -0.7374 -0.7159
  145MPD2    C3 2257   1.127   3.102   0.536 -0.5958  0.0303 -0.1020
  145MPD2    C4 2258   1.080   3.234   0.569 -0.2315  0.1179  0.1930
  145MPD2    C5 2259   0.975   3.276   0.498 -0.0625 -0.0396 -0.5893
  145MPD2     H 2260   1.115   2.934   0.394  3.3252  0.5620 -0.5224
  145MPD2    H1 2261   1.113   3.299   0.649 -0.6150  0.7311 -0.1509
  145MPD2    H2 2262   0.831   3.246   0.343 -0.8707  0.5662  1.0177
  145MPD2    H3 2263   0.954   3.381   0.519  1.0414  0.3182 -1.2549
  145MPD2     N 2264   1.230   3.052   0.619 -0.3897  0.1053  0.3869
  145MPD2    H5 2265   1.248   3.092   0.710  1.7943  0.2197 -0.0769
  145MPD2    N1 2266   0.924   3.000   0.247 -0.1036  0.3378 -0.1277
  145MPD2    H7 2267   0.966   2.908   0.248 -0.1825  0.3049  0.4075
  146TMC2    C1 2268   2.079   2.194  12.409 -0.1082  0.3558 -0.5993
  146TMC2    C2 2269   2.041   2.226  12.286 -0.0602 -0.3671 -0.1611
  146TMC2    C3 2270   1.999   2.137  12.191  0.0685  0.4851  0.3649
  146TMC2    C4 2271   2.108   2.067  12.438 -0.0061 -1.4738  0.1636
  146TMC2    C5 2272   2.068   1.980  12.340 -0.4356  0.0247 -0.0764
  146TMC2    C6 2273   2.005   2.005  12.224 -0.4065 -0.1555  0.4905
  146TMC2     C 2274   2.134   2.299  12.496  0.3678 -0.4856 -0.1038
  146TMC2     O 2275   2.147   2.412  12.450  0.1236  0.1516 -0.1161
  146TMC2     H 2276   2.034   2.332  12.262 -3.2847 -0.8908 -1.4243
  146TMC2    H1 2277   2.142   2.020  12.530  1.9980 -0.0385  0.1574
  146TMC2    H2 2278   1.964   1.924  12.164 -2.6348  0.7508  0.8032
  146TMC2    C7 2279   2.101   1.837  12.358 -0.1406  0.2843  0.2038
  146TMC2    C8 2280   1.887   2.184  12.110  0.3710 -0.3344 -0.5076
  146TMC2    O1 2281   2.030   1.749  12.307  0.0578  0.1966  0.5554
  146TMC2    O2 2282   1.818   2.280  12.128  0.1655 -0.4507  0.4225
  146TMC2    O5 2283   1.896   2.110  11.993 -0.2989  0.1167 -0.4157
  146TMC2    H5 2284   1.973   2.050  11.987  0.8940  1.8388 -2.3832
  147MPD2     C 2285   2.332   1.492  12.649  1.0900 -0.1303 -0.2340
  147MPD2    C1 2286   2.423   1.593  12.633  0.2509  0.0793  0.2401
  147MPD2    C2 2287   2.375   1.703  12.562  0.1186 -0.3353  0.7484
  147MPD2    C3 2288   2.253   1.699  12.493  0.0506 -1.0764  0.0240
  147MPD2    C4 2289   2.160   1.592  12.507  0.0567 -0.4661  0.3387
  147MPD2    C5 2290   2.214   1.483  12.580  0.2762  0.4799 -1.0445
  147MPD2     H 2291   2.440   1.787  12.538 -0.6993  0.4508  1.2466
  147MPD2    H1 2292   2.061   1.582  12.463 -1.3280 -0.1559  3.3471
  147MPD2    H2 2293   2.366   1.411  12.714  1.6706  1.0470  0.9288
  147MPD2    H3 2294   2.159   1.392  12.600  2.2259 -0.8214 -1.5546
  147MPD2     N 2295   2.215   1.818  12.430  0.0922 -0.0137 -0.0765
  147MPD2    H5 2296   2.280   1.894  12.443 -1.3305  1.2870 -0.6095
  147MPD2    N1 2297   2.544   1.597  12.709 -0.4897 -0.2679 -0.1791
  147MPD2    H7 2298   2.560   1.518  12.770  2.5239  0.3648 -0.1782
  148TMC2    C1 2299   3.144   0.621  10.478  0.4332 -0.3420  0.5888
  148TMC2    C2 2300   3.233   0.701  10.408 -0.6574  0.3834  0.3245
  148TMC2    C3 2301   3.299   0.638  10.303  0.8248  0.0151  0.0009
  148TMC2    C4 2302   3.142   0.485  10.463  0.5581  0.7867  0.4097
  148TMC2    C5 2303   3.222   0.425  10.371  0.3554  0.4393 -0.1415
  148TMC2    C6 2304   3.299   0.502  10.292 -0.0556 -0.3278  0.3662
  148TMC2     C 2305   3.070   0.693  10.573 -0.6153  0.4144  0.8965
  148TMC2     O 2306   3.103   0.807  10.603 -0.5628  0.2598 -0.6291
  148TMC2     H 2307   3.247   0.808  10.421  0.0958  0.4870 -1.4282
  148TMC2    H1 2308   3.070   0.431  10.523 -0.0413  0.0760 -0.9556
  148TMC2    H2 2309   3.354   0.464  10.206  1.3561 -2.0191  2.0170
  148TMC2    C7 2310   3.166   0.300  10.323  0.2998 -0.0089  0.4738
  148TMC2    C8 2311   3.408   0.707  10.246 -0.6443 -0.6085 -0.8505
  148TMC2    O1 2312   3.092   0.237  10.401  0.0688  0.2029 -0.5023
  148TMC2    O2 2313   3.449   0.798  10.311  0.4911 -0.1803 -1.1826
  148TMC2    O5 2314   3.373   0.707  10.114  0.2337 -0.1595  0.2536
  148TMC2    H5 2315   3.317   0.633  10.085  0.5115  0.1773 -1.1378
  149MPD2     C 2316   2.826   0.824  10.701 -0.0871  0.4465 -0.2343
  149MPD2    C1 2317   2.832   0.706  10.638 -0.1749  0.1364  0.0683
  149MPD2    C2 2318   2.713   0.632  10.620 -0.6087  0.2160  0.0693
  149MPD2    C3 2319   2.592   0.684  10.653  0.2558  0.5878 -0.8965
  149MPD2    C4 2320   2.593   0.797  10.730  0.7822  0.1003  0.0127
  149MPD2    C5 2321   2.708   0.869  10.752  0.4198 -0.2997  0.5923
  149MPD2     H 2322   2.719   0.544  10.558  4.8244  0.1384  0.7473
  149MPD2    H1 2323   2.502   0.835  10.774 -0.0127 -1.2667 -0.4587
  149MPD2    H2 2324   2.911   0.887  10.722  1.0369 -1.6317  1.3476
  149MPD2    H3 2325   2.710   0.960  10.810  1.5606  1.1209 -1.6462
  149MPD2     N 2326   2.469   0.622  10.621 -0.1740  0.4348 -0.3085
  149MPD2    H5 2327   2.381   0.669  10.640 -2.2269 -3.4051 -0.2637
  149MPD2    N1 2328   2.944   0.641  10.582 -0.6664  0.3867  0.1786
  149MPD2    H7 2329   2.926   0.558  10.526 -0.6658  0.1962  0.4658
  150TMC2    C1 2330   3.981   4.238  12.672  0.0894 -0.3924  0.5376
  150TMC2    C2 2331   4.025   4.144  12.756 -0.3282 -0.7988 -0.1751
  150TMC2    C3 2332   4.149   4.096  12.722 -0.2233 -0.6305  0.7686
  150TMC2    C4 2333   4.059   4.287  12.570 -0.0233 -0.1107  1.2260
  150TMC2    C5 2334   4.178   4.230  12.536  0.5467  0.1517 -0.3333
  150TMC2    C6 2335   4.227   4.136  12.621 -0.8688  0.4539  0.2674
  150TMC2     C 2336   3.835   4.273  12.676  0.9945  0.5598 -0.3003
  150TMC2     O 2337   3.774   4.204  12.753 -0.4106  0.2124  0.5851
  150TMC2     H 2338   3.970   4.120  12.847 -0.6335 -0.9078 -0.3901
  150TMC2    H1 2339   4.016   4.361  12.504 -0.0893  1.1331  2.6573
  150TMC2    H2 2340   4.323   4.085  12.618 -0.6741  0.7699  1.1154
  150TMC2    C7 2341   4.267   4.303  12.452 -0.4146 -1.4473  0.2583
  150TMC2    C8 2342   4.195   3.977  12.791 -0.1211  0.2864 -0.6008
  150TMC2    O1 2343   4.218   4.406  12.406 -0.3227  0.3312 -0.6407
  150TMC2    O2 2344   4.274   3.893  12.747  0.0156  0.0217  0.5264
  150TMC2    O5 2345   4.197   4.034  12.916 -0.1003 -0.4342  0.5386
  150TMC2    H5 2346   4.157   4.123  12.930  0.6717 -0.2099  1.3439
  151MPD2     C 2347   3.382   4.446  12.503 -0.3984  0.1917 -0.6644
  151MPD2    C1 2348   3.476   4.541  12.470  0.7322 -0.0945 -1.0472
  151MPD2    C2 2349   3.613   4.517  12.503  0.2423 -0.0651  0.2067
  151MPD2    C3 2350   3.651   4.402  12.575 -0.3389  0.2791 -0.1008
  151MPD2    C4 2351   3.550   4.316  12.611  0.1120  0.2763  0.2075
  151MPD2    C5 2352   3.420   4.338  12.571  0.2303  0.4929  0.7798
  151MPD2     H 2353   3.694   4.585  12.481 -1.2565  0.9046 -2.4248
  151MPD2    H1 2354   3.576   4.226  12.667  0.3265  1.6808  2.3443
  151MPD2    H2 2355   3.276   4.444  12.478 -0.0549 -2.6663 -1.9141
  151MPD2    H3 2356   3.341   4.268  12.598  1.6991 -1.9103 -1.0840
  151MPD2     N 2357   3.790   4.371  12.592  0.3713  0.4228  0.5907
  151MPD2    H5 2358   3.853   4.425  12.534  0.4699 -0.6044 -0.2716
  151MPD2    N1 2359   3.430   4.654  12.402 -0.1655  0.1576 -0.4523
  151MPD2    H7 2360   3.330   4.664  12.392 -0.0087  0.1866 -1.9255
  152TMC2    C1 2361   4.298   4.606  12.667 -0.3567  0.0919  0.4951
  152TMC2    C2 2362   4.342   4.483  12.717  0.2330  0.2912 -0.1982
  152TMC2    C3 2363   4.475   4.458  12.727  0.1369  0.2312  0.1569
  152TMC2    C4 2364   4.385   4.704  12.643  0.4506 -0.4732  0.7093
  152TMC2    C5 2365   4.519   4.677  12.658 -0.4476  0.2930 -0.4193
  152TMC2    C6 2366   4.567   4.560  12.707 -0.1383 -0.1325 -0.4771
  152TMC2     C 2367   4.153   4.642  12.668 -0.4292  0.4019  0.1110
  152TMC2     O 2368   4.123   0.001  12.604  0.3862  0.0958 -0.1725
  152TMC2     H 2369   4.272   4.401  12.718  1.1294 -0.4483  0.7081
  152TMC2    H1 2370   4.338   0.059  12.614 -0.8520 -1.1076  0.7637
  152TMC2    H2 2371   4.669   4.533  12.685  0.1475 -1.0074  1.9372
  152TMC2    C7 2372   4.616   0.038  12.602  0.1040 -0.2651  0.1914
  152TMC2    C8 2373   4.515   4.334  12.785  0.8914 -0.1179  0.4931
  152TMC2    O1 2374   4.570   0.135  12.537  0.5268 -0.1422 -0.3605
  152TMC2    O2 2375   4.443   4.235  12.798 -0.5647 -0.7769  0.3887
  152TMC2    O5 2376   4.649   4.341  12.795 -0.3762  0.0038  0.2403
  152TMC2    H5 2377   4.679   4.434  12.802 -1.2795  0.2212  1.2084
  153MPD2     C 2378   3.890   4.534  12.895  0.5125 -0.9275 -0.5141
  153MPD2    C1 2379   3.950   4.600  12.792 -0.5128  0.1209  0.4074
  153MPD2    C2 2380   3.870   4.698  12.730  0.4421  0.3668 -0.4223
  153MPD2    C3 2381   3.745   4.726  12.777 -0.2709  1.0447 -0.4903
  153MPD2    C4 2382   3.692   4.664  12.886  0.1995  0.4887 -0.2325
  153MPD2    C5 2383   3.760   4.554  12.934  0.4340  0.5969 -0.1455
  153MPD2     H 2384   3.905   0.026  12.652  0.5102 -0.5739 -1.2003
  153MPD2    H1 2385   3.589   4.680  12.916  0.7699  0.9840  1.4638
  153MPD2    H2 2386   3.938   4.459  12.958  0.1307 -0.2677  0.5755
  153MPD2    H3 2387   3.715   4.495  13.013  1.2537 -2.5487 -2.0364
  153MPD2     N 2388   3.679   0.099  12.713  0.2091 -0.0243 -0.0039
  153MPD2    H5 2389   3.731   0.147  12.640 -3.3110  1.0965 -1.7899
  153MPD2    N1 2390   4.082   4.569  12.757  0.0666 -0.1059 -0.1104
  153MPD2    H7 2391   4.134   4.509  12.820 -3.2437 -2.4309  0.3671
  154TMC2    C1 2392   1.465   3.903   0.591  0.6513 -0.3546 -0.1625
  154TMC2    C2 2393   1.545   3.881   0.699 -0.2268 -0.3872 -0.0782
  154TMC2    C3 2394   1.648   3.793   0.679 -0.0038 -0.6247  0.4605
  154TMC2    C4 2395   1.479   3.836   0.471 -0.0357  0.8400  0.5950
  154TMC2    C5 2396   1.583   3.747   0.457 -0.0620  0.2429 -0.1095
  154TMC2    C6 2397   1.665   3.722   0.563  0.1600  1.0770  0.3825
  154TMC2     C 2398   1.405   4.032   0.597 -0.6984  0.0754  0.2074
  154TMC2     O 2399   1.423   4.100   0.701 -0.7775  0.1641  0.0742
  154TMC2     H 2400   1.542   3.940   0.790 -0.9258 -0.4741 -0.0424
  154TMC2    H1 2401   1.401   3.842   0.395  0.7929 -3.3250 -0.5992
  154TMC2    H2 2402   1.743   3.646   0.556  1.8198  3.0104 -2.3552
  154TMC2    C7 2403   1.587   3.659   0.343  0.0017  0.1594 -1.2088
  154TMC2    C8 2404   1.724   3.768   0.799 -0.4461  0.1028 -0.1136
  154TMC2    O1 2405   1.653   3.557   0.352  0.1602 -0.0818 -0.0354
  154TMC2    O2 2406   1.683   3.809   0.903 -1.0924 -0.4226  0.2081
  154TMC2    O5 2407   1.851   3.746   0.769 -0.2375 -0.2956  0.1365
  154TMC2    H5 2408   1.873   3.744   0.674 -1.3327  0.1931 -0.1283
  155MPD2     C 2409   1.132   4.123   0.382 -0.2379  0.5297  0.0876
  155MPD2    C1 2410   1.215   4.151   0.485 -0.5554 -0.7107  0.3733
  155MPD2    C2 2411   1.189   4.255   0.577 -0.3857  0.1421 -0.1890
  155MPD2    C3 2412   1.077   4.333   0.550  0.3585  0.5256  0.1543
  155MPD2    C4 2413   0.987   4.300   0.446 -0.9589 -0.1603 -0.4950
  155MPD2    C5 2414   1.018   4.192   0.367 -0.0212 -0.1942  0.5977
  155MPD2     H 2415   1.251   4.276   0.663  0.1818 -0.7980 -0.3699
  155MPD2    H1 2416   0.907   4.364   0.410 -0.4112 -1.1259 -3.4393
  155MPD2    H2 2417   1.134   4.033   0.323 -0.2650  0.3828  0.3125
  155MPD2    H3 2418   0.948   4.175   0.285  0.4504 -1.5788  0.4794
  155MPD2     N 2419   1.049   4.442   0.633 -0.7118  0.4016 -0.3297
  155MPD2    H5 2420   1.118   4.465   0.703 -0.8016  0.6600 -0.3257
  155MPD2    N1 2421   1.321   4.057   0.494  0.5857 -0.0302  0.3150
  155MPD2    H7 2422   1.308   3.977   0.433  0.3347  0.8224 -0.7509
  156TMC2    C1 2423   4.261   2.006  11.241 -0.2571 -0.3383  0.3365
  156TMC2    C2 2424   4.361   1.947  11.168  0.1306 -0.7947 -0.5190
  156TMC2    C3 2425   4.347   1.932  11.037  0.1476 -0.0424  0.3295
  156TMC2    C4 2426   4.150   2.044  11.170 -0.6417  0.5438  0.3318
  156TMC2    C5 2427   4.141   2.034  11.033 -0.1982 -0.2678 -0.4838
  156TMC2    C6 2428   4.244   1.985  10.967 -0.5676  0.0566 -0.2457
  156TMC2     C 2429   4.280   2.075  11.371 -0.0676  0.1995  0.2573
  156TMC2     O 2430   4.178   2.131  11.414  0.0965 -0.4403  0.2875
  156TMC2     H 2431   4.449   1.910  11.219 -2.1911 -0.9413  3.3961
  156TMC2    H1 2432   4.061   2.078  11.221 -0.3104  1.4041  0.3272
  156TMC2    H2 2433   4.229   1.955  10.863  2.3110  1.3792 -1.0435
  156TMC2    C7 2434   4.062   2.144  10.975  0.3098 -0.5480 -0.2045
  156TMC2    C8 2435   4.463   1.881  10.962  0.4566 -1.0214 -0.6580
  156TMC2    O1 2436   4.012   2.222  11.053 -0.2088 -0.2778  0.0089
  156TMC2    O2 2437   4.531   1.784  10.988 -0.2261  0.6677 -0.2520
  156TMC2    O5 2438   4.464   1.937  10.841 -0.1279  0.3838  0.2906
  156TMC2    H5 2439   4.427   2.028  10.831 -0.5959  0.2239  0.5984
  157MPD2     C 2440   4.564   2.084  11.601  0.8804  0.3079 -0.4745
  157MPD2    C1 2441   4.448   2.130  11.545 -0.3425  0.1808 -0.3945
  157MPD2    C2 2442   4.382   2.239  11.596  0.0868  0.0630 -1.0399
  157MPD2    C3 2443   4.413   2.293  11.723 -0.2587 -0.3299 -0.5793
  157MPD2    C4 2444   4.532   2.248  11.777  0.2946  0.5179 -0.3133
  157MPD2    C5 2445   4.596   2.143  11.721 -0.1764 -0.2148  0.2971
  157MPD2     H 2446   4.305   2.292  11.542 -0.7929 -0.5668 -0.4042
  157MPD2    H1 2447   4.569   2.291  11.869 -0.9049 -3.6752  2.1426
  157MPD2    H2 2448   4.620   1.999  11.566  0.6676 -0.4485  1.0438
  157MPD2    H3 2449   4.674   2.094  11.778 -1.1874  0.1694  1.9993
  157MPD2     N 2450   4.339   2.407  11.771 -0.1252 -0.6813  0.2295
  157MPD2    H5 2451   4.256   2.437  11.719  0.7614  1.3099 -0.0664
  157MPD2    N1 2452   4.407   2.061  11.431  0.1130 -0.0615  0.3445
  157MPD2    H7 2453   4.475   2.001  11.386  1.3809  2.7971 -1.5595
  158TMC2    C1 2454   4.516   0.931  13.331 -0.1442 -0.3793  0.3679
  158TMC2    C2 2455   4.552   1.001  13.219  0.3785 -0.0069 -0.7996
  158TMC2    C3 2456   4.454   1.055  13.139  0.0713  0.3374 -0.1667
  158TMC2    C4 2457   4.382   0.927  13.375  0.2350 -0.3073  0.2871
  158TMC2    C5 2458   4.291   0.995  13.304 -0.0521  0.1823 -0.2299
  158TMC2    C6 2459   4.325   1.059  13.184 -0.5450 -0.0502 -0.6516
  158TMC2     C 2460   4.624   0.873  13.408  0.4376  0.5347 -0.3757
  158TMC2     O 2461   4.734   0.869  13.354 -0.3221 -0.0838  0.0648
  158TMC2     H 2462   4.650   0.986  13.174  0.6814  0.5787 -0.3322
  158TMC2    H1 2463   4.359   0.901  13.478 -2.1067  0.3668 -0.0674
  158TMC2    H2 2464   4.262   1.107  13.111  1.5453  1.7087 -1.2985
  158TMC2    C7 2465   4.148   0.974  13.323 -0.9578 -0.4977  0.4821
  158TMC2    C8 2466   4.497   1.145  13.031 -0.1641  0.4441  0.1735
  158TMC2    O1 2467   4.077   1.045  13.254  0.2973 -0.1058 -0.4647
  158TMC2    O2 2468   4.604   1.204  13.033 -0.2423 -0.1230 -0.3447
  158TMC2    O5 2469   4.411   1.144  12.930 -0.0201  0.4658 -0.5523
  158TMC2    H5 2470   4.363   1.058  12.926 -1.8635  1.5336 -1.4602
  159MPD2     C 2471   0.077   0.680  13.833 -0.0406  0.2063 -0.1447
  159MPD2    C1 2472   4.679   0.662  13.833 -0.2741  0.1105  0.1338
  159MPD2    C2 2473   4.605   0.699  13.725 -0.4187  0.0704 -0.8016
  159MPD2    C3 2474   4.667   0.759  13.616 -0.2320  0.4348 -0.1009
  159MPD2    C4 2475   0.065   0.771  13.608 -0.4810 -0.1376 -0.0349
  159MPD2    C5 2476   0.136   0.726  13.721  0.8884  0.2908  0.7013
  159MPD2     H 2477   4.499   0.679  13.716 -0.1904 -1.1419 -0.7865
  159MPD2    H1 2478   0.116   0.809  13.520  0.9077 -2.1757 -0.1049
  159MPD2    H2 2479   0.130   0.650  13.923 -1.0675  0.5429  0.5683
  159MPD2    H3 2480   0.244   0.729  13.720  0.8649  1.4725  1.3506
  159MPD2     N 2481   4.581   0.805  13.514  0.2660 -0.0294  0.3578
  159MPD2    H5 2482   4.480   0.797  13.526 -0.1383 -0.4618 -3.2129
  159MPD2    N1 2483   4.613   0.622  13.949 -0.3410 -0.3927 -0.4789
  159MPD2    H7 2484   4.666   0.576  14.022 -1.9182 -0.0016  0.8939
  160TMC2    C1 2485   0.095   3.208   1.261 -0.1044 -0.8152  0.1656
  160TMC2    C2 2486   0.062   3.075   1.287 -0.7042  0.8570  0.1646
  160TMC2    C3 2487   0.113   2.972   1.220  0.4288 -0.2493  0.8603
  160TMC2    C4 2488   0.181   3.238   1.161 -0.5029  0.5709  0.3165
  160TMC2    C5 2489   0.240   3.126   1.097  0.6182  0.8749 -0.0002
  160TMC2    C6 2490   0.211   2.996   1.126 -0.0896 -0.4726 -0.2231
  160TMC2     C 2491   0.025   3.304   1.340  0.5707  0.8169  0.4920
  160TMC2     O 2492   4.720   3.265   1.447  0.3987 -0.2365  0.3408
  160TMC2     H 2493   4.738   3.051   1.372 -0.2393  0.1110  0.2956
  160TMC2    H1 2494   0.202   3.343   1.143 -0.0198  0.0966 -1.7842
  160TMC2    H2 2495   0.260   2.909   1.083  1.4460  0.2593  0.0292
  160TMC2    C7 2496   0.330   3.146   0.985 -0.0581 -0.1604  0.2790
  160TMC2    C8 2497   0.083   2.840   1.270 -0.4004 -0.4480  0.3930
  160TMC2    O1 2498   0.372   3.052   0.914  0.2003 -0.4939 -0.0387
  160TMC2    O2 2499   4.715   2.787   1.248 -0.0994 -1.0212 -0.4198
  160TMC2    O5 2500   0.196   2.766   1.293  0.4492  0.0155 -0.5018
  160TMC2    H5 2501   0.271   2.828   1.278  1.1436 -0.4219  1.1551
  161MPD2     C 2502   4.626   3.541   1.458 -0.1236  0.1713  0.3306
  161MPD2    C1 2503   4.649   3.524   1.320 -0.4773  0.7682 -0.0712
  161MPD2    C2 2504   4.596   3.608   1.221  0.6603  0.5633  0.1739
  161MPD2    C3 2505   4.520   3.717   1.275  0.8024  0.8005 -0.3946
  161MPD2    C4 2506   4.497   3.732   1.410 -0.2816  0.5085 -0.4107
  161MPD2    C5 2507   4.548   3.648   1.499  0.1045  0.0665 -0.1556
  161MPD2     H 2508   4.625   3.600   1.117 -2.6141  2.4027 -0.8758
  161MPD2    H1 2509   4.435   3.809   1.454 -0.4601 -0.2475  0.6601
  161MPD2    H2 2510   4.672   3.474   1.530 -0.6991  0.5774  1.0785
  161MPD2    H3 2511   4.539   3.675   1.604 -1.2062  2.9138 -0.9989
  161MPD2     N 2512   4.471   3.818   1.186 -0.1734 -0.0980 -0.1677
  161MPD2    H5 2513   4.423   3.900   1.224  1.7329 -0.9088  4.0118
  161MPD2    N1 2514   4.729   3.414   1.269 -0.3229 -0.2737  1.7291
  161MPD2    H7 2515   0.014   3.415   1.170 -2.3500 -0.5551  1.2340
  162TMC2    C1 2516   2.502   0.628   1.551  0.8107  0.4602  0.2365
  162TMC2    C2 2517   2.400   0.586   1.635  0.1546  0.2553 -0.7543
  162TMC2    C3 2518   2.420   0.614   1.766 -0.2212 -0.3514  0.6993
  162TMC2    C4 2519   2.620   0.690   1.602  0.2137 -0.2075  0.1452
  162TMC2    C5 2520   2.633   0.696   1.734  0.3614  0.4134  0.2422
  162TMC2    C6 2521   2.534   0.662   1.818  0.4338 -0.7027  0.2464
  162TMC2     C 2522   2.482   0.621   1.407  0.3517  1.6032  0.1852
  162TMC2     O 2523   2.590   0.618   1.343 -0.2168 -0.0133  0.8720
  162TMC2     H 2524   2.300   0.554   1.611  0.1981 -1.0497  0.8054
  162TMC2    H1 2525   2.693   0.730   1.533 -1.5659  0.2618 -1.4547
  162TMC2    H2 2526   2.537   0.672   1.926 -0.0566  1.6513  0.0460
  162TMC2    C7 2527   2.765   0.683   1.792 -0.7952 -0.9255  0.1589
  162TMC2    C8 2528   2.317   0.560   1.849 -0.3794 -0.0755  0.0082
  162TMC2    O1 2529   2.780   0.711   1.913  0.5332 -1.2754  0.6598
  162TMC2    O2 2530   2.196   0.583   1.830 -0.1520  0.4620 -0.1082
  162TMC2    O5 2531   2.368   0.450   1.911 -0.0735  0.3711 -0.3367
  162TMC2    H5 2532   2.465   0.436   1.911 -0.0402  0.5947 -0.3425
  163MPD2     C 2533   2.235   0.565   0.951 -0.1520 -0.0978 -0.0288
  163MPD2    C1 2534   2.369   0.534   0.985  0.7555 -0.5949  0.2834
  163MPD2    C2 2535   2.416   0.540   1.115 -0.4177  0.0281  0.4253
  163MPD2    C3 2536   2.327   0.582   1.218  0.4730  0.0940 -0.4153
  163MPD2    C4 2537   2.191   0.605   1.186 -0.4757 -0.1557 -0.5975
  163MPD2    C5 2538   2.147   0.595   1.053 -0.3973 -0.1859 -0.4421
  163MPD2     H 2539   2.519   0.517   1.142  0.0186  0.4751 -0.8726
  163MPD2    H1 2540   2.121   0.641   1.260 -0.0805  2.5849 -1.5394
  163MPD2    H2 2541   2.197   0.552   0.851  1.1042  1.1784 -0.6864
  163MPD2    H3 2542   2.044   0.622   1.030 -0.4359  1.3403  1.5172
  163MPD2     N 2543   2.355   0.620   1.355  0.2351  0.4591  0.7683
  163MPD2    H5 2544   2.275   0.634   1.416 -0.6496 -0.1206 -0.2519
  163MPD2    N1 2545   2.460   0.510   0.883 -0.5317 -0.6270 -0.2737
  163MPD2    H7 2546   2.428   0.530   0.789 -1.0465 -1.0533 -0.1829
  164TMC2    C1 2547   2.413   0.940  11.150 -0.2573 -0.5003 -0.1667
  164TMC2    C2 2548   2.496   0.924  11.260  0.3645  0.1912 -0.2123
  164TMC2    C3 2549   2.463   0.999  11.369  1.0323 -0.2929 -0.1565
  164TMC2    C4 2550   2.309   1.029  11.158 -0.1339 -0.2949  0.6576
  164TMC2    C5 2551   2.287   1.110  11.263 -0.5032 -0.5573 -0.3049
  164TMC2    C6 2552   2.364   1.092  11.375 -0.4901  0.1043  0.1205
  164TMC2     C 2553   2.388   0.824  11.064  0.2722  0.1080 -0.0074
  164TMC2     O 2554   2.279   0.811  11.014  0.0496 -0.0610  0.0402
  164TMC2     H 2555   2.577   0.853  11.275  0.9647  1.4215  2.3497
  164TMC2    H1 2556   2.238   1.033  11.076 -0.2055  2.4908  0.8675
  164TMC2    H2 2557   2.361   1.154  11.464 -0.4277  1.2481 -0.6802
  164TMC2    C7 2558   2.192   1.218  11.253 -0.0620  0.6184 -0.0772
  164TMC2    C8 2559   2.517   0.971  11.498  0.1570 -0.3271  0.4411
  164TMC2    O1 2560   2.142   1.250  11.362  0.0796  0.0350  0.2328
  164TMC2    O2 2561   2.537   1.064  11.576 -0.3101  0.0506  0.1850
  164TMC2    O5 2562   2.538   0.839  11.513  0.0781  0.0670 -0.2922
  164TMC2    H5 2563   2.477   0.783  11.461  0.7472 -0.1802 -0.8071
  165TMC2    C1 2564   4.601   2.480   1.066  0.3466 -0.0918 -0.2503
  165TMC2    C2 2565   4.622   2.345   1.057  0.1973  0.2970  0.0952
  165TMC2    C3 2566   0.009   2.301   1.024  0.0846  0.9179 -0.0494
  165TMC2    C4 2567   4.694   2.567   1.017  0.5091 -0.0795  0.2691
  165TMC2    C5 2568   0.076   2.515   0.975  0.1478 -0.8008 -0.6721
  165TMC2    C6 2569   0.110   2.380   0.986  0.1698 -0.4751  0.7318
  165TMC2     C 2570   4.472   2.532   1.109  0.6945 -0.1609 -0.6935
  165TMC2     O 2571   4.388   2.451   1.148  0.6602 -0.5294  0.4391
  165TMC2     H 2572   4.543   2.270   1.061 -0.1451  0.7357  1.4724
  165TMC2    H1 2573   4.672   2.672   1.001  2.3466  0.1399 -0.8630
  165TMC2    H2 2574   0.203   2.342   0.945  0.6229  0.2706  1.0646
  165TMC2    C7 2575   0.161   2.612   0.912 -0.5822  0.1572 -0.3674
  165TMC2    C8 2576   0.015   2.165   0.974  0.2503  0.1644 -0.1794
  165TMC2    O1 2577   0.214   2.705   0.976  0.1624  0.0660  0.2184
  165TMC2    O2 2578   0.048   2.133   0.858  0.3822 -0.0378  0.2578
  165TMC2    O5 2579   4.700   2.080   1.065 -0.4847  0.4544  0.2517
  165TMC2    H5 2580   4.682   2.119   1.153 -0.0043 -1.5707  1.2468
  166MPD2     C 2581   4.108   2.878   1.148  0.2593  0.6744 -0.8163
  166MPD2    C1 2582   4.110   2.753   1.099  0.5202 -0.0071 -0.3822
  166MPD2    C2 2583   4.230   2.679   1.095  0.4289 -0.0985 -0.7400
  166MPD2    C3 2584   4.346   2.739   1.140  0.1355  0.2578 -0.5548
  166MPD2    C4 2585   4.341   2.871   1.189  0.0222 -0.1868  0.2262
  166MPD2    C5 2586   4.222   2.934   1.191  0.0579  0.4438 -0.7304
  166MPD2     H 2587   4.228   2.578   1.054 -1.1492 -0.8293  1.1352
  166MPD2    H1 2588   4.433   2.917   1.224  1.0519  0.3937 -3.2182
  166MPD2    H2 2589   4.015   2.932   1.140  0.3844  0.7053 -1.9486
  166MPD2    H3 2590   4.212   3.037   1.224  0.9395  0.8247 -1.6542
  166MPD2     N 2591   4.470   2.668   1.134 -0.0891 -0.2783 -0.1371
  166MPD2    H5 2592   4.551   2.721   1.166  0.6357 -0.9965 -0.7938
  166MPD2    N1 2593   3.982   2.704   1.058  0.4411 -0.3898 -0.2065
  166MPD2    H7 2594   3.901   2.754   1.091  2.3460  2.4500  0.1676
  167TMC2    C1 2595   2.471   0.796  13.071  0.0904  0.3000  0.1442
  167TMC2    C2 2596   2.439   0.825  13.206  0.2295 -0.5864  0.0155
  167TMC2    C3 2597   2.342   0.737  13.254  0.4419 -0.0190  0.3393
  167TMC2    C4 2598   2.405   0.706  12.993  0.7158 -0.3691 -0.7213
  167TMC2    C5 2599   2.311   0.629  13.052 -0.4568 -0.3024  0.3115
  167TMC2    C6 2600   2.281   0.642  13.182  0.3198 -0.0514 -0.1375
  167TMC2     C 2601   2.584   0.872  13.019 -0.3021 -0.5720  0.1907
  167TMC2     O 2602   2.651   0.943  13.093  0.1651 -0.1147 -0.2356
  167TMC2     H 2603   2.508   0.885  13.263 -2.2665  3.3846 -1.1304
  167TMC2    H1 2604   2.438   0.691  12.890  0.5112 -1.4653 -0.6324
  167TMC2    H2 2605   2.199   0.592  13.232  1.1305  0.0919  1.3457
  167TMC2    C7 2606   2.230   0.531  12.987  0.8113 -0.0013  0.7753
  167TMC2    C8 2607   2.296   0.756  13.393 -0.9847  0.3023  0.3207
  167TMC2    O1 2608   2.125   0.505  13.049  0.8987 -0.1819 -0.0349
  167TMC2    O2 2609   2.221   0.680  13.454  0.1808  0.0512  0.2556
  167TMC2    O5 2610   2.309   0.892  13.412 -0.1606 -0.2543 -0.2958
  167TMC2    H5 2611   2.311   0.946  13.330 -0.0910  0.1141 -0.0491
  168MPD2     C 2612   2.812   0.980  12.860  0.1253  0.4663 -0.2505
  168MPD2    C1 2613   2.688   0.962  12.809  0.4757  0.8461 -0.0020
  168MPD2    C2 2614   2.659   0.995  12.675  0.3395 -0.3920  0.1833
  168MPD2    C3 2615   2.761   1.049  12.604 -0.3635 -0.1216  0.7034
  168MPD2    C4 2616   2.883   1.074  12.662  0.7497 -0.0739  0.7311
  168MPD2    C5 2617   2.914   1.033  12.787 -0.6002  0.5295 -0.2513
  168MPD2     H 2618   2.566   0.965  12.627  1.8603 -1.2910 -2.2196
  168MPD2    H1 2619   2.958   1.121  12.599 -0.1229 -0.0761 -0.3208
  168MPD2    H2 2620   2.838   0.940  12.958  0.6578 -2.1831 -1.4606
  168MPD2    H3 2621   3.015   1.050  12.821 -0.8377  0.8411  0.2819
  168MPD2     N 2622   2.749   1.091  12.469  0.1602 -0.5999  0.2813
  168MPD2    H5 2623   2.830   1.130  12.424 -0.0109  1.1715  1.5161
  168MPD2    N1 2624   2.588   0.887  12.879 -0.6143 -0.3538 -0.7659
  168MPD2    H7 2625   2.500   0.874  12.832 -1.5109  3.0073  0.0011
  169MPD1     C 2626   0.225   1.446   8.817  0.3485  0.0678  0.3113
  169MPD1    C1 2627   0.318   1.352   8.828 -0.1314 -0.2312  1.0067
  169MPD1    C2 2628   0.309   1.261   8.938 -0.5800 -0.8053  0.5574
  169MPD1    C3 2629   0.203   1.259   9.022 -0.3840 -0.1735  0.5471
  169MPD1    C4 2630   0.106   1.361   9.007  0.0839  0.1803  0.5324
  169MPD1    C5 2631   0.119   1.445   8.901 -0.0499  0.1969  0.5522
  169MPD1     H 2632   0.390   1.190   8.947  0.2058  0.1758  1.2941
  169MPD1    H1 2633   0.016   1.385   9.063 -0.4622 -1.3687  0.2957
  169MPD1    H2 2634   0.221   1.521   8.739 -2.0343  0.5441  0.9050
  169MPD1    H3 2635   0.036   1.515   8.894  0.0775  0.3854  0.9393
  169MPD1     N 2636   0.200   1.168   9.127 -0.0199  0.1671 -0.2832
  169MPD1    H5 2637   0.270   1.094   9.125  2.8671  2.9156 -0.2413
  169MPD1    N1 2638   0.427   1.341   8.746  0.9392  0.6584  0.5021
  169MPD1    H6 2639   0.467   1.432   8.721 -1.3224  1.4655 -0.2356
  169MPD1    H7 2640   0.508   1.281   8.757  1.0694  1.0053  1.4538
  170MPD1     C 2641   3.075   2.189  12.926  0.4020  0.5041  0.2884
  170MPD1    C1 2642   3.101   2.134  13.049 -0.1490 -0.3133  0.4093
  170MPD1    C2 2643   3.120   2.231  13.156 -0.1820  0.5162  0.2566
  170MPD1    C3 2644   3.111   2.365  13.135 -0.5641 -0.0974 -0.2795
  170MPD1    C4 2645   3.074   2.413  13.006  0.4739  0.1310 -0.0791
  170MPD1    C5 2646   3.053   2.322  12.907  0.0282 -0.1976 -0.6136
  170MPD1     H 2647   3.137   2.197  13.258 -0.2174  0.4336  0.2351
  170MPD1    H1 2648   3.064   2.516  12.975  1.6562 -0.3840 -2.2277
  170MPD1    H2 2649   3.070   2.126  12.838 -1.4114  1.0112  0.0394
  170MPD1    H3 2650   3.029   2.354  12.806 -1.2065 -1.7932 -0.8190
  170MPD1     N 2651   3.128   2.441  13.250 -0.1403  0.2314  0.9975
  170MPD1    H5 2652   3.152   2.388  13.333  0.7750 -0.4854  0.2746
  170MPD1    N1 2653   3.099   1.998  13.066 -0.1010  0.6031 -0.3160
  170MPD1    H6 2654   3.132   1.963  12.976 -0.3828 -2.9145  0.9479
  170MPD1    H7 2655   3.153   1.979  13.150 -2.0160 -1.8150  0.3691
  171MPD1     C 2656   1.815   4.234  15.379 -0.1801 -0.8048 -0.1925
  171MPD1    C1 2657   1.924   4.231  15.467 -0.3266  0.5869 -0.2955
  171MPD1    C2 2658   1.954   4.112  15.527  0.1730  0.2745 -0.6147
  171MPD1    C3 2659   1.893   3.999  15.498  0.5823  0.1367  0.4628
  171MPD1    C4 2660   1.784   4.003  15.415  0.2580  0.1105  0.0315
  171MPD1    C5 2661   1.745   4.120  15.352  0.3220 -0.5113  0.8988
  171MPD1     H 2662   2.032   4.110  15.603 -0.2708 -1.0260 -0.2052
  171MPD1    H1 2663   1.725   3.916  15.389  0.7355  0.1459 -1.1692
  171MPD1    H2 2664   1.780   4.321  15.324  1.1520 -0.2965 -0.2322
  171MPD1    H3 2665   1.650   4.122  15.299  0.7109 -0.4580  0.1923
  171MPD1     N 2666   1.930   3.884  15.566  0.0778  0.1262 -0.0114
  171MPD1    H5 2667   2.007   3.895  15.631 -0.5406 -0.3752  0.8043
  171MPD1    N1 2668   1.975   4.350  15.517  0.0425  0.0188 -0.1842
  171MPD1    H6 2669   1.975   4.410  15.435 -0.3897 -1.6398 -1.3974
  171MPD1    H7 2670   2.069   4.351  15.555  0.3282  0.5336 -0.9138
  172MPD1     C 2671   1.993   2.701   0.715 -0.2809 -0.3295 -0.0394
  172MPD1    C1 2672   1.922   2.802   0.779 -0.1466  0.2554  0.4152
  172MPD1    C2 2673   1.852   2.889   0.705 -0.5917 -0.0603  0.2205
  172MPD1    C3 2674   1.824   2.865   0.570 -0.4119  0.5098  0.0673
  172MPD1    C4 2675   1.887   2.760   0.506 -0.4179 -0.4386  0.5485
  172MPD1    C5 2676   1.972   2.682   0.582  0.5091 -0.8387  0.5388
  172MPD1     H 2677   1.807   2.977   0.750 -0.5021  0.6236 -1.0355
  172MPD1    H1 2678   1.868   2.724   0.406 -1.0512  1.9043 -0.1671
  172MPD1    H2 2679   2.062   2.638   0.770 -1.1010 -2.2262 -1.1778
  172MPD1    H3 2680   2.027   2.607   0.526  2.2760 -0.0083  1.1830
  172MPD1     N 2681   1.736   2.943   0.495  0.0661 -0.1840  0.4277
  172MPD1    H5 2682   1.726   2.915   0.398 -0.7825 -1.7803  0.9719
  172MPD1    N1 2683   1.925   2.811   0.917 -0.4032 -0.6400 -0.7163
  172MPD1    H6 2684   1.905   2.726   0.969  1.5103 -1.1486 -0.8071
  172MPD1    H7 2685   1.855   2.874   0.956 -0.0008 -1.3612  1.1862
  173MPD1     C 2686   2.067   3.654  14.164 -0.2879  0.0832  0.3168
  173MPD1    C1 2687   2.008   3.529  14.180  0.8142  0.3754 -0.2770
  173MPD1    C2 2688   2.087   3.417  14.204  1.1059  0.3325  0.6032
  173MPD1    C3 2689   2.219   3.437  14.231 -0.6886  0.0315  0.2170
  173MPD1    C4 2690   2.277   3.560  14.214 -0.7163  0.0203  0.7300
  173MPD1    C5 2691   2.198   3.670  14.179 -0.1946  0.2197  0.6239
  173MPD1     H 2692   2.048   3.316  14.206 -0.2115  0.7976 -1.4146
  173MPD1    H1 2693   2.378   3.588  14.243 -0.2681  0.8891 -1.6873
  173MPD1    H2 2694   2.003   3.741  14.155 -1.8054 -1.1520 -1.0101
  173MPD1    H3 2695   2.243   3.769  14.179  2.3323 -0.9195 -0.0810
  173MPD1     N 2696   2.299   3.329  14.279  0.5399  0.0409 -0.7908
  173MPD1    H5 2697   2.253   3.242  14.303  0.6543  0.7322  1.9508
  173MPD1    N1 2698   1.879   3.507  14.133 -0.3155  0.4273 -0.1289
  173MPD1    H6 2699   1.834   3.432  14.185 -0.5351 -1.5457 -3.1418
  173MPD1    H7 2700   1.826   3.594  14.130 -0.3327  0.4864  2.0270
  174MPD1     C 2701   2.634   2.677  13.758  0.0141 -0.0389  0.0785
  174MPD1    C1 2702   2.627   2.609  13.879  0.4291  0.2756  0.3397
  174MPD1    C2 2703   2.609   2.682  13.997 -0.5235  0.4402  0.5493
  174MPD1    C3 2704   2.604   2.822  13.988 -0.6499 -0.0186 -0.0010
  174MPD1    C4 2705   2.608   2.889  13.870  0.0788  0.2739  0.2689
  174MPD1    C5 2706   2.623   2.813  13.761 -0.1584  0.7511  0.6094
  174MPD1     H 2707   2.594   2.635  14.094  0.1796  0.4783  0.6761
  174MPD1    H1 2708   2.611   2.997  13.857 -1.6281  0.5508  2.1801
  174MPD1    H2 2709   2.630   2.633  13.659 -0.8932 -1.2474  0.6436
  174MPD1    H3 2710   2.641   2.867  13.669  1.4257 -0.7664  0.0409
  174MPD1     N 2711   2.578   2.901  14.099  0.6883  0.5174 -0.4704
  174MPD1    H5 2712   2.557   2.998  14.079 -0.1484 -0.0904 -2.5831
  174MPD1    N1 2713   2.602   2.474  13.880 -0.0058 -0.4675  0.3280
  174MPD1    H6 2714   2.632   2.438  13.970 -1.3576 -1.2230  0.4869
  174MPD1    H7 2715   2.662   2.428  13.812 -0.7914  0.9794 -1.3462
  175MPD1     C 2716   1.366   4.236  15.358 -0.7018  0.2149 -0.5809
  175MPD1    C1 2717   1.280   4.319  15.426 -0.2625 -0.1890 -0.6185
  175MPD1    C2 2718   1.154   4.267  15.463  0.6692 -0.0855  0.1492
  175MPD1    C3 2719   1.117   4.141  15.436 -0.6798 -0.7770  0.6925
  175MPD1    C4 2720   1.199   4.069  15.348 -0.6593  0.2603  0.0851
  175MPD1    C5 2721   1.321   4.121  15.302 -0.2352  0.2190  0.6652
  175MPD1     H 2722   1.103   4.325  15.540  1.4696  2.4121 -1.1936
  175MPD1    H1 2723   1.188   3.970  15.306 -0.6332  0.2673  0.0614
  175MPD1    H2 2724   1.465   4.267  15.327 -0.8533  0.3011 -0.9812
  175MPD1    H3 2725   1.381   4.064  15.233  2.0313  0.7692  2.1611
  175MPD1     N 2726   0.996   4.078  15.486 -0.0788  0.4720 -0.3664
  175MPD1    H5 2727   0.969   3.987  15.449 -0.8554 -0.3265  2.2138
  175MPD1    N1 2728   1.339   4.425  15.494 -0.4977 -0.3389  0.3407
  175MPD1    H6 2729   1.412   4.469  15.438 -1.6052 -3.4847 -3.5231
  175MPD1    H7 2730   1.266   4.490  15.521 -2.2051 -1.6859 -1.0529
  176MPD1     C 2731   2.815   0.662  16.806  0.3452 -0.6188 -0.5828
  176MPD1    C1 2732   2.702   0.720  16.861 -0.1570 -0.3657 -0.3664
  176MPD1    C2 2733   2.709   0.802  16.974  0.1247 -0.0883 -0.4228
  176MPD1    C3 2734   2.834   0.826  17.027 -0.7092  0.7602  0.4859
  176MPD1    C4 2735   2.951   0.779  16.972 -0.1494 -0.1425 -0.2674
  176MPD1    C5 2736   2.935   0.683  16.870 -0.2627  0.6001 -0.2758
  176MPD1     H 2737   2.615   0.830  17.019  0.1881  0.1252 -0.4245
  176MPD1    H1 2738   3.050   0.797  17.011  0.1341 -0.8635 -0.6565
  176MPD1    H2 2739   2.809   0.586  16.729 -0.4865  0.5664 -1.6807
  176MPD1    H3 2740   3.023   0.630  16.836 -2.4326 -2.8084 -0.4717
  176MPD1     N 2741   2.840   0.912  17.144 -0.1044  0.0448  0.4148
  176MPD1    H5 2742   2.752   0.956  17.172  0.6563  2.2243 -0.6391
  176MPD1    N1 2743   2.576   0.685  16.819 -0.1598 -0.3634 -0.9007
  176MPD1    H6 2744   2.512   0.762  16.835  1.1549  0.4789  0.3022
  176MPD1    H7 2745   2.580   0.668  16.719 -0.9802  3.7296 -1.6066
  177MPD1     C 2746   0.890   0.492  10.655  0.7728 -0.2532 -0.3087
  177MPD1    C1 2747   0.767   0.482  10.598  0.0098  0.3122 -0.5532
  177MPD1    C2 2748   0.752   0.483  10.459 -0.5800 -0.1335  0.0122
  177MPD1    C3 2749   0.856   0.505  10.373 -0.6311  0.1797 -0.6573
  177MPD1    C4 2750   0.974   0.527  10.434 -0.5903 -0.1967 -0.6011
  177MPD1    C5 2751   0.990   0.523  10.571  0.1279 -0.0037 -0.4892
  177MPD1     H 2752   0.653   0.460  10.422 -0.5198 -0.3374 -0.0233
  177MPD1    H1 2753   1.065   0.560  10.384 -0.2188 -0.6288 -0.2151
  177MPD1    H2 2754   0.906   0.486  10.762  1.1099  0.0934 -0.3395
  177MPD1    H3 2755   1.090   0.543  10.608 -0.6051  2.5711  0.1193
  177MPD1     N 2756   0.843   0.489  10.234 -0.1384  0.2308  0.2988
  177MPD1    H5 2757   0.753   0.455  10.202 -0.8450  0.0086  2.5754
  177MPD1    N1 2758   0.658   0.447  10.679  0.0096 -0.5504  0.5450
  177MPD1    H6 2759   0.574   0.490  10.643  0.1013 -1.2916 -0.5518
  177MPD1    H7 2760   0.677   0.486  10.771 -0.1848  0.1810  0.2695
  178MPD1     C 2761   4.318   2.202  17.188  0.2982  0.1686 -0.9842
  178MPD1    C1 2762   4.198   2.255  17.208 -0.5613 -0.7281 -0.4348
  178MPD1    C2 2763   4.113   2.166  17.280  0.5718  0.4503  0.8825
  178MPD1    C3 2764   4.161   2.044  17.339 -0.1901  0.1858 -0.4678
  178MPD1    C4 2765   4.290   2.010  17.315 -0.4947 -1.0874 -0.8215
  178MPD1    C5 2766   4.373   2.089  17.240  0.3328  0.1005 -1.2571
  178MPD1     H 2767   4.015   2.198  17.315  0.0882 -0.6374  0.5156
  178MPD1    H1 2768   4.324   1.927  17.374  0.3077 -0.8683 -0.9767
  178MPD1    H2 2769   4.390   2.258  17.128  2.2507  0.0632  1.2743
  178MPD1    H3 2770   4.480   2.075  17.245  0.5988  2.1718 -1.3963
  178MPD1     N 2771   4.084   1.954  17.415 -0.0575 -0.3105 -0.0929
  178MPD1    H5 2772   4.128   1.868  17.444 -1.3731 -0.8267  0.3501
  178MPD1    N1 2773   4.147   2.357  17.124 -0.1610 -0.0021  0.1677
  178MPD1    H6 2774   4.222   2.424  17.113  0.0620  0.0707  2.2945
  178MPD1    H7 2775   4.066   2.405  17.162 -0.1644 -0.3952  0.6577
  179MPD1     C 2776   3.026   0.384  15.458  0.4351  1.1588 -0.8269
  179MPD1    C1 2777   3.105   0.341  15.561  0.2763  0.0194 -0.7578
  179MPD1    C2 2778   3.080   0.218  15.613  0.0790  0.3113 -0.2964
  179MPD1    C3 2779   2.964   0.145  15.583 -0.2172 -0.4528 -0.2725
  179MPD1    C4 2780   2.883   0.196  15.482 -0.2652 -0.1834  0.6459
  179MPD1    C5 2781   2.916   0.312  15.424  0.4647  0.8768 -0.1813
  179MPD1     H 2782   3.146   0.179  15.690 -0.2089 -1.1847 -0.7973
  179MPD1    H1 2783   2.794   0.143  15.450  0.7373 -1.3401 -0.2108
  179MPD1    H2 2784   3.056   0.476  15.410  0.9851  1.1995 -0.4048
  179MPD1    H3 2785   2.855   0.351  15.344  0.1279  1.2495  0.2505
  179MPD1     N 2786   2.918   0.032  15.654  0.5104 -0.2965 -0.4807
  179MPD1    H5 2787   2.834   4.727  15.618 -0.4657  0.6872  0.5851
  179MPD1    N1 2788   3.232   0.393  15.568 -0.3089  0.5914  0.6813
  179MPD1    H6 2789   3.236   0.485  15.525  1.1153  0.9069  1.5036
  179MPD1    H7 2790   3.280   0.384  15.657 -0.2856 -0.9613  0.5078
  180MPD1     C 2791   3.218   1.461  15.524  0.0103  0.0459 -0.5051
  180MPD1    C1 2792   3.293   1.462  15.413 -0.4449 -0.7723 -0.6824
  180MPD1    C2 2793   3.220   1.474  15.296  0.5408  0.3305 -0.2889
  180MPD1    C3 2794   3.085   1.482  15.279  0.4211 -0.2724  0.4298
  180MPD1    C4 2795   3.015   1.484  15.398  0.0849 -0.1365  0.0697
  180MPD1    C5 2796   3.079   1.474  15.521 -0.2417  0.2085 -0.1907
  180MPD1     H 2797   3.278   1.453  15.206 -0.5544 -1.7314 -0.5158
  180MPD1    H1 2798   2.910   1.505  15.410  0.0449  0.2000 -0.8208
  180MPD1    H2 2799   3.258   1.448  15.624 -0.5925 -1.4801 -0.4570
  180MPD1    H3 2800   3.023   1.480  15.613 -0.8870 -1.3409 -0.4780
  180MPD1     N 2801   3.027   1.488  15.146 -0.2410 -0.4201  0.0577
  180MPD1    H5 2802   3.087   1.483  15.063  0.3146  0.8388  0.3884
  180MPD1    N1 2803   3.430   1.424  15.415  0.4310 -0.2720  0.5505
  180MPD1    H6 2804   3.481   1.443  15.329 -0.1571 -1.5682 -0.0824
  180MPD1    H7 2805   3.484   1.473  15.485 -1.4712  0.2497  1.6606
  181MPD1     C 2806   4.173   4.374   9.140 -0.4132  0.4944  0.2213
  181MPD1    C1 2807   4.260   4.454   9.209  0.4792  0.4923 -0.3028
  181MPD1    C2 2808   4.350   4.407   9.303  0.1079  0.4297  0.2053
  181MPD1    C3 2809   4.326   4.277   9.349 -0.5695 -0.1924 -0.2955
  181MPD1    C4 2810   4.227   4.200   9.292 -0.9532 -0.0009 -0.1438
  181MPD1    C5 2811   4.153   4.244   9.185  0.8394 -0.1416  0.6175
  181MPD1     H 2812   4.428   4.467   9.347 -0.7899  4.3271 -3.6028
  181MPD1    H1 2813   4.220   4.096   9.322 -1.0519 -0.1722 -0.7732
  181MPD1    H2 2814   4.111   4.411   9.059 -0.2739 -1.0518 -0.6002
  181MPD1    H3 2815   4.083   4.177   9.137  0.4716 -0.8209  2.1070
  181MPD1     N 2816   4.402   4.212   9.445  0.2436 -0.4268 -0.2925
  181MPD1    H5 2817   4.371   4.122   9.479 -0.5732 -0.9723 -2.4636
  181MPD1    N1 2818   4.274   4.585   9.171  0.3429  0.1115  0.3857
  181MPD1    H6 2819   4.185   4.626   9.146  1.4892  2.2832 -0.1493
  181MPD1    H7 2820   4.314   4.638   9.249  0.2501  1.9252 -0.7909
  182MPD1     C 2821   0.311   1.640   1.239  0.2935  0.1924 -0.2330
  182MPD1    C1 2822   0.398   1.646   1.140 -0.2418 -0.3792  0.7751
  182MPD1    C2 2823   0.367   1.716   1.017  0.0724  0.4738  0.1275
  182MPD1    C3 2824   0.231   1.755   0.998  0.4445 -0.0414  0.6100
  182MPD1    C4 2825   0.136   1.730   1.098 -0.0272  0.0778 -0.0415
  182MPD1    C5 2826   0.175   1.675   1.217 -0.0251 -0.5768 -0.3797
  182MPD1     H 2827   0.448   1.745   0.951  0.6279 -0.7981  0.2613
  182MPD1    H1 2828   0.034   1.759   1.078  0.4715  1.6957 -0.1927
  182MPD1    H2 2829   0.344   1.606   1.336  2.0662  1.9745 -0.2132
  182MPD1    H3 2830   0.104   1.661   1.298 -0.2074  0.6949 -0.3289
  182MPD1     N 2831   0.182   1.794   0.867 -0.2082  0.1679  0.2111
  182MPD1    H5 2832   0.082   1.784   0.856 -0.4297  0.2908  2.2263
  182MPD1    N1 2833   0.534   1.613   1.167 -0.4963 -0.1405  0.1303
  182MPD1    H6 2834   0.544   1.561   1.254  4.3744  0.6406  0.0473
  182MPD1    H7 2835   0.580   1.565   1.090 -1.5929 -1.5907  0.3865
  183MPD1     C 2836   0.524   3.382   9.982  0.0211 -0.2859  0.5278
  183MPD1    C1 2837   0.556   3.503   9.928 -0.5346 -0.0883  0.1366
  183MPD1    C2 2838   0.692   3.532   9.908  0.0266 -0.3147  0.3309
  183MPD1    C3 2839   0.793   3.435   9.932  0.1852 -0.1059  0.0535
  183MPD1    C4 2840   0.758   3.312   9.970 -0.4299  0.0005 -0.5418
  183MPD1    C5 2841   0.626   3.292   9.998 -0.1462 -0.7644  0.8277
  183MPD1     H 2842   0.724   3.633   9.887  0.7873 -0.9848 -1.6421
  183MPD1    H1 2843   0.817   3.221   9.966  1.9696  1.4448  1.4144
  183MPD1    H2 2844   0.420   3.362  10.003 -0.0810 -0.0318  0.2667
  183MPD1    H3 2845   0.593   3.192  10.023  2.3381 -1.5579  0.8600
  183MPD1     N 2846   0.933   3.459   9.919  0.5371  0.0918  0.4921
  183MPD1    H5 2847   0.960   3.551   9.887  1.5625 -0.7939 -1.1453
  183MPD1    N1 2848   0.465   3.607   9.931 -0.0656  0.2232 -0.7820
  183MPD1    H6 2849   0.368   3.580   9.914 -0.7374  1.0211  1.7522
  183MPD1    H7 2850   0.486   3.689   9.874  0.5195 -0.2557 -1.2552
  184MPD1     C 2851   4.083   0.902   9.773 -0.5429  0.3311  0.3799
  184MPD1    C1 2852   4.084   1.035   9.786 -0.1363 -0.0874 -0.6483
  184MPD1    C2 2853   4.194   1.111   9.745  0.8741  0.2325 -0.9633
  184MPD1    C3 2854   4.286   1.050   9.673 -0.0204 -0.7501  0.1472
  184MPD1    C4 2855   4.284   0.918   9.653  0.5897  0.1020 -0.4923
  184MPD1    C5 2856   4.183   0.848   9.696 -0.2958  0.2452  0.0700
  184MPD1     H 2857   4.191   1.218   9.765 -0.8385  0.0486 -0.2585
  184MPD1    H1 2858   4.368   0.871   9.605  2.1224  1.3785  0.9520
  184MPD1    H2 2859   4.007   0.836   9.815 -0.0367 -0.5037 -0.0087
  184MPD1    H3 2860   4.174   0.740   9.689  0.9128  0.4306 -4.4922
  184MPD1     N 2861   4.399   1.118   9.625  0.2127 -1.1896  0.3257
  184MPD1    H5 2862   4.482   1.075   9.586 -0.2095 -1.2151 -0.5476
  184MPD1    N1 2863   3.985   1.090   9.862 -0.3584  0.2602  0.2260
  184MPD1    H6 2864   3.985   1.192   9.861  1.5693  0.2858  2.6806
  184MPD1    H7 2865   3.893   1.048   9.849  0.9263 -3.6121  3.8021
  185MPD1     C 2866   4.557   1.777   8.917  0.2237 -0.1084 -0.7315
  185MPD1    C1 2867   4.680   1.778   8.981  0.1616  0.1107  0.0555
  185MPD1    C2 2868   4.695   1.692   9.090  0.4672 -0.5381 -0.1126
  185MPD1    C3 2869   4.600   1.597   9.124 -0.1060  0.0345  0.1113
  185MPD1    C4 2870   4.489   1.578   9.041 -1.0864 -0.1011 -0.0196
  185MPD1    C5 2871   4.465   1.680   8.951  0.0526 -0.5618 -0.6896
  185MPD1     H 2872   0.044   1.702   9.154  0.4737  0.2764 -0.2480
  185MPD1    H1 2873   4.412   1.503   9.052  0.1394 -1.5686 -1.4399
  185MPD1    H2 2874   4.536   1.830   8.825 -1.2614  0.4612 -0.0600
  185MPD1    H3 2875   4.372   1.688   8.896 -1.6848 -0.5695  2.2984
  185MPD1     N 2876   4.607   1.512   9.238  0.4199 -0.2942  0.0636
  185MPD1    H5 2877   4.530   1.449   9.256  0.3174  0.1971  1.3454
  185MPD1    N1 2878   0.032   1.884   8.952 -0.0707 -0.1213 -0.0370
  185MPD1    H6 2879   0.021   1.905   8.853  0.5420 -0.6438 -0.2169
  185MPD1    H7 2880   0.129   1.856   8.966 -0.4819 -0.6824  1.7095
  186MPD1     C 2881   3.190   1.384  16.407  0.5974 -0.3938 -1.1490
  186MPD1    C1 2882   3.119   1.272  16.364  1.2730 -0.2741  0.3749
  186MPD1    C2 2883   3.151   1.149  16.413 -0.6305  0.1339  0.2316
  186MPD1    C3 2884   3.260   1.132  16.497  0.1051 -0.4401 -0.4318
  186MPD1    C4 2885   3.328   1.246  16.550  0.1953 -0.1783 -0.0097
  186MPD1    C5 2886   3.289   1.370  16.500  0.4814  0.1462  0.1798
  186MPD1     H 2887   3.083   1.071  16.382  0.0183  0.2322 -1.4673
  186MPD1    H1 2888   3.414   1.237  16.614 -0.7501  1.7457  1.5486
  186MPD1    H2 2889   3.166   1.483  16.372 -0.4472 -0.7839 -1.5257
  186MPD1    H3 2890   3.352   1.453  16.529  1.7262 -0.1025 -1.8353
  186MPD1     N 2891   3.313   1.002  16.522  0.0303  0.0383  0.1631
  186MPD1    H5 2892   3.402   0.997  16.572 -0.5538  0.5117  1.2434
  186MPD1    N1 2893   3.001   1.293  16.300  0.5163 -0.2272 -0.0991
  186MPD1    H6 2894   2.981   1.217  16.235 -0.6617  1.4347 -1.6895
  186MPD1    H7 2895   3.007   1.372  16.236 -0.8611  0.4911  0.6664
  187MPD1     C 2896   3.130   1.826   0.177 -0.0494 -0.3886  0.0138
  187MPD1    C1 2897   2.999   1.801   0.173  0.2387  0.1420  0.9659
  187MPD1    C2 2898   2.926   1.843   0.067  0.0089  0.1467  0.4680
  187MPD1    C3 2899   2.986   1.929  17.724 -0.2418  0.2849 -0.2125
  187MPD1    C4 2900   3.118   1.959  17.745 -0.2052  0.0427 -0.4429
  187MPD1    C5 2901   3.190   1.905   0.088 -0.0562  0.0355  0.1674
  187MPD1     H 2902   2.818   1.832   0.061  0.0210  0.9665 -1.2391
  187MPD1    H1 2903   3.160   2.038  17.684 -1.8783  1.5309  0.3081
  187MPD1    H2 2904   3.197   1.772   0.243  1.4573  0.5280 -0.7730
  187MPD1    H3 2905   3.298   1.911   0.079 -0.0171 -0.6166  0.2068
  187MPD1     N 2906   2.918   2.010  17.632 -0.1924  0.3892 -0.5945
  187MPD1    H5 2907   2.976   2.054  17.562  0.6951 -0.8188 -0.6187
  187MPD1    N1 2908   2.945   1.701   0.260  0.2325 -0.5404 -0.9584
  187MPD1    H6 2909   2.987   1.688   0.352 -2.7588  0.3761  0.5369
  187MPD1    H7 2910   2.844   1.716   0.265  0.6975  1.5753  1.9890
  188MPD1     C 2911   2.219   2.287  10.636 -0.0103  0.4673 -0.4784
  188MPD1    C1 2912   2.266   2.176  10.715 -0.0166  0.0388 -0.1453
  188MPD1    C2 2913   2.224   2.049  10.689 -0.0478 -0.3446  0.2655
  188MPD1    C3 2914   2.171   2.013  10.567 -0.3934 -0.8483  0.0889
  188MPD1    C4 2915   2.137   2.123  10.482 -0.2505  0.3045 -0.6486
  188MPD1    C5 2916   2.163   2.257  10.514 -0.3346  0.1399  0.2263
  188MPD1     H 2917   2.236   1.974  10.767  4.2161 -0.0374 -0.0964
  188MPD1    H1 2918   2.118   2.107  10.377 -1.1272  0.6331 -0.5378
  188MPD1    H2 2919   2.246   2.391  10.651 -0.6261  0.4790  0.5830
  188MPD1    H3 2920   2.128   2.335  10.448 -2.3060 -0.4931  0.5112
  188MPD1     N 2921   2.151   1.883  10.522 -0.2979 -0.2173 -0.1769
  188MPD1    H5 2922   2.112   1.876  10.428 -0.6320 -0.5829 -0.0120
  188MPD1    N1 2923   2.313   2.211  10.847  0.1840  0.1884  0.0168
  188MPD1    H6 2924   2.375   2.291  10.833  1.1675 -0.9468 -2.2229
  188MPD1    H7 2925   2.375   2.135  10.874 -1.0765 -0.3361  1.4160
  189MPD1     C 2926   4.477   2.995   0.543  0.1446 -0.1228  0.1289
  189MPD1    C1 2927   4.364   2.920   0.511 -0.2100  0.5550 -0.8781
  189MPD1    C2 2928   4.262   2.990   0.445  0.6353  0.4392 -0.5749
  189MPD1    C3 2929   4.260   3.131   0.432  0.1906  0.2188  0.3434
  189MPD1    C4 2930   4.367   3.197   0.479  0.4755 -0.0679  0.5794
  189MPD1    C5 2931   4.471   3.130   0.539 -0.0366  0.3317 -0.2168
  189MPD1     H 2932   4.177   2.933   0.409  1.6776 -1.0624 -0.6542
  189MPD1    H1 2933   4.361   3.305   0.482  1.2773 -0.0454  1.2066
  189MPD1    H2 2934   4.561   2.947   0.592  2.8114 -0.2531 -4.6126
  189MPD1    H3 2935   4.550   3.197   0.572  3.0802 -3.8470  0.8376
  189MPD1     N 2936   4.137   3.189   0.381 -0.2038  0.0989 -1.0396
  189MPD1    H5 2937   4.063   3.130   0.346 -0.5441  0.4508 -0.9204
  189MPD1    N1 2938   4.377   2.780   0.495 -0.5832 -0.1506 -0.1264
  189MPD1    H6 2939   4.286   2.734   0.493 -1.9701  2.5446  0.8382
  189MPD1    H7 2940   4.423   2.740   0.577 -2.5891  1.7299  1.9339
  190MPD1     C 2941   3.205   2.336  15.657 -0.4969 -0.6986  0.2477
  190MPD1    C1 2942   3.246   2.220  15.590 -0.1855  0.2102  0.2675
  190MPD1    C2 2943   3.329   2.133  15.653 -0.2627  0.4000  0.2936
  190MPD1    C3 2944   3.394   2.158  15.775 -1.0581 -0.3217  1.0054
  190MPD1    C4 2945   3.369   2.280  15.828  0.0596  0.9509  0.0907
  190MPD1    C5 2946   3.268   2.358  15.776 -0.4019 -0.3690 -0.9480
  190MPD1     H 2947   3.357   2.042  15.601 -2.3846 -0.4416  0.5837
  190MPD1    H1 2948   3.406   2.314  15.924 -1.2854  0.2580  0.8508
  190MPD1    H2 2949   3.128   2.405  15.627 -0.8563 -0.8274  0.8639
  190MPD1    H3 2950   3.252   2.445  15.839  1.1953 -0.4281 -0.4674
  190MPD1     N 2951   3.490   2.071  15.829  0.0443 -0.0217 -0.2875
  190MPD1    H5 2952   3.485   1.975  15.795 -0.2140  0.7257 -2.3680
  190MPD1    N1 2953   3.180   2.194  15.470  0.8346  0.1441 -0.1964
  190MPD1    H6 2954   3.141   2.267  15.412  0.4877 -0.8327 -1.2014
  190MPD1    H7 2955   3.230   2.130  15.408  1.0819 -0.6265  0.7859
  191MPD1     C 2956   2.057   2.932  13.182  0.3709  0.8967 -0.5859
  191MPD1    C1 2957   2.165   2.961  13.097  0.5192  0.7512  0.1983
  191MPD1    C2 2958   2.145   3.056  13.000 -0.4050 -0.5878 -0.2793
  191MPD1    C3 2959   2.022   3.111  12.974 -0.0378 -0.0152 -0.3074
  191MPD1    C4 2960   1.920   3.083  13.068  0.0494  0.5488  0.2077
  191MPD1    C5 2961   1.935   2.997  13.170  0.1034  0.4527 -0.4875
  191MPD1     H 2962   2.225   3.074  12.929 -0.4657  0.2935 -0.1326
  191MPD1    H1 2963   1.824   3.125  13.040 -0.4841 -0.7316  0.1055
  191MPD1    H2 2964   2.060   2.847  13.249 -3.2695 -0.8586 -2.6675
  191MPD1    H3 2965   1.857   2.972  13.242 -1.8880  0.5882 -2.6001
  191MPD1     N 2966   2.003   3.187  12.853 -0.0744  0.1007 -0.3603
  191MPD1    H5 2967   2.083   3.196  12.792  1.4976 -1.7075  1.4309
  191MPD1    N1 2968   2.275   2.880  13.097  0.1306 -0.9358  0.5001
  191MPD1    H6 2969   2.365   2.924  13.085 -0.8336  0.4461 -1.5669
  191MPD1    H7 2970   2.280   2.838  13.190 -3.5091  0.0826  1.1635
  192MPD1     C 2971   1.582   2.917  12.003  0.4254  0.0119  0.2210
  192MPD1    C1 2972   1.662   3.028  11.965 -0.8904 -0.1989 -0.0100
  192MPD1    C2 2973   1.708   3.107  12.067  0.6746 -0.3588  0.1042
  192MPD1    C3 2974   1.683   3.082  12.200 -0.2798 -0.2305 -0.0932
  192MPD1    C4 2975   1.594   2.987  12.233  0.4215  0.6911  0.2614
  192MPD1    C5 2976   1.545   2.895  12.133 -0.2192 -0.1556  0.0606
  192MPD1     H 2977   1.778   3.187  12.048  3.2368 -2.9213 -1.1339
  192MPD1    H1 2978   1.565   2.969  12.336  3.6217 -0.3589  0.9869
  192MPD1    H2 2979   1.551   2.851  11.923  2.1729  2.8270 -2.8356
  192MPD1    H3 2980   1.492   2.807  12.167  0.0468  0.1825  1.3379
  192MPD1     N 2981   1.749   3.151  12.311 -0.3675  0.7533  0.5506
  192MPD1    H5 2982   1.732   3.103  12.398 -1.8872  1.0651  0.4368
  192MPD1    N1 2983   1.713   3.048  11.832  0.7003 -0.5210  0.7270
  192MPD1    H6 2984   1.650   3.001  11.767 -1.1043  2.0843  0.6100
  192MPD1    H7 2985   1.716   3.149  11.823  0.1754 -0.8524 -3.0628
  193MPD1     C 2986   1.625   3.550  16.036 -0.4004 -0.8204  0.1658
  193MPD1    C1 2987   1.609   3.681  16.059  0.2514  0.1421 -0.4106
  193MPD1    C2 2988   1.702   3.750  16.137 -0.1841 -0.3318  0.1128
  193MPD1    C3 2989   1.790   3.684  16.215  0.4595 -0.0318  0.1632
  193MPD1    C4 2990   1.792   3.547  16.205  0.3740 -0.5285 -0.2569
  193MPD1    C5 2991   1.714   3.478  16.113  0.3584  0.2849 -0.3765
  193MPD1     H 2992   1.701   3.859  16.141  0.9234 -0.3598  0.9249
  193MPD1    H1 2993   1.868   3.480  16.244  2.2856  1.4197 -0.6139
  193MPD1    H2 2994   1.571   3.497  15.958 -0.1968 -1.7277  0.6345
  193MPD1    H3 2995   1.723   3.371  16.098  1.5178  0.6440 -2.3482
  193MPD1     N 2996   1.884   3.745  16.300 -0.0420  0.6016 -0.4410
  193MPD1    H5 2997   1.948   3.684  16.352 -0.5834  0.4227  0.0161
  193MPD1    N1 2998   1.522   3.755  15.975 -0.1763  0.2110 -0.5689
  193MPD1    H6 2999   1.492   3.843  16.017  0.7421 -0.5609  1.7261
  193MPD1    H7 3000   1.434   3.704  15.965 -0.3116  0.3565 -0.1236
  194MPD1     C 3001   0.653   1.103  16.091  0.3349 -0.2791  0.6182
  194MPD1    C1 3002   0.707   1.145  16.203 -0.0044 -0.2072  0.5796
  194MPD1    C2 3003   0.723   1.056  16.310 -0.0987 -0.2815 -0.0690
  194MPD1    C3 3004   0.669   0.924  16.299  0.1159  0.1937  0.7513
  194MPD1    C4 3005   0.617   0.880  16.177 -0.0478  0.2081  0.4560
  194MPD1    C5 3006   0.608   0.973  16.077  0.4786  0.3430 -0.2298
  194MPD1     H 3007   0.775   1.073  16.403 -0.1422 -0.7606  0.0422
  194MPD1    H1 3008   0.569   0.783  16.170  1.3600 -0.4498 -0.2370
  194MPD1    H2 3009   0.639   1.171  16.008  2.0421  0.6088  1.0485
  194MPD1    H3 3010   0.563   0.944  15.983  0.4519 -2.3333  0.6009
  194MPD1     N 3011   0.681   0.832  16.406  0.0810  0.4418  0.1021
  194MPD1    H5 3012   0.639   0.741  16.387  0.2364  0.3087  0.4025
  194MPD1    N1 3013   0.773   1.274  16.199 -0.2548 -0.3366  0.2757
  194MPD1    H6 3014   0.713   1.338  16.149  1.1809  1.0783  0.3698
  194MPD1    H7 3015   0.771   1.314  16.293  0.6943 -1.2031  0.6714
  195MPD1     C 3016   2.960   2.316   0.116 -0.1259 -0.5409  0.1113
  195MPD1    C1 3017   2.834   2.362   0.096 -0.0606  0.1155 -0.2394
  195MPD1    C2 3018   2.732   2.291   0.151  0.0735 -0.4309 -0.1201
  195MPD1    C3 3019   2.754   2.166   0.224 -0.3268  0.1417 -1.0327
  195MPD1    C4 3020   2.884   2.118   0.244 -1.0122 -0.5074  0.0643
  195MPD1    C5 3021   2.983   2.204   0.190 -0.2810 -0.0548 -0.1796
  195MPD1     H 3022   2.629   2.326   0.149 -0.8843 -3.1458  0.7325
  195MPD1    H1 3023   2.905   2.017   0.278 -1.7120 -0.2840  1.1416
  195MPD1    H2 3024   3.045   2.370   0.077 -0.7829 -0.4648 -1.2100
  195MPD1    H3 3025   3.084   2.166   0.207 -0.7502 -0.6750  1.2000
  195MPD1     N 3026   2.650   2.080   0.260  0.8245 -0.1551 -0.1052
  195MPD1    H5 3027   2.675   1.989   0.298  1.2619 -0.0498 -0.1381
  195MPD1    N1 3028   2.820   2.472   0.020  0.0483 -0.0619 -0.3424
  195MPD1    H6 3029   2.914   2.510   0.010  0.2814 -0.9137 -1.4001
  195MPD1    H7 3030   2.755   2.532   0.070  0.5386 -0.1019  0.3371
  196MPD1     C 3031   1.469   2.704   0.067  0.4099  0.0053 -0.0145
  196MPD1    C1 3032   1.367   2.609   0.043  0.2484 -0.3518  0.7087
  196MPD1    C2 3033   1.351   2.511   0.140  0.0956  0.0442  0.9373
  196MPD1    C3 3034   1.426   2.516   0.255  0.4193 -0.1864  0.4468
  196MPD1    C4 3035   1.524   2.613   0.278  0.0942 -0.0724 -0.2430
  196MPD1    C5 3036   1.546   2.710   0.182 -0.6314  0.6676  0.2204
  196MPD1     H 3037   1.284   2.429   0.118 -0.3849  1.0946 -1.5090
  196MPD1    H1 3038   1.583   2.609   0.369  2.4637  0.3143 -1.7625
  196MPD1    H2 3039   1.498   2.779  17.747  0.7714  0.5285  0.6610
  196MPD1    H3 3040   1.622   2.786   0.201 -0.2736 -0.0760  1.7587
  196MPD1     N 3041   1.399   2.441   0.377 -0.3594 -0.2232 -0.0615
  196MPD1    H5 3042   1.456   2.454   0.460 -1.2958  0.9031  0.4117
  196MPD1    N1 3043   1.287   2.610  17.679  0.4377 -0.1564 -0.3649
  196MPD1    H6 3044   1.203   2.553  17.686  0.1683  0.5041  1.7744
  196MPD1    H7 3045   1.263   2.701  17.641  1.4789  0.9854  1.7193
  197MPD1     C 3046   0.948   3.330  17.382 -0.4449  0.1294 -0.5085
  197MPD1    C1 3047   0.992   3.434  17.456  0.4645  0.1084 -0.3526
  197MPD1    C2 3048   0.967   3.560  17.406 -0.3248  0.4433  0.3006
  197MPD1    C3 3049   0.913   3.580  17.282 -0.6714  0.6102  0.7369
  197MPD1    C4 3050   0.861   3.469  17.209 -0.1209 -0.1014 -1.0581
  197MPD1    C5 3051   0.883   3.349  17.265  0.0941  0.1578 -0.2942
  197MPD1     H 3052   1.004   3.650  17.455  1.0884 -0.8475  1.6019
  197MPD1    H1 3053   0.820   3.472  17.109 -0.6705  0.5069 -0.8174
  197MPD1    H2 3054   0.964   3.230  17.421  1.2661  0.9874  0.9929
  197MPD1    H3 3055   0.839   3.263  17.215  0.7667 -0.0258 -0.5717
  197MPD1     N 3056   0.886   3.708  17.223  0.0643  0.5813  0.1317
  197MPD1    H5 3057   0.830   3.704  17.139 -0.8028  0.2364  0.7299
  197MPD1    N1 3058   1.050   3.417  17.577  0.2861  0.0312 -0.9723
  197MPD1    H6 3059   1.117   3.489  17.606  0.9824 -1.1565  0.3617
  197MPD1    H7 3060   1.091   3.324  17.584  1.5683  0.5785 -1.0873
  198MPD1     C 3061   2.277   2.462  15.851  0.0540  0.0040  0.2512
  198MPD1    C1 3062   2.314   2.593  15.829  0.2055 -1.1223  0.2104
  198MPD1    C2 3063   2.427   2.642  15.893 -0.4206 -0.1388  0.0619
  198MPD1    C3 3064   2.495   2.560  15.987 -0.5641  0.4584  0.4349
  198MPD1    C4 3065   2.442   2.438  16.025 -0.6520 -0.0320 -0.1331
  198MPD1    C5 3066   2.340   2.390  15.948 -0.4109  0.0028 -0.4482
  198MPD1     H 3067   2.471   2.733  15.854  1.0569 -0.4740  0.9519
  198MPD1    H1 3068   2.480   2.378  16.106  0.4029  0.8755  0.0560
  198MPD1    H2 3069   2.196   2.416  15.796  1.1213 -1.4686 -0.0983
  198MPD1    H3 3070   2.308   2.287  15.964  2.6405 -0.4771  2.4125
  198MPD1     N 3071   2.617   2.611  16.030 -0.3706  1.0768 -0.1480
  198MPD1    H5 3072   2.672   2.671  15.969 -1.1451  0.3806 -1.5348
  198MPD1    N1 3073   2.271   2.666  15.719  0.1306 -1.2192  0.3017
  198MPD1    H6 3074   2.173   2.644  15.702 -0.1516 -1.4108  2.1773
  198MPD1    H7 3075   2.285   2.766  15.733 -2.9145 -1.0034  1.7435
  199MPD1     C 3076   0.159   4.085   9.967 -0.5500  0.2821 -0.6879
  199MPD1    C1 3077   0.048   4.133  10.033  0.0376 -0.3746  0.0322
  199MPD1    C2 3078   4.721   4.240   9.989  0.1251  0.5204 -0.0613
  199MPD1    C3 3079   0.042   4.317   9.889 -0.3831 -0.1279 -0.4774
  199MPD1    C4 3080   0.161   4.280   9.836 -0.1090  0.1726 -0.3667
  199MPD1    C5 3081   0.219   4.163   9.875 -0.3887 -0.4330 -0.3159
  199MPD1     H 3082   4.627   4.272  10.033 -0.0226  1.3395 -0.9733
  199MPD1    H1 3083   0.212   4.335   9.758 -1.7904  0.3213 -1.3679
  199MPD1    H2 3084   0.204   3.990   9.992 -1.2788  0.3944  1.0279
  199MPD1    H3 3085   0.308   4.135   9.819 -0.9363  1.2686 -2.0561
  199MPD1     N 3086   4.710   4.427   9.827  0.6499  0.0915 -0.6831
  199MPD1    H5 3087   0.030   4.468   9.755 -1.1262 -0.4500 -2.4633
  199MPD1    N1 3088   4.725   4.051  10.126 -0.7479 -0.1656 -0.1730
  199MPD1    H6 3089   4.687   4.118  10.193 -0.1112  1.5475 -1.5322
  199MPD1    H7 3090   0.053   3.994  10.178 -0.4347  0.3159 -0.0440
  200MPD1     C 3091   3.756   3.452  15.468  0.1778  0.5537  0.9448
  200MPD1    C1 3092   3.631   3.409  15.432  0.6040 -0.4065 -0.0235
  200MPD1    C2 3093   3.569   3.468  15.325  0.5411 -0.3009 -1.1132
  200MPD1    C3 3094   3.621   3.585  15.272 -0.0063 -0.0672  0.2757
  200MPD1    C4 3095   3.743   3.624  15.312 -0.4445  0.2573  0.2756
  200MPD1    C5 3096   3.816   3.554  15.400 -0.1383  0.3150  0.1391
  200MPD1     H 3097   3.475   3.428  15.290 -0.0794 -0.7299  1.0419
  200MPD1    H1 3098   3.795   3.712  15.276 -0.4784  0.4420  0.6872
  200MPD1    H2 3099   3.815   3.408  15.548 -0.1641 -2.2775 -0.3771
  200MPD1    H3 3100   3.918   3.584  15.420  0.1617 -0.4423 -0.2893
  200MPD1     N 3101   3.544   3.646  15.163  0.1224 -0.1804 -0.3751
  200MPD1    H5 3102   3.458   3.602  15.130 -1.3058  0.3962  2.6166
  200MPD1    N1 3103   3.580   3.296  15.493  0.4769 -0.4324  0.1751
  200MPD1    H6 3104   3.480   3.285  15.474  0.1305 -0.3784  1.9966
  200MPD1    H7 3105   3.597   3.299  15.593 -0.3737 -3.3417  0.3833
  201MPD1     C 3106   1.207   2.483  14.004  0.5616 -0.0324  0.3302
  201MPD1    C1 3107   1.199   2.414  13.885 -0.3178 -0.4965 -0.1979
  201MPD1    C2 3108   1.244   2.473  13.773 -0.2774 -0.8090  0.3043
  201MPD1    C3 3109   1.319   2.595  13.773 -0.4032 -0.1318  0.0429
  201MPD1    C4 3110   1.329   2.661  13.893 -0.4307  0.3446 -0.1179
  201MPD1    C5 3111   1.273   2.606  14.004  0.2858  0.6704 -0.3042
  201MPD1     H 3112   1.209   2.424  13.683 -0.6261 -0.0780  0.0456
  201MPD1    H1 3113   1.394   2.746  13.915 -0.0828 -0.8084  3.3446
  201MPD1    H2 3114   1.157   2.447  14.093  2.4427  1.4425  1.9761
  201MPD1    H3 3115   1.304   2.659  14.093 -0.9165 -2.0596  1.7543
  201MPD1     N 3116   1.374   2.645  13.659  0.1934 -0.4939 -0.1966
  201MPD1    H5 3117   1.377   2.579  13.583 -1.6626  0.0180 -0.7293
  201MPD1    N1 3118   1.123   2.294  13.881 -0.4259  0.2367  0.0274
  201MPD1    H6 3119   1.109   2.243  13.969 -0.6776  1.5829  0.7631
  201MPD1    H7 3120   1.152   2.228  13.809  0.2474 -1.9394  2.3005
  202MPD1     C 3121   1.036   2.626   9.319  0.6562  0.6344 -0.0642
  202MPD1    C1 3122   0.974   2.558   9.421 -0.6780 -0.1119 -0.1753
  202MPD1    C2 3123   1.051   2.509   9.525  0.0450 -0.1087  0.1902
  202MPD1    C3 3124   1.188   2.497   9.508  0.0639  0.2273  0.1884
  202MPD1    C4 3125   1.247   2.545   9.389 -0.5940 -0.1912 -0.4938
  202MPD1    C5 3126   1.168   2.604   9.295  0.8281 -0.2049 -0.5529
  202MPD1     H 3127   0.991   2.471   9.607 -1.7261  0.6987 -0.7233
  202MPD1    H1 3128   1.354   2.552   9.375 -0.3761  0.0659  1.2993
  202MPD1    H2 3129   0.983   2.693   9.253  0.1583 -1.7284 -2.1026
  202MPD1    H3 3130   1.221   2.648   9.211  1.8870  2.9145  1.7561
  202MPD1     N 3131   1.273   2.445   9.604 -0.0623 -0.0955 -0.2838
  202MPD1    H5 3132   1.372   2.461   9.588 -0.9413  1.6100 -4.1159
  202MPD1    N1 3133   0.842   2.594   9.454  0.2327  1.1965 -0.4536
  202MPD1    H6 3134   0.794   2.603   9.365  0.8495 -1.8418 -1.1093
  202MPD1    H7 3135   0.808   2.514   9.508  0.4676 -0.1412 -2.3110
  203MPD1     C 3136   4.684   3.609  12.394  0.4954 -0.3528  0.1691
  203MPD1    C1 3137   4.577   3.552  12.329  0.4828 -0.5216  0.0023
  203MPD1    C2 3138   4.544   3.421  12.354 -0.2023  0.2040 -0.3740
  203MPD1    C3 3139   4.609   3.347  12.445 -0.1474  0.4371  0.1889
  203MPD1    C4 3140   4.725   3.393  12.507  0.0331  0.0321 -0.6330
  203MPD1    C5 3141   0.010   3.531  12.488 -0.4313 -0.0076  0.2477
  203MPD1     H 3142   4.460   3.377  12.301  0.4257 -0.6727 -0.6217
  203MPD1    H1 3143   0.046   3.341  12.582  3.2570  3.0149 -1.1411
  203MPD1    H2 3144   4.723   3.710  12.380  0.8305 -0.7724 -1.9908
  203MPD1    H3 3145   0.095   3.578  12.536  0.5646 -1.1775 -0.3922
  203MPD1     N 3146   4.561   3.210  12.467  0.6225  0.1062 -0.3834
  203MPD1    H5 3147   4.486   3.173  12.410  0.6672 -0.5272 -0.0293
  203MPD1    N1 3148   4.517   3.620  12.223  0.2909  0.5934  0.0303
  203MPD1    H6 3149   4.489   3.710  12.263  0.6872 -0.8147  3.4471
  203MPD1    H7 3150   4.431   3.575  12.195  0.1301 -1.2317  3.4611
  204MPD1     C 3151   4.214   4.425  17.602  0.5775 -0.1706  1.0248
  204MPD1    C1 3152   4.316   4.432  17.507  0.6235 -0.5412 -0.7646
  204MPD1    C2 3153   4.379   4.313  17.478 -0.0386 -0.0975  0.5335
  204MPD1    C3 3154   4.357   4.196  17.551 -0.6607  0.1625 -0.2208
  204MPD1    C4 3155   4.264   4.196  17.652 -1.1284 -0.1796  0.7597
  204MPD1    C5 3156   4.200   4.312  17.682 -0.6007 -1.3523  0.7363
  204MPD1     H 3157   4.441   4.298  17.390 -1.3889  0.0732 -0.4553
  204MPD1    H1 3158   4.258   4.109  17.715 -3.0584 -0.8997 -0.4247
  204MPD1    H2 3159   4.155   4.511  17.633  1.9317  1.5844 -1.2356
  204MPD1    H3 3160   4.124   4.315   0.007 -0.4815  0.9089  0.7709
  204MPD1     N 3161   4.426   4.081  17.511 -0.3799 -0.8849  0.3079
  204MPD1    H5 3162   4.481   4.089  17.426 -0.7614  0.4338  0.1804
  204MPD1    N1 3163   4.335   4.548  17.428 -0.1437  0.6098 -0.6609
  204MPD1    H6 3164   4.422   4.557  17.377 -0.6900  1.1630 -1.4868
  204MPD1    H7 3165   4.312   4.631  17.483 -2.6092  0.0163 -0.7737
  205MPD1     C 3166   4.639   2.379   0.623 -0.4555  0.9134  0.0156
  205MPD1    C1 3167   0.026   2.369   0.570  0.0038 -0.5511 -0.1688
  205MPD1    C2 3168   0.060   2.451   0.460 -0.0712 -0.6268 -0.0680
  205MPD1    C3 3169   4.699   2.507   0.383  0.5624 -0.0742 -0.2244
  205MPD1    C4 3170   4.569   2.495   0.427 -0.0988  0.4028 -0.3997
  205MPD1    C5 3171   4.544   2.440   0.546  0.1219  0.1058 -0.5754
  205MPD1     H 3172   0.163   2.472   0.434  0.4289 -0.2336  2.2541
  205MPD1    H1 3173   4.494   2.546   0.367 -0.0363  1.1015  0.1191
  205MPD1    H2 3174   4.606   2.347   0.721  2.8532  1.8668  1.4681
  205MPD1    H3 3175   4.440   2.429   0.575  0.2983  0.1192  0.0672
  205MPD1     N 3176   4.727   2.583   0.271 -0.1409 -0.2144 -0.1672
  205MPD1    H5 3177   4.646   2.627   0.228 -0.5723  0.7596  1.6264
  205MPD1    N1 3178   0.125   2.317   0.654 -0.6632  0.1542  0.5141
  205MPD1    H6 3179   0.201   2.267   0.609 -2.0033 -1.1371 -0.3547
  205MPD1    H7 3180   0.086   2.248   0.719 -1.3048  1.5269  1.5768
  206MPD1     C 3181   4.656   1.047  16.183 -0.0011 -0.1750 -0.1667
  206MPD1    C1 3182   4.680   0.914  16.216 -0.8977  0.0777 -0.0512
  206MPD1    C2 3183   4.700   0.830  16.112 -0.3686 -0.1497  0.3549
  206MPD1    C3 3184   4.680   0.871  15.977 -0.1076 -0.0666  0.0414
  206MPD1    C4 3185   4.643   1.001  15.947 -0.3308 -0.0958 -0.4068
  206MPD1    C5 3186   4.623   1.085  16.058 -0.9410 -0.4018  0.0934
  206MPD1     H 3187   4.722   0.727  16.138  1.7261  0.0475 -0.6256
  206MPD1    H1 3188   4.621   1.029  15.845  0.5051 -1.5103 -0.9796
  206MPD1    H2 3189   4.654   1.115  16.267  0.6112  0.2692 -0.5107
  206MPD1    H3 3190   4.584   1.184  16.035  0.8082  0.3401  0.2992
  206MPD1     N 3191   4.677   0.774  15.877  0.9359  0.3782 -0.3218
  206MPD1    H5 3192   4.664   0.817  15.786 -1.3702  2.7101  1.1196
  206MPD1    N1 3193   4.714   0.880  16.350 -1.1026 -0.0161 -0.2120
  206MPD1    H6 3194   4.706   0.779  16.364 -1.2855 -0.0279 -0.4038
  206MPD1    H7 3195   4.653   0.927  16.416 -0.7979 -0.1206  0.1466
  207MPD1     C 3196   2.666   3.604   9.720 -0.0178  0.3838 -0.1688
  207MPD1    C1 3197   2.589   3.624   9.825  0.5775  0.1699  0.5006
  207MPD1    C2 3198   2.648   3.687   9.935 -0.1658 -0.3323  0.0566
  207MPD1    C3 3199   2.787   3.712   9.949 -0.4155  0.1513 -0.1942
  207MPD1    C4 3200   2.860   3.696   9.834 -0.0976 -1.0274 -0.7848
  207MPD1    C5 3201   2.797   3.651   9.722 -0.1286  0.8670  0.0944
  207MPD1     H 3202   2.587   3.723  10.018 -0.6741  0.6232 -0.7279
  207MPD1    H1 3203   2.960   3.734   9.820  1.3234 -4.0857  1.0697
  207MPD1    H2 3204   2.628   3.587   9.620 -0.7229 -0.5229  0.2546
  207MPD1    H3 3205   2.854   3.658   9.630 -0.6377 -0.0469 -0.2927
  207MPD1     N 3206   2.850   3.764  10.066  0.0115 -0.1161 -0.3339
  207MPD1    H5 3207   2.949   3.783  10.056  0.2931 -0.0175  2.5519
  207MPD1    N1 3208   2.451   3.599   9.820  0.3238 -0.2574 -0.1206
  207MPD1    H6 3209   2.425   3.514   9.771 -0.4424  1.3989 -2.5653
  207MPD1    H7 3210   2.421   3.581   9.916 -0.3143  2.0776  0.1067
  208MPD1     C 3211   1.348   1.905  17.142 -0.0692  0.6316  0.0905
  208MPD1    C1 3212   1.250   1.992  17.096 -0.0795  0.8708  0.2111
  208MPD1    C2 3213   1.119   1.969  17.122  0.5048  0.7726 -0.1115
  208MPD1    C3 3214   1.080   1.871  17.206  0.0845 -0.7272  0.6311
  208MPD1    C4 3215   1.173   1.791  17.261  0.3992  0.4651 -0.1826
  208MPD1    C5 3216   1.311   1.800  17.223  0.7694 -0.5585  0.1185
  208MPD1     H 3217   1.044   2.040  17.088  1.1455  0.5748 -1.9311
  208MPD1    H1 3218   1.151   1.702  17.318  0.0213 -1.4381 -3.3043
  208MPD1    H2 3219   1.451   1.914  17.110 -0.4375  0.6380 -1.0736
  208MPD1    H3 3220   1.382   1.723  17.249  0.3919 -0.1521  2.3711
  208MPD1     N 3221   0.939   1.860  17.227  0.2404  0.3189 -0.1606
  208MPD1    H5 3222   0.883   1.915  17.163 -0.6446  0.4825  0.7544
  208MPD1    N1 3223   1.297   2.090  17.007 -0.4971 -0.2255  0.0442
  208MPD1    H6 3224   1.243   2.176  17.008 -0.3958 -0.1658  0.2598
  208MPD1    H7 3225   1.393   2.121  17.019 -1.2242  0.8050  3.1587
  209MPD1     C 3226   2.588   2.958  11.050  0.4578 -0.2112 -0.1214
  209MPD1    C1 3227   2.601   3.074  10.967 -0.0302 -0.3668  0.6404
  209MPD1    C2 3228   2.658   3.189  11.018  0.1084 -0.1040 -0.4179
  209MPD1    C3 3229   2.712   3.199  11.143  0.4845  0.6311 -0.2969
  209MPD1    C4 3230   2.707   3.080  11.222  0.3630 -0.2167  0.6408
  209MPD1    C5 3231   2.643   2.969  11.175  0.2140  0.5776 -0.4933
  209MPD1     H 3232   2.665   3.278  10.956  0.8751 -0.9959 -1.6163
  209MPD1    H1 3233   2.742   3.074  11.325 -0.6692 -0.5316  0.9799
  209MPD1    H2 3234   2.550   2.863  11.014  2.7508 -0.6547 -1.3472
  209MPD1    H3 3235   2.622   2.884  11.240  1.9445 -0.5209 -1.4042
  209MPD1     N 3236   2.769   3.324  11.177  0.6026  0.3751  0.3412
  209MPD1    H5 3237   2.771   3.402  11.112  2.8665  1.2039  1.3935
  209MPD1    N1 3238   2.567   3.077  10.835 -0.4723  0.7239  0.0084
  209MPD1    H6 3239   2.564   3.169  10.792  1.6159  0.0062 -1.7057
  209MPD1    H7 3240   2.474   3.038  10.820 -1.2555  1.9476  1.6367
  210MPD1     C 3241   2.273   4.059  11.747  0.7842 -0.2084  0.4223
  210MPD1    C1 3242   2.257   3.924  11.741 -0.6123 -0.1205 -0.4175
  210MPD1    C2 3243   2.349   3.855  11.672  0.1271  0.1224  0.0982
  210MPD1    C3 3244   2.452   3.908  11.599  0.0448  0.2445 -0.5425
  210MPD1    C4 3245   2.458   4.045  11.598 -0.1197 -0.3497 -0.0874
  210MPD1    C5 3246   2.373   4.121  11.680  1.0421 -0.1681 -0.6411
  210MPD1     H 3247   2.341   3.747  11.660 -0.7778  0.3405 -1.2844
  210MPD1    H1 3248   2.540   4.089  11.542  0.5307  1.1597  2.0759
  210MPD1    H2 3249   2.213   4.117  11.817  1.1125 -0.7648  1.1641
  210MPD1    H3 3250   2.394   4.228  11.683  0.9551 -0.1526 -0.5918
  210MPD1     N 3251   2.543   3.837  11.518  0.2717 -0.4044 -0.7213
  210MPD1    H5 3252   2.617   3.888  11.472 -2.3514  3.6450 -0.4945
  210MPD1    N1 3253   2.161   3.864  11.824  0.1007  0.0463  0.1477
  210MPD1    H6 3254   2.077   3.921  11.819  0.2053  0.4177  2.8550
  210MPD1    H7 3255   2.129   3.771  11.800  2.2632 -0.4381 -0.8517
  211MPD1     C 3256   0.779   3.118  15.506  0.0884  0.1815  0.5041
  211MPD1    C1 3257   0.658   3.146  15.452 -0.5394 -0.0818  0.3909
  211MPD1    C2 3258   0.549   3.152  15.541  0.7720 -0.2456 -0.9550
  211MPD1    C3 3259   0.569   3.133  15.680 -0.0341 -0.1191  0.6872
  211MPD1    C4 3260   0.695   3.120  15.730  0.3274 -0.5174 -0.2270
  211MPD1    C5 3261   0.797   3.116  15.641 -0.0274 -0.1129  0.4861
  211MPD1     H 3262   0.449   3.174  15.506  0.2690 -1.7451 -0.4507
  211MPD1    H1 3263   0.713   3.095  15.834  1.0901 -0.1657 -0.2716
  211MPD1    H2 3264   0.868   3.103  15.446 -1.0108 -1.1033 -0.7873
  211MPD1    H3 3265   0.893   3.092  15.685  1.4631  2.0889 -1.5481
  211MPD1     N 3266   0.449   3.126  15.761  0.2082  0.1884 -0.2820
  211MPD1    H5 3267   0.359   3.127  15.714  1.2221 -0.8232 -2.2672
  211MPD1    N1 3268   0.640   3.169  15.315 -0.3892  0.1950 -0.3029
  211MPD1    H6 3269   0.721   3.156  15.254 -0.9902 -1.5032 -0.7374
  211MPD1    H7 3270   0.549   3.140  15.281 -0.5856 -1.7302  1.8327
  212MPD1     C 3271   4.459   1.207  16.903  0.5009  0.3021 -0.2770
  212MPD1    C1 3272   4.499   1.083  16.860  0.0805  0.3271 -0.3943
  212MPD1    C2 3273   4.422   0.972  16.885  0.7371  0.3390 -0.2936
  212MPD1    C3 3274   4.307   0.984  16.960  0.9032  0.0088  0.8889
  212MPD1    C4 3275   4.275   1.107  17.007 -0.1303  0.4219 -0.3398
  212MPD1    C5 3276   4.357   1.213  16.989 -0.0966  0.2460  0.0359
  212MPD1     H 3277   4.457   0.878  16.845 -1.1546 -0.5119  0.0628
  212MPD1    H1 3278   4.184   1.122  17.064 -0.6004  0.9487 -1.2203
  212MPD1    H2 3279   4.510   1.300  16.881 -1.0212  1.3547  0.6170
  212MPD1    H3 3280   4.323   1.308  17.029 -0.0456  0.1428  0.3239
  212MPD1     N 3281   4.222   0.873  16.988 -0.3419  0.6306 -0.0759
  212MPD1    H5 3282   4.146   0.883  17.055 -0.2329  0.5838  0.0541
  212MPD1    N1 3283   4.618   1.082  16.780 -0.0127  0.2275  0.0952
  212MPD1    H6 3284   4.675   0.999  16.793 -0.6538  0.2426  3.1448
  212MPD1    H7 3285   4.671   1.161  16.815  0.1394  0.2665 -0.2296
  213MPD1     C 3286   2.803   1.714  15.828  0.4444  0.6957 -0.1546
  213MPD1    C1 3287   2.752   1.614  15.754 -0.4426  0.2584 -0.8044
  213MPD1    C2 3288   2.621   1.633  15.714  1.0940 -0.0154  0.6419
  213MPD1    C3 3289   2.574   1.764  15.700  0.6552  0.9557  0.5959
  213MPD1    C4 3290   2.644   1.869  15.755  0.2924 -0.2067 -0.8418
  213MPD1    C5 3291   2.760   1.844  15.822  0.7128  0.1733  0.1753
  213MPD1     H 3292   2.566   1.548  15.675 -1.0518  2.6628 -2.1405
  213MPD1    H1 3293   2.615   1.973  15.759 -1.0450 -0.6156 -0.0293
  213MPD1    H2 3294   2.894   1.695  15.882 -1.3028 -1.4339  2.0080
  213MPD1    H3 3295   2.811   1.921  15.878 -0.5021  1.0727  0.0456
  213MPD1     N 3296   2.452   1.781  15.639 -0.4008  0.0025  0.3348
  213MPD1    H5 3297   2.401   1.697  15.616  0.3080 -0.2167 -0.4266
  213MPD1    N1 3298   2.808   1.485  15.789 -0.3889  0.2523 -0.0416
  213MPD1    H6 3299   2.782   1.422  15.713  1.0034  0.5624 -0.7744
  213MPD1    H7 3300   2.909   1.479  15.795 -0.6707 -0.7563  3.6647
  214MPD1     C 3301   1.795   1.721  16.135 -0.2776 -0.5699  0.1422
  214MPD1    C1 3302   1.767   1.834  16.057 -0.2040  0.5499 -0.5707
  214MPD1    C2 3303   1.811   1.839  15.921  0.1209 -0.3476  0.1529
  214MPD1    C3 3304   1.905   1.745  15.881 -0.2002  0.0371 -0.5568
  214MPD1    C4 3305   1.928   1.629  15.957 -0.0916  0.2045 -0.2248
  214MPD1    C5 3306   1.878   1.625  16.084  0.2176  0.4595  0.7868
  214MPD1     H 3307   1.782   1.925  15.862 -2.2580 -0.1228  1.6639
  214MPD1    H1 3308   1.988   1.548  15.917  0.0791  0.9555 -1.5012
  214MPD1    H2 3309   1.741   1.702  16.226  0.6325  0.4353  0.8833
  214MPD1    H3 3310   1.912   1.546  16.149 -0.3395  0.1610  0.7153
  214MPD1     N 3311   1.976   1.748  15.755  0.1367 -0.0633  0.4255
  214MPD1    H5 3312   2.042   1.672  15.741 -2.1553 -1.4843 -2.7312
  214MPD1    N1 3313   1.651   1.904  16.084  0.5049  0.0035 -0.3709
  214MPD1    H6 3314   1.621   1.910  16.181  1.5462 -0.7470 -0.0108
  214MPD1    H7 3315   1.668   1.998  16.046 -2.3742  0.8290  0.3871
  215MPD1     C 3316   2.185   2.595  10.842 -0.3072  0.3200  0.2143
  215MPD1    C1 3317   2.214   2.591  10.979  0.4465  0.6926  0.4425
  215MPD1    C2 3318   2.240   2.715  11.034 -0.4085  0.1007  0.1601
  215MPD1    C3 3319   2.240   2.831  10.973 -0.1156  0.5355  0.2250
  215MPD1    C4 3320   2.221   2.834  10.839  0.1665 -0.3014  0.2148
  215MPD1    C5 3321   2.198   2.710  10.773 -0.3917  0.4170 -0.9348
  215MPD1     H 3322   2.268   2.719  11.139 -4.0831  2.7595  1.0321
  215MPD1    H1 3323   2.202   2.926  10.784 -0.9299 -0.7796 -0.2074
  215MPD1    H2 3324   2.157   2.502  10.792 -2.1792  0.7834  0.3811
  215MPD1    H3 3325   2.177   2.710  10.667  1.2148 -0.2848 -1.2616
  215MPD1     N 3326   2.261   2.955  11.047  0.6859  0.5850  0.1252
  215MPD1    H5 3327   2.297   2.945  11.141 -0.1309  2.4423  0.6525
  215MPD1    N1 3328   2.201   2.466  11.048 -0.4307 -0.1901 -0.1108
  215MPD1    H6 3329   2.212   2.383  10.988 -2.3909  0.0607 -0.8230
  215MPD1    H7 3330   2.264   2.458  11.128  0.9424 -4.2626 -1.5614
  216MPD1     C 3331   3.864   0.714   0.147  0.6509  0.0743  0.2576
  216MPD1    C1 3332   3.953   0.754   0.051 -0.3332  1.1461  0.3878
  216MPD1    C2 3333   3.981   0.666  17.699 -0.9171  0.7115 -1.3643
  216MPD1    C3 3334   3.941   0.537  17.702 -0.5464 -0.1505 -0.3988
  216MPD1    C4 3335   3.863   0.491   0.059 -0.0623  0.0141 -0.5503
  216MPD1    C5 3336   3.831   0.582   0.159  0.0645 -0.7270 -0.8258
  216MPD1     H 3337   4.043   0.690  17.614 -0.5019  2.0636 -0.6712
  216MPD1    H1 3338   3.840   0.386   0.071  1.7712 -0.4277 -0.8514
  216MPD1    H2 3339   3.840   0.770   0.237 -0.1417 -1.3050  0.9219
  216MPD1    H3 3340   3.782   0.542   0.247 -0.0235 -2.2761 -1.5938
  216MPD1     N 3341   3.980   0.449  17.598 -0.7434  0.1121 -0.0278
  216MPD1    H5 3342   4.043   0.483  17.526 -0.4935  1.6315  0.9077
  216MPD1    N1 3343   3.987   0.889   0.035  0.1630  0.4395 -0.4001
  216MPD1    H6 3344   3.988   0.942   0.123  1.1843 -1.7562  0.9011
  216MPD1    H7 3345   4.079   0.899  17.747  1.1359 -1.5605  1.3069
  217MPD1     C 3346   1.791   2.390   8.563  0.0967 -0.5869 -0.3173
  217MPD1    C1 3347   1.719   2.506   8.583 -0.3470 -0.0836  0.1824
  217MPD1    C2 3348   1.604   2.506   8.660  0.1268  0.4661 -0.5477
  217MPD1    C3 3349   1.549   2.385   8.703 -0.1388 -0.4333 -0.4014
  217MPD1    C4 3350   1.622   2.267   8.678  0.4199 -0.4486 -0.5832
  217MPD1    C5 3351   1.735   2.271   8.609 -0.6591  0.6197 -0.7932
  217MPD1     H 3352   1.556   2.601   8.680  2.0471  0.9325  1.8806
  217MPD1    H1 3353   1.578   2.173   8.707  0.2673 -0.8877 -2.2513
  217MPD1    H2 3354   1.880   2.392   8.502 -0.0401  0.9708 -0.4695
  217MPD1    H3 3355   1.776   2.173   8.587 -0.5977  0.0314  1.9241
  217MPD1     N 3356   1.425   2.378   8.765  0.3122  0.5209 -0.9077
  217MPD1    H5 3357   1.398   2.289   8.805  0.0593  0.8356 -0.3858
  217MPD1    N1 3358   1.779   2.626   8.536  0.5181  0.6421 -0.6476
  217MPD1    H6 3359   1.821   2.615   8.444  1.2785  0.3952 -0.2719
  217MPD1    H7 3360   1.709   2.696   8.514 -0.5790  0.8409  3.5053
  218MPD1     C 3361   1.551   3.155  13.604  0.0614  0.3133  0.5910
  218MPD1    C1 3362   1.569   3.131  13.469 -0.2793  0.1746 -0.2041
  218MPD1    C2 3363   1.685   3.182  13.414 -0.1150 -0.2096  0.1868
  218MPD1    C3 3364   1.787   3.232  13.489  0.2286  0.4304  0.4081
  218MPD1    C4 3365   1.770   3.231  13.629  0.0001 -0.3406 -0.4256
  218MPD1    C5 3366   1.653   3.188  13.685 -0.1026  0.1021 -0.3787
  218MPD1     H 3367   1.690   3.184  13.306 -0.7715 -0.1733  0.1565
  218MPD1    H1 3368   1.839   3.267  13.705  1.1913  0.1260 -1.7342
  218MPD1    H2 3369   1.457   3.133  13.654  1.0833 -1.2803  1.7662
  218MPD1    H3 3370   1.625   3.193  13.790  0.4960 -0.5380 -0.1843
  218MPD1     N 3371   1.908   3.283  13.417 -0.3523  0.7194 -0.1802
  218MPD1    H5 3372   1.905   3.268  13.316 -1.2311  1.0413 -0.2016
  218MPD1    N1 3373   1.459   3.104  13.385  0.2243 -0.2369  0.0760
  218MPD1    H6 3374   1.398   3.036  13.431 -1.4865  0.1257 -1.6911
  218MPD1    H7 3375   1.487   3.067  13.294 -1.6778  0.4199 -0.7706
  219MPD1     C 3376   1.858   3.846  12.794 -1.0560 -0.1103  0.1205
  219MPD1    C1 3377   1.982   3.791  12.758 -0.3723 -0.1801  0.3847
  219MPD1    C2 3378   2.038   3.691  12.848 -0.4972 -0.4691 -0.3777
  219MPD1    C3 3379   1.961   3.636  12.953  0.2216  0.2761  0.4546
  219MPD1    C4 3380   1.828   3.672  12.956  0.0167 -0.6246  0.1391
  219MPD1    C5 3381   1.778   3.782  12.888 -0.4315  0.2595  0.1191
  219MPD1     H 3382   2.141   3.658  12.840 -0.9911 -2.4177  1.3545
  219MPD1    H1 3383   1.756   3.627  13.024 -0.7988 -1.8473 -1.5307
  219MPD1    H2 3384   1.810   3.923  12.736 -2.9072 -1.5819 -0.2992
  219MPD1    H3 3385   1.673   3.805  12.901 -0.8389 -0.0629 -2.5120
  219MPD1     N 3386   2.004   3.527  13.032 -0.1148  0.1860  0.1664
  219MPD1    H5 3387   1.938   3.491  13.100 -0.5716  1.8262  0.5881
  219MPD1    N1 3388   2.063   3.860  12.665  0.0457  0.0771  0.1728
  219MPD1    H6 3389   2.007   3.904  12.592 -0.9806 -1.8588 -0.2182
  219MPD1    H7 3390   2.131   3.797  12.624  1.6327  0.9722  1.4186
  220MPD1     C 3391   2.470   4.088   9.767  0.4964  0.3052  0.3479
  220MPD1    C1 3392   2.524   4.052   9.885  0.0918 -0.7314  0.1681
  220MPD1    C2 3393   2.438   4.023   9.993  0.4890  0.2099  1.2359
  220MPD1    C3 3394   2.301   4.018   9.976 -0.0109  0.0843 -0.0703
  220MPD1    C4 3395   2.243   4.061   9.858 -0.1354  0.1625  0.2155
  220MPD1    C5 3396   2.332   4.092   9.751  0.5693  0.3238 -0.0408
  220MPD1     H 3397   2.475   3.995  10.091 -0.2481  0.0348  1.4618
  220MPD1    H1 3398   2.136   4.067   9.841 -0.0391 -0.7951 -0.7555
  220MPD1    H2 3399   2.536   4.120   9.686  0.8903  0.0358  0.5595
  220MPD1    H3 3400   2.288   4.104   9.653 -1.4335 -1.3831  0.6490
  220MPD1     N 3401   2.226   3.965  10.085  0.4020  0.0877 -0.1336
  220MPD1    H5 3402   2.276   3.958  10.173  1.0634 -3.4328 -0.8291
  220MPD1    N1 3403   2.665   4.052   9.905 -0.2597 -0.3175  0.2159
  220MPD1    H6 3404   2.732   4.051   9.828  0.2790 -1.5378  0.6923
  220MPD1    H7 3405   2.691   3.975   9.966  1.8740  1.3004  1.3637
  221MPD1     C 3406   1.067   1.521  17.035 -0.4542  0.1895  0.1301
  221MPD1    C1 3407   0.943   1.461  17.068 -0.8018 -0.6922 -0.1521
  221MPD1    C2 3408   0.832   1.508  16.995 -0.9532  0.6296 -0.4459
  221MPD1    C3 3409   0.840   1.601  16.886  0.1946  0.4232 -0.3704
  221MPD1    C4 3410   0.962   1.656  16.868 -0.3011  0.2739  0.2671
  221MPD1    C5 3411   1.070   1.611  16.937  0.7603  0.9248 -0.4814
  221MPD1     H 3412   0.734   1.476  17.029 -0.4914 -0.6977 -0.3621
  221MPD1    H1 3413   0.976   1.738  16.799 -2.4235  0.0107 -0.4888
  221MPD1    H2 3414   1.164   1.500  17.079 -0.2432  2.1157  0.5863
  221MPD1    H3 3415   1.168   1.645  16.908  2.0776  0.2976  3.2987
  221MPD1     N 3416   0.738   1.630  16.795 -0.0659  0.2796  0.3170
  221MPD1    H5 3417   0.754   1.706  16.730 -1.8006  0.6570  0.3303
  221MPD1    N1 3418   0.931   1.364  17.165  0.5191  0.0983  0.2278
  221MPD1    H6 3419   0.952   1.406  17.255 -0.0981 -2.4038  1.5452
  221MPD1    H7 3420   0.834   1.332  17.165  0.0523  1.5266 -0.4766
  222MPD1     C 3421   4.011   1.249   0.645  0.5040  0.2902 -0.1882
  222MPD1    C1 3422   3.876   1.267   0.673 -1.2862  0.0768 -0.2095
  222MPD1    C2 3423   3.819   1.397   0.671  0.2365 -0.4713  0.3922
  222MPD1    C3 3424   3.896   1.500   0.629  0.0675  0.2631  0.2218
  222MPD1    C4 3425   4.027   1.477   0.588 -0.1889  0.3662 -0.8636
  222MPD1    C5 3426   4.076   1.350   0.591 -0.3082 -0.2700 -0.6666
  222MPD1     H 3427   3.713   1.398   0.695  0.0657 -0.3976 -0.3770
  222MPD1    H1 3428   4.095   1.555   0.556 -1.6486  2.8476  2.0547
  222MPD1    H2 3429   4.050   1.147   0.646 -0.9237 -0.2546  1.1397
  222MPD1    H3 3430   4.180   1.343   0.560 -0.4374 -1.5828 -0.7922
  222MPD1     N 3431   3.852   1.634   0.634 -0.1926 -0.3182 -0.6260
  222MPD1    H5 3432   3.925   1.705   0.628 -1.0410  0.5888 -0.1967
  222MPD1    N1 3433   3.796   1.159   0.721  0.7111 -0.4165  0.1589
  222MPD1    H6 3434   3.697   1.180   0.707  0.3289 -0.8751  2.1545
  222MPD1    H7 3435   3.814   1.071   0.675  0.0960 -0.9303  0.8986
  223MPD1     C 3436   3.106   2.402   0.881 -0.8089  0.4054  0.0732
  223MPD1    C1 3437   3.182   2.457   0.774 -0.2175 -0.3588  0.2809
  223MPD1    C2 3438   3.297   2.384   0.740 -0.4999 -0.4613  0.6118
  223MPD1    C3 3439   3.324   2.255   0.787 -0.1057  0.9617 -0.0739
  223MPD1    C4 3440   3.240   2.193   0.878  0.6644 -0.6074 -0.2575
  223MPD1    C5 3441   3.130   2.269   0.913 -0.3448 -0.3355  0.3578
  223MPD1     H 3442   3.373   2.431   0.678 -1.1181  0.0938  0.2797
  223MPD1    H1 3443   3.249   2.098   0.929  0.7138 -0.6336 -0.3160
  223MPD1    H2 3444   3.010   2.439   0.915 -0.3928  0.6435  0.9903
  223MPD1    H3 3445   3.059   2.228   0.983  1.0670 -1.6857  0.9989
  223MPD1     N 3446   3.433   2.183   0.739 -0.6948 -0.8394  0.8919
  223MPD1    H5 3447   3.502   2.233   0.684  0.8121 -1.7973  1.9199
  223MPD1    N1 3448   3.152   2.584   0.734 -0.1982  0.6499  0.0999
  223MPD1    H6 3449   3.054   2.609   0.743 -0.2669  0.6128 -0.5236
  223MPD1    H7 3450   3.194   2.601   0.642  1.7286 -0.5869  0.7491
  224MPD1     C 3451   1.399   3.239   9.643  0.8095 -0.1651  0.3222
  224MPD1    C1 3452   1.333   3.359   9.626  0.3842 -0.0881 -0.1007
  224MPD1    C2 3453   1.198   3.362   9.588 -1.2252  0.1639 -0.2149
  224MPD1    C3 3454   1.119   3.241   9.591 -0.2526  0.2423  0.1358
  224MPD1    C4 3455   1.185   3.124   9.623  0.0399  0.7655  1.0423
  224MPD1    C5 3456   1.323   3.127   9.652  0.4899  0.0318 -0.4389
  224MPD1     H 3457   1.158   3.459   9.564 -0.8104 -0.0017 -1.5532
  224MPD1    H1 3458   1.132   3.029   9.625 -1.1890  1.4080 -1.5924
  224MPD1    H2 3459   1.502   3.226   9.675  1.1843 -2.3720 -1.7435
  224MPD1    H3 3460   1.376   3.035   9.674 -2.9197 -2.6045 -3.3189
  224MPD1     N 3461   0.986   3.237   9.533  0.2046 -0.2373  0.1992
  224MPD1    H5 3462   0.933   3.150   9.525 -2.1725  1.1774  0.6024
  224MPD1    N1 3463   1.403   3.479   9.612  0.6454  0.0928  0.0137
  224MPD1    H6 3464   1.353   3.565   9.635 -0.0675 -1.5196  4.4325
  224MPD1    H7 3465   1.491   3.484   9.664  0.6084  0.2119  0.0647
  225MPD1     C 3466   2.109   4.274  12.347  0.2849  0.3408 -0.1148
  225MPD1    C1 3467   2.073   4.205  12.234 -0.6466  0.6790 -0.2202
  225MPD1    C2 3468   1.940   4.173  12.213 -0.1280 -0.2313 -0.2896
  225MPD1    C3 3469   1.848   4.216  12.307  0.3239 -0.2381  0.7821
  225MPD1    C4 3470   1.888   4.297  12.410 -0.2309 -0.5430  0.1039
  225MPD1    C5 3471   2.014   4.334  12.424 -0.0842  0.1568  0.2222
  225MPD1     H 3472   1.922   4.118  12.121  1.0438  2.2612 -1.9958
  225MPD1    H1 3473   1.816   4.335  12.482 -1.1884 -0.4501 -0.8968
  225MPD1    H2 3474   2.213   4.295  12.370  0.3288 -1.5079  1.3242
  225MPD1    H3 3475   2.056   4.380  12.513 -0.3006  2.4434 -0.8604
  225MPD1     N 3476   1.709   4.202  12.283 -0.1509  0.4266 -0.3056
  225MPD1    H5 3477   1.642   4.256  12.337 -0.9832 -0.6352 -0.2703
  225MPD1    N1 3478   2.164   4.182  12.130 -0.2172  0.7367 -0.1079
  225MPD1    H6 3479   2.259   4.169  12.165  0.3207  1.6265 -1.2508
  225MPD1    H7 3480   2.139   4.087  12.104 -0.4292  0.7641  0.0042
  226MPD1     C 3481   0.574   4.304   9.778  0.1152  0.1529 -0.2541
  226MPD1    C1 3482   0.698   4.290   9.713 -0.6025 -0.4517 -0.1090
  226MPD1    C2 3483   0.811   4.341   9.775 -0.3066 -0.9521 -0.7469
  226MPD1    C3 3484   0.814   4.393   9.899  0.5830  0.7032 -0.2255
  226MPD1    C4 3485   0.692   4.406   9.963  0.0039 -1.0510  0.1047
  226MPD1    C5 3486   0.575   4.366   9.893  0.3077 -0.4367  0.3547
  226MPD1     H 3487   0.907   4.325   9.728  1.1996 -0.6081  2.2659
  226MPD1    H1 3488   0.678   4.442  10.064  1.1351 -2.5382  0.7906
  226MPD1    H2 3489   0.479   4.280   9.732 -0.5478 -0.6735  1.5612
  226MPD1    H3 3490   0.483   4.378   9.948 -0.3834  1.0381 -1.1335
  226MPD1     N 3491   0.937   4.437   9.963  0.4328 -0.6840  0.1793
  226MPD1    H5 3492   1.026   4.420   9.918  0.7916 -0.0798  0.6601
  226MPD1    N1 3493   0.697   4.251   9.580 -0.3433 -0.2632  0.3212
  226MPD1    H6 3494   0.639   4.170   9.562 -1.3845  0.6824 -0.5984
  226MPD1    H7 3495   0.786   4.223   9.538 -0.4414 -0.8807  0.5297
  227MPD1     C 3496   1.339   0.258  10.825 -0.9415  0.4370  0.0915
  227MPD1    C1 3497   1.430   0.165  10.781 -0.1951  0.4024  0.2796
  227MPD1    C2 3498   1.403   0.084  10.674  1.1303 -0.2250  0.1239
  227MPD1    C3 3499   1.285   0.096  10.605 -0.8307 -0.1670 -0.2556
  227MPD1    C4 3500   1.200   0.199  10.632  0.2253  0.2209 -0.0776
  227MPD1    C5 3501   1.226   0.278  10.741  0.2135 -0.9903 -0.2887
  227MPD1     H 3502   1.472   0.011  10.633  1.4552  0.7481 -1.0306
  227MPD1    H1 3503   1.117   0.235  10.572  2.6164  0.5541 -3.1817
  227MPD1    H2 3504   1.352   0.313  10.918 -1.4529  1.5035 -0.4769
  227MPD1    H3 3505   1.156   0.355  10.770  1.9496 -0.4416  2.4113
  227MPD1     N 3506   1.281   0.009  10.494 -0.3796  0.0971 -0.5423
  227MPD1    H5 3507   1.360   4.685  10.486 -0.3955 -0.1523  1.2184
  227MPD1    N1 3508   1.542   0.153  10.853 -0.1231  0.8011  0.4834
  227MPD1    H6 3509   1.620   0.120  10.796 -0.6345 -0.3508  0.4499
  227MPD1    H7 3510   1.572   0.237  10.901 -1.4314  2.3697 -1.4710
  228MPD1     C 3511   3.395   2.110  12.575  0.7574  0.3857  1.4544
  228MPD1    C1 3512   3.263   2.158  12.565  0.1576  0.0670  0.5007
  228MPD1    C2 3513   3.166   2.069  12.602  0.1194  0.1070  0.2419
  228MPD1    C3 3514   3.191   1.954  12.677  0.2056 -0.5848  0.2439
  228MPD1    C4 3515   3.325   1.926  12.711  0.9350 -0.6517 -0.0722
  228MPD1    C5 3516   3.423   2.001  12.653  0.9234 -0.1974 -0.9405
  228MPD1     H 3517   3.063   2.084  12.571  0.6689 -0.3981 -1.8136
  228MPD1    H1 3518   3.364   1.839  12.763  0.8462 -0.8522 -0.3380
  228MPD1    H2 3519   3.478   2.151  12.520 -0.8201  1.5086 -0.0568
  228MPD1    H3 3520   3.524   1.966  12.671  1.3655  2.1061  1.1453
  228MPD1     N 3521   3.086   1.878  12.729 -0.6878  0.2118  0.1654
  228MPD1    H5 3522   2.998   1.910  12.689  0.2929  2.5636 -0.0780
  228MPD1    N1 3523   3.228   2.269  12.486  0.6381 -0.4194  0.1963
  228MPD1    H6 3524   3.288   2.352  12.482 -0.2277  0.1259 -1.3242
  228MPD1    H7 3525   3.134   2.305  12.501 -0.1577 -1.8626 -1.3365
  229MPD1     C 3526   2.805   0.608  14.957  0.1259 -0.9311  0.0031
  229MPD1    C1 3527   2.940   0.613  14.991  0.6486 -0.9875 -0.5265
  229MPD1    C2 3528   3.005   0.495  15.019  0.1441  0.1195 -0.1217
  229MPD1    C3 3529   2.934   0.376  15.047 -0.4566 -0.3486  0.1109
  229MPD1    C4 3530   2.796   0.383  15.030 -0.5650  0.4346 -0.0097
  229MPD1    C5 3531   2.737   0.493  14.972 -0.6255 -0.0210 -0.4307
  229MPD1     H 3532   3.111   0.501  15.038 -0.0996 -1.2552  1.6157
  229MPD1    H1 3533   2.731   0.297  15.038 -1.0808  1.0428  2.3000
  229MPD1    H2 3534   2.756   0.699  14.923  2.2402  0.1488 -0.1776
  229MPD1    H3 3535   2.632   0.494  14.947 -1.2377 -1.3931  2.0544
  229MPD1     N 3536   2.988   0.256  15.091  0.3786 -0.2084 -0.3003
  229MPD1    H5 3537   2.927   0.176  15.096  0.1553 -0.0290 -0.1585
  229MPD1    N1 3538   3.012   0.732  14.957  0.1256 -0.2341 -0.1019
  229MPD1    H6 3539   3.094   0.743  15.016 -0.2291 -2.3604  0.8092
  229MPD1    H7 3540   2.959   0.816  14.979 -0.3790 -0.0048 -2.1918
  230MPD1     C 3541   3.763   0.206  15.729  0.1241 -0.2208 -0.3007
  230MPD1    C1 3542   3.675   0.307  15.690 -0.3881  0.6273  0.1439
  230MPD1    C2 3543   3.557   0.268  15.634 -0.4040  0.9834  0.5577
  230MPD1    C3 3544   3.532   0.139  15.594  0.3152 -0.4862  0.4422
  230MPD1    C4 3545   3.628   0.050  15.609  0.1213 -0.7671  0.3183
  230MPD1    C5 3546   3.738   0.078  15.686 -0.2002 -0.2705  0.3501
  230MPD1     H 3547   3.479   0.342  15.615 -1.2603 -0.5201 -1.8016
  230MPD1    H1 3548   3.614   4.684  15.587 -1.5757 -0.0486 -2.0378
  230MPD1    H2 3549   3.858   0.222  15.779 -1.3316 -1.4178  2.7994
  230MPD1    H3 3550   3.813   0.001  15.706 -0.0006 -0.0578  0.4238
  230MPD1     N 3551   3.414   0.124  15.519 -0.0448 -0.2361  0.0370
  230MPD1    H5 3552   3.358   0.208  15.504 -0.1206 -0.3600 -0.3896
  230MPD1    N1 3553   3.700   0.442  15.732  0.5189 -0.4397 -0.9048
  230MPD1    H6 3554   3.792   0.487  15.725 -0.8803  3.0443  2.9711
  230MPD1    H7 3555   3.634   0.504  15.685  0.7192  1.2695  1.0605
  231MPD1     C 3556   1.475   1.795  15.434  0.8864 -0.3313 -0.1485
  231MPD1    C1 3557   1.462   1.783  15.300 -0.3593 -0.7330 -0.2914
  231MPD1    C2 3558   1.535   1.869  15.215  0.0577  0.0752  0.5400
  231MPD1    C3 3559   1.630   1.961  15.260  0.4821 -0.6436 -0.5460
  231MPD1    C4 3560   1.648   1.972  15.393  0.3112 -0.1824 -0.0287
  231MPD1    C5 3561   1.567   1.893  15.472  0.6894  1.0699  0.2677
  231MPD1     H 3562   1.515   1.861  15.109  0.3752 -1.3687  0.5820
  231MPD1    H1 3563   1.717   2.043  15.438 -0.5420  0.6088  0.0379
  231MPD1    H2 3564   1.424   1.736  15.509  0.9473 -2.6676 -1.9439
  231MPD1    H3 3565   1.582   1.906  15.578  2.2526  1.3037  0.0218
  231MPD1     N 3566   1.691   2.042  15.167 -0.4084 -0.3378  0.2501
  231MPD1    H5 3567   1.658   2.031  15.072  2.3061  0.2878 -0.7854
  231MPD1    N1 3568   1.376   1.690  15.254  0.8639 -0.1946 -0.4465
  231MPD1    H6 3569   1.324   1.644  15.329  0.5214 -0.6216 -0.9469
  231MPD1    H7 3570   1.321   1.725  15.177 -0.6317  0.7403  1.0667
  232MPD1     C 3571   3.634   4.427   0.568  0.3120  0.5918 -0.2827
  232MPD1    C1 3572   3.551   4.533   0.595  0.6756  0.4845  0.6479
  232MPD1    C2 3573   3.424   4.530   0.551  0.4374 -0.7361 -0.1237
  232MPD1    C3 3574   3.370   4.416   0.497  0.1685 -0.0717 -0.1237
  232MPD1    C4 3575   3.447   4.308   0.475 -0.4100  0.6168  0.5975
  232MPD1    C5 3576   3.580   4.317   0.507  0.4352 -0.2231 -0.0784
  232MPD1     H 3577   3.366   4.622   0.555  0.6915 -0.5176 -1.2655
  232MPD1    H1 3578   3.405   4.213   0.444 -0.6436  0.7886  0.3908
  232MPD1    H2 3579   3.741   4.428   0.588 -0.0842  0.8933  1.8049
  232MPD1    H3 3580   3.642   4.228   0.504 -0.2746 -0.6841 -1.1983
  232MPD1     N 3581   3.228   4.425   0.470 -0.3018  0.1699 -0.3701
  232MPD1    H5 3582   3.177   4.513   0.471 -1.3535 -0.4682  1.3406
  232MPD1    N1 3583   3.603   4.657   0.639 -0.1609 -0.3886  0.3760
  232MPD1    H6 3584   3.690   4.647   0.693  0.1767  0.2445 -0.0564
  232MPD1    H7 3585   3.541   4.718   0.691  2.4322  1.8513  0.8459
  233MPD1     C 3586   3.488   1.885   1.656 -0.1673 -0.8356 -0.4430
  233MPD1    C1 3587   3.564   1.998   1.621 -0.4132  0.2810  0.1051
  233MPD1    C2 3588   3.688   1.964   1.572 -0.5275  0.1567  0.0617
  233MPD1    C3 3589   3.718   1.835   1.533  0.4499  0.9355  0.1053
  233MPD1    C4 3590   3.641   1.732   1.571 -0.9495 -0.9033  0.4196
  233MPD1    C5 3591   3.531   1.758   1.637  0.5629 -0.7666 -0.3447
  233MPD1     H 3592   3.753   2.045   1.542  1.9305 -1.6669  0.4250
  233MPD1    H1 3593   3.662   1.628   1.550 -0.8496 -0.9927  0.9435
  233MPD1    H2 3594   3.388   1.890   1.698  0.1426 -1.8520  0.4083
  233MPD1    H3 3595   3.472   1.671   1.664 -0.8290  0.7742  1.5887
  233MPD1     N 3596   3.844   1.798   1.466 -0.5569  0.0484  0.4599
  233MPD1    H5 3597   3.869   1.699   1.470 -0.5209 -0.0599 -2.7428
  233MPD1    N1 3598   3.523   2.126   1.657 -0.3861 -0.3701 -0.1963
  233MPD1    H6 3599   3.566   2.191   1.592 -3.2595  0.9625 -0.7727
  233MPD1    H7 3600   3.427   2.115   1.625 -0.5199 -1.6601  0.6291
  234MPD1     C 3601   0.576   1.527  10.145 -0.6828 -0.7031  0.1136
  234MPD1    C1 3602   0.588   1.542  10.015  0.3956 -0.0643 -0.0255
  234MPD1    C2 3603   0.565   1.672   9.970 -0.1058 -0.2268  0.2251
  234MPD1    C3 3604   0.556   1.784  10.047  0.0115  0.2531 -0.1525
  234MPD1    C4 3605   0.551   1.762  10.185 -0.3300  0.6794  0.4163
  234MPD1    C5 3606   0.568   1.634  10.231 -0.5799  0.0300 -0.3243
  234MPD1     H 3607   0.558   1.686   9.862 -0.8004  0.7747  0.4050
  234MPD1    H1 3608   0.527   1.838  10.259 -0.4955  1.2255 -0.1974
  234MPD1    H2 3609   0.575   1.424  10.178  0.7248 -1.3224 -1.7997
  234MPD1    H3 3610   0.554   1.604  10.334  0.2139  0.2384 -0.1543
  234MPD1     N 3611   0.559   1.911   9.996 -0.3340  0.1373  0.3180
  234MPD1    H5 3612   0.579   1.919   9.897 -0.4663 -0.9629  0.2042
  234MPD1    N1 3613   0.576   1.433   9.935 -0.0361 -0.6490  0.4324
  234MPD1    H6 3614   0.631   1.356   9.974 -1.1271 -1.9951 -0.6933
  234MPD1    H7 3615   0.609   1.449   9.840 -0.5008 -1.6535  0.1023
  235MPD1     C 3616   2.651   4.207  10.492  0.7677 -0.2582  0.3721
  235MPD1    C1 3617   2.658   4.166  10.356  0.3071 -0.1297  0.4185
  235MPD1    C2 3618   2.749   4.218  10.274 -0.2170  0.1008 -0.1503
  235MPD1    C3 3619   2.847   4.300  10.327 -0.3531  0.8947 -0.4307
  235MPD1    C4 3620   2.841   4.337  10.457 -0.0011  0.0837  0.3177
  235MPD1    C5 3621   2.750   4.287  10.547  0.1357  0.7982 -0.7380
  235MPD1     H 3622   2.757   4.191  10.170 -1.8090 -0.6530 -0.0723
  235MPD1    H1 3623   2.921   4.393  10.504 -0.8183  1.2415  0.3321
  235MPD1    H2 3624   2.579   4.168  10.562  1.6339 -3.8288 -0.7361
  235MPD1    H3 3625   2.749   4.320  10.651  0.2140 -0.7423 -0.2552
  235MPD1     N 3626   2.952   4.344  10.243 -0.0078  0.1967  0.4843
  235MPD1    H5 3627   2.947   4.324  10.143 -1.4442 -1.2365  0.8433
  235MPD1    N1 3628   2.562   4.071  10.308  0.8601 -0.4763  0.8882
  235MPD1    H6 3629   2.513   4.028  10.386 -0.9595  4.0370  2.2282
  235MPD1    H7 3630   2.610   3.999  10.254  0.0005  0.8974 -1.7424
  236MPD1     C 3631   1.605   0.622  10.148 -0.4998 -0.0622  0.1720
  236MPD1    C1 3632   1.650   0.710  10.247 -0.5655 -0.1191  0.1724
  236MPD1    C2 3633   1.747   0.656  10.334 -0.8403 -0.0394 -0.1326
  236MPD1    C3 3634   1.793   0.525  10.321 -0.4652  0.1555 -0.0160
  236MPD1    C4 3635   1.756   0.445  10.214 -0.3995  0.1668  0.1627
  236MPD1    C5 3636   1.661   0.491  10.130 -0.0762 -0.1332 -0.0798
  236MPD1     H 3637   1.777   0.715  10.420  0.4088 -1.0732  0.1409
  236MPD1    H1 3638   1.776   0.339  10.213  0.3130  0.3001  0.1573
  236MPD1    H2 3639   1.536   0.655  10.071 -0.6609 -0.2016  0.2576
  236MPD1    H3 3640   1.631   0.434  10.043 -1.6509  0.6351 -0.0581
  236MPD1     N 3641   1.900   0.476  10.403 -0.2689  0.0133 -0.1838
  236MPD1    H5 3642   1.928   0.382  10.378 -1.3932  0.1917 -2.1228
  236MPD1    N1 3643   1.616   0.846  10.246  0.3820  0.4529 -0.2906
  236MPD1    H6 3644   1.626   0.887  10.339  0.6401 -0.4402  0.0704
  236MPD1    H7 3645   1.523   0.859  10.208  0.8655  1.1618 -1.2203
  237MPD1     C 3646   2.283   3.860  14.890  0.4691  0.1241 -0.0522
  237MPD1    C1 3647   2.314   3.731  14.921 -0.3182 -0.3967 -0.3822
  237MPD1    C2 3648   2.207   3.650  14.929 -0.1028 -0.3339 -0.1295
  237MPD1    C3 3649   2.075   3.689  14.920 -0.1401  0.1107  0.5117
  237MPD1    C4 3650   2.052   3.825  14.903  0.2246  0.1419  0.1451
  237MPD1    C5 3651   2.160   3.910  14.889 -0.4686  0.7513 -0.3833
  237MPD1     H 3652   2.225   3.545  14.952  2.6050  0.4339  1.3273
  237MPD1    H1 3653   1.953   3.868  14.900 -0.0916 -0.5827  0.2791
  237MPD1    H2 3654   2.361   3.935  14.879  1.1199 -0.4367  0.6806
  237MPD1    H3 3655   2.139   4.012  14.860  2.4408  1.7460  1.0255
  237MPD1     N 3656   1.963   3.607  14.941  0.7767 -0.6024 -0.5217
  237MPD1    H5 3657   1.888   3.669  14.971  0.7707 -0.8544 -0.0219
  237MPD1    N1 3658   2.443   3.675  14.899 -0.1644 -0.3288  0.3136
  237MPD1    H6 3659   2.519   3.743  14.908  0.2189 -0.6331 -0.6698
  237MPD1    H7 3660   2.463   3.613  14.978 -1.9533 -1.1980  0.0629
  238MPD1     C 3661   3.336   1.782  16.006 -0.2050  0.0343 -0.4988
  238MPD1    C1 3662   3.379   1.710  15.893  0.0610  0.0843  0.5103
  238MPD1    C2 3663   3.309   1.728  15.773 -0.2517  0.5883 -0.5506
  238MPD1    C3 3664   3.192   1.799  15.774  0.0884  0.5125 -0.3462
  238MPD1    C4 3665   3.147   1.857  15.884 -0.0043  0.2335  0.1251
  238MPD1    C5 3666   3.212   1.849  15.999 -0.1364  0.5224  0.3667
  238MPD1     H 3667   3.334   1.665  15.689  0.6339 -1.1077  0.9867
  238MPD1    H1 3668   3.061   1.923  15.890  0.4004  0.9544 -2.0653
  238MPD1    H2 3669   3.387   1.768  16.101 -1.3796  1.9174  0.4102
  238MPD1    H3 3670   3.166   1.891  16.088  1.2252 -1.3388  1.9414
  238MPD1     N 3671   3.122   1.829  15.655 -0.2618 -0.0284 -0.3095
  238MPD1    H5 3672   3.043   1.891  15.670 -0.8392 -0.7727 -0.2995
  238MPD1    N1 3673   3.494   1.626  15.889  0.2719  0.1639  0.3732
  238MPD1    H6 3674   3.487   1.555  15.816  0.7311  0.6189 -0.1085
  238MPD1    H7 3675   3.513   1.581  15.978 -1.1420  1.9018  1.5520
  239MPD1     C 3676   3.512   2.620  14.840  0.8243  0.4078 -0.2728
  239MPD1    C1 3677   3.508   2.746  14.899 -0.2307  0.2367  0.5174
  239MPD1    C2 3678   3.475   2.847  14.811  0.2177  0.2766 -0.6059
  239MPD1    C3 3679   3.471   2.834  14.672  0.2308  0.3672 -0.2982
  239MPD1    C4 3680   3.497   2.712  14.623  0.4307 -0.3493 -0.0238
  239MPD1    C5 3681   3.509   2.608  14.703  0.1506  0.5515  0.7539
  239MPD1     H 3682   3.458   2.945  14.853  0.5812  0.4427 -0.8386
  239MPD1    H1 3683   3.500   2.693  14.516  1.0563  0.7312 -0.2099
  239MPD1    H2 3684   3.536   2.530  14.895  0.6930  1.8176  2.1023
  239MPD1    H3 3685   3.520   2.509  14.659  1.4373  0.9144  0.2441
  239MPD1     N 3686   3.434   2.929  14.578 -0.3790  0.4785  0.3693
  239MPD1    H5 3687   3.430   2.900  14.481  1.2660  1.6028 -0.0362
  239MPD1    N1 3688   3.511   2.768  15.039  0.5077 -0.1818 -0.4477
  239MPD1    H6 3689   3.535   2.864  15.060  1.9047 -0.5005 -0.6014
  239MPD1    H7 3690   3.590   2.722  15.084  1.2409  2.0348  0.5126
  240MPD1     C 3691   3.264   2.395  14.426 -0.2496 -0.3842 -0.1851
  240MPD1    C1 3692   3.139   2.454  14.382 -0.4719 -0.1366  1.3341
  240MPD1    C2 3693   3.036   2.458  14.475 -0.0096  0.4370 -0.2259
  240MPD1    C3 3694   3.046   2.392  14.598  0.5989  0.0370 -0.1039
  240MPD1    C4 3695   3.159   2.325  14.620 -0.1105 -0.3503  0.1480
  240MPD1    C5 3696   3.272   2.337  14.548 -0.6545 -0.1645 -0.1396
  240MPD1     H 3697   2.942   2.510  14.461 -0.9515 -1.4933 -1.1585
  240MPD1    H1 3698   3.172   2.267  14.711 -1.8505 -0.4292  0.3337
  240MPD1    H2 3699   3.354   2.403  14.367  0.3640 -0.2337  0.7699
  240MPD1    H3 3700   3.363   2.290  14.585 -1.1064 -1.5053 -0.7435
  240MPD1     N 3701   2.936   2.391  14.687  0.3471  0.7555 -0.1812
  240MPD1    H5 3702   2.862   2.450  14.651  0.2404  0.6091 -0.1966
  240MPD1    N1 3703   3.146   2.533  14.271 -0.3814 -0.5205 -0.1951
  240MPD1    H6 3704   3.060   2.559  14.222 -0.8240 -0.0095  0.8432
  240MPD1    H7 3705   3.212   2.504  14.200 -0.2011 -2.8070  0.9031
  241MPD1     C 3706   2.754   2.389  15.695 -0.6674  0.2271 -0.7880
  241MPD1    C1 3707   2.678   2.283  15.642  0.3588 -0.0073 -0.2700
  241MPD1    C2 3708   2.683   2.260  15.504 -0.4582  0.3468  0.6814
  241MPD1    C3 3709   2.756   2.347  15.417  0.2254 -0.3072  0.4407
  241MPD1    C4 3710   2.828   2.447  15.476  1.2204 -0.3979  0.1842
  241MPD1    C5 3711   2.833   2.466  15.612  0.3417  0.8230 -0.1025
  241MPD1     H 3712   2.628   2.175  15.465 -1.0656  0.9404  0.2530
  241MPD1    H1 3713   2.891   2.505  15.410  0.9681 -0.2634  0.0630
  241MPD1    H2 3714   2.744   2.419  15.799  2.2677  1.4914 -0.8495
  241MPD1    H3 3715   2.886   2.550  15.654 -0.4237  1.7435 -0.9899
  241MPD1     N 3716   2.753   2.342  15.280  0.0746 -0.3786 -0.8196
  241MPD1    H5 3717   2.802   2.413  15.227 -2.2608  0.6651 -1.5520
  241MPD1    N1 3718   2.577   2.227  15.720  0.0738  0.2012 -0.3098
  241MPD1    H6 3719   2.609   2.217  15.815  1.5859 -1.4093 -1.0060
  241MPD1    H7 3720   2.546   2.137  15.684  2.5212 -1.1763  1.0347
  242MPD1     C 3721   2.634   0.060  15.950 -0.2607  0.4718 -0.5490
  242MPD1    C1 3722   2.561   0.038  15.834 -0.3260 -0.3488 -0.8059
  242MPD1    C2 3723   2.562   0.128  15.728 -0.7916  0.6639 -0.0503
  242MPD1    C3 3724   2.629   0.246  15.757  0.0920  0.0718  0.0840
  242MPD1    C4 3725   2.703   0.269  15.878  0.1346 -0.2642  0.3605
  242MPD1    C5 3726   2.708   0.170  15.965 -0.4171 -0.7617  0.3087
  242MPD1     H 3727   2.501   0.108  15.642 -1.6396 -0.6894  0.8687
  242MPD1    H1 3728   2.763   0.359  15.889  1.9288 -1.2784 -1.1677
  242MPD1    H2 3729   2.624   4.730  16.033  0.4433 -0.3752 -1.1596
  242MPD1    H3 3730   2.763   0.176  16.059 -2.0190 -2.0279  1.3124
  242MPD1     N 3731   2.626   0.356  15.664 -0.1934 -0.2568  0.6833
  242MPD1    H5 3732   2.685   0.434  15.692  0.6881 -0.7328  0.1711
  242MPD1    N1 3733   2.469   4.669  15.820  0.6045 -1.0229  0.0375
  242MPD1    H6 3734   2.487   4.594  15.887 -1.1792 -1.9115 -0.4939
  242MPD1    H7 3735   2.463   4.633  15.726 -0.3245  1.6469 -0.9353
  243MPD1     C 3736   3.607   4.283  17.672  0.0703  0.5802  0.8267
  243MPD1    C1 3737   3.724   4.342  17.622  0.6893 -0.2633 -0.2955
  243MPD1    C2 3738   3.820   4.258  17.575  0.4752 -0.0528  0.0070
  243MPD1    C3 3739   3.800   4.121  17.583 -0.5841  0.3594  0.2012
  243MPD1    C4 3740   3.680   4.067  17.617  0.2331  0.3506  0.8367
  243MPD1    C5 3741   3.582   4.151  17.657 -0.0111  0.3714 -0.4735
  243MPD1     H 3742   3.917   4.290  17.538 -1.3766  2.6684 -2.5273
  243MPD1    H1 3743   3.660   3.961  17.626  0.3242  0.2525 -0.0730
  243MPD1    H2 3744   3.534   4.354  17.710 -0.2732  0.7891 -0.2266
  243MPD1    H3 3745   3.489   4.113  17.698  1.5882 -0.6011  2.2476
  243MPD1     N 3746   3.910   4.040  17.538  0.1222  0.0293 -0.6256
  243MPD1    H5 3747   3.983   4.105  17.507 -0.2145  0.5480 -0.3239
  243MPD1    N1 3748   3.747   4.484  17.629 -0.0036 -0.0340  0.3111
  243MPD1    H6 3749   3.672   4.549  17.605 -0.8716 -1.7228 -1.4945
  243MPD1    H7 3750   3.823   4.512  17.567 -1.0237  0.8715 -0.5502
  244MPD1     C 3751   4.288   3.059  17.736  0.2028 -0.1171  0.3683
  244MPD1    C1 3752   4.280   3.067  17.599  0.5540 -0.1531  0.2215
  244MPD1    C2 3753   4.256   3.193  17.548  0.0033 -0.1260 -0.0511
  244MPD1    C3 3754   4.251   3.307  17.627 -0.2265 -0.4721 -0.7793
  244MPD1    C4 3755   4.268   3.292   0.009  0.4852  0.3869  0.1313
  244MPD1    C5 3756   4.286   3.170   0.065 -0.4446  0.0558  0.4023
  244MPD1     H 3757   4.269   3.208  17.441  0.1416  2.5496  0.3405
  244MPD1    H1 3758   4.285   3.376   0.075 -0.5747  0.9732 -0.3406
  244MPD1    H2 3759   4.317   2.967   0.033 -0.1599 -1.4380 -1.8704
  244MPD1    H3 3760   4.303   3.158   0.171  1.1575  1.7559  0.3336
  244MPD1     N 3761   4.235   3.431  17.571 -0.4776  0.4717  0.7954
  244MPD1    H5 3762   4.248   3.443  17.471  2.8177  0.9980  1.3048
  244MPD1    N1 3763   4.317   2.959  17.516  0.3145 -0.1618  0.4410
  244MPD1    H6 3764   4.268   2.970  17.427  1.4025 -0.4245 -0.1998
  244MPD1    H7 3765   4.286   2.869  17.552  0.6515 -0.7902 -0.8291
  245MPD1     C 3766   1.075   0.024  12.936 -0.5173 -0.5557 -0.0303
  245MPD1    C1 3767   1.155   0.123  12.897 -0.0367  0.2935 -0.6805
  245MPD1    C2 3768   1.182   0.222  12.989 -0.0022 -0.1525 -1.3163
  245MPD1    C3 3769   1.133   0.216  13.116  0.2832 -0.3276  0.3065
  245MPD1    C4 3770   1.061   0.110  13.157 -0.6546  0.3195 -0.8725
  245MPD1    C5 3771   1.025   0.020  13.063 -0.3351  0.3623 -0.2985
  245MPD1     H 3772   1.253   0.298  12.961  0.7217 -0.3371  0.0413
  245MPD1    H1 3773   1.020   0.116  13.257 -0.0791 -1.1344 -0.5447
  245MPD1    H2 3774   1.047   4.686  12.864 -1.1129  0.6478 -1.0766
  245MPD1    H3 3775   0.965   4.674  13.095 -0.1255 -0.2402 -1.5154
  245MPD1     N 3776   1.167   0.322  13.208  0.2195 -0.6271 -0.0267
  245MPD1    H5 3777   1.222   0.395  13.164 -0.0290  0.4805  1.4963
  245MPD1    N1 3778   1.244   0.098  12.785 -0.4004  0.4852  0.0591
  245MPD1    H6 3779   1.216   0.040  12.707 -0.3966  1.5410 -0.7225
  245MPD1    H7 3780   1.282   0.183  12.745  0.1198  0.2041 -0.0337
  246MPD1     C 3781   2.967   1.838  10.336 -0.4969  0.3352  0.7340
  246MPD1    C1 3782   2.967   1.717  10.404  0.2664 -0.0096 -0.1945
  246MPD1    C2 3783   2.887   1.615  10.352 -0.4970  0.0826 -0.6419
  246MPD1    C3 3784   2.825   1.633  10.230 -0.8949 -0.2688  0.1714
  246MPD1    C4 3785   2.825   1.758  10.169 -0.1503  0.2870 -0.1589
  246MPD1    C5 3786   2.889   1.866  10.224 -0.9149  0.2347 -0.3571
  246MPD1     H 3787   2.901   1.513  10.387  0.8698  0.5696  0.2683
  246MPD1    H1 3788   2.788   1.777  10.068  0.7094  3.1663  0.0707
  246MPD1    H2 3789   3.015   1.928  10.374  1.1284 -0.0179 -0.4821
  246MPD1    H3 3790   2.896   1.965  10.180 -2.6157 -0.4953 -2.2911
  246MPD1     N 3791   2.793   1.516  10.149  0.4602  0.1196  0.1842
  246MPD1    H5 3792   2.802   1.423  10.190 -3.1399 -0.6070 -0.6586
  246MPD1    N1 3793   3.024   1.713  10.534 -0.4198 -0.0797  0.3598
  246MPD1    H6 3794   3.047   1.617  10.560 -2.4570 -0.7156 -0.1884
  246MPD1    H7 3795   3.105   1.774  10.539 -0.1124 -0.2079 -3.1626
  247MPD1     C 3796   1.140   0.793  16.796  0.2529 -0.3564 -0.3858
  247MPD1    C1 3797   1.093   0.702  16.895  0.1300  0.3011 -0.0617
  247MPD1    C2 3798   1.078   0.568  16.853 -0.1964  0.1710  0.0749
  247MPD1    C3 3799   1.091   0.533  16.717 -0.2011  0.7533  0.6537
  247MPD1    C4 3800   1.129   0.627  16.627  0.4927 -0.1675  0.1485
  247MPD1    C5 3801   1.151   0.754  16.666  0.0433  0.0869 -0.1341
  247MPD1     H 3802   1.036   0.489  16.915 -0.7898 -0.3331 -0.9670
  247MPD1    H1 3803   1.144   0.602  16.523  1.9130  1.3491 -0.0088
  247MPD1    H2 3804   1.176   0.893  16.816 -0.9430  0.4528 -2.2794
  247MPD1    H3 3805   1.182   0.819  16.586  1.6765  0.3116  0.6724
  247MPD1     N 3806   1.074   0.403  16.664 -0.6080 -0.1888 -0.5261
  247MPD1    H5 3807   1.091   0.388  16.565 -2.4153  0.9644 -0.9926
  247MPD1    N1 3808   1.092   0.725  17.032  0.3740  0.1142 -0.6307
  247MPD1    H6 3809   1.077   0.824  17.053  0.8718  0.0873 -0.1476
  247MPD1    H7 3810   1.013   0.673  17.069  0.9757 -0.2198  0.1845
  248MPD1     C 3811   1.427   3.490  17.632 -0.4014  0.4935  0.2983
  248MPD1    C1 3812   1.369   3.613  17.654  0.2423  0.5011  0.0481
  248MPD1    C2 3813   1.392   3.673   0.019 -0.9111  0.1912 -0.4965
  248MPD1    C3 3814   1.493   3.632   0.111  0.3520 -0.1483  0.0072
  248MPD1    C4 3815   1.570   3.522   0.072 -0.0393  0.1790  0.2361
  248MPD1    C5 3816   1.529   3.444  17.710 -0.1099  0.1243 -0.2313
  248MPD1     H 3817   1.333   3.760   0.048  0.0394 -0.4407  3.2968
  248MPD1    H1 3818   1.659   3.489   0.124  0.4468 -0.2055 -0.8362
  248MPD1    H2 3819   1.415   3.428  17.545  1.6219  0.3418  0.1228
  248MPD1    H3 3820   1.582   3.355  17.676 -1.2904  0.1050 -1.9841
  248MPD1     N 3821   1.510   3.695   0.240 -0.5422  0.2265  0.3980
  248MPD1    H5 3822   1.460   3.783   0.245 -2.0011 -0.5977  0.4657
  248MPD1    N1 3823   1.259   3.642  17.569  0.4924 -0.2767  0.6214
  248MPD1    H6 3824   1.291   3.619  17.476  1.3688 -1.2058  1.1511
  248MPD1    H7 3825   1.244   3.742  17.571  0.9088 -0.2502  2.8673
  249MPD1     C 3826   2.564   3.564  10.446  0.2096  0.6468  0.0555
  249MPD1    C1 3827   2.664   3.611  10.527 -0.4495 -0.1363  0.0965
  249MPD1    C2 3828   2.795   3.594  10.475  0.6497 -0.4443  0.5426
  249MPD1    C3 3829   2.821   3.529  10.357  0.2943 -0.5707  0.1611
  249MPD1    C4 3830   2.714   3.485  10.282  0.2141  0.6834  0.8489
  249MPD1    C5 3831   2.587   3.504  10.323 -0.2762 -0.4067 -0.1044
  249MPD1     H 3832   2.882   3.635  10.525  0.6671  0.5627 -0.3203
  249MPD1    H1 3833   2.722   3.436  10.185  0.3865 -1.2860  1.8590
  249MPD1    H2 3834   2.461   3.581  10.476  0.1974  0.7630 -0.0520
  249MPD1    H3 3835   2.509   3.485  10.249 -1.0115  0.4393  0.4560
  249MPD1     N 3836   2.954   3.518  10.309  0.2953 -0.3737 -0.2716
  249MPD1    H5 3837   3.029   3.549  10.370  0.8886 -1.0275 -0.6690
  249MPD1    N1 3838   2.644   3.664  10.652 -0.1104  0.1030  0.5101
  249MPD1    H6 3839   2.727   3.722  10.667 -0.2478  0.1316  1.1283
  249MPD1    H7 3840   2.563   3.722  10.669 -0.8462 -0.4797 -1.0137
  250MPD2     C 3841   4.568   3.176  13.311  0.2349 -0.0894 -0.3160
  250MPD2    C1 3842   4.517   3.290  13.255 -0.1864  0.3712  0.3967
  250MPD2    C2 3843   4.395   3.280  13.183  0.5044  0.9205 -0.2695
  250MPD2    C3 3844   4.308   3.175  13.200  0.3608 -0.1233  0.5632
  250MPD2    C4 3845   4.360   3.061  13.266 -0.0167  0.0902 -0.2307
  250MPD2    C5 3846   4.488   3.058  13.314  0.3973 -0.9140  0.2920
  250MPD2     H 3847   4.365   3.366  13.125  0.9296 -0.1522 -2.0631
  250MPD2    H1 3848   4.308   2.966  13.274  0.3930 -0.0103  1.1139
  250MPD2    H2 3849   4.671   3.170  13.344  0.2880 -2.7893 -1.0166
  250MPD2    H3 3850   4.531   2.967  13.354  0.7582 -1.1502 -0.6440
  250MPD2     N 3851   4.182   3.162  13.134 -0.1230 -0.1124 -0.0061
  250MPD2    H5 3852   4.156   3.068  13.107  1.0554 -0.8103  1.2978
  250MPD2    N1 3853   4.590   3.413  13.240  0.0555  0.4229 -0.2181
  250MPD2    H7 3854   4.545   3.486  13.185  2.7936  2.3957  0.0869
  251TMC3    C1 3855   0.021   3.564  13.256 -0.0360 -0.0327  0.0202
  251TMC3    C2 3856   4.664   3.661  13.271  0.0555  0.2150  0.5522
  251TMC3    C3 3857   4.699   3.786  13.246 -0.3764  1.0841 -0.2487
  251TMC3    C4 3858   0.150   3.597  13.229 -0.0674 -0.2043  0.5304
  251TMC3    C5 3859   0.182   3.727  13.212 -0.0881  0.1862 -0.4377
  251TMC3    C6 3860   0.088   3.825  13.224  0.5374  0.3344 -0.1681
  251TMC3     C 3861   4.718   3.424  13.273 -0.1477  0.4464 -0.4650
  251TMC3     O 3862   0.073   3.349  13.299  0.0665 -0.0784  0.6443
  251TMC3     H 3863   4.565   3.645  13.313 -1.3921  0.7209 -2.6586
  251TMC3    H1 3864   0.228   3.521  13.232 -0.4350 -0.6189 -0.4743
  251TMC3    H2 3865   0.117   3.929  13.224  1.2596  0.1268  1.6428
  251TMC3    C7 3866   0.318   3.745  13.174 -1.1725  0.5211 -0.4355
  251TMC3    C8 3867   4.616   3.891  13.316  0.3930 -0.2751 -0.1810
  251TMC3    O1 3868   0.402   3.652  13.178  0.6542 -0.2130  0.3835
  251TMC3    O2 3869   4.547   3.856  13.411 -0.3428  0.3803 -0.0520
  252TMC3    C1 3870   0.131   1.023   9.297 -0.4269  0.1803  0.0361
  252TMC3    C2 3871   0.261   0.967   9.300 -0.4822 -0.2971 -0.0457
  252TMC3    C3 3872   0.282   0.871   9.391 -0.1433 -0.3628  0.5074
  252TMC3    C4 3873   0.032   0.973   9.376 -0.4261  0.1599 -0.1294
  252TMC3    C5 3874   0.061   0.875   9.462  0.3231 -0.1130  0.8099
  252TMC3    C6 3875   0.182   0.816   9.474 -0.6037  0.3758  0.3059
  252TMC3     C 3876   0.098   1.138   9.210 -0.9445 -0.0216 -0.4765
  252TMC3     O 3877   4.725   1.195   9.217  0.0250 -0.0710 -0.0758
  252TMC3     H 3878   0.341   0.992   9.231 -0.1213 -1.8055 -0.1711
  252TMC3    H1 3879   4.671   1.012   9.358 -0.1869  0.0153 -1.7588
  252TMC3    H2 3880   0.212   0.757   9.560  0.8251  0.0771 -0.3968
  252TMC3    C7 3881   4.689   0.843   9.554  0.7566 -0.5130 -0.4531
  252TMC3    C8 3882   0.418   0.818   9.383 -0.2546  0.2045 -0.3905
  252TMC3    O1 3883   4.605   0.931   9.567  0.0048 -0.1929  0.1107
  252TMC3    O2 3884   0.510   0.900   9.359  0.2433 -0.5528 -0.0622
  253MPD2     C 3885   0.991   3.322  14.909  0.6714 -0.7421  0.5729
  253MPD2    C1 3886   0.898   3.408  14.969  0.0291  0.4528  0.3465
  253MPD2    C2 3887   0.915   3.445  15.103  0.1665  0.0850 -0.6639
  253MPD2    C3 3888   1.037   3.414  15.168 -0.4738  0.0785  0.7163
  253MPD2    C4 3889   1.133   3.342  15.097  0.5480  0.0801 -0.0641
  253MPD2    C5 3890   1.107   3.288  14.972  0.5322  0.6704  0.6230
  253MPD2     H 3891   0.837   3.497  15.158  0.0666  0.1031 -0.8219
  253MPD2    H1 3892   1.224   3.303  15.142 -1.4958 -4.4787  0.1271
  253MPD2    H2 3893   0.978   3.295  14.804  3.3340  1.6841 -0.4096
  253MPD2    H3 3894   1.183   3.222  14.930 -1.9670 -0.3366 -2.3427
  253MPD2     N 3895   1.056   3.427  15.313 -0.1840  0.1073  0.6555
  253MPD2    H5 3896   1.140   3.389  15.356  0.7972  1.2620 -0.2179
  253MPD2    N1 3897   0.779   3.461  14.903  0.1039  0.1807 -0.1220
  253MPD2    H7 3898   0.728   3.536  14.947 -1.7160 -0.3118 -1.4117
  254TMC3    C1 3899   0.990   3.481  15.536 -0.0504  0.2925  0.0516
  254TMC3    C2 3900   0.875   3.500  15.604 -0.0575  0.0948 -0.2717
  254TMC3    C3 3901   0.865   3.457  15.729 -0.7189 -0.4359 -0.5137
  254TMC3    C4 3902   1.093   3.413  15.589  0.0756 -0.2806 -0.2547
  254TMC3    C5 3903   1.087   3.377  15.721 -0.1831  0.1613  0.2147
  254TMC3    C6 3904   0.969   3.394  15.796  0.3450  0.0911  1.0542
  254TMC3     C 3905   0.972   3.500  15.397 -0.5668  0.5545  0.7041
  254TMC3     O 3906   0.888   3.582  15.364  0.1437  0.0145  0.2204
  254TMC3     H 3907   0.789   3.551  15.561 -0.1426 -0.5550 -0.8772
  254TMC3    H1 3908   1.183   3.397  15.531  0.8528  0.5002  0.7375
  254TMC3    H2 3909   0.960   3.347  15.893 -0.5840 -0.4486  0.6940
  254TMC3    C7 3910   1.179   3.275  15.768  0.1931 -0.8399  0.4543
  254TMC3    C8 3911   0.747   3.476  15.811 -0.1945  0.5788 -1.0187
  254TMC3    O1 3912   1.159   3.218  15.877 -0.1551 -0.0166  0.1128
  254TMC3    O2 3913   0.768   3.465  15.933 -0.3324  0.0704  0.1543
  255MPD2     C 3914   0.195   1.608   9.653 -0.4772  0.5994  0.3654
  255MPD2    C1 3915   0.204   1.727   9.587 -0.3913  0.4687  0.1120
  255MPD2    C2 3916   0.311   1.752   9.507 -0.0358  0.0493  0.1437
  255MPD2    C3 3917   0.426   1.677   9.517 -0.1699  0.2090 -0.2601
  255MPD2    C4 3918   0.423   1.561   9.599 -0.4678  0.1754 -0.1382
  255MPD2    C5 3919   0.308   1.535   9.664 -0.0753 -0.4270  0.1177
  255MPD2     H 3920   0.301   1.820   9.424 -0.7805 -1.4389 -0.9891
  255MPD2    H1 3921   0.507   1.493   9.613 -0.3440  0.2742 -0.3975
  255MPD2    H2 3922   0.111   1.573   9.712 -1.8585 -0.7929 -2.4602
  255MPD2    H3 3923   0.310   1.450   9.731 -0.5388 -0.1653  0.4643
  255MPD2     N 3924   0.532   1.714   9.432 -0.0220 -0.1860 -0.0706
  255MPD2    H5 3925   0.521   1.798   9.377 -0.3317  0.6017  1.1924
  255MPD2    N1 3926   0.079   1.798   9.579  0.3569  0.7271  0.0293
  255MPD2    H7 3927   4.732   1.757   9.615  1.3658  0.1629  1.8159
  256TMC3    C1 3928   4.670   1.959   9.481  0.0279 -0.2047 -0.1180
  256TMC3    C2 3929   4.649   2.094   9.459  0.4182 -0.6945 -0.7612
  256TMC3    C3 3930   4.525   2.123   9.404  0.6347 -0.1480  0.3660
  256TMC3    C4 3931   4.592   1.856   9.444 -0.3900 -0.2901 -0.7919
  256TMC3    C5 3932   4.480   1.894   9.379  0.3133  0.5732 -0.5601
  256TMC3    C6 3933   4.438   2.026   9.362 -0.1581  0.2617  0.1247
  256TMC3     C 3934   0.064   1.926   9.526  0.9772 -0.0021 -0.4840
  256TMC3     O 3935   0.151   2.011   9.505 -0.7315  0.3713  0.6188
  256TMC3     H 3936   4.720   2.161   9.505 -0.6136 -0.0286 -0.1264
  256TMC3    H1 3937   4.610   1.751   9.459  0.1935  0.1495  1.5826
  256TMC3    H2 3938   4.341   2.048   9.317  0.3197  1.7073 -0.1981
  256TMC3    C7 3939   4.388   1.788   9.365 -0.6314  0.3149 -0.3064
  256TMC3    C8 3940   4.478   2.259   9.398  0.2966  0.4394 -0.3486
  256TMC3    O1 3941   4.406   1.697   9.440 -0.3122  0.3316  0.2561
  256TMC3    O2 3942   4.358   2.279   9.393  0.3931  0.5466  0.2357
  257MPD2     C 3943   2.696   3.339  13.510 -0.0257 -0.8682  0.2555
  257MPD2    C1 3944   2.789   3.321  13.409 -0.7378 -0.5533 -0.1296
  257MPD2    C2 3945   2.883   3.215  13.417  0.6789  0.1828  0.2787
  257MPD2    C3 3946   2.859   3.112  13.503  0.1032 -0.1272  0.7605
  257MPD2    C4 3947   2.759   3.117  13.598  0.5893 -0.0676 -0.7382
  257MPD2    C5 3948   2.677   3.233  13.602 -0.2077  0.0788  0.7841
  257MPD2     H 3949   2.973   3.211  13.358  0.1081 -1.8472 -0.4464
  257MPD2    H1 3950   2.749   3.031  13.663  3.5645  1.0082  1.1453
  257MPD2    H2 3951   2.633   3.427  13.518 -0.0556 -0.8923  0.2829
  257MPD2    H3 3952   2.605   3.230  13.682 -0.6657 -0.0006  0.3675
  257MPD2     N 3953   2.964   3.009  13.501 -0.4482 -0.3585 -0.5660
  257MPD2    H5 3954   3.000   3.006  13.406 -2.1875  1.0191 -1.2789
  257MPD2    N1 3955   2.803   3.425  13.317  0.7700 -0.5331  0.0136
  257MPD2    H7 3956   2.747   3.507  13.338  1.4228 -0.1239  0.1710
  258TMC3    C1 3957   3.074   2.806  13.534  0.2557  0.0136  0.1214
  258TMC3    C2 3958   3.061   2.748  13.411  0.6863 -0.0547 -0.8595
  258TMC3    C3 3959   3.129   2.638  13.380  0.4555  0.0775 -1.2288
  258TMC3    C4 3960   3.153   2.747  13.631  0.2212  0.3103 -0.0513
  258TMC3    C5 3961   3.228   2.636  13.599 -0.1156  0.0418 -0.6415
  258TMC3    C6 3962   3.210   2.579  13.474  0.6050 -0.9104 -0.0316
  258TMC3     C 3963   2.986   2.903  13.590 -0.2106 -0.0962 -0.1117
  258TMC3     O 3964   2.972   2.908  13.714  0.0391  0.5542  0.2581
  258TMC3     H 3965   3.000   2.803  13.340 -1.4503  1.0235  1.8308
  258TMC3    H1 3966   3.173   2.794  13.726 -2.6474  2.0909 -0.2984
  258TMC3    H2 3967   3.262   2.486  13.451 -3.8214 -3.5275  0.3584
  258TMC3    C7 3968   3.272   2.546  13.707 -0.2871 -0.0435 -0.2790
  258TMC3    C8 3969   3.101   2.575  13.250  0.8671  0.1276  0.4150
  258TMC3    O1 3970   3.273   2.423  13.684  0.0581 -0.4537 -0.0065
  258TMC3    O2 3971   3.046   2.642  13.164  0.7484 -0.1902  0.2297
  259MPD2     C 3972   1.973   0.269   0.766  0.6315 -0.3290  0.2313
  259MPD2    C1 3973   2.104   0.237   0.735  0.0507  0.5945 -0.7991
  259MPD2    C2 3974   2.156   0.292   0.619  0.2322  0.4275 -0.2538
  259MPD2    C3 3975   2.073   0.366   0.530  1.1128 -0.1232 -0.9258
  259MPD2    C4 3976   1.944   0.391   0.563 -0.0773 -0.5353  0.2300
  259MPD2    C5 3977   1.891   0.339   0.674 -0.1824  0.1576  0.4986
  259MPD2     H 3978   2.261   0.273   0.596  0.8946 -0.1677  3.3490
  259MPD2    H1 3979   1.878   0.443   0.494 -0.7305 -2.7449 -0.8263
  259MPD2    H2 3980   1.933   0.235   0.861  1.0502 -0.1516  0.4709
  259MPD2    H3 3981   1.794   0.381   0.698 -1.1023 -0.7333 -1.6393
  259MPD2     N 3982   2.108   0.397   0.391 -0.0894 -0.0103  0.4350
  259MPD2    H5 3983   2.043   0.407   0.314 -2.8097 -0.1061  2.7126
  259MPD2    N1 3984   2.181   0.167   0.828 -0.3468  0.1371  0.7300
  259MPD2    H7 3985   2.134   0.135   0.912 -0.8907  1.4959  0.9357
  260TMC3    C1 3986   2.248   0.380   0.212 -0.1321  0.6873 -0.4278
  260TMC3    C2 3987   2.361   0.440   0.162  0.1889  0.4157 -0.4542
  260TMC3    C3 3988   2.406   0.411   0.035  0.8772  0.2801 -0.0507
  260TMC3    C4 3989   2.184   0.274   0.150 -0.1714  0.2724  0.1031
  260TMC3    C5 3990   2.250   0.226   0.037 -0.1381  0.5228  0.2934
  260TMC3    C6 3991   2.358   0.294  17.736  0.7313 -0.1204  0.5673
  260TMC3     C 3992   2.242   0.390   0.357  0.6238 -0.4558 -0.2758
  260TMC3     O 3993   2.341   0.401   0.424  0.3016  0.6576 -0.6319
  260TMC3     H 3994   2.412   0.523   0.210 -0.5876 -0.9699  2.7532
  260TMC3    H1 3995   2.108   0.218   0.203 -2.3028  0.7865 -2.3981
  260TMC3    H2 3996   2.408   0.262  17.645 -0.4881 -1.2938  0.3021
  260TMC3    C7 3997   2.258   0.090   0.009  0.8067 -0.7457  0.9459
  260TMC3    C8 3998   2.547   0.441   0.023 -0.3649  0.3517 -0.3075
  260TMC3    O1 3999   2.357   0.051  17.699  0.6073 -0.5254  0.0541
  260TMC3    O2 4000   2.586   0.556   0.031 -0.0211  0.5784 -0.1893
  261MPD2     C 4001   3.542   3.528  12.646  0.3395 -0.7988  0.7734
  261MPD2    C1 4002   3.659   3.503  12.580 -0.2255 -0.2185  0.0003
  261MPD2    C2 4003   3.670   3.554  12.453 -0.3806  0.0498  0.5217
  261MPD2    C3 4004   3.569   3.628  12.393  0.7301  0.3362 -0.0883
  261MPD2    C4 4005   3.452   3.641  12.463 -0.1406 -0.6007 -0.4760
  261MPD2    C5 4006   3.439   3.592  12.591  0.2049  1.1613  0.1697
  261MPD2     H 4007   3.758   3.534  12.392 -1.4715  0.6255 -1.2456
  261MPD2    H1 4008   3.369   3.697  12.421 -1.4974 -1.9956  0.3937
  261MPD2    H2 4009   3.525   3.489  12.745 -0.1488 -0.2729  0.8982
  261MPD2    H3 4010   3.348   3.601  12.649  0.1554 -1.2057  0.4606
  261MPD2     N 4011   3.596   3.699  12.273  0.5454  0.1881  0.0359
  261MPD2    H5 4012   3.688   3.693  12.230  0.1005 -0.6782 -0.8149
  261MPD2    N1 4013   3.764   3.434  12.643 -0.7545 -0.2964 -0.5572
  261MPD2    H7 4014   3.835   3.387  12.588 -0.5243  0.3094 -0.7713
  262TMC3    C1 4015   3.556   3.862  12.104 -0.4457 -0.1820 -0.3858
  262TMC3    C2 4016   3.518   3.996  12.115 -0.2812 -0.1200  0.5139
  262TMC3    C3 4017   3.523   4.070  12.004  0.6417  0.6289  0.1633
  262TMC3    C4 4018   3.588   3.798  11.987 -0.7221  0.0359 -0.6987
  262TMC3    C5 4019   3.582   3.878  11.879 -0.9724 -0.0322  0.5327
  262TMC3    C6 4020   3.560   4.015  11.881 -0.3882  0.2774 -0.4414
  262TMC3     C 4021   3.500   3.782  12.211 -0.2414  0.4189  0.0364
  262TMC3     O 4022   3.386   3.806  12.246 -0.5688 -0.3564 -0.0402
  262TMC3     H 4023   3.467   4.037  12.202  0.8245  2.8948 -0.2773
  262TMC3    H1 4024   3.605   3.691  11.988 -0.2695  0.0852 -2.0580
  262TMC3    H2 4025   3.551   4.071  11.788 -0.0009 -1.5637 -1.5802
  262TMC3    C7 4026   3.644   3.825  11.760  0.0919  0.2561  0.1067
  262TMC3    C8 4027   3.490   4.212  12.022 -0.5712 -0.6178  0.1346
  262TMC3    O1 4028   3.649   3.701  11.755  0.4541  0.1402  0.0741
  262TMC3    O2 4029   3.399   4.232  12.105 -0.2898  0.1237  0.0984
  263MPD2     C 4030   4.468   2.754  11.019 -0.1050 -0.3507  0.1081
  263MPD2    C1 4031   4.530   2.783  11.143  0.5596 -0.2578  0.1177
  263MPD2    C2 4032   4.621   2.894  11.144 -0.0169 -0.4269  0.3034
  263MPD2    C3 4033   4.651   2.969  11.032 -0.0295  0.5246  0.5810
  263MPD2    C4 4034   4.582   2.945  10.915  0.1200  0.8761  0.9317
  263MPD2    C5 4035   4.492   2.838  10.907  0.2429  0.3743  0.0746
  263MPD2     H 4036   4.682   2.925  11.228 -0.9576  0.3996  0.6875
  263MPD2    H1 4037   4.594   3.010  10.829 -2.1245  0.8183  0.5772
  263MPD2    H2 4038   4.402   2.668  11.010 -0.5981 -0.0216  0.5896
  263MPD2    H3 4039   4.439   2.825  10.813 -3.0994 -0.9022  2.1484
  263MPD2     N 4040   0.019   3.064  11.031 -0.2619 -0.3504 -0.2772
  263MPD2    H5 4041   0.083   3.053  11.109 -0.5332 -0.4179 -0.0678
  263MPD2    N1 4042   4.512   2.698  11.248 -0.2110 -0.2353 -0.0550
  263MPD2    H7 4043   4.443   2.623  11.250  1.0018 -1.3454 -0.0619
  264TMC3    C1 4044   0.190   3.208  10.957  0.2141  0.5796 -0.1383
  264TMC3    C2 4045   0.194   3.270  11.076 -0.6473  0.2620 -0.1458
  264TMC3    C3 4046   0.297   3.358  11.100  0.4054  0.4353  0.3632
  264TMC3    C4 4047   0.280   3.219  10.864 -0.2341 -0.3629  0.3592
  264TMC3    C5 4048   0.380   3.314  10.884 -0.2621  0.5417 -0.4141
  264TMC3    C6 4049   0.392   3.385  11.006  0.6041 -0.4439 -0.3225
  264TMC3     C 4050   0.067   3.132  10.923 -0.3227 -0.7095  0.1365
  264TMC3     O 4051   0.020   3.147  10.812  0.3146 -0.2978 -0.1292
  264TMC3     H 4052   0.119   3.242  11.149 -1.5507 -1.5354 -1.7573
  264TMC3    H1 4053   0.270   3.161  10.774 -0.0234 -0.6933  0.5468
  264TMC3    H2 4054   0.472   3.457  11.018  0.1556 -0.1359  0.8493
  264TMC3    C7 4055   0.441   3.366  10.763 -0.2319 -0.1040  0.5992
  264TMC3    C8 4056   0.295   3.444  11.212  0.3535 -0.8039 -0.2672
  264TMC3    O1 4057   0.456   3.286  10.670  0.3110  0.2129 -0.0640
  264TMC3    O2 4058   0.404   3.490  11.239 -0.5285 -0.6590  0.0695
  265MPD2     C 4059   2.025   3.036  15.656  0.4106  0.1437 -0.8076
  265MPD2    C1 4060   2.067   3.143  15.583 -0.2740 -0.4004 -0.2430
  265MPD2    C2 4061   2.152   3.122  15.475  0.0326 -0.1062 -0.4347
  265MPD2    C3 4062   2.187   2.993  15.436 -0.4961  0.1195  0.5644
  265MPD2    C4 4063   2.133   2.892  15.501 -0.1543  0.3469 -0.0712
  265MPD2    C5 4064   2.048   2.910  15.605  0.6440  0.1657 -0.0001
  265MPD2     H 4065   2.187   3.209  15.420 -2.1492  0.1426 -1.4244
  265MPD2    H1 4066   2.143   2.790  15.466  2.3970  1.6100 -2.9927
  265MPD2    H2 4067   1.961   3.053  15.742  2.5701 -0.7780  0.9603
  265MPD2    H3 4068   1.999   2.832  15.662  1.1969  0.3633  0.7400
  265MPD2     N 4069   2.265   2.957  15.327 -0.3772  0.1038  0.2522
  265MPD2    H5 4070   2.291   2.859  15.319 -2.0391 -0.3093 -0.0791
  265MPD2    N1 4071   2.044   3.280  15.625  0.1398  0.0109 -0.1869
  265MPD2    H7 4072   2.073   3.356  15.564  0.5484 -0.1290 -0.1649
  266TMC3    C1 4073   1.959   3.456  15.757 -0.7557 -0.1351 -0.3255
  266TMC3    C2 4074   1.978   3.513  15.879 -0.0781  0.3475  0.1157
  266TMC3    C3 4075   1.973   3.652  15.896 -0.0475 -0.4377  0.3109
  266TMC3    C4 4076   1.937   3.537  15.650  0.2197 -0.3141  1.1043
  266TMC3    C5 4077   1.934   3.674  15.671 -0.0943 -0.0133  0.3622
  266TMC3    C6 4078   1.945   3.734  15.795  0.4090 -0.3694  0.1380
  266TMC3     C 4079   1.991   3.318  15.747 -0.4088 -0.3605  0.0661
  266TMC3     O 4080   1.972   3.261  15.852 -0.6156  0.3318  0.3356
  266TMC3     H 4081   1.985   3.459  15.972 -1.0477  0.4506  0.2525
  266TMC3    H1 4082   1.916   3.488  15.556 -0.4266 -0.4595  1.3195
  266TMC3    H2 4083   1.916   3.838  15.806  0.9088 -0.3673  1.4165
  266TMC3    C7 4084   1.877   3.761  15.566  0.3250  0.4349 -0.0618
  266TMC3    C8 4085   2.066   3.700  16.003 -0.2046 -0.6597 -0.0808
  266TMC3    O1 4086   1.799   3.722  15.483  0.0646  0.1344  0.1937
  266TMC3    O2 4087   2.143   3.616  16.044  0.0417  0.1831  0.0919
  267MPD2     C 4088   0.036   0.446  17.345  0.3888 -0.0812  0.4742
  267MPD2    C1 4089   0.013   0.312  17.350  0.4582  0.1916  0.2818
  267MPD2    C2 4090   4.622   0.266  17.347 -0.1641 -0.4235  0.1601
  267MPD2    C3 4091   4.513   0.352  17.348  0.8726  0.0965 -0.6612
  267MPD2    C4 4092   4.533   0.486  17.343 -0.2874 -0.2944 -1.0123
  267MPD2    C5 4093   4.668   0.533  17.341  0.3418 -0.3319 -1.0342
  267MPD2     H 4094   4.600   0.160  17.358  0.4653 -0.7336 -1.6332
  267MPD2    H1 4095   4.456   0.562  17.338  1.6541  1.7488  0.3668
  267MPD2    H2 4096   0.137   0.484  17.342  0.4622 -0.3896 -0.6949
  267MPD2    H3 4097   4.679   0.639  17.322 -0.8507  0.1360  0.9276
  267MPD2     N 4098   4.380   0.308  17.361  0.2654 -0.1972  0.1418
  267MPD2    H5 4099   4.317   0.387  17.371  1.7662  0.9124  0.8370
  267MPD2    N1 4100   0.120   0.225  17.378  0.5866 -0.3954 -0.2782
  267MPD2    H7 4101   0.211   0.263  17.355  0.8241  0.3211  1.8382
  268TMC3    C1 4102   0.235   0.032  17.449 -0.5005 -0.4974  0.6595
  268TMC3    C2 4103   0.350   0.087  17.406 -0.0249  0.5285  0.3347
  268TMC3    C3 4104   0.475   0.053  17.457 -0.2929  0.1846 -0.1561
  268TMC3    C4 4105   0.227   4.679  17.555  0.2539  0.0884  0.3281
  268TMC3    C5 4106   0.354   4.646  17.607 -0.0557 -0.2750  0.6065
  268TMC3    C6 4107   0.467   4.701  17.561  0.0795 -0.4602  0.3082
  268TMC3     C 4108   0.100   0.094  17.413 -0.6619 -0.0652 -0.8788
  268TMC3     O 4109   4.737   0.034  17.454 -0.4645  0.7839  0.2842
  268TMC3     H 4110   0.342   0.142  17.313  0.6362  0.6980  0.3741
  268TMC3    H1 4111   0.136   4.626  17.576  1.1579 -2.3858 -2.0554
  268TMC3    H2 4112   0.558   4.679  17.615  0.4833  1.0426  0.2412
  268TMC3    C7 4113   0.346   4.581  17.742 -0.3727  0.2349 -0.3670
  268TMC3    C8 4114   0.592   0.135  17.433  0.2432 -0.1473 -0.3358
  268TMC3    O1 4115   0.451   4.548   0.043 -0.4238 -0.2890 -0.0137
  268TMC3    O2 4116   0.664   0.144  17.527  0.1306  0.1957  0.3020
  269MPD2     C 4117   0.210   3.593  15.369  0.3491 -0.1908  0.0319
  269MPD2    C1 4118   0.085   3.587  15.427  0.0703 -0.3280  0.7876
  269MPD2    C2 4119   0.001   3.703  15.434 -0.2671  0.2662 -0.1645
  269MPD2    C3 4120   0.056   3.822  15.389 -0.2120  0.2456 -0.1469
  269MPD2    C4 4121   0.175   3.822  15.323  0.9523 -0.1825 -0.7645
  269MPD2    C5 4122   0.253   3.712  15.319  0.1758  0.4606  0.4979
  269MPD2     H 4123   4.636   3.704  15.466 -0.9713  1.2762 -2.4821
  269MPD2    H1 4124   0.211   3.914  15.278 -1.5228  1.0627 -0.1547
  269MPD2    H2 4125   0.277   3.507  15.370  1.3394  0.6036  1.3735
  269MPD2    H3 4126   0.354   3.708  15.280 -0.7792  1.2188 -2.0593
  269MPD2     N 4127   4.712   3.938  15.401 -0.1190  0.0007 -0.2688
  269MPD2    H5 4128   4.632   3.928  15.463 -0.2304 -1.2460 -0.6072
  269MPD2    N1 4129   0.044   3.462  15.471 -0.4790  0.2710 -0.2363
  269MPD2    H7 4130   0.099   3.380  15.447 -1.9569 -0.3088 -1.5964
  270TMC3    C1 4131   4.651   3.292  15.585  0.4215 -0.2007  0.3046
  270TMC3    C2 4132   4.522   3.239  15.581 -0.3274 -0.2081  0.5569
  270TMC3    C3 4133   4.502   3.106  15.573 -0.6023 -0.4512  0.5112
  270TMC3    C4 4134   0.018   3.210  15.579 -0.1452 -0.3912  0.1825
  270TMC3    C5 4135   4.737   3.077  15.565 -0.6325 -0.8100  0.2657
  270TMC3    C6 4136   4.609   3.025  15.553  0.9685 -0.5528  0.4172
  270TMC3     C 4137   4.675   3.439  15.556 -0.0218 -0.7593 -0.3552
  270TMC3     O 4138   4.585   3.515  15.581  0.4815  0.2615  0.1327
  270TMC3     H 4139   4.433   3.301  15.582 -0.2226 -0.0258 -1.0806
  270TMC3    H1 4140   0.120   3.247  15.585  0.1558 -1.8211  4.0777
  270TMC3    H2 4141   4.592   2.919  15.544  0.2702 -0.2447 -1.9508
  270TMC3    C7 4142   0.118   3.001  15.540  0.6181 -0.8348  0.1657
  270TMC3    C8 4143   4.382   3.051  15.509  0.3873  0.2486 -0.2502
  270TMC3    O1 4144   0.213   3.037  15.607 -0.8366 -0.4389  0.0014
  270TMC3    O2 4145   4.345   2.940  15.540 -0.5442 -0.0752 -0.1327
  271MPD2     C 4146   3.686   3.184  13.834 -0.0741  0.4597  1.2463
  271MPD2    C1 4147   3.694   3.265  13.948  0.7814  0.3124  0.9082
  271MPD2    C2 4148   3.617   3.386  13.953 -0.8332  0.3925 -0.4989
  271MPD2    C3 4149   3.545   3.425  13.838  0.1559 -0.1786 -0.5358
  271MPD2    C4 4150   3.550   3.349  13.726 -0.3327 -0.5020  0.7201
  271MPD2    C5 4151   3.620   3.232  13.724  1.1039  0.0621 -0.0849
  271MPD2     H 4152   3.611   3.436  14.049  2.2943 -0.2293  0.0171
  271MPD2    H1 4153   3.503   3.370  13.631  1.2566  0.4554  0.1485
  271MPD2    H2 4154   3.743   3.093  13.819  0.6073  1.3651 -1.6754
  271MPD2    H3 4155   3.627   3.175  13.632 -1.0124 -0.2657 -0.0386
  271MPD2     N 4156   3.477   3.547  13.829 -0.4098 -0.2421 -0.2915
  271MPD2    H5 4157   3.451   3.561  13.731  2.9219 -0.2369 -1.1495
  271MPD2    N1 4158   3.773   3.226  14.065  0.5639 -0.1090 -0.4400
  271MPD2    H7 4159   3.758   3.269  14.156  1.8477 -2.4050  0.8580
  272TMC3    C1 4160   3.940   3.117  14.182 -0.9369 -0.1879  0.5467
  272TMC3    C2 4161   4.072   3.080  14.174  0.4236  0.1379  0.5018
  272TMC3    C3 4162   4.149   3.091  14.289 -0.4442  0.0793 -0.7591
  272TMC3    C4 4163   3.883   3.148  14.303 -0.0670 -0.4195 -0.4708
  272TMC3    C5 4164   3.963   3.162  14.416  0.0135  0.6277 -0.1055
  272TMC3    C6 4165   4.098   3.130  14.409  0.4858  0.4831  0.0466
  272TMC3     C 4166   3.878   3.136  14.058 -0.0055  0.1465  0.0818
  272TMC3     O 4167   3.930   3.089  13.958 -0.4407 -0.1291  0.2957
  272TMC3     H 4168   4.118   3.064  14.077  0.0720  2.4678 -0.0517
  272TMC3    H1 4169   3.776   3.162  14.306 -0.0505 -0.2139 -0.7431
  272TMC3    H2 4170   4.155   3.123  14.501  1.1990  1.0479 -0.3493
  272TMC3    C7 4171   3.894   3.159  14.553  0.6435 -0.3710 -0.2823
  272TMC3    C8 4172   4.297   3.082  14.272 -0.5722  0.7360 -0.2966
  272TMC3    O1 4173   3.780   3.117  14.553  0.3031  0.3419 -0.2081
  272TMC3    O2 4174   4.334   3.096  14.157 -0.0296 -0.0911  0.0410
  273MPD2     C 4175   0.195   1.445  11.574  0.5564 -0.4465 -0.2720
  273MPD2    C1 4176   0.152   1.576  11.538 -0.1434 -0.6872 -0.1216
  273MPD2    C2 4177   0.127   1.589  11.403 -0.0935  0.3927 -0.4055
  273MPD2    C3 4178   0.153   1.495  11.306  0.6708  0.4932  0.4808
  273MPD2    C4 4179   0.188   1.369  11.343  0.2349 -0.7035  0.5272
  273MPD2    C5 4180   0.203   1.350  11.477  0.6054 -0.0067 -0.5636
  273MPD2     H 4181   0.093   1.682  11.358 -0.4152  1.1097  1.2897
  273MPD2    H1 4182   0.209   1.284  11.278  1.1614  1.2385 -1.7010
  273MPD2    H2 4183   0.193   1.412  11.677  0.6841 -1.0247 -0.4549
  273MPD2    H3 4184   0.236   1.252  11.510  0.6017  1.0010  2.3711
  273MPD2     N 4185   0.143   1.542  11.175 -0.8735 -0.4732 -0.4951
  273MPD2    H5 4186   0.108   1.637  11.161  4.3464  1.5289  0.2020
  273MPD2    N1 4187   0.151   1.678  11.634 -0.4968 -0.0175  0.0173
  273MPD2    H7 4188   0.186   1.662  11.728 -0.5605 -0.0801  0.0301
  274TMC3    C1 4189   0.234   1.583  10.978  0.5097  0.2897 -0.3656
  274TMC3    C2 4190   0.152   1.614  10.879  0.0243  0.3082  0.2264
  274TMC3    C3 4191   0.155   1.746  10.837 -0.3330 -0.1356 -1.3064
  274TMC3    C4 4192   0.316   1.676  11.040  0.7916  0.2849  0.3351
  274TMC3    C5 4193   0.309   1.806  11.001 -0.0923 -0.0929 -0.8464
  274TMC3    C6 4194   0.232   1.847  10.897  0.1836  0.2767 -0.0796
  274TMC3     C 4195   0.184   1.479  11.066  0.4728 -0.0271 -0.0811
  274TMC3     O 4196   0.204   1.359  11.045 -0.3724  0.1286 -0.6383
  274TMC3     H 4197   0.101   1.535  10.826  0.6937 -0.7890  1.2266
  274TMC3    H1 4198   0.369   1.646  11.131  2.3370  1.7352 -0.0898
  274TMC3    H2 4199   0.236   1.948  10.858  0.9240  0.3954  0.2936
  274TMC3    C7 4200   0.373   1.900  11.093  0.1011  0.2237 -0.2718
  274TMC3    C8 4201   0.065   1.795  10.734  0.1338 -0.5462  0.2008
  274TMC3    O1 4202   0.470   1.858  11.154 -0.0276 -0.0158 -0.0809
  274TMC3    O2 4203   0.037   1.915  10.732  0.0668  0.3120  0.0259
  275MPD2     C 4204   0.939   3.958  14.705  0.0836 -0.4427 -0.0544
  275MPD2    C1 4205   0.882   4.070  14.766 -0.1805 -0.2572 -0.0426
  275MPD2    C2 4206   0.748   4.087  14.739  0.4421 -0.4067 -0.1349
  275MPD2    C3 4207   0.670   3.990  14.672  0.3721  0.1088 -1.2316
  275MPD2    C4 4208   0.733   3.879  14.628  0.4518  0.3264 -1.1314
  275MPD2    C5 4209   0.867   3.860  14.649 -0.0311 -0.7127  0.3201
  275MPD2     H 4210   0.717   4.184  14.775 -1.1273 -1.6086  1.7000
  275MPD2    H1 4211   0.679   3.796  14.584  1.5017 -1.4011  0.8282
  275MPD2    H2 4212   1.043   3.933  14.722  0.5294  1.7159  0.4062
  275MPD2    H3 4213   0.914   3.773  14.606  1.9971  1.2793 -1.5135
  275MPD2     N 4214   0.527   4.006  14.649  0.1645  0.0583  0.2611
  275MPD2    H5 4215   0.474   3.935  14.599  2.1660 -1.7688  0.7221
  275MPD2    N1 4216   0.957   4.163  14.839 -0.4427 -0.0512  0.2301
  275MPD2    H7 4217   0.897   4.233  14.880  1.9188  1.7181  0.6931
  276TMC3    C1 4218   1.098   4.234  15.003  0.0082 -0.1702 -0.6807
  276TMC3    C2 4219   0.996   4.205  15.084 -0.5070  0.4445  0.6127
  276TMC3    C3 4220   0.944   4.302  15.165 -0.3372  0.0434  0.1529
  276TMC3    C4 4221   1.152   4.357  15.004 -0.1134 -0.0850  0.2691
  276TMC3    C5 4222   1.106   4.450  15.088  0.2248 -1.0628  0.0832
  276TMC3    C6 4223   0.999   4.429  15.167 -1.0636  0.2516 -0.6334
  276TMC3     C 4224   1.086   4.161  14.878  0.3961  0.1621  0.0701
  276TMC3     O 4225   1.179   4.083  14.842 -0.6613 -0.5365 -0.4792
  276TMC3     H 4226   0.958   4.104  15.090 -2.5909  1.0056 -2.8934
  276TMC3    H1 4227   1.218   4.388  14.924  1.0215 -2.4885  0.2822
  276TMC3    H2 4228   0.948   4.504  15.227  0.9042 -0.3141  1.7459
  276TMC3    C7 4229   1.213   4.526  15.148  0.4244  0.1788 -0.6568
  276TMC3    C8 4230   0.798   4.293  15.199  0.0231  0.7417  0.1925
  276TMC3    O1 4231   1.177   4.623  15.214  0.4371  0.4384 -0.7300
  276TMC3    O2 4232   0.744   4.371  15.276 -0.1291 -0.6312  0.4833
  277MPD2     C 4233   2.609   3.745  13.299  0.2198  0.2796  0.1447
  277MPD2    C1 4234   2.468   3.737  13.314 -1.5507 -0.6955  0.5838
  277MPD2    C2 4235   2.414   3.705  13.437 -0.2654 -0.0590  0.6366
  277MPD2    C3 4236   2.499   3.679  13.542 -0.0964  0.0834  1.1473
  277MPD2    C4 4237   2.635   3.690  13.527  0.2567 -0.8164 -0.6176
  277MPD2    C5 4238   2.693   3.725  13.412  0.2947  0.2659  0.3650
  277MPD2     H 4239   2.308   3.708  13.460 -0.3123  0.8018  0.3313
  277MPD2    H1 4240   2.712   3.679  13.603  0.6679 -0.5291 -0.9896
  277MPD2    H2 4241   2.642   3.781  13.202 -1.3264 -0.6411 -0.7201
  277MPD2    H3 4242   2.799   3.746  13.401  0.4220 -0.2436  0.6208
  277MPD2     N 4243   2.435   3.637  13.661  0.3124  0.1246 -0.3193
  277MPD2    H5 4244   2.335   3.651  13.662  0.3037  0.0543 -0.2761
  277MPD2    N1 4245   2.379   3.774  13.210  0.1650  0.2023  0.2702
  277MPD2    H7 4246   2.428   3.801  13.125  0.9402  1.5112  1.1270
  278TMC3    C1 4247   2.387   3.539  13.860  0.7787 -0.1432  0.2543
  278TMC3    C2 4248   2.395   3.409  13.892 -0.2130 -0.2812 -0.1490
  278TMC3    C3 4249   2.278   3.333  13.912 -0.1610  0.0188  0.4477
  278TMC3    C4 4250   2.259   3.599  13.852  0.0774  0.2619 -0.6568
  278TMC3    C5 4251   2.143   3.531  13.864  0.5981 -0.5942 -0.5366
  278TMC3    C6 4252   2.154   3.393  13.889 -0.4325 -1.3853 -0.6787
  278TMC3     C 4253   2.494   3.584  13.768  0.6164  0.0203  0.5617
  278TMC3     O 4254   2.611   3.549  13.783 -0.3753 -0.1829  0.1563
  278TMC3     H 4255   2.487   3.353  13.884  0.8609  1.6797 -1.2175
  278TMC3    H1 4256   2.256   3.705  13.828 -0.0356 -0.2441 -2.8321
  278TMC3    H2 4257   2.068   3.327  13.889 -3.0368  2.0185  0.9589
  278TMC3    C7 4258   2.035   3.583  13.784 -0.2201  0.7130  1.0414
  278TMC3    C8 4259   2.302   3.196  13.874 -0.0464  0.0450  0.0769
  278TMC3    O1 4260   2.078   3.653  13.693 -0.5252 -0.1628  0.4093
  278TMC3    O2 4261   2.399   3.135  13.922 -0.1518  0.0002 -0.0296
  279MPD2     C 4262   1.367   2.959  17.574  0.3374  0.0149 -0.9881
  279MPD2    C1 4263   1.467   3.041  17.610 -0.1884 -0.1878 -0.3662
  279MPD2    C2 4264   1.558   3.092  17.518 -0.2460 -0.0804  0.3495
  279MPD2    C3 4265   1.543   3.056  17.387  0.1194 -0.2807  0.2713
  279MPD2    C4 4266   1.444   2.967  17.349 -0.0054  0.5644  0.7778
  279MPD2    C5 4267   1.357   2.923  17.442  0.1891 -0.4418 -0.3639
  279MPD2     H 4268   1.642   3.150  17.555  0.6092 -1.4247  0.5261
  279MPD2    H1 4269   1.436   2.930  17.247  0.5847  1.0164  0.5636
  279MPD2    H2 4270   1.308   2.913  17.652  0.2967  0.2453 -0.8868
  279MPD2    H3 4271   1.271   2.864  17.414 -0.0038 -0.4955  0.3378
  279MPD2     N 4272   1.629   3.101  17.293  0.4886 -0.4443 -0.3613
  279MPD2    H5 4273   1.604   3.081  17.197  0.2695  0.0546 -0.4087
  279MPD2    N1 4274   1.466   3.074  17.749 -0.3810  0.0757  0.0134
  279MPD2    H7 4275   1.389   3.045   0.056 -0.0861 -0.0973  0.3127
  280TMC3    C1 4276   1.548   3.151   0.200  0.0440 -0.4850 -0.3712
  280TMC3    C2 4277   1.612   3.072   0.291 -0.2653  0.2126 -0.1664
  280TMC3    C3 4278   1.599   3.110   0.417 -0.7983 -0.2848  0.3097
  280TMC3    C4 4279   1.440   3.236   0.225  0.2227 -0.0754  0.4891
  280TMC3    C5 4280   1.431   3.273   0.356 -0.0252 -0.3239  0.0517
  280TMC3    C6 4281   1.506   3.210   0.445  0.4259 -0.3365  0.5851
  280TMC3     C 4282   1.574   3.124   0.062 -0.0453  0.5752  0.3780
  280TMC3     O 4283   1.689   3.112   0.022  0.5051 -0.5735  0.1713
  280TMC3     H 4284   1.695   3.010   0.259  0.2034 -0.2132  1.9158
  280TMC3    H1 4285   1.401   3.299   0.146  1.0169  0.4147  0.4865
  280TMC3    H2 4286   1.513   3.252   0.545 -1.0214  3.0999 -0.7788
  280TMC3    C7 4287   1.362   3.396   0.399 -0.0129  0.0197 -0.0236
  280TMC3    C8 4288   1.668   3.051   0.527  0.0996  0.7160  0.0548
  280TMC3    O1 4289   1.387   3.453   0.505  0.0304 -0.4268 -0.1501
  280TMC3    O2 4290   1.643   3.095   0.639 -0.0828 -0.2789  0.0920
  281TMC3    C1 4291   0.571   3.649  13.565  0.3380 -0.4327  0.0466
  281TMC3    C2 4292   0.651   3.709  13.476 -0.8949 -0.0661 -0.7058
  281TMC3    C3 4293   0.711   3.650  13.370  0.3886 -0.5147  0.2156
  281TMC3    C4 4294   0.555   3.517  13.566  0.6378  0.5057  0.2725
  281TMC3    C5 4295   0.611   3.452  13.464 -0.4952 -0.3469  0.5178
  281TMC3    C6 4296   0.688   3.515  13.370 -0.4684 -0.7759 -0.1572
  281TMC3     C 4297   0.452   3.721  13.618  0.4648  0.2621  0.2156
  281TMC3     O 4298   0.387   3.659  13.696  0.4277  0.2329  0.3990
  281TMC3     H 4299   0.657   3.817  13.479  3.9689 -0.3225 -0.6577
  281TMC3    H1 4300   0.486   3.470  13.636 -0.4257  3.0548  0.9282
  281TMC3    H2 4301   0.732   3.453  13.293  0.0484  0.1937 -0.6495
  281TMC3    C7 4302   0.578   3.325  13.426  0.9090 -0.8454 -0.1291
  281TMC3    C8 4303   0.839   3.696  13.313 -0.1408 -0.2152 -0.2122
  281TMC3    O1 4304   0.660   3.262  13.360 -0.0249  0.4949 -0.3203
  281TMC3    O2 4305   0.940   3.627  13.319 -0.2942 -0.2580  0.0433
  282MPD2     C 4306   2.291   0.250  15.051  0.6061 -0.3386 -0.7474
  282MPD2    C1 4307   2.161   0.284  15.087 -0.1072 -0.0398  0.6359
  282MPD2    C2 4308   2.063   0.308  14.984  0.4124 -0.1171 -0.2168
  282MPD2    C3 4309   2.084   0.285  14.848  0.1348 -0.2851 -0.2246
  282MPD2    C4 4310   2.216   0.243  14.812  0.3175  0.6499 -0.9321
  282MPD2    C5 4311   2.306   0.225  14.916 -0.6336 -0.3153 -0.5166
  282MPD2     H 4312   1.965   0.348  15.007  1.9020  3.4918 -0.0889
  282MPD2    H1 4313   2.246   0.207  14.715  0.6922 -0.7275 -0.3053
  282MPD2    H2 4314   2.376   0.225  15.114 -1.1471 -1.9009  0.9865
  282MPD2    H3 4315   2.404   0.185  14.892 -0.0128  2.8775 -3.3456
  282MPD2     N 4316   1.978   0.310  14.755 -0.2131  0.0293 -0.6579
  282MPD2    H5 4317   1.898   0.356  14.798  0.0285 -0.7115  0.5876
  282MPD2    N1 4318   2.124   0.293  15.221  0.3236  0.2098 -0.4362
  282MPD2    H7 4319   2.030   0.324  15.241 -0.3797 -2.4527  0.4701
  283TMC3    C1 4320   2.109   0.237  15.453  0.3650 -0.2225 -1.0222
  283TMC3    C2 4321   2.129   0.363  15.512 -0.6656 -0.8059  0.1505
  283TMC3    C3 4322   2.160   0.366  15.644  0.3170 -0.3522 -0.2814
  283TMC3    C4 4323   2.103   0.129  15.535  0.0354 -0.0589  0.6082
  283TMC3    C5 4324   2.132   0.137  15.670 -0.2482 -0.2228  0.1308
  283TMC3    C6 4325   2.166   0.258  15.724  0.4099  0.5718  0.3426
  283TMC3     C 4326   2.177   0.219  15.326 -0.7950 -0.1903  0.0530
  283TMC3     O 4327   2.267   0.138  15.327 -0.5104  0.0405 -0.0813
  283TMC3     H 4328   2.137   0.455  15.455  0.3808  0.9573  3.1734
  283TMC3    H1 4329   2.084   0.032  15.491  2.8940  0.1114 -1.0176
  283TMC3    H2 4330   2.200   0.259  15.827 -0.2889 -0.7124  0.5834
  283TMC3    C7 4331   2.028   0.070  15.758  0.6492 -0.2722 -0.0066
  283TMC3    C8 4332   2.238   0.479  15.693  0.0277 -0.3904  0.4273
  283TMC3    O1 4333   2.014   0.106  15.868 -0.1857 -0.2148 -0.0899
  283TMC3    O2 4334   2.319   0.461  15.783  0.1621  0.0172 -0.0183
  284MPD2     C 4335   4.192   4.065  11.666  0.5856  0.0844 -0.0239
  284MPD2    C1 4336   4.322   4.107  11.694 -0.4047 -0.0206  0.0343
  284MPD2    C2 4337   4.416   4.027  11.743 -0.4187 -0.4043 -0.2493
  284MPD2    C3 4338   4.394   3.890  11.754 -0.4273 -0.2487  0.2840
  284MPD2    C4 4339   4.258   3.853  11.739 -0.4793  0.4275  0.4430
  284MPD2    C5 4340   4.166   3.933  11.685 -0.1637  0.0483  0.4352
  284MPD2     H 4341   4.510   4.071  11.774 -1.4400  1.4282  0.2244
  284MPD2    H1 4342   4.228   3.749  11.744 -0.5891  0.3025 -3.4255
  284MPD2    H2 4343   4.117   4.133  11.629 -1.8710 -1.9159  1.2722
  284MPD2    H3 4344   4.070   3.895  11.653 -0.7118  2.4916 -0.8554
  284MPD2     N 4345   4.504   3.807  11.778 -0.4261  0.0063  0.0160
  284MPD2    H5 4346   4.600   3.841  11.777 -0.9185  1.3471 -1.4913
  284MPD2    N1 4347   4.362   4.237  11.669 -0.2644  0.4605 -0.3654
  284MPD2    H7 4348   4.462   4.250  11.681 -0.2961  1.4975 -1.3116
  285TMC3    C1 4349   4.383   4.458  11.594 -0.4429 -0.1509  0.2709
  285TMC3    C2 4350   4.485   4.434  11.505 -0.5044 -0.3302  0.2900
  285TMC3    C3 4351   4.581   4.533  11.489  0.0318  0.1231 -1.2523
  285TMC3    C4 4352   4.365   4.587  11.645  0.6825  0.0636  0.5654
  285TMC3    C5 4353   4.475   4.673  11.639  0.1125  0.2449 -0.0662
  285TMC3    C6 4354   4.580   4.646  11.561  0.1006 -0.4081  0.2041
  285TMC3     C 4355   4.289   4.352  11.629 -0.3444  0.4237  0.6550
  285TMC3     O 4356   4.170   4.367  11.639  0.6610 -0.0170  0.2340
  285TMC3     H 4357   4.499   4.334  11.464 -0.0976 -0.5036  0.8411
  285TMC3    H1 4358   4.292   4.609  11.722 -1.6029 -1.7867 -1.0529
  285TMC3    H2 4359   4.660   4.719  11.564  1.6908 -2.1417  0.4619
  285TMC3    C7 4360   4.482   0.042  11.739 -0.0627 -0.2817  0.7985
  285TMC3    C8 4361   4.680   4.507  11.387  0.3126  0.0395 -0.3463
  285TMC3    O1 4362   4.502   0.157  11.697 -0.2051  0.1591  0.3397
  285TMC3    O2 4363   4.693   4.388  11.362  0.6167  0.2145  0.3683
  286MPD2     C 4364   0.841   3.042   1.363 -0.6828 -0.3854  0.3173
  286MPD2    C1 4365   0.813   2.955   1.250 -0.8685  0.4385  0.7388
  286MPD2    C2 4366   0.848   2.828   1.256 -0.6311 -0.0255  0.3899
  286MPD2    C3 4367   0.908   2.776   1.365  0.0685 -0.4049  0.0525
  286MPD2    C4 4368   0.943   2.855   1.472  0.2818 -0.2991 -0.6419
  286MPD2    C5 4369   0.909   2.989   1.470 -0.2702  0.7862 -0.2688
  286MPD2     H 4370   0.838   2.769   1.166 -0.0000  1.0947 -0.4224
  286MPD2    H1 4371   0.999   2.809   1.553  0.6299 -0.2361 -0.8439
  286MPD2    H2 4372   0.819   3.147   1.377 -1.0898 -0.1044 -2.4469
  286MPD2    H3 4373   0.935   3.051   1.556  1.0536  0.3396 -0.3509
  286MPD2     N 4374   0.937   2.637   1.381  0.9287 -0.6109  0.0015
  286MPD2    H5 4375   0.981   2.605   1.467 -0.6345  1.8313  1.7475
  286MPD2    N1 4376   0.776   3.008   1.125 -0.6629  0.4216 -0.5059
  286MPD2    H7 4377   0.753   2.937   1.056  1.2567 -0.8444  0.1649
  287TMC3    C1 4378   0.974   2.425   1.312 -0.3256  0.1724 -0.5976
  287TMC3    C2 4379   0.924   2.329   1.227 -1.2324 -0.8304  0.3584
  287TMC3    C3 4380   1.008   2.236   1.175  0.0308  0.3880  0.1239
  287TMC3    C4 4381   1.119   2.419   1.341  0.1362  0.3646  0.9121
  287TMC3    C5 4382   1.200   2.323   1.282 -0.5925  0.5862  0.0456
  287TMC3    C6 4383   1.140   2.225   1.207 -0.5846 -0.2620 -0.1363
  287TMC3     C 4384   0.916   2.551   1.279  0.6775  0.2366  0.1018
  287TMC3     O 4385   0.850   2.551   1.173  0.1939  0.6062 -0.4764
  287TMC3     H 4386   0.818   2.330   1.208 -1.3016 -0.6275  0.7527
  287TMC3    H1 4387   1.156   2.498   1.406  1.0947 -0.5889  1.5089
  287TMC3    H2 4388   1.205   2.154   1.158 -0.0579 -1.1109  1.7976
  287TMC3    C7 4389   1.342   2.328   1.306  0.3018 -0.3907  0.2724
  287TMC3    C8 4390   0.967   2.218   1.035  0.0892 -0.6602  0.0355
  287TMC3    O1 4391   1.404   2.226   1.272 -0.2956  0.0587 -0.6385
  287TMC3    O2 4392   1.006   2.119   0.979 -0.0828  0.1796  0.0275
  288TMC3    C1 4393   2.489   2.969  14.307  0.0827  0.8518  0.5234
  288TMC3    C2 4394   2.454   2.948  14.438 -0.6616 -0.0251  0.3107
  288TMC3    C3 4395   2.415   3.058  14.512 -0.2203 -0.7800 -0.3034
  288TMC3    C4 4396   2.500   3.098  14.259 -0.7002  0.0545 -0.2760
  288TMC3    C5 4397   2.472   3.200  14.346  0.2732 -0.1860  0.0252
  288TMC3    C6 4398   2.427   3.185  14.469 -0.2692 -0.2034 -0.5288
  288TMC3     C 4399   2.553   2.863  14.228 -0.3809  0.4057  0.1875
  288TMC3     O 4400   2.535   2.753  14.280  0.6397  0.5778  0.7313
  288TMC3     H 4401   2.452   2.846  14.475 -1.2624 -0.5109 -1.0632
  288TMC3    H1 4402   2.509   3.118  14.153 -1.3533 -0.5073 -0.4396
  288TMC3    H2 4403   2.391   3.274  14.519  1.2562 -0.3429  0.8059
  288TMC3    C7 4404   2.435   3.322  14.286  0.0337  0.5157  0.1734
  288TMC3    C8 4405   2.347   3.039  14.642 -0.5256  0.0702 -0.2089
  288TMC3    O1 4406   2.523   3.363  14.214 -0.3744  0.1487 -0.0429
  288TMC3    O2 4407   2.333   3.143  14.701 -0.0239 -0.4071  0.3299
  289MPD2     C 4408   2.424   1.841  14.760 -0.7616 -0.1183 -0.3129
  289MPD2    C1 4409   2.399   1.975  14.737  0.2642  0.2585 -0.3801
  289MPD2    C2 4410   2.309   2.013  14.637  0.3414 -0.3752  0.3591
  289MPD2    C3 4411   2.237   1.923  14.562  0.1319 -0.2253 -0.3155
  289MPD2    C4 4412   2.252   1.790  14.592 -0.0291 -0.2145  0.0603
  289MPD2    C5 4413   2.339   1.751  14.693  0.2474 -0.6978  0.5276
  289MPD2     H 4414   2.301   2.116  14.605  0.8393 -0.7260 -0.9080
  289MPD2    H1 4415   2.203   1.716  14.529 -1.1970  1.2816 -0.7909
  289MPD2    H2 4416   2.489   1.806  14.838 -0.8700 -1.3841 -0.7803
  289MPD2    H3 4417   2.335   1.645  14.714 -0.9270 -0.7104  0.2562
  289MPD2     N 4418   2.152   1.964  14.452 -0.2394  0.8281  0.2277
  289MPD2    H5 4419   2.126   1.890  14.387 -1.1930  0.1621  1.3616
  289MPD2    N1 4420   2.471   2.068  14.816  0.0937 -0.4138  0.4670
  289MPD2    H7 4421   2.531   2.026  14.886  1.9452  0.9819 -0.3118
  290TMC3    C1 4422   2.040   2.105  14.292 -0.1900 -0.4530  0.2416
  290TMC3    C2 4423   2.042   2.230  14.248 -0.0999 -0.0544 -0.4600
  290TMC3    C3 4424   1.987   2.258  14.126 -0.0257  0.1248  0.0477
  290TMC3    C4 4425   2.000   2.001  14.215 -0.3400 -0.4072  0.3662
  290TMC3    C5 4426   1.958   2.033  14.089  0.2654 -0.4014  0.1849
  290TMC3    C6 4427   1.959   2.158  14.040 -0.6861  0.5480 -0.0958
  290TMC3     C 4428   2.116   2.093  14.420 -0.7581 -0.3278 -0.2523
  290TMC3     O 4429   2.148   2.200  14.472  0.2995 -0.1023 -0.4933
  290TMC3     H 4430   2.080   2.318  14.298  1.9327  0.5856 -3.1061
  290TMC3    H1 4431   1.993   1.900  14.253  0.2496 -1.1738 -1.5318
  290TMC3    H2 4432   1.923   2.186  13.941 -2.4617  1.0967  0.7112
  290TMC3    C7 4433   1.921   1.932  13.976  0.1386 -1.2093  0.1884
  290TMC3    C8 4434   2.018   2.389  14.067  0.5665 -0.1110 -0.2669
  290TMC3    O1 4435   1.836   1.974  13.898  0.3075 -0.0232  0.4503
  290TMC3    O2 4436   2.020   2.404  13.945 -0.4699 -0.0511 -0.2423
  291MPD2     C 4437   1.603   2.111   0.239  0.1695 -0.6054  0.8350
  291MPD2    C1 4438   1.637   1.978   0.255 -0.2801 -0.3725 -0.2980
  291MPD2    C2 4439   1.771   1.943   0.259  0.2459 -0.0169  1.0834
  291MPD2    C3 4440   1.874   2.039   0.271 -0.5866 -0.8603 -0.3719
  291MPD2    C4 4441   1.833   2.175   0.264  0.2993  0.9485 -0.7735
  291MPD2    C5 4442   1.704   2.208   0.239 -0.5925 -0.2449 -0.4713
  291MPD2     H 4443   1.795   1.837   0.266 -2.8929 -0.8219 -0.1444
  291MPD2    H1 4444   1.907   2.253   0.276  0.3891  0.7374  0.0498
  291MPD2    H2 4445   1.501   2.147   0.230  0.4004 -0.2448 -0.4476
  291MPD2    H3 4446   1.679   2.311   0.218 -0.4091  0.1959  1.4220
  291MPD2     N 4447   2.016   2.011   0.287 -0.3981 -0.5694  0.5043
  291MPD2    H5 4448   2.076   2.090   0.265 -1.5303  0.2182  0.2861
  291MPD2    N1 4449   1.537   1.874   0.255  1.1953 -0.1511  0.2126
  291MPD2    H7 4450   1.569   1.778   0.244 -2.4074 -1.4815  1.1473
  292TMC3    C1 4451   1.335   1.762   0.237 -0.0346  0.8146 -0.0936
  292TMC3    C2 4452   1.209   1.764   0.297 -0.4075 -0.4605  0.1412
  292TMC3    C3 4453   1.149   1.650   0.333  0.1172 -0.0967  0.2333
  292TMC3    C4 4454   1.399   1.642   0.215  0.1857  0.0525 -0.1148
  292TMC3    C5 4455   1.317   1.536   0.224 -0.4738 -0.2036 -0.0091
  292TMC3    C6 4456   1.196   1.538   0.284 -0.1765  0.0280  0.3848
  292TMC3     C 4457   1.399   1.894   0.236  0.4347 -0.1048 -0.3274
  292TMC3     O 4458   1.328   1.991   0.219  0.0645 -0.3161  0.4101
  292TMC3     H 4459   1.171   1.861   0.326 -0.1416 -0.1395 -0.5897
  292TMC3    H1 4460   1.484   1.643   0.148 -0.0879 -0.4508 -0.4651
  292TMC3    H2 4461   1.136   1.447   0.291  0.8139 -0.6931 -0.5245
  292TMC3    C7 4462   1.339   1.410   0.161 -0.0440  0.1677  0.6590
  292TMC3    C8 4463   1.025   1.655   0.403 -0.1580 -0.3191  0.0165
  292TMC3    O1 4464   1.450   1.360   0.167  0.4018  0.1674  0.0678
  292TMC3    O2 4465   0.965   1.765   0.396 -0.9708  0.2180  0.6862
  293MPD2     C 4466   3.048   3.373  12.547 -0.2036  0.6337  0.0911
  293MPD2    C1 4467   2.958   3.375  12.647  0.4638 -1.0252 -0.2322
  293MPD2    C2 4468   2.997   3.358  12.777 -0.0450 -0.3968  0.6513
  293MPD2    C3 4469   3.130   3.353  12.812 -0.4226 -0.0477  0.6439
  293MPD2    C4 4470   3.223   3.359  12.710 -0.0012 -0.5521  0.3488
  293MPD2    C5 4471   3.180   3.369  12.581  0.1787 -0.1437 -0.3827
  293MPD2     H 4472   2.926   3.367  12.859 -0.3975  0.2635  0.2731
  293MPD2    H1 4473   3.330   3.345  12.719  0.1834  0.4077 -0.4668
  293MPD2    H2 4474   3.022   3.397  12.445 -0.7507  1.5947  0.4521
  293MPD2    H3 4475   3.249   3.373  12.498  2.6939 -0.3577  1.7040
  293MPD2     N 4476   3.170   3.334  12.946 -0.0087 -0.0194  0.4008
  293MPD2    H5 4477   3.097   3.315  13.014 -0.1446  1.1667  0.5821
  293MPD2    N1 4478   2.820   3.396  12.608 -0.0544 -0.0588  0.1330
  293MPD2    H7 4479   2.803   3.405  12.509 -1.2455  0.7395  0.4062
  294TMC3    C1 4480   2.594   3.435  12.618 -0.2356  0.1911 -0.4443
  294TMC3    C2 4481   2.500   3.338  12.654  0.0758  0.8219 -0.1633
  294TMC3    C3 4482   2.405   3.305  12.559 -0.3395  0.4118 -0.3985
  294TMC3    C4 4483   2.597   3.474  12.483  0.3519 -0.1066  0.7423
  294TMC3    C5 4484   2.501   3.431  12.396 -0.9965 -0.0358  0.2740
  294TMC3    C6 4485   2.402   3.345  12.428  0.0573 -0.5582  0.2277
  294TMC3     C 4486   2.718   3.426  12.692  0.2388  0.3451 -0.1293
  294TMC3     O 4487   2.711   3.417  12.814  0.1583 -0.0622 -0.9060
  294TMC3     H 4488   2.491   3.294  12.752  0.5864 -0.0782 -0.5274
  294TMC3    H1 4489   2.665   3.553  12.451 -1.5766  0.8292 -1.0170
  294TMC3    H2 4490   2.315   3.331  12.365  1.1214  0.4580 -1.4780
  294TMC3    C7 4491   2.479   3.495  12.273  0.5479  0.4664  0.2129
  294TMC3    C8 4492   2.301   3.215  12.600  0.3079 -0.6740 -0.1564
  294TMC3    O1 4493   2.364   3.510  12.233  0.5547  0.3355 -0.3153
  294TMC3    O2 4494   2.260   3.229  12.716  0.7802 -0.4603 -0.2843
  295MPD2     C 4495   4.633   1.690   0.039  0.4807 -0.6099 -0.4361
  295MPD2    C1 4496   4.530   1.764   0.092  1.0144 -0.0306 -0.6314
  295MPD2    C2 4497   4.483   1.721   0.220 -0.1897 -0.3020 -0.3815
  295MPD2    C3 4498   4.541   1.621   0.295  0.1003 -0.1994 -0.2376
  295MPD2    C4 4499   4.637   1.551   0.237  0.1362  0.2606 -0.3725
  295MPD2    C5 4500   4.682   1.582   0.108 -0.1782 -0.3013 -0.6941
  295MPD2     H 4501   4.413   1.784   0.273 -2.2849 -2.0147 -1.1189
  295MPD2    H1 4502   4.678   1.463   0.286  0.0297  0.8350  0.7429
  295MPD2    H2 4503   4.681   1.714  17.698 -4.1326  0.9395 -2.3810
  295MPD2    H3 4504   0.002   1.514   0.048 -3.4603 -2.9295 -0.9614
  295MPD2     N 4505   4.506   1.591   0.427 -0.6542 -0.2542  0.1586
  295MPD2    H5 4506   4.570   1.526   0.471 -0.7960 -0.0478  0.6813
  295MPD2    N1 4507   4.469   1.881   0.038 -0.9908 -0.5698  0.3887
  295MPD2    H7 4508   4.404   1.928   0.100 -0.7639  1.0149 -0.5491
  296TMC3    C1 4509   4.394   1.588   0.628 -0.0338 -0.0554  0.4304
  296TMC3    C2 4510   4.305   1.646   0.709  0.3979  0.4024  0.1345
  296TMC3    C3 4511   4.291   1.608   0.835  0.6844  0.3524 -0.6508
  296TMC3    C4 4512   4.470   1.481   0.670  0.1436 -0.3973  0.0463
  296TMC3    C5 4513   4.445   1.439   0.803 -0.3232  0.5922 -0.2216
  296TMC3    C6 4514   4.360   1.506   0.888 -0.0205  0.0158 -0.7373
  296TMC3     C 4515   4.398   1.642   0.496 -0.9832 -0.2582 -0.1154
  296TMC3     O 4516   4.319   1.730   0.468 -0.4123 -0.2948 -0.1087
  296TMC3     H 4517   4.251   1.733   0.673  0.4205  0.1467 -0.5128
  296TMC3    H1 4518   4.544   1.433   0.607 -1.1084 -0.6544 -1.2149
  296TMC3    H2 4519   4.372   1.485   0.993  1.9613  2.2224 -0.5271
  296TMC3    C7 4520   4.496   1.306   0.840 -0.8965  0.5190 -0.1216
  296TMC3    C8 4521   4.172   1.643   0.912  0.1507 -0.6916  0.1642
  296TMC3    O1 4522   4.581   1.261   0.765 -0.0318 -0.0490 -1.0310
  296TMC3    O2 4523   4.161   1.566   1.009  0.2553 -0.1180 -0.6840
  297MPD2     C 4524   1.036   3.730  16.085  0.7957 -0.4039 -0.2725
  297MPD2    C1 4525   1.066   3.833  15.996 -0.3535  0.2947  0.0736
  297MPD2    C2 4526   1.176   3.921  16.023 -0.1567 -0.2467  0.5154
  297MPD2    C3 4527   1.259   3.902  16.129 -0.2223  0.2505  0.1562
  297MPD2    C4 4528   1.230   3.797  16.216  0.0702 -0.3166 -0.6396
  297MPD2    C5 4529   1.118   3.718  16.195 -0.3882 -0.1030 -0.5120
  297MPD2     H 4530   1.201   3.999  15.953  0.6196 -0.4677  0.5498
  297MPD2    H1 4531   1.288   3.770  16.303  0.7946  2.3405 -0.3225
  297MPD2    H2 4532   0.965   3.648  16.087 -0.2675  0.5005 -1.4203
  297MPD2    H3 4533   1.102   3.634  16.261  2.1833  0.0377  0.2748
  297MPD2     N 4534   1.368   3.991  16.138 -0.8131  0.3500 -0.7664
  297MPD2    H5 4535   1.380   4.056  16.061 -0.4125 -0.4293 -1.3674
  297MPD2    N1 4536   0.988   3.854  15.884  0.0267 -0.7915 -0.0008
  297MPD2    H7 4537   1.026   3.907  15.806 -3.1338  0.1803 -0.8753
  298TMC3    C1 4538   0.780   3.858  15.762 -0.2837 -0.3765  0.3148
  298TMC3    C2 4539   0.859   3.921  15.666 -0.3641  0.0069  0.7888
  298TMC3    C3 4540   0.817   4.041  15.630  0.0702  0.1400  0.1240
  298TMC3    C4 4541   0.646   3.892  15.790 -0.5367 -0.4622 -1.0464
  298TMC3    C5 4542   0.617   4.014  15.749 -0.2976 -0.2328 -0.4115
  298TMC3    C6 4543   0.697   4.093  15.672  0.4628  0.2977 -0.0799
  298TMC3     C 4544   0.851   3.824  15.885  0.0562 -0.2520 -0.0598
  298TMC3     O 4545   0.794   3.775  15.980  0.2626  0.1662 -0.1721
  298TMC3     H 4546   0.955   3.876  15.643 -0.8479  0.7573 -2.6130
  298TMC3    H1 4547   0.596   3.849  15.876  0.7160  1.0255  0.4266
  298TMC3    H2 4548   0.679   4.196  15.643  2.3092  0.7506  0.3802
  298TMC3    C7 4549   0.531   4.088  15.846 -0.0460 -0.0633  0.4097
  298TMC3    C8 4550   0.909   4.138  15.572  0.3839 -0.0795 -0.3091
  298TMC3    O1 4551   0.586   4.190  15.890 -0.0911 -0.3599 -1.0026
  298TMC3    O2 4552   0.912   4.249  15.623  0.2875 -0.7209  0.2305
  299MPD2     C 4553   1.915   3.514  10.884 -0.0748  0.3898 -0.2152
  299MPD2    C1 4554   1.894   3.647  10.860 -0.4730  0.7020  0.2423
  299MPD2    C2 4555   1.781   3.689  10.792  0.6013 -0.5913  0.4871
  299MPD2    C3 4556   1.690   3.594  10.750  0.4931 -1.0492 -0.2677
  299MPD2    C4 4557   1.706   3.460  10.779 -0.0726  0.9382 -0.0262
  299MPD2    C5 4558   1.821   3.422  10.836  1.2351  0.2368 -0.5387
  299MPD2     H 4559   1.773   3.793  10.764 -0.5642 -0.7580  0.1996
  299MPD2    H1 4560   1.640   3.387  10.734  1.0684 -1.0454  1.5585
  299MPD2    H2 4561   2.002   3.482  10.939  1.7979  0.6454 -3.0225
  299MPD2    H3 4562   1.833   3.315  10.853  1.6347  0.5112  0.8784
  299MPD2     N 4563   1.578   3.628  10.670  0.6419 -0.1634 -0.1791
  299MPD2    H5 4564   1.520   3.548  10.648  0.5166 -0.0018 -0.4263
  299MPD2    N1 4565   1.981   3.741  10.920 -0.2711  0.2694 -0.4954
  299MPD2    H7 4566   2.041   3.698  10.990 -0.1165  0.7442 -0.3349
  300TMC3    C1 4567   1.421   3.740  10.543  0.4425 -0.2235  0.3502
  300TMC3    C2 4568   1.397   3.835  10.441  0.2467 -0.8367 -0.1918
  300TMC3    C3 4569   1.277   3.889  10.431  0.3552  0.1275  0.4318
  300TMC3    C4 4570   1.316   3.685  10.615  0.2021  0.0005  0.2851
  300TMC3    C5 4571   1.190   3.740  10.599  0.0663  0.0325  0.2421
  300TMC3    C6 4572   1.166   3.845  10.514  0.1193  0.4621  0.7210
  300TMC3     C 4573   1.550   3.741  10.601 -0.0609  0.0980  0.0331
  300TMC3     O 4574   1.608   3.849  10.592 -0.1517 -0.0393 -0.0987
  300TMC3     H 4575   1.484   3.869  10.385 -1.6341  0.5720 -2.2812
  300TMC3    H1 4576   1.336   3.606  10.687 -0.8073 -0.9469 -0.4796
  300TMC3    H2 4577   1.070   3.894  10.513 -0.2418 -0.2500  0.8193
  300TMC3    C7 4578   1.083   3.667  10.670  0.4672  0.3326 -0.0395
  300TMC3    C8 4579   1.292   4.031  10.410  0.4564 -0.0263 -0.4437
  300TMC3    O1 4580   1.095   3.544  10.658  0.1332  0.3461  0.4237
  300TMC3    O2 4581   1.404   4.069  10.444  0.1009 -0.0299 -0.5151
  301MPD2     C 4582   4.526   4.710   1.195  0.2139  0.1177  0.4472
  301MPD2    C1 4583   4.398   4.671   1.185 -0.9669  0.0245 -0.1145
  301MPD2    C2 4584   4.379   4.539   1.156 -1.0259  0.5524 -0.2605
  301MPD2    C3 4585   4.477   4.442   1.134  0.4723 -0.1467  0.5400
  301MPD2    C4 4586   4.604   4.492   1.153  0.1757 -0.4613  0.4563
  301MPD2    C5 4587   4.626   4.624   1.178 -0.2951  0.8192 -0.4878
  301MPD2     H 4588   4.276   4.506   1.150 -0.3158 -1.5283 -1.2052
  301MPD2    H1 4589   4.690   4.433   1.124  1.4522  1.8647 -0.5537
  301MPD2    H2 4590   4.560   0.071   1.218  0.3014 -0.2257  1.7990
  301MPD2    H3 4591   4.729   4.658   1.173  0.2867 -0.5962  1.6889
  301MPD2     N 4592   4.448   4.307   1.099 -0.0294  0.6484  0.1579
  301MPD2    H5 4593   4.525   4.241   1.094 -0.5687  0.1649 -1.7572
  301MPD2    N1 4594   4.282   0.010   1.192  0.1648  0.0485 -0.3035
  301MPD2    H7 4595   4.194   4.702   1.171 -0.4771  0.4486  1.5493
  302TMC3    C1 4596   4.324   4.129   0.986  0.1424 -0.2875  0.2042
  302TMC3    C2 4597   4.411   4.039   1.034  1.0693 -0.6476  0.5861
  302TMC3    C3 4598   4.412   3.919   0.975 -0.4147  0.5459 -0.2480
  302TMC3    C4 4599   4.224   4.099   0.890 -0.5927  0.0721 -0.9777
  302TMC3    C5 4600   4.230   3.972   0.832  0.4983  0.1343  0.3411
  302TMC3    C6 4601   4.328   3.886   0.869 -0.1894  0.1410  0.1139
  302TMC3     C 4602   4.326   4.268   1.047  0.3579 -0.5003  0.1816
  302TMC3     O 4603   4.216   4.324   1.038  0.4874 -0.0571  0.0572
  302TMC3     H 4604   4.472   4.073   1.117 -3.0229  2.3956  2.3221
  302TMC3    H1 4605   4.155   4.174   0.853 -0.8465  1.0562  1.4259
  302TMC3    H2 4606   4.340   3.797   0.809 -0.0510  0.1280  0.1618
  302TMC3    C7 4607   4.131   3.932   0.733 -0.0618  0.5734 -0.3744
  302TMC3    C8 4608   4.467   3.804   1.049 -0.0121 -0.3377  0.0351
  302TMC3    O1 4609   4.161   3.843   0.657 -0.3090 -0.2336 -0.2129
  302TMC3    O2 4610   4.488   3.708   0.977 -0.5352 -0.5573 -0.4800
  303MPD2     C 4611   3.829   3.942  10.328  0.4565  0.5013 -0.3815
  303MPD2    C1 4612   3.828   3.824  10.259  0.5556 -0.6159 -0.1002
  303MPD2    C2 4613   3.832   3.827  10.124  0.2308  0.1818 -0.0324
  303MPD2    C3 4614   3.815   3.944  10.055  0.1604 -0.0219 -0.7527
  303MPD2    C4 4615   3.813   4.066  10.122 -0.4277 -0.1724  0.5871
  303MPD2    C5 4616   3.824   4.062  10.259 -0.4956  0.1182  0.1110
  303MPD2     H 4617   3.825   3.729  10.077  2.3348  1.1323 -2.3344
  303MPD2    H1 4618   3.804   4.160  10.069 -0.6471 -1.4183 -1.5718
  303MPD2    H2 4619   3.821   3.939  10.436  1.8833 -1.4823 -0.3369
  303MPD2    H3 4620   3.822   4.155  10.315 -0.7929  0.1315  0.0802
  303MPD2     N 4621   3.793   3.936   9.912  0.0023 -0.7697  0.0095
  303MPD2    H5 4622   3.788   4.029   9.872 -0.0280 -0.5965  0.4183
  303MPD2    N1 4623   3.835   3.703  10.341  0.0375  0.1138 -0.5186
  303MPD2    H7 4624   3.840   3.714  10.442  0.6658 -0.4634 -0.4879
  304TMC3    C1 4625   3.791   3.482  10.396 -0.3846 -0.1511  0.0762
  304TMC3    C2 4626   3.688   3.502  10.479 -1.4513 -0.2215  0.1119
  304TMC3    C3 4627   3.640   3.387  10.528  0.2458 -0.3313  0.7244
  304TMC3    C4 4628   3.840   3.357  10.359  0.2369 -0.6869 -0.7498
  304TMC3    C5 4629   3.785   3.242  10.410  0.0882 -0.5208  0.0392
  304TMC3    C6 4630   3.693   3.265  10.505 -0.1215  0.4329  0.4816
  304TMC3     C 4631   3.818   3.580  10.291  0.1937  0.0895 -0.0421
  304TMC3     O 4632   3.821   3.536  10.173  0.7163  0.0333 -0.2256
  304TMC3     H 4633   3.644   3.594  10.514 -0.2010  0.0390  0.9869
  304TMC3    H1 4634   3.921   3.346  10.288  1.3537 -0.6335  0.5163
  304TMC3    H2 4635   3.644   3.178  10.549  1.7361  0.1549  2.0189
  304TMC3    C7 4636   3.740   3.149  10.313 -0.0845 -0.1637  0.5327
  304TMC3    C8 4637   3.490   3.383  10.540 -0.0634  0.0690  0.5803
  304TMC3    O1 4638   3.621   3.128  10.324  0.6150  0.3623  0.5778
  304TMC3    O2 4639   3.429   3.485  10.570  0.4792 -0.2995  0.3118
  305MPD2     C 4640   1.871   0.456  13.945 -0.1568  0.3636 -0.3191
  305MPD2    C1 4641   2.006   0.467  13.924  0.0751  0.4442 -0.0523
  305MPD2    C2 4642   2.056   0.445  13.799  0.4608 -0.1642 -0.0488
  305MPD2    C3 4643   1.980   0.402  13.697 -0.5048 -0.1658 -0.1123
  305MPD2    C4 4644   1.844   0.396  13.720  0.7055 -0.5045  0.3342
  305MPD2    C5 4645   1.791   0.415  13.846  0.3503 -0.9001  0.5389
  305MPD2     H 4646   2.158   0.478  13.787  0.8709 -0.9184  1.3134
  305MPD2    H1 4647   1.777   0.364  13.641 -1.3300  0.9395  1.5183
  305MPD2    H2 4648   1.821   0.487  14.036  1.4879  1.1922  0.2927
  305MPD2    H3 4649   1.686   0.404  13.871  0.4632  0.3673  1.5780
  305MPD2     N 4650   2.028   0.361  13.571  0.3496 -0.0181 -0.1094
  305MPD2    H5 4651   1.958   0.378  13.500  1.3614  3.8007 -0.2053
  305MPD2    N1 4652   2.096   0.516  14.023  0.0132  0.2511 -0.3518
  305MPD2    H7 4653   2.187   0.547  13.989 -0.4426  1.4000 -0.5245
  306TMC3    C1 4654   2.162   0.588  14.247 -0.3480 -0.3495 -0.3296
  306TMC3    C2 4655   2.274   0.510  14.247 -0.8308  0.4539 -0.9024
  306TMC3    C3 4656   2.342   0.496  14.365 -0.6448 -0.0539 -1.0107
  306TMC3    C4 4657   2.107   0.643  14.365 -0.0154  0.6622  0.0072
  306TMC3    C5 4658   2.180   0.632  14.478 -0.1783  0.1741  0.0710
  306TMC3    C6 4659   2.297   0.555  14.480 -0.2729 -0.1383  0.3746
  306TMC3     C 4660   2.060   0.526  14.157 -0.1065 -0.0460 -0.0982
  306TMC3     O 4661   1.955   0.505  14.215 -0.0946  0.4518  0.1338
  306TMC3     H 4662   2.304   0.452  14.161 -1.2259  1.3938 -1.6706
  306TMC3    H1 4663   2.007   0.684  14.356  0.6471  1.6650 -2.9841
  306TMC3    H2 4664   2.346   0.521  14.571 -0.8640 -2.2763 -0.1130
  306TMC3    C7 4665   2.124   0.676  14.602 -0.5423  0.1568  0.2785
  306TMC3    C8 4666   2.461   0.405  14.365  0.7524 -0.8030  0.6089
  306TMC3    O1 4667   2.002   0.698  14.597 -0.5036 -0.5216  0.1650
  306TMC3    O2 4668   2.442   0.304  14.303  0.4705 -0.1910 -0.6766
  307MPD2     C 4669   0.296   2.919   0.236  0.2167  0.3944  0.7631
  307MPD2    C1 4670   0.239   3.039   0.224 -0.6110 -0.6282  0.5821
  307MPD2    C2 4671   0.174   3.091   0.335  0.0243  0.1046  0.0021
  307MPD2    C3 4672   0.176   3.025   0.459 -0.2752 -1.0682  0.1973
  307MPD2    C4 4673   0.232   2.899   0.472  0.4273  0.1847 -0.4293
  307MPD2    C5 4674   0.285   2.849   0.353 -0.2369 -0.3447 -0.3322
  307MPD2     H 4675   0.135   3.191   0.324 -2.4009 -0.6794  1.6530
  307MPD2    H1 4676   0.237   2.844   0.565  1.7527 -0.0790 -0.6525
  307MPD2    H2 4677   0.337   2.864   0.152 -0.4132 -0.0320  0.7388
  307MPD2    H3 4678   0.326   2.748   0.360 -0.5688 -0.6509 -3.0148
  307MPD2     N 4679   0.128   3.098   0.565 -0.3093  0.0481 -0.0224
  307MPD2    H5 4680   0.096   3.191   0.542 -0.0254 -0.0380 -0.7510
  307MPD2    N1 4681   0.246   3.119   0.110 -0.5058 -0.4562  0.1498
  307MPD2    H7 4682   0.195   3.207   0.111  0.7121  0.2448  1.2649
  308TMC3    C1 4683   4.591   3.149   0.930  0.6523 -0.9885  0.3329
  308TMC3    C2 4684   4.592   3.285   0.924 -0.4056 -0.1031 -0.0226
  308TMC3    C3 4685   4.680   3.345   0.837  0.0610 -0.0319  0.2256
  308TMC3    C4 4686   4.691   3.076   0.875 -0.3720 -0.0351  0.0976
  308TMC3    C5 4687   0.031   3.142   0.783 -0.8712  0.4296  0.4892
  308TMC3    C6 4688   0.024   3.275   0.761 -0.3667 -0.1194  0.6642
  308TMC3     C 4689   4.465   3.078   0.916  0.1048 -0.4290 -0.2796
  308TMC3     O 4690   4.475   2.959   0.881 -0.0412  0.1849  0.1299
  308TMC3     H 4691   4.522   3.346   0.980  0.5899  0.6885  0.3601
  308TMC3    H1 4692   4.684   2.967   0.870 -0.0537  0.0309 -1.7803
  308TMC3    H2 4693   0.096   3.332   0.702 -2.3584  0.0072 -1.6653
  308TMC3    C7 4694   0.105   3.052   0.694  1.0764  0.5494  0.5300
  308TMC3    C8 4695   4.738   3.470   0.875  0.1427 -0.6388 -0.7269
  308TMC3    O1 4696   0.115   2.936   0.733 -0.2581  0.4385 -0.2872
  308TMC3    O2 4697   0.035   3.471   0.991 -0.5900 -0.6339 -0.9524
  309MPD2     C 4698   4.042   3.433  17.205 -0.0838  0.5097  0.2932
  309MPD2    C1 4699   3.974   3.494  17.101 -0.2880  0.1385 -0.1096
  309MPD2    C2 4700   3.849   3.549  17.131 -0.2393 -0.2319 -0.4125
  309MPD2    C3 4701   3.791   3.528  17.253 -0.2318 -0.2408 -0.3092
  309MPD2    C4 4702   3.856   3.458  17.356  0.3592  0.3514  0.6081
  309MPD2    C5 4703   3.981   3.409  17.328  0.6498 -0.0081 -0.4475
  309MPD2     H 4704   3.796   3.596  17.048 -0.5748 -0.3016 -0.2382
  309MPD2    H1 4705   3.811   3.439  17.453  2.0707 -1.0484  1.1235
  309MPD2    H2 4706   4.145   3.400  17.198  0.1365  1.6145 -1.8503
  309MPD2    H3 4707   4.022   3.355  17.413  2.8368 -1.3194 -2.3409
  309MPD2     N 4708   3.657   3.576  17.288 -0.0330 -0.0329  0.2182
  309MPD2    H5 4709   3.630   3.557  17.384  1.2520  1.0741  0.8016
  309MPD2    N1 4710   4.034   3.533  16.983  0.0805 -0.4406 -0.4352
  309MPD2    H7 4711   3.993   3.597  16.916  1.9795  2.2743  1.0087
  310TMC3    C1 4712   4.200   3.576  16.826  0.4572 -0.5340 -0.3842
  310TMC3    C2 4713   4.106   3.634  16.742 -0.2648  0.4549  0.6783
  310TMC3    C3 4714   4.152   3.690  16.624 -0.2124  0.2329 -0.6502
  310TMC3    C4 4715   4.325   3.549  16.781 -0.3540 -1.1144  0.3024
  310TMC3    C5 4716   4.364   3.611  16.660 -1.3259  0.5111 -0.6929
  310TMC3    C6 4717   4.280   3.691  16.587 -0.3310  0.2227  0.3202
  310TMC3     C 4718   4.157   3.495  16.942  1.1085 -0.0025  0.9130
  310TMC3     O 4719   4.232   3.406  16.979 -0.2105  0.4168  0.8830
  310TMC3     H 4720   4.001   3.645  16.769 -0.5769  0.0098 -0.3657
  310TMC3    H1 4721   4.392   3.506  16.854  1.3737  0.3942 -0.3863
  310TMC3    H2 4722   4.301   3.722  16.485 -0.9406 -1.0746 -0.2021
  310TMC3    C7 4723   4.498   3.589  16.602  0.3730  0.6843  0.0225
  310TMC3    C8 4724   4.050   3.756  16.543  0.0267 -0.6713 -0.9170
  310TMC3    O1 4725   4.507   3.629  16.486  0.0650 -0.2493  0.2638
  310TMC3    O2 4726   3.934   3.732  16.576  0.0400 -0.0177  0.0031
  311MPD2     C 4727   1.224   0.560  12.239 -0.1819  0.6320 -0.4798
  311MPD2    C1 4728   1.270   0.587  12.358 -0.2466 -0.0651 -0.5514
  311MPD2    C2 4729   1.211   0.514  12.472  1.0745 -0.1118 -0.2379
  311MPD2    C3 4730   1.106   0.424  12.446 -0.0826  0.2617  0.5455
  311MPD2    C4 4731   1.067   0.397  12.313  0.6020 -0.2623  0.2836
  311MPD2    C5 4732   1.125   0.463  12.216 -0.8051  0.8797  0.2156
  311MPD2     H 4733   1.250   0.540  12.570  1.3046  0.4420 -0.4755
  311MPD2    H1 4734   0.996   0.320  12.283 -1.7228  1.6778  0.7909
  311MPD2    H2 4735   1.274   0.593  12.149 -1.0054 -0.1268 -1.2216
  311MPD2    H3 4736   1.104   0.448  12.111  1.7477 -1.9309  0.0837
  311MPD2     N 4737   1.029   0.372  12.557  0.4921 -0.3490 -0.0602
  311MPD2    H5 4738   1.053   0.395  12.653  0.0279  0.3165 -0.1011
  311MPD2    N1 4739   1.375   0.683  12.377 -0.2720 -0.1981 -0.1574
  311MPD2    H7 4740   1.395   0.706  12.474 -1.0975  0.7812 -0.2232
  312TMC3    C1 4741   0.855   0.264  12.671 -0.5719 -0.6294 -0.5789
  312TMC3    C2 4742   0.734   0.202  12.663  0.4838  0.7371  0.0480
  312TMC3    C3 4743   0.652   0.191  12.775  0.7101  0.6717  0.3494
  312TMC3    C4 4744   0.891   0.330  12.787 -0.0363  0.7989  0.2701
  312TMC3    C5 4745   0.807   0.315  12.894  0.0807 -0.3997  0.2356
  312TMC3    C6 4746   0.692   0.237  12.898 -0.0164  1.4283 -0.8495
  312TMC3     C 4747   0.919   0.300  12.549  0.5860  0.2637  0.1554
  312TMC3     O 4748   0.851   0.277  12.447  0.0064  0.4999  0.4139
  312TMC3     H 4749   0.714   0.135  12.579  2.3793 -0.6432  0.6922
  312TMC3    H1 4750   0.978   0.394  12.795  0.9001 -0.1776 -1.9122
  312TMC3    H2 4751   0.622   0.246  12.980  1.5193  3.5815  0.2162
  312TMC3    C7 4752   0.830   0.404  13.009  0.2158 -0.3829 -1.1459
  312TMC3    C8 4753   0.514   0.150  12.760  0.7916 -0.1162 -0.1461
  312TMC3    O1 4754   0.896   0.505  12.993 -0.3060 -0.1850 -0.4126
  312TMC3    O2 4755   0.455   0.119  12.859 -0.6882  0.1131  0.2847
  313MPD2     C 4756   0.329   4.011  11.000  0.0457  0.1499 -0.0749
  313MPD2    C1 4757   0.278   4.044  10.878 -0.8082 -0.5737  0.3287
  313MPD2    C2 4758   0.213   3.948  10.811 -0.1108  0.7005  0.2094
  313MPD2    C3 4759   0.199   3.814  10.859  0.2282 -0.2269 -0.1486
  313MPD2    C4 4760   0.263   3.774  10.977  0.9107  0.2297 -0.1863
  313MPD2    C5 4761   0.321   3.880  11.044  0.1847  0.3660 -0.0570
  313MPD2     H 4762   0.153   3.971  10.723 -0.6033  0.1629  0.4092
  313MPD2    H1 4763   0.255   3.676  11.022 -0.4145  1.5782  2.4763
  313MPD2    H2 4764   0.388   4.082  11.057  0.4596  0.3219 -0.7180
  313MPD2    H3 4765   0.367   3.859  11.140  0.5803  0.7020 -0.1712
  313MPD2     N 4766   0.127   3.725  10.777  0.4181  0.3190  0.3391
  313MPD2    H5 4767   0.061   3.764  10.710  0.2285  0.8839  0.8566
  313MPD2    N1 4768   0.284   4.174  10.830 -0.0494 -0.0681  0.1652
  313MPD2    H7 4769   0.224   4.189  10.749  0.0177 -1.6788 -0.1776
  314TMC3    C1 4770   0.339   4.397  10.803  0.3015  0.2983  0.5955
  314TMC3    C2 4771   0.384   4.515  10.852 -0.3918  0.1454 -0.3327
  314TMC3    C3 4772   0.416   4.616  10.769  0.2970  0.4320 -0.4639
  314TMC3    C4 4773   0.332   4.385  10.666  0.0174  0.0693  0.4086
  314TMC3    C5 4774   0.369   4.494  10.589  0.3394 -0.5421 -0.4853
  314TMC3    C6 4775   0.416   4.617  10.636  0.1500  0.4471 -0.1277
  314TMC3     C 4776   0.351   4.281  10.886 -0.9209  0.4140  0.3987
  314TMC3     O 4777   0.405   4.294  10.992 -0.0745  0.2234  0.3488
  314TMC3     H 4778   0.382   4.523  10.960 -3.6552 -1.0675 -0.3192
  314TMC3    H1 4779   0.312   4.291  10.617 -1.8516  0.1841  0.9391
  314TMC3    H2 4780   0.419   4.701  10.567 -0.1248 -0.3061 -1.0585
  314TMC3    C7 4781   0.319   4.490  10.453 -0.9935  0.1000 -0.8432
  314TMC3    C8 4782   0.433   0.010  10.827  0.4170  0.6363 -0.2334
  314TMC3    O1 4783   0.232   4.405  10.432  0.0361  0.4567  0.0927
  314TMC3    O2 4784   0.533   0.068  10.792  0.0020  0.3638 -0.2940
  315MPD2     C 4785   0.548   3.169  17.355 -0.1026 -0.2300 -0.5636
  315MPD2    C1 4786   0.581   3.179  17.491  1.2073  0.2713  0.6284
  315MPD2    C2 4787   0.603   3.304  17.536 -0.4900  0.1820  0.2409
  315MPD2    C3 4788   0.582   3.418  17.458  0.0653  0.0590  0.8688
  315MPD2    C4 4789   0.548   3.401  17.324 -0.3855 -0.2778 -0.3758
  315MPD2    C5 4790   0.526   3.273  17.275  0.1000  0.4622  0.1115
  315MPD2     H 4791   0.642   3.321  17.636  0.2428 -1.4753  0.2399
  315MPD2    H1 4792   0.543   3.481  17.252  0.8545  0.9688  0.9318
  315MPD2    H2 4793   0.530   3.077  17.299  0.1913 -1.0642  0.7160
  315MPD2    H3 4794   0.504   3.267  17.169  1.1114 -0.0420 -0.0718
  315MPD2     N 4795   0.598   3.546  17.522 -0.6298 -0.5758 -0.0979
  315MPD2    H5 4796   0.631   3.554  17.617 -3.4737 -1.1774  0.9376
  315MPD2    N1 4797   0.602   3.063  17.576 -0.6277  0.0930  0.1055
  315MPD2    H7 4798   0.617   3.079  17.675 -0.2374 -0.9739  0.2154
  316TMC3    C1 4799   0.657   3.772  17.536 -0.1961  0.0887 -0.4545
  316TMC3    C2 4800   0.763   3.741  17.617 -0.1686  0.3554  0.3778
  316TMC3    C3 4801   0.845   3.842  17.666  0.5619  0.5612  0.4232
  316TMC3    C4 4802   0.646   3.899  17.485 -0.0991  0.2401  0.0607
  316TMC3    C5 4803   0.737   3.995  17.530  0.7322 -0.2382  0.4106
  316TMC3    C6 4804   0.832   3.965  17.618  0.2442 -0.7969  0.1683
  316TMC3     C 4805   0.591   3.663  17.459 -0.0644 -0.0263 -0.1983
  316TMC3     O 4806   0.546   3.695  17.346 -0.5781  0.4453  0.3508
  316TMC3     H 4807   0.781   3.640  17.652 -0.6278  0.1929  0.1346
  316TMC3    H1 4808   0.554   3.909  17.429  0.5165 -0.7822 -1.1245
  316TMC3    H2 4809   0.901   4.043  17.650 -0.8122  0.1930  0.0445
  316TMC3    C7 4810   0.736   4.129  17.475 -0.1272 -1.0663 -0.8652
  316TMC3    C8 4811   0.896   3.840   0.051 -0.0517 -0.0085  0.3034
  316TMC3    O1 4812   0.821   4.204  17.516 -0.0716 -0.3228 -0.0317
  316TMC3    O2 4813   0.906   3.948   0.110 -0.5584 -0.2449 -0.5259
  317MPD2     C 4814   2.256   2.476  12.718 -0.3992  0.1942 -0.8588
  317MPD2    C1 4815   2.213   2.344  12.733 -0.1834  0.2245  0.1780
  317MPD2    C2 4816   2.239   2.282  12.853 -0.5106  0.2628 -0.1111
  317MPD2    C3 4817   2.294   2.353  12.956 -0.3945 -0.2670 -0.7620
  317MPD2    C4 4818   2.345   2.478  12.938 -0.2077  0.8541 -0.1585
  317MPD2    C5 4819   2.327   2.540  12.817 -0.0652 -0.0040 -0.6922
  317MPD2     H 4820   2.213   2.177  12.861 -1.6707  0.6209  0.7195
  317MPD2    H1 4821   2.390   2.534  13.019 -1.5854  0.2519  1.0185
  317MPD2    H2 4822   2.261   2.523  12.620  0.0566  1.6619 -0.1380
  317MPD2    H3 4823   2.366   2.640  12.807 -0.6705  0.1582 -1.4198
  317MPD2     N 4824   2.307   2.275  13.074  0.3722 -0.2775 -0.4306
  317MPD2    H5 4825   2.262   2.184  13.079 -1.1302  0.6657  2.7673
  317MPD2    N1 4826   2.157   2.264  12.630  0.7827  0.1094  0.3395
  317MPD2    H7 4827   2.133   2.171  12.662  0.1942  0.5982  1.3063
  318TMC3    C1 4828   2.420   2.178  13.252  1.3440  0.1583  0.5415
  318TMC3    C2 4829   2.377   2.059  13.198 -0.5712  0.4382 -0.8265
  318TMC3    C3 4830   2.374   1.953  13.284  0.3644 -0.6636  0.1030
  318TMC3    C4 4831   2.460   2.201  13.378  0.0303  0.0600  0.4330
  318TMC3    C5 4832   2.466   2.087  13.452  0.1998  0.4819 -0.8362
  318TMC3    C6 4833   2.434   1.962  13.407 -0.6179  0.0478 -0.3211
  318TMC3     C 4834   2.398   2.296  13.168 -0.6088  0.8968  0.0535
  318TMC3     O 4835   2.450   2.402  13.202 -0.0790 -0.5849  0.0219
  318TMC3     H 4836   2.358   2.046  13.092 -2.7927 -2.7682 -0.0281
  318TMC3    H1 4837   2.518   2.290  13.405  1.8069 -0.5534 -1.3671
  318TMC3    H2 4838   2.440   1.873  13.469 -1.5526 -0.0233 -0.3369
  318TMC3    C7 4839   2.550   2.094  13.572  0.1851 -0.1931  0.2549
  318TMC3    C8 4840   2.320   1.833  13.233 -0.1548  0.8590  1.1099
  318TMC3    O1 4841   2.550   2.197  13.636  0.4388  0.2772  0.7926
  318TMC3    O2 4842   2.364   1.726  13.269  0.2481  0.1775 -0.4242
  319MPD2     C 4843   3.414   2.997  16.160  0.2239  0.4125  0.5769
  319MPD2    C1 4844   3.386   3.035  16.289 -0.0220  0.6386 -0.4116
  319MPD2    C2 4845   3.254   3.049  16.327 -0.2564 -0.6950 -0.3923
  319MPD2    C3 4846   3.152   3.003  16.243 -0.3387  0.0611  0.0224
  319MPD2    C4 4847   3.186   2.956  16.116 -0.2588 -0.6258 -0.4295
  319MPD2    C5 4848   3.318   2.949  16.075  0.1661 -0.0355 -0.1061
  319MPD2     H 4849   3.233   3.078  16.429  0.8067 -0.3434 -0.2737
  319MPD2    H1 4850   3.109   2.924  16.047  0.5507 -0.9314 -1.1866
  319MPD2    H2 4851   3.518   3.000  16.129  1.0250  0.2386  3.2069
  319MPD2    H3 4852   3.340   2.907  15.978 -0.4874  2.2655 -1.2423
  319MPD2     N 4853   3.011   3.006  16.285  0.5781  0.5856 -0.2692
  319MPD2    H5 4854   2.953   2.959  16.217  1.7749 -2.6155  0.9602
  319MPD2    N1 4855   3.482   3.094  16.375  0.8673 -0.4793 -0.1588
  319MPD2    H7 4856   3.446   3.128  16.464 -1.3393 -0.4253 -1.0734
  320TMC3    C1 4857   2.827   3.007  16.430  0.1941  0.7101 -0.2648
  320TMC3    C2 4858   2.746   2.996  16.321 -0.8264  0.5522  0.9621
  320TMC3    C3 4859   2.626   2.929  16.340  0.7619  0.3914  0.3507
  320TMC3    C4 4860   2.791   2.957  16.554 -0.1196  0.9802  0.1569
  320TMC3    C5 4861   2.682   2.878  16.557 -0.5230  0.0318 -0.0942
  320TMC3    C6 4862   2.589   2.865  16.456 -0.2331  0.1602  0.5178
  320TMC3     C 4863   2.966   3.043  16.414  0.8511  0.3372  0.0743
  320TMC3     O 4864   3.026   3.095  16.505  0.2305 -0.3546  0.3106
  320TMC3     H 4865   2.779   3.030  16.224  2.9101  2.2428  2.8277
  320TMC3    H1 4866   2.870   2.967  16.628  0.0964 -3.9667  0.5686
  320TMC3    H2 4867   2.513   2.789  16.454  1.4948 -1.6058  1.9058
  320TMC3    C7 4868   2.700   2.770  16.650  0.9859  0.1350 -0.5068
  320TMC3    C8 4869   2.522   2.952  16.241  0.3126 -0.1033  0.1244
  320TMC3    O1 4870   2.681   2.660  16.604  0.3976 -0.5792  0.2255
  320TMC3    O2 4871   2.433   2.869  16.237  0.0709  0.1797 -0.1719
  321TMC3    C1 4872   3.675   3.183  16.467  0.4170  0.4430 -0.7725
  321TMC3    C2 4873   3.608   3.182  16.589 -0.0825  0.6895 -0.7105
  321TMC3    C3 4874   3.662   3.263  16.688  0.0702  1.0161  1.0151
  321TMC3    C4 4875   3.785   3.249  16.452 -0.0995 -0.1647  0.5257
  321TMC3    C5 4876   3.830   3.336  16.547 -0.3457  1.1061  0.7546
  321TMC3    C6 4877   3.756   3.354  16.659  0.4899 -0.8937  0.5114
  321TMC3     C 4878   3.617   3.110  16.357  0.0981  0.0593 -0.2656
  321TMC3     O 4879   3.684   3.079  16.260  0.0350 -0.2121 -0.3008
  321TMC3     H 4880   3.553   3.095  16.624 -0.9561  1.5436  0.0190
  321TMC3    H1 4881   3.836   3.249  16.357  1.5490  0.4854  1.4103
  321TMC3    H2 4882   3.803   3.419  16.731 -0.7420 -0.1474  0.6346
  321TMC3    C7 4883   3.970   3.338  16.586 -0.3164  0.5089 -0.3186
  321TMC3    C8 4884   3.674   3.202  16.820 -0.0972  0.4710 -0.4069
  321TMC3    O1 4885   3.987   3.324  16.705 -0.5525  0.2764  0.0736
  321TMC3    O2 4886   3.581   3.146  16.867  0.5155 -0.5262  0.1273
  322MPD2     C 4887   1.892   0.030  13.530  0.1001  0.5239 -0.0936
  322MPD2    C1 4888   1.957   4.717  13.637 -0.3962 -0.2570 -0.2030
  322MPD2    C2 4889   2.003   4.582  13.631 -0.2330  0.5937 -0.3675
  322MPD2    C3 4890   1.999   4.511  13.512  0.1860  0.6465  0.4190
  322MPD2    C4 4891   1.933   4.566  13.410  0.1279  0.0110 -1.0032
  322MPD2    C5 4892   1.866   4.687  13.425 -0.6331 -0.7615 -0.5599
  322MPD2     H 4893   2.060   4.538  13.711  1.2098  0.9542 -1.1868
  322MPD2    H1 4894   1.933   4.519  13.312  1.2550  0.9907 -1.4867
  322MPD2    H2 4895   1.857   0.132  13.527 -0.9177  0.1114 -2.3479
  322MPD2    H3 4896   1.807   4.717  13.339  0.1709 -1.1034 -1.2221
  322MPD2     N 4897   2.071   4.390  13.510 -0.0700 -0.1028 -0.4832
  322MPD2    H5 4898   2.103   4.361  13.602 -0.2854  0.4647 -0.2298
  322MPD2    N1 4899   1.987   0.062  13.746  0.2952  0.3029 -0.7139
  322MPD2    H7 4900   1.988   0.162  13.733  1.4769  0.7164  2.4054
  323TMC3    C1 4901   2.097   0.102  13.958 -0.0287 -0.2329  0.3745
  323TMC3    C2 4902   2.208   0.151  13.894 -0.3694 -0.0018  0.0185
  323TMC3    C3 4903   2.317   0.154  13.968 -0.1308  0.4547  0.0157
  323TMC3    C4 4904   2.093   0.065  14.094 -0.8310 -0.5431 -0.7739
  323TMC3    C5 4905   2.208   0.090  14.162  0.1778  0.2781 -0.4031
  323TMC3    C6 4906   2.320   0.124  14.099  0.6437  0.2595  0.1753
  323TMC3     C 4907   2.009   0.015  13.873 -0.1856  0.4697  0.2509
  323TMC3     O 4908   1.978   4.645  13.921 -0.3870  0.3720  1.0005
  323TMC3     H 4909   2.201   0.164  13.786  2.1182  0.7173 -0.0704
  323TMC3    H1 4910   2.006   0.022  14.142  0.3441 -0.7273  1.1794
  323TMC3    H2 4911   2.414   0.128  14.153 -0.7485  0.3388  2.5703
  323TMC3    C7 4912   2.225   0.007  14.281  0.1584  0.4279 -0.4612
  323TMC3    C8 4913   2.448   0.139  13.910  0.1937 -0.1366  0.7292
  323TMC3    O1 4914   2.154   4.647  14.288  0.3020 -0.3877  0.0371
  323TMC3    O2 4915   2.547   0.132  13.982  0.4457  0.0416 -0.4885
  324MPD2     C 4916   3.489   0.558  14.275  0.7329  0.7778  0.3518
  324MPD2    C1 4917   3.462   0.658  14.367 -0.4388 -0.0128 -0.0711
  324MPD2    C2 4918   3.335   0.717  14.363  0.3961 -0.4158  1.0307
  324MPD2    C3 4919   3.243   0.686  14.267  0.1106 -0.4087 -0.0230
  324MPD2    C4 4920   3.279   0.586  14.178 -0.6938 -0.2987  0.0043
  324MPD2    C5 4921   3.405   0.522  14.180 -0.3783 -0.4278 -0.0637
  324MPD2     H 4922   3.312   0.785  14.444 -0.7119  1.0962 -0.5433
  324MPD2    H1 4923   3.210   0.552  14.101 -0.5246 -0.6187 -0.0056
  324MPD2    H2 4924   3.580   0.500  14.287  0.0217 -0.9594 -2.5631
  324MPD2    H3 4925   3.427   0.446  14.107  2.2032  0.1553  0.1274
  324MPD2     N 4926   3.111   0.742  14.255  0.6695  0.3862 -0.3509
  324MPD2    H5 4927   3.050   0.699  14.186  0.9379  0.7491 -0.8132
  324MPD2    N1 4928   3.551   0.690  14.468 -0.0822 -0.1334 -0.4545
  324MPD2    H7 4929   3.514   0.749  14.542  1.8978  0.8759 -0.2766
  325TMC3    C1 4930   2.937   0.903  14.268 -0.1457 -0.6406 -0.0179
  325TMC3    C2 4931   2.847   0.817  14.238  0.0445  0.1963  0.0205
  325TMC3    C3 4932   2.730   0.863  14.179 -0.9959 -0.4280  0.5932
  325TMC3    C4 4933   2.913   1.035  14.282  0.3906  0.1159 -0.1850
  325TMC3    C5 4934   2.796   1.081  14.221  0.2316 -0.1561 -0.1361
  325TMC3    C6 4935   2.709   0.993  14.166 -1.1278  0.3161 -0.5906
  325TMC3     C 4936   3.069   0.860  14.311 -0.2814  0.4025  0.5440
  325TMC3     O 4937   3.131   0.945  14.377  0.3868  0.0433  0.2689
  325TMC3     H 4938   2.879   0.713  14.236  1.5720  0.6652  0.2452
  325TMC3    H1 4939   2.989   1.105  14.313  1.0521 -0.9988  0.7119
  325TMC3    H2 4940   2.628   1.021  14.099 -1.9004  1.3501  0.7730
  325TMC3    C7 4941   2.771   1.228  14.212  1.2091  1.0007 -0.2031
  325TMC3    C8 4942   2.628   0.764  14.147 -0.6465 -0.1785  0.2480
  325TMC3    O1 4943   2.671   1.260  14.154  0.2406  0.2583 -0.0700
  325TMC3    O2 4944   2.650   0.651  14.180 -0.2460  0.0248  0.3391
  326MPD2     C 4945   4.520   2.316  10.968 -0.1252  0.3479 -0.3279
  326MPD2    C1 4946   4.539   2.383  10.849  0.2383 -0.0789  0.0479
  326MPD2    C2 4947   4.643   2.473  10.843 -0.1302 -0.2800 -0.2504
  326MPD2    C3 4948   4.729   2.495  10.949 -0.2269  0.1970  0.2674
  326MPD2    C4 4949   4.711   2.429  11.068 -0.1821  0.2718 -0.1897
  326MPD2    C5 4950   4.608   2.341  11.078 -0.2521 -0.4831 -0.3326
  326MPD2     H 4951   4.660   2.515  10.744 -0.5010  1.4410  0.4198
  326MPD2    H1 4952   0.037   2.446  11.154  0.7142 -0.5977 -0.6957
  326MPD2    H2 4953   4.440   2.243  10.973  0.5385 -0.3922 -0.5886
  326MPD2    H3 4954   4.583   2.294  11.172  1.1478  0.1518  0.3550
  326MPD2     N 4955   0.107   2.580  10.938 -0.2684 -0.2224 -0.5202
  326MPD2    H5 4956   0.158   2.584  11.026 -3.8229  1.0013  1.4866
  326MPD2    N1 4957   4.474   2.355  10.725  0.3351 -0.0438  0.3273
  326MPD2    H7 4958   4.497   2.404  10.640 -0.8507 -1.7793 -0.9941
  327TMC3    C1 4959   4.326   2.247  10.576  0.0534 -0.4537  0.1963
  327TMC3    C2 4960   4.320   2.351  10.488 -0.1910  0.4580 -0.9664
  327TMC3    C3 4961   4.269   2.334  10.362  0.2517  1.0842  0.2828
  327TMC3    C4 4962   4.275   2.123  10.541  0.6320  0.6485  0.1230
  327TMC3    C5 4963   4.237   2.103  10.412  0.2849  0.2080 -0.2010
  327TMC3    C6 4964   4.234   2.205  10.319  0.2367  1.1327 -0.3161
  327TMC3     C 4965   4.382   2.254  10.709 -0.0639  0.2989  0.7010
  327TMC3     O 4966   4.366   2.151  10.777 -0.2313 -0.3066  0.1847
  327TMC3     H 4967   4.348   2.453  10.510  1.0848  0.3334 -2.0212
  327TMC3    H1 4968   4.280   2.038  10.609 -1.1954  0.2837 -0.1885
  327TMC3    H2 4969   4.184   2.186  10.225 -1.2517  1.4630  0.4103
  327TMC3    C7 4970   4.301   1.986  10.354  0.2115 -0.2693 -0.0025
  327TMC3    C8 4971   4.258   2.450  10.279  0.4179 -0.3184 -0.3886
  327TMC3    O1 4972   4.249   1.939  10.249  0.2776 -0.2590 -0.3112
  327TMC3    O2 4973   4.286   2.556  10.331  0.0972  0.3620  0.2532
  328MPD2     C 4974   3.012   1.758  17.325  0.0804  0.2698 -0.1238
  328MPD2    C1 4975   2.928   1.656  17.296 -0.0168 -0.5064 -0.2802
  328MPD2    C2 4976   2.804   1.673  17.241  0.3883 -0.2536  0.1791
  328MPD2    C3 4977   2.781   1.800  17.194  0.0032  0.3347  0.3974
  328MPD2    C4 4978   2.868   1.906  17.222  0.4442 -0.0242 -0.4463
  328MPD2    C5 4979   2.981   1.888  17.295  0.1039 -0.5337 -0.4486
  328MPD2     H 4980   2.736   1.594  17.209 -0.4190  0.7055 -0.4969
  328MPD2    H1 4981   2.850   2.006  17.183  0.7384 -0.1977 -1.0186
  328MPD2    H2 4982   3.106   1.739  17.376 -1.0449 -1.7076  1.2392
  328MPD2    H3 4983   3.062   1.959  17.309  0.1603 -0.8315  0.7644
  328MPD2     N 4984   2.666   1.839  17.122  0.2760  0.1907  0.8222
  328MPD2    H5 4985   2.657   1.932  17.082  2.6634 -0.5138 -1.3699
  328MPD2    N1 4986   2.961   1.528  17.342  0.0177 -0.1152 -0.0352
  328MPD2    H7 4987   3.031   1.513  17.415 -2.3034 -0.0655  2.1804
  329TMC3    C1 4988   2.947   1.287  17.354  0.8442 -0.3384  0.1324
  329TMC3    C2 4989   2.851   1.283  17.454 -0.5259 -0.7338  0.6008
  329TMC3    C3 4990   2.788   1.159  17.463  0.8639  0.1134 -0.3526
  329TMC3    C4 4991   2.978   1.186  17.271  0.3974  0.2749  0.2301
  329TMC3    C5 4992   2.912   1.070  17.282  0.4991 -0.1457  0.0858
  329TMC3    C6 4993   2.823   1.052  17.387  0.0354  0.3924  0.2160
  329TMC3     C 4994   2.927   1.414  17.282  0.2274  0.4305  0.5025
  329TMC3     O 4995   2.923   1.395  17.163 -0.0637 -0.2997  0.0994
  329TMC3     H 4996   2.836   1.368  17.520  1.9196 -0.5138  0.8721
  329TMC3    H1 4997   3.054   1.205  17.196 -0.2720  1.4749 -0.1468
  329TMC3    H2 4998   2.774   0.956  17.378 -0.0962  0.3928  0.9342
  329TMC3    C7 4999   2.951   0.955  17.206 -0.8069  0.0416  0.4761
  329TMC3    C8 5000   2.705   1.135  17.581 -0.5596  0.0335 -0.3302
  329TMC3    O1 5001   3.068   0.922  17.205 -0.1180  0.4383  0.4428
  329TMC3    O2 5002   2.689   1.020  17.618  0.2448  0.0696  0.2554
  330TMC3    C1 5003   0.954   0.504   9.785 -0.4932  0.1641 -0.5448
  330TMC3    C2 5004   0.827   0.532   9.741  0.6690 -0.2583  0.2907
  330TMC3    C3 5005   0.739   0.538   9.843 -0.2238  0.1918 -0.3899
  330TMC3    C4 5006   0.989   0.485   9.910  0.5077 -0.4780  0.3706
  330TMC3    C5 5007   0.891   0.487  10.005  0.2165 -0.2784  0.6022
  330TMC3    C6 5008   0.762   0.509   9.974 -0.1543 -0.0232  0.4117
  330TMC3     C 5009   1.068   0.493   9.697 -0.6804 -0.4536  0.5843
  330TMC3     O 5010   1.168   0.428   9.735  0.3381 -0.3557  0.1509
  330TMC3     H 5011   0.801   0.553   9.638  0.5820  0.9813  0.5641
  330TMC3    H1 5012   1.095   0.477   9.931  0.8150  0.7337 -0.6912
  330TMC3    H2 5013   0.694   0.541  10.052 -1.4544 -1.3633 -0.1718
  330TMC3    C7 5014   0.942   0.500  10.139 -0.2855 -0.3362 -0.7852
  330TMC3    C8 5015   0.618   0.600   9.805 -0.1983 -0.2735 -0.5096
  330TMC3    O1 5016   1.060   0.517  10.151 -0.3117 -0.8171 -0.2209
  330TMC3    O2 5017   0.619   0.675   9.709 -0.0083 -0.0083  0.2861
  331MPD2     C 5018   3.894   1.079  12.620  0.1345  0.6408  0.1409
  331MPD2    C1 5019   3.785   1.062  12.528 -0.2615 -0.7073  0.0593
  331MPD2    C2 5020   3.722   0.937  12.524  0.0180 -0.3713  0.1116
  331MPD2    C3 5021   3.749   0.840  12.612  0.1512  0.1452  0.1791
  331MPD2    C4 5022   3.852   0.855  12.701  0.2002  0.5727 -0.2921
  331MPD2    C5 5023   3.922   0.974  12.704 -0.0605 -0.3350  0.4051
  331MPD2     H 5024   3.635   0.924  12.459  0.4473  0.3948 -0.6118
  331MPD2    H1 5025   3.889   0.781  12.772 -2.7022 -0.4595  0.1685
  331MPD2    H2 5026   3.945   1.175  12.622  0.4215  0.4227  2.7993
  331MPD2    H3 5027   4.002   0.981  12.777  0.8474 -0.0434 -0.6138
  331MPD2     N 5028   3.672   0.722  12.604 -0.5650  0.6140 -0.6939
  331MPD2    H5 5029   3.609   0.731  12.525 -0.7629  0.0836 -0.5983
  331MPD2    N1 5030   3.741   1.168  12.442  0.1214 -0.3638  0.3175
  331MPD2    H7 5031   3.791   1.255  12.462 -1.2646  0.7606 -1.1228
  332TMC3    C1 5032   3.601   0.498  12.644 -0.2364  0.0302 -0.5442
  332TMC3    C2 5033   3.483   0.524  12.585 -0.6625  0.5224 -0.4786
  332TMC3    C3 5034   3.393   0.424  12.571 -0.0866 -0.2536 -0.3639
  332TMC3    C4 5035   3.621   0.369  12.683 -0.6770  0.0160  0.3914
  332TMC3    C5 5036   3.530   0.269  12.671 -0.3673 -0.3730  0.2123
  332TMC3    C6 5037   3.410   0.299  12.622  0.0105  0.4882  0.4848
  332TMC3     C 5038   3.694   0.606  12.681 -0.1218 -0.0805  0.0193
  332TMC3     O 5039   3.782   0.577  12.761  0.7692  0.5273 -0.0295
  332TMC3     H 5040   3.454   0.628  12.584 -3.3759 -0.2053  4.3286
  332TMC3    H1 5041   3.722   0.345  12.713 -0.4825  1.6674  1.0323
  332TMC3    H2 5042   3.345   0.214  12.606  1.6210 -0.4912 -0.8816
  332TMC3    C7 5043   3.555   0.140  12.740 -0.2047  0.7132 -0.5014
  332TMC3    C8 5044   3.271   0.455  12.497  0.7749  0.4489  0.2480
  332TMC3    O1 5045   3.465   0.090  12.806  0.0704 -0.0947 -0.0729
  332TMC3    O2 5046   3.251   0.567  12.456  0.5927  0.4614 -0.4425
  333MPD2     C 5047   3.706   0.692  11.297 -0.1576 -0.1035 -1.1421
  333MPD2    C1 5048   3.722   0.587  11.209  0.1018  0.1969 -0.1066
  333MPD2    C2 5049   3.640   0.475  11.219  0.0216  0.4934  0.1756
  333MPD2    C3 5050   3.540   0.479  11.317  0.5189  0.0109 -0.1922
  333MPD2    C4 5051   3.530   0.578  11.413  0.0610 -0.3232 -0.4129
  333MPD2    C5 5052   3.614   0.687  11.394 -0.2290 -0.1838 -0.2883
  333MPD2     H 5053   3.655   0.392  11.152 -1.8076  0.8069 -0.6467
  333MPD2    H1 5054   3.456   0.580  11.492  0.2935  0.2452 -0.2034
  333MPD2    H2 5055   3.752   0.787  11.274  0.6892 -0.4610 -0.9216
  333MPD2    H3 5056   3.602   0.779  11.451  3.0414 -0.3444  0.6684
  333MPD2     N 5057   3.446   0.368  11.321 -0.1721 -0.0397  0.8388
  333MPD2    H5 5058   3.464   0.296  11.251  2.3763 -0.9403  2.4011
  333MPD2    N1 5059   3.826   0.594  11.119 -0.3931  0.1434 -0.0310
  333MPD2    H7 5060   3.890   0.672  11.130 -0.7361  0.0997  2.4211
  334TMC3    C1 5061   3.972   0.540  10.937 -0.6094 -0.3626 -0.4452
  334TMC3    C2 5062   4.056   0.446  10.883  0.1709 -0.1511  0.4165
  334TMC3    C3 5063   4.163   0.500  10.815 -0.0522  0.3377  0.7099
  334TMC3    C4 5064   3.972   0.671  10.894  0.7716  0.0063 -0.5719
  334TMC3    C5 5065   4.075   0.719  10.819  0.8432 -0.3321  0.6148
  334TMC3    C6 5066   4.180   0.636  10.787 -0.0364  0.5083  0.1315
  334TMC3     C 5067   3.873   0.496  11.032 -0.4335 -0.2675  1.0641
  334TMC3     O 5068   3.854   0.376  11.025 -0.2486 -0.4117 -0.3631
  334TMC3     H 5069   4.043   0.341  10.908  0.9907 -0.3337  0.0777
  334TMC3    H1 5070   3.898   0.743  10.927 -0.5160  0.4202 -4.4066
  334TMC3    H2 5071   4.255   0.673  10.719  0.2237 -0.5547 -0.1536
  334TMC3    C7 5072   4.127   0.847  10.858 -0.0604 -0.5881 -0.2348
  334TMC3    C8 5073   4.258   0.407  10.762 -0.2117  0.4677 -1.1023
  334TMC3    O1 5074   4.245   0.860  10.869  0.4729 -0.1439 -0.2697
  334TMC3    O2 5075   4.221   0.293  10.753  0.5679 -0.1101  0.2885
  335TMC3    C1 5076   3.891   1.820  17.455  0.0594 -0.2870  0.0911
  335TMC3    C2 5077   3.757   1.820  17.467  0.3318  0.2941  0.2100
  335TMC3    C3 5078   3.689   1.700  17.479 -0.6974  0.6902 -0.1494
  335TMC3    C4 5079   3.965   1.709  17.451  0.1171  0.5667 -0.3367
  335TMC3    C5 5080   3.896   1.592  17.454 -0.3513 -0.7092  0.1697
  335TMC3    C6 5081   3.756   1.582  17.460  0.1264 -0.4853 -0.8651
  335TMC3     C 5082   3.946   1.956  17.428  0.1477 -0.1560 -0.3890
  335TMC3     O 5083   3.871   2.049  17.395  0.3968 -0.4602 -0.0757
  335TMC3     H 5084   3.707   1.914  17.488  0.8995  0.1033  2.4582
  335TMC3    H1 5085   4.072   1.712  17.436  0.6416  1.5796  3.5329
  335TMC3    H2 5086   3.706   1.487  17.445 -0.0671 -0.2637 -1.6382
  335TMC3    C7 5087   3.973   1.478  17.417 -0.1267 -0.5049 -0.2257
  335TMC3    C8 5088   3.544   1.703  17.506 -0.2020 -0.2285  0.4667
  335TMC3    O1 5089   4.076   1.495  17.351 -0.1879  0.1192  0.0703
  335TMC3    O2 5090   3.493   1.815  17.528 -0.0862 -0.0482  0.2176
  336MPD2     C 5091   3.121   4.139  16.241 -0.7778 -0.3520 -0.2907
  336MPD2    C1 5092   3.088   4.111  16.111 -0.1707 -0.1495 -0.7541
  336MPD2    C2 5093   3.090   3.977  16.068  0.2297 -0.3621 -0.3531
  336MPD2    C3 5094   3.125   3.882  16.166 -0.2089 -0.1729  0.3249
  336MPD2    C4 5095   3.165   3.910  16.297  0.2004  0.0857  0.4919
  336MPD2    C5 5096   3.168   4.041  16.323 -0.2629 -0.2843  0.6542
  336MPD2     H 5097   3.057   3.958  15.967  0.9535  0.4112 -0.7336
  336MPD2    H1 5098   3.176   3.832  16.371  0.6974  1.1566  1.5422
  336MPD2    H2 5099   3.098   4.238  16.278  1.1916 -0.2933  0.7466
  336MPD2    H3 5100   3.195   4.077  16.421 -1.0629  2.4818 -0.1277
  336MPD2     N 5101   3.124   3.740  16.139 -0.4425 -0.1179 -0.3074
  336MPD2    H5 5102   3.143   3.676  16.215  1.7992 -2.0862 -2.5061
  336MPD2    N1 5103   3.034   4.202  16.025 -0.4573  0.6428 -0.5960
  336MPD2    H7 5104   3.012   4.159  15.936 -0.3970  0.9695 -0.7653
  337TMC3    C1 5105   2.974   4.395  15.918  0.4808  0.0150 -0.3916
  337TMC3    C2 5106   2.878   4.329  15.852 -0.9289  0.7769  0.7548
  337TMC3    C3 5107   2.807   4.397  15.754 -0.2178 -1.1254  0.3654
  337TMC3    C4 5108   3.001   4.526  15.898  0.4330 -0.2334  0.1991
  337TMC3    C5 5109   2.914   4.597  15.820  0.3761 -0.9610 -0.5879
  337TMC3    C6 5110   2.822   4.536  15.740  0.9052 -0.3233 -0.2233
  337TMC3     C 5111   3.025   4.338  16.040 -0.4257 -0.5018  0.3744
  337TMC3     O 5112   3.062   4.409  16.131 -0.6205  0.3416  0.0167
  337TMC3     H 5113   2.843   4.233  15.887  3.1787 -1.5308 -1.3987
  337TMC3    H1 5114   3.080   4.576  15.954  1.0705  0.7630 -1.5946
  337TMC3    H2 5115   2.762   4.591  15.668  1.9996 -0.3888 -1.1949
  337TMC3    C7 5116   2.980   4.716  15.762  0.1436  0.0723 -0.1546
  337TMC3    C8 5117   2.685   4.329  15.703 -0.4317 -0.5093  0.1895
  337TMC3    O1 5118   3.088   0.007  15.812  0.0240  0.2806  0.4320
  337TMC3    O2 5119   2.650   4.226  15.759 -0.1055 -0.4624 -0.1070
  338MPD2     C 5120   3.529   3.916   1.035 -0.1946 -0.6973  0.3721
  338MPD2    C1 5121   3.455   3.827   0.958 -0.3471  0.2544  0.1713
  338MPD2    C2 5122   3.317   3.821   0.977 -0.3476  0.0977  0.1357
  338MPD2    C3 5123   3.259   3.890   1.086  0.5977  0.0331 -0.5936
  338MPD2    C4 5124   3.332   3.986   1.150  0.5681 -0.0181 -0.0091
  338MPD2    C5 5125   3.467   3.999   1.122  0.0277 -0.1096 -0.2140
  338MPD2     H 5126   3.259   3.753   0.916 -0.5063  2.3316 -2.2153
  338MPD2    H1 5127   3.287   4.038   1.233 -0.2915  0.6357 -0.8795
  338MPD2    H2 5128   3.632   3.939   1.011 -0.3087  1.1798  1.6204
  338MPD2    H3 5129   3.537   4.064   1.173 -1.0889  0.7884  0.1720
  338MPD2     N 5130   3.121   3.873   1.131 -0.0751  0.1660 -0.2116
  338MPD2    H5 5131   3.096   3.913   1.221 -1.7022 -0.4295 -0.4028
  338MPD2    N1 5132   3.516   3.748   0.857 -0.5069  0.2808  0.0383
  338MPD2    H7 5133   3.449   3.708   0.793 -0.2228 -0.8907  0.4589
  339TMC3    C1 5134   2.906   3.781   1.134 -0.4203  0.1542 -0.2374
  339TMC3    C2 5135   2.848   3.661   1.143  0.2958 -0.4856  0.3851
  339TMC3    C3 5136   2.715   3.651   1.130 -0.1063  0.2452  0.7262
  339TMC3    C4 5137   2.839   3.901   1.114 -0.1153  0.3838 -0.2902
  339TMC3    C5 5138   2.710   3.889   1.085  0.1899  0.3787 -1.2680
  339TMC3    C6 5139   2.647   3.765   1.095  0.4784  0.5622  0.1372
  339TMC3     C 5140   3.040   3.780   1.077  0.8454 -0.7057  0.5285
  339TMC3     O 5141   3.062   3.688   1.002  0.3410  0.5842  0.1346
  339TMC3     H 5142   2.911   3.577   1.169  1.7879 -0.2288 -2.4701
  339TMC3    H1 5143   2.894   3.992   1.091 -1.0445  1.3295  1.1969
  339TMC3    H2 5144   2.542   3.751   1.070  0.2286 -1.8113  2.5026
  339TMC3    C7 5145   2.673   3.948   0.955  0.0270  0.2736  0.0239
  339TMC3    C8 5146   2.670   3.528   1.058  0.8345 -0.2917  0.9943
  339TMC3    O1 5147   2.711   4.065   0.932  0.0477  0.2100  0.5613
  339TMC3    O2 5148   2.614   3.537   0.952  0.1889  0.0185  0.9004
  340MPD2     C 5149   4.020   1.522   9.112  0.3570  0.0529  0.1863
  340MPD2    C1 5150   4.123   1.487   9.196 -0.0987 -0.2735 -0.2178
  340MPD2    C2 5151   4.217   1.578   9.237  0.0397  0.2826  0.5882
  340MPD2    C3 5152   4.213   1.708   9.203  0.2309  0.0638  0.2845
  340MPD2    C4 5153   4.104   1.747   9.125 -0.4958 -0.0025  0.2729
  340MPD2    C5 5154   4.015   1.650   9.073  0.5939 -0.1686 -1.1163
  340MPD2     H 5155   4.288   1.551   9.315  1.3459  0.8221 -0.4361
  340MPD2    H1 5156   4.095   1.851   9.094  0.3864 -0.0722 -0.2299
  340MPD2    H2 5157   3.944   1.466   9.061 -0.5021  0.7094  0.7512
  340MPD2    H3 5158   3.938   1.688   9.007  1.9895  1.9945 -1.4914
  340MPD2     N 5159   4.301   1.811   9.255 -0.5807  0.6395  0.3196
  340MPD2    H5 5160   4.294   1.896   9.201 -1.4524  0.4230  0.0981
  340MPD2    N1 5161   4.141   1.350   9.218  0.2227  0.9094 -0.2254
  340MPD2    H7 5162   4.065   1.296   9.179  1.8276 -1.8661  0.4577
  341TMC3    C1 5163   4.251   1.160   9.276  0.5504 -0.3649  0.3183
  341TMC3    C2 5164   4.131   1.097   9.295 -0.4643  0.2838 -0.0770
  341TMC3    C3 5165   4.124   0.957   9.307  0.2405 -0.6430 -0.9934
  341TMC3    C4 5166   4.368   1.081   9.261  0.3854  0.0331 -0.9845
  341TMC3    C5 5167   4.358   0.943   9.274  0.0648  0.2614 -0.9957
  341TMC3    C6 5168   4.240   0.881   9.300  0.0890  0.2615 -0.3147
  341TMC3     C 5169   4.258   1.301   9.253 -0.1460  0.3457  0.5151
  341TMC3     O 5170   4.374   1.341   9.265 -0.1888 -0.4082  0.2597
  341TMC3     H 5171   4.039   1.154   9.302  0.2392  1.2829  1.1290
  341TMC3    H1 5172   4.463   1.131   9.243  1.3617 -1.7337 -0.7122
  341TMC3    H2 5173   4.230   0.774   9.309  3.3323  0.0730  1.0780
  341TMC3    C7 5174   4.482   0.869   9.237  0.0735 -0.1203  0.7021
  341TMC3    C8 5175   3.995   0.893   9.322 -0.4298 -0.1776 -0.3236
  341TMC3    O1 5176   4.561   0.927   9.163  0.1679 -0.2526 -0.2922
  341TMC3    O2 5177   3.985   0.773   9.296  0.0260 -0.0617 -0.8431
  342MPD2     C 5178   1.241   4.661  17.682 -0.9148 -0.1757 -0.9248
  342MPD2    C1 5179   1.357   4.680  17.609 -0.1396 -0.3420  0.2468
  342MPD2    C2 5180   1.412   0.069  17.610 -0.0795 -0.5409 -0.3477
  342MPD2    C3 5181   1.342   0.173  17.674  0.3066 -0.5211  0.0577
  342MPD2    C4 5182   1.217   0.154  17.733 -0.1170 -0.8250 -0.1408
  342MPD2    C5 5183   1.165   0.024  17.742 -0.2545 -0.0043  0.1146
  342MPD2     H 5184   1.509   0.083  17.563  1.1070 -1.6151  1.7529
  342MPD2    H1 5185   1.159   0.231   0.028  0.5609 -0.1504 -0.4067
  342MPD2    H2 5186   1.189   4.566  17.684  1.4227 -1.4706 -1.4996
  342MPD2    H3 5187   1.074   0.006   0.046 -0.9997  0.9356 -0.7761
  342MPD2     N 5188   1.394   0.300  17.692  0.3601 -0.2513 -0.2210
  342MPD2    H5 5189   1.335   0.376  17.725  0.3567 -0.3194 -0.0683
  342MPD2    N1 5190   1.401   4.583  17.519 -0.4953 -0.4300  0.3593
  342MPD2    H7 5191   1.475   4.603  17.453 -0.5623  0.7943  0.6472
  343TMC3    C1 5192   1.420   4.368  17.422  0.3088  0.0751  0.1809
  343TMC3    C2 5193   1.504   4.432  17.335 -0.0988  0.3903 -0.4394
  343TMC3    C3 5194   1.558   4.350  17.240  0.2497 -0.3404  0.4035
  343TMC3    C4 5195   1.392   4.233  17.424 -0.1817 -0.1476 -0.1114
  343TMC3    C5 5196   1.466   4.166  17.337 -0.4240  0.9788 -0.3655
  343TMC3    C6 5197   1.547   4.218  17.246 -0.2766 -0.3684  0.0571
  343TMC3     C 5198   1.352   4.452  17.521 -0.0432 -0.1150  0.0644
  343TMC3     O 5199   1.278   4.393  17.598 -0.1087  0.1891 -0.2247
  343TMC3     H 5200   1.505   4.539  17.318  0.9614  0.6495  1.2526
  343TMC3    H1 5201   1.319   4.181  17.485 -2.0233 -0.5322 -2.6751
  343TMC3    H2 5202   1.599   4.155  17.176 -0.5446  0.3004 -0.7477
  343TMC3    C7 5203   1.426   4.034  17.320 -0.6940 -0.7012  0.1258
  343TMC3    C8 5204   1.656   4.413  17.153  0.8674  0.2414  0.3490
  343TMC3    O1 5205   1.310   3.998  17.331 -0.3664  0.2892  0.0340
  343TMC3    O2 5206   1.688   4.524  17.176  0.0965 -0.3914 -0.4504
  344MPD2     C 5207   2.549   4.371  10.968 -0.1917 -0.7105  0.0016
  344MPD2    C1 5208   2.442   4.322  10.888  0.2611  0.0033  0.6867
  344MPD2    C2 5209   2.422   4.363  10.755  0.7014 -0.4152 -0.7027
  344MPD2    C3 5210   2.509   4.465  10.707  0.5111 -0.5932 -0.3429
  344MPD2    C4 5211   2.600   4.524  10.796  0.4888  0.6512  0.0037
  344MPD2    C5 5212   2.615   4.483  10.928  0.4291  0.5064 -0.5933
  344MPD2     H 5213   2.346   4.317  10.693 -0.9149  1.2895  0.0184
  344MPD2    H1 5214   2.667   4.601  10.758 -0.1502  0.9567 -0.4865
  344MPD2    H2 5215   2.576   4.326  11.063 -2.0462  0.4612  1.0749
  344MPD2    H3 5216   2.681   4.537  10.996 -1.9555  1.0580  1.2958
  344MPD2     N 5217   2.515   4.516  10.579 -0.1735  0.4233 -0.4102
  344MPD2    H5 5218   2.586   4.584  10.559 -0.0228  0.1003 -0.9727
  344MPD2    N1 5219   2.358   4.216  10.931  0.1715 -0.4288 -0.3546
  344MPD2    H7 5220   2.287   4.178  10.868  0.5890 -1.9109  0.0671
  345TMC3    C1 5221   2.485   4.520  10.342  0.5031  0.5774 -0.0409
  345TMC3    C2 5222   2.617   4.562  10.334 -0.0122  0.2088  0.2543
  345TMC3    C3 5223   2.647   4.629  10.222  0.2563 -0.0634  0.3605
  345TMC3    C4 5224   2.388   4.551  10.253 -0.2877  0.2252  0.7063
  345TMC3    C5 5225   2.426   4.633  10.154  0.1434 -0.2546  0.5817
  345TMC3    C6 5226   2.555   4.669  10.130  0.1096 -0.3571 -0.0324
  345TMC3     C 5227   2.436   4.473  10.472 -0.5808 -0.6129 -0.4678
  345TMC3     O 5228   2.334   4.405  10.468  0.0772 -0.0364  0.2515
  345TMC3     H 5229   2.700   4.544  10.402  0.4363  0.6976 -0.1613
  345TMC3    H1 5230   2.284   4.536  10.281 -0.8473  2.9122  0.0857
  345TMC3    H2 5231   2.581   0.002  10.052 -0.3014 -0.8791 -0.6506
  345TMC3    C7 5232   2.333   4.722  10.087  0.0775 -0.2230  0.9610
  345TMC3    C8 5233   2.777   4.677  10.213  0.4626 -0.3138 -0.6088
  345TMC3    O1 5234   2.366   0.094  10.045  0.1596 -0.3580 -0.0095
  345TMC3    O2 5235   2.849   4.672  10.312 -0.4563  0.4233 -1.1324
  346MPD2     C 5236   2.267   1.315  14.399 -0.4332  0.2984  0.8109
  346MPD2    C1 5237   2.378   1.368  14.354 -0.4345  0.4527 -0.6274
  346MPD2    C2 5238   2.481   1.410  14.438  0.0578 -0.5007 -1.1377
  346MPD2    C3 5239   2.465   1.400  14.573  0.3733  0.6056  0.4731
  346MPD2    C4 5240   2.348   1.353  14.618 -0.2732 -0.1676  0.4398
  346MPD2    C5 5241   2.249   1.309  14.535 -0.2496  0.2823 -0.1852
  346MPD2     H 5242   2.573   1.446  14.391 -0.1777 -0.6220 -1.6972
  346MPD2    H1 5243   2.329   1.342  14.724 -0.1254 -0.9801  0.3867
  346MPD2    H2 5244   2.189   1.282  14.332 -0.2244 -0.8266  1.1344
  346MPD2    H3 5245   2.160   1.258  14.570 -0.9677  1.1817 -0.7227
  346MPD2     N 5246   2.560   1.464  14.653 -0.3885 -0.2586 -0.9993
  346MPD2    H5 5247   2.629   1.526  14.613  0.5613  0.0095  1.0348
  346MPD2    N1 5248   2.406   1.389  14.215  0.7836 -0.3445 -0.0168
  346MPD2    H7 5249   2.504   1.391  14.189  0.5164  0.4003 -0.9392
  347TMC3    C1 5250   2.654   1.538  14.847  1.0260 -0.4206 -0.4477
  347TMC3    C2 5251   2.703   1.646  14.782 -0.3316  0.7297  0.4728
  347TMC3    C3 5252   2.842   1.665  14.803  0.1720 -0.8445 -0.0707
  347TMC3    C4 5253   2.716   1.487  14.957 -0.0844  0.4527 -0.0909
  347TMC3    C5 5254   2.846   1.518  14.981  0.0627  0.2909  0.8158
  347TMC3    C6 5255   2.912   1.604  14.904 -0.4422  0.5872  0.3543
  347TMC3     C 5256   2.565   1.451  14.790 -0.3295 -0.1643 -0.2932
  347TMC3     O 5257   2.529   1.353  14.858 -0.3879  0.1772 -0.1322
  347TMC3     H 5258   2.644   1.685  14.699 -0.1859 -0.3338 -0.1362
  347TMC3    H1 5259   2.665   1.407  15.009 -0.6467  0.2985 -0.8770
  347TMC3    H2 5260   3.010   1.645  14.926 -0.6669  2.0018 -1.2366
  347TMC3    C7 5261   2.891   1.499  15.117 -1.0455  1.3527 -0.1248
  347TMC3    C8 5262   2.913   1.642  14.678 -0.5014  0.4093  0.3902
  347TMC3    O1 5263   2.807   1.458  15.196  0.1063 -0.1517  0.2517
  347TMC3    O2 5264   2.997   1.549  14.682 -0.3303  0.0449  0.0115
  348MPD2     C 5265   1.007   1.130  11.978  0.1645  0.2910 -0.1664
  348MPD2    C1 5266   0.901   1.084  11.908  0.2041  0.4616  0.3221
  348MPD2    C2 5267   0.827   1.167  11.831 -0.1777  0.0952 -0.5766
  348MPD2    C3 5268   0.869   1.302  11.814 -0.2440  0.3286  0.2160
  348MPD2    C4 5269   0.984   1.344  11.865 -0.2458  1.3674  0.3790
  348MPD2    C5 5270   1.050   1.258  11.951 -0.4967  0.2348 -0.3540
  348MPD2     H 5271   0.735   1.126  11.790  1.2508 -2.5378 -1.1284
  348MPD2    H1 5272   1.028   1.442  11.853 -0.5274  1.4832  0.3024
  348MPD2    H2 5273   1.066   1.068  12.045 -1.0248 -0.7252 -0.0534
  348MPD2    H3 5274   1.132   1.288  12.015  0.7622 -1.9001 -0.9810
  348MPD2     N 5275   0.804   1.378  11.717 -0.9535  0.2061 -0.7766
  348MPD2    H5 5276   0.720   1.338  11.677 -0.3747  0.0196 -1.7867
  348MPD2    N1 5277   0.852   0.958  11.914  0.3215 -0.2996 -0.7878
  348MPD2    H7 5278   0.778   0.942  11.846 -1.6437 -1.9131  1.7457
  349TMC3    C1 5279   0.867   0.720  11.897  0.1215 -0.1361 -0.0036
  349TMC3    C2 5280   0.948   0.607  11.911 -0.0705  1.0915 -0.5496
  349TMC3    C3 5281   0.886   0.491  11.869 -0.1168 -0.8707  0.2950
  349TMC3    C4 5282   0.745   0.728  11.831 -0.2655  0.9474  0.3605
  349TMC3    C5 5283   0.695   0.612  11.781 -0.2953  0.0988  0.8738
  349TMC3    C6 5284   0.761   0.491  11.808 -0.1318 -0.2301 -0.4051
  349TMC3     C 5285   0.927   0.844  11.955 -0.5103 -0.4213 -0.3208
  349TMC3     O 5286   1.036   0.844  12.008 -0.2756 -0.3740  0.6129
  349TMC3     H 5287   1.046   0.605  11.957  0.9376 -0.4232 -2.7708
  349TMC3    H1 5288   0.682   0.815  11.846 -2.6739 -0.9295  1.0579
  349TMC3    H2 5289   0.708   0.398  11.790 -1.3266  0.4568 -0.4651
  349TMC3    C7 5290   0.561   0.615  11.722 -0.1025  0.2368  0.4065
  349TMC3    C8 5291   0.961   0.369  11.890 -0.9754  0.2985 -0.3171
  349TMC3    O1 5292   0.494   0.514  11.733 -0.1610  0.0438  0.5084
  349TMC3    O2 5293   1.080   0.373  11.874  0.6342 -0.0012  0.4120
  350MPD2     C 5294   4.276   3.970  10.145  0.1792  0.3398 -0.4377
  350MPD2    C1 5295   4.410   3.925  10.126  0.3022  0.5210 -0.0406
  350MPD2    C2 5296   4.482   3.858  10.231  0.1137  0.0823  0.1687
  350MPD2    C3 5297   4.418   3.840  10.355  0.2897  0.5764 -0.8057
  350MPD2    C4 5298   4.291   3.892  10.369  0.3448 -0.5555 -0.1599
  350MPD2    C5 5299   4.219   3.942  10.268  0.0232  0.0312 -0.3808
  350MPD2     H 5300   4.588   3.840  10.215  0.0803  0.3559 -0.3889
  350MPD2    H1 5301   4.236   3.889  10.462 -1.8814 -3.6243 -1.5797
  350MPD2    H2 5302   4.224   4.031  10.072 -0.6416 -1.0007 -0.9780
  350MPD2    H3 5303   4.121   3.979  10.294  0.6428 -0.6275  2.8779
  350MPD2     N 5304   4.478   3.764  10.459  1.0315  0.5140 -0.1076
  350MPD2    H5 5305   4.557   3.704  10.436 -0.7813 -1.2016 -1.9052
  350MPD2    N1 5306   4.477   3.960  10.004 -0.2527  0.6497 -0.0830
  350MPD2    H7 5307   4.577   3.951  10.010 -0.3170  0.8185  1.1491
  351TMC3    C1 5308   4.522   4.041   9.788  0.1654 -0.4660 -0.4374
  351TMC3    C2 5309   4.632   3.960   9.766 -0.5853  0.1414  0.3513
  351TMC3    C3 5310   4.708   4.003   9.663 -0.3721 -0.0638  0.2396
  351TMC3    C4 5311   4.483   4.144   9.707 -0.1507 -0.4991  0.0737
  351TMC3    C5 5312   4.564   4.170   9.606 -0.4621 -0.1487  0.6953
  351TMC3    C6 5313   4.682   4.110   9.584  1.0396 -0.3120  0.1825
  351TMC3     C 5314   4.425   4.019   9.888  0.2527  0.2671 -0.6221
  351TMC3     O 5315   4.311   4.060   9.859 -0.1909  0.4241  0.0328
  351TMC3     H 5316   4.648   3.870   9.824  0.3144  1.9345  2.8704
  351TMC3    H1 5317   4.399   4.209   9.729 -1.0453 -0.5338 -3.2740
  351TMC3    H2 5318   0.019   4.150   9.518  2.6610 -0.4500  1.9792
  351TMC3    C7 5319   4.511   4.264   9.499  0.3064 -0.8072  0.2577
  351TMC3    C8 5320   0.073   3.907   9.609  0.3311  0.1027  0.5082
  351TMC3    O1 5321   4.577   4.363   9.474 -0.8349 -0.0202  0.3636
  351TMC3    O2 5322   0.116   3.817   9.685 -0.6567 -0.1389 -0.2354
  352MPD2     C 5323   4.054   0.987   1.035 -0.4520  0.7296 -0.2489
  352MPD2    C1 5324   3.957   0.948   1.130 -0.3203  0.1746  0.4268
  352MPD2    C2 5325   3.957   0.819   1.172  0.0825  0.0786 -0.1578
  352MPD2    C3 5326   4.046   0.730   1.119  0.1275 -0.4357 -0.0132
  352MPD2    C4 5327   4.148   0.782   1.037  0.0736  0.6708 -0.2423
  352MPD2    C5 5328   4.146   0.903   0.982 -0.3615 -0.2736  0.3357
  352MPD2     H 5329   3.897   0.788   1.257 -0.0414  0.7241 -0.0111
  352MPD2    H1 5330   4.224   0.717   0.996 -0.2638 -0.9996  1.7253
  352MPD2    H2 5331   4.060   1.086   0.993 -0.7296  0.6169 -0.5551
  352MPD2    H3 5332   4.221   0.946   0.917  0.6582 -1.5657  0.6804
  352MPD2     N 5333   4.061   0.595   1.156  0.1076  0.1980  0.6363
  352MPD2    H5 5334   4.134   0.539   1.112 -0.4064  0.0432 -0.0265
  352MPD2    N1 5335   3.857   1.041   1.163 -0.4254  0.9635 -0.2780
  352MPD2    H7 5336   3.852   1.120   1.099  1.7586  0.5865 -0.9005
  353TMC3    C1 5337   3.998   0.370   1.231 -0.0800 -0.6606 -0.4405
  353TMC3    C2 5338   4.122   0.321   1.231 -0.0609 -0.0855  0.3799
  353TMC3    C3 5339   4.136   0.185   1.250  0.2043 -0.3588  0.0037
  353TMC3    C4 5340   3.891   0.287   1.219  0.5598 -0.3425  0.2440
  353TMC3    C5 5341   3.912   0.152   1.227  0.6274 -0.1120  0.4913
  353TMC3    C6 5342   4.031   0.096   1.256  0.0289 -0.0886  0.4745
  353TMC3     C 5343   3.968   0.514   1.228 -0.0889  0.0427 -0.8435
  353TMC3     O 5344   3.858   0.543   1.275 -0.1723 -0.3096 -0.1392
  353TMC3     H 5345   4.211   0.382   1.239  1.3999 -2.2864  0.8749
  353TMC3    H1 5346   3.794   0.335   1.221 -0.2692 -2.0063 -0.2775
  353TMC3    H2 5347   4.039   4.726   1.254  2.6329  0.1040  0.5594
  353TMC3    C7 5348   3.813   0.068   1.167  0.1315  0.4770 -0.2606
  353TMC3    C8 5349   4.275   0.143   1.229  0.4968 -0.6210 -0.5612
  353TMC3    O1 5350   3.817   4.685   1.190 -0.1120  0.0689  0.4169
  353TMC3    O2 5351   4.367   0.223   1.247 -0.0267 -1.0885  0.2629
  354TMC3    C1 5352   0.063   2.031  13.364  0.2782 -0.0301 -0.5711
  354TMC3    C2 5353   0.056   2.163  13.323 -0.6666  0.1155  0.3657
  354TMC3    C3 5354   0.043   2.178  13.188  0.1048  0.0792 -1.1941
  354TMC3    C4 5355   0.044   1.931  13.277  0.5198 -0.6371 -0.3167
  354TMC3    C5 5356   0.056   1.950  13.144  0.2487  0.2042  0.7847
  354TMC3    C6 5357   0.050   2.080  13.095 -0.1183 -0.6061  0.6643
  354TMC3     C 5358   0.143   1.986  13.483 -0.2591  0.0508 -0.1645
  354TMC3     O 5359   0.171   1.867  13.502  0.2979  0.2131  0.0364
  354TMC3     H 5360   0.052   2.234  13.405  2.5715 -0.7307  1.2541
  354TMC3    H1 5361   0.075   1.833  13.313 -1.2543 -0.3066  2.0720
  354TMC3    H2 5362   0.030   2.099  12.990 -1.1056 -0.7940  0.8168
  354TMC3    C7 5363   0.114   1.838  13.067  0.0324 -0.1442 -0.3025
  354TMC3    C8 5364   4.721   2.306  13.147 -1.1694 -0.0379 -0.0806
  354TMC3    O1 5365   0.129   1.726  13.122  0.5293 -0.1786 -0.1236
  354TMC3    O2 5366   4.656   2.309  13.044  0.0307 -0.9404  0.2576
  355MPD2     C 5367   0.277   2.877  11.989  0.6175 -0.2978 -0.2609
  355MPD2    C1 5368   0.307   2.991  11.917  0.2918  1.0243 -0.2579
  355MPD2    C2 5369   0.438   3.011  11.886  0.2559  0.3625  0.2894
  355MPD2    C3 5370   0.534   2.925  11.929  0.2240 -0.4515 -1.1080
  355MPD2    C4 5371   0.502   2.816  12.000  0.8857  0.3559 -1.1350
  355MPD2    C5 5372   0.374   2.793  12.032  0.2060 -0.6821 -0.4470
  355MPD2     H 5373   0.466   3.102  11.834  2.8096 -0.2917  0.5155
  355MPD2    H1 5374   0.578   2.753  12.045 -1.0462 -0.4839  0.9497
  355MPD2    H2 5375   0.178   2.843  12.017  0.3240  0.0684 -0.8478
  355MPD2    H3 5376   0.343   2.704  12.086 -1.7551  0.9476  1.0896
  355MPD2     N 5377   0.677   2.944  11.908  0.1326  0.1180 -0.5546
  355MPD2    H5 5378   0.743   2.901  11.973 -1.8915 -0.1616  1.3068
  355MPD2    N1 5379   0.202   3.083  11.872 -0.4802 -0.1260  0.7551
  355MPD2    H7 5380   0.110   3.046  11.888 -0.6741  0.3562  0.7591
  356TMC3    C1 5381   0.856   3.081  11.845 -0.3905  0.0177 -0.1007
  356TMC3    C2 5382   0.923   3.146  11.742  0.5591 -0.0582 -0.2388
  356TMC3    C3 5383   1.010   3.249  11.767  0.6434 -0.4484 -0.0028
  356TMC3    C4 5384   0.866   3.127  11.976 -0.5833 -0.2359 -0.5692
  356TMC3    C5 5385   0.957   3.230  11.999 -0.5427 -0.5289  0.1363
  356TMC3    C6 5386   1.033   3.285  11.900 -0.1471  0.1025 -0.5596
  356TMC3     C 5387   0.726   3.024  11.807 -0.7937  0.1120 -0.3051
  356TMC3     O 5388   0.677   3.037  11.697  0.0786  0.0983  0.1217
  356TMC3     H 5389   0.900   3.115  11.641  0.4912  0.7773 -0.4778
  356TMC3    H1 5390   0.810   3.086  12.059 -0.1303 -1.8605 -1.0561
  356TMC3    H2 5391   1.114   3.352  11.927 -0.4756 -0.0120  0.6985
  356TMC3    C7 5392   0.979   3.267  12.135 -0.0115  0.3507 -0.2031
  356TMC3    C8 5393   1.106   3.281  11.666 -0.0390 -0.0229  1.2049
  356TMC3    O1 5394   0.940   3.188  12.225 -0.2886  0.1919  0.2640
  356TMC3    O2 5395   1.111   3.211  11.567  0.1226 -0.1105  0.5449
  357MPD2     C 5396   4.390   2.150   0.663 -0.2612 -0.5209 -0.6431
  357MPD2    C1 5397   4.439   2.033   0.718  0.2805  0.3896  0.4425
  357MPD2    C2 5398   4.404   2.007   0.850 -0.2887  0.1259  0.0935
  357MPD2    C3 5399   4.308   2.082   0.918  0.2275  0.1674  0.7918
  357MPD2    C4 5400   4.253   2.195   0.859 -0.1136 -0.6435 -0.4788
  357MPD2    C5 5401   4.296   2.218   0.733 -0.4163  0.0808 -0.6745
  357MPD2     H 5402   4.460   1.931   0.904  0.7085  1.3297  0.7416
  357MPD2    H1 5403   4.173   2.255   0.901 -1.0022 -1.2683 -1.2784
  357MPD2    H2 5404   4.413   2.183   0.563  0.4403  1.8142  0.2909
  357MPD2    H3 5405   4.247   2.306   0.693  1.6070  1.3715 -0.3353
  357MPD2     N 5406   4.264   2.044   1.045 -0.3220 -0.4806 -0.6663
  357MPD2    H5 5407   4.196   2.108   1.085  0.8253  0.9204 -0.9385
  357MPD2    N1 5408   4.535   1.958   0.662  0.3488  0.0450  0.1548
  357MPD2    H7 5409   4.591   1.904   0.727  1.7908  2.0221  0.5295
  358TMC3    C1 5410   4.710   1.896   0.531  0.8807 -0.7247 -0.2837
  358TMC3    C2 5411   0.029   1.885   0.406 -0.2823  0.6538 -0.6175
  358TMC3    C3 5412   0.169   1.878   0.398 -0.0807 -0.1295  0.3272
  358TMC3    C4 5413   0.044   1.876   0.644 -0.1799 -0.5632 -0.3296
  358TMC3    C5 5414   0.183   1.844   0.631 -0.2908  0.5173  0.2153
  358TMC3    C6 5415   0.242   1.840   0.505 -0.2157  0.7302  0.0404
  358TMC3     C 5416   4.583   1.959   0.532 -0.2560  0.8166 -0.5212
  358TMC3     O 5417   4.538   2.017   0.432 -0.1590  0.5377 -0.1377
  358TMC3     H 5418   4.726   1.921   0.312 -2.2863  1.3570  0.5430
  358TMC3    H1 5419   0.017   1.905   0.745  0.2482  1.4552 -0.7834
  358TMC3    H2 5420   0.350   1.842   0.500 -0.3392  2.7998 -1.7024
  358TMC3    C7 5421   0.260   1.821   0.750 -0.0682  0.2753  1.6697
  358TMC3    C8 5422   0.219   1.828   0.275 -0.6057  1.7625  0.0112
  358TMC3    O1 5423   0.379   1.842   0.743  0.0520 -0.0172  0.4737
  358TMC3    O2 5424   0.159   1.861   0.171  0.4069  0.2467 -0.0064
  359MPD2     C 5425   0.180   1.735  12.324  0.3351  0.2684 -0.2952
  359MPD2    C1 5426   0.227   1.708  12.192  0.2876 -0.8031  0.2107
  359MPD2    C2 5427   0.305   1.594  12.179 -0.0578 -0.2140  0.0154
  359MPD2    C3 5428   0.345   1.523  12.292 -0.0662 -0.8544  0.4343
  359MPD2    C4 5429   0.292   1.550  12.417  0.1756 -1.7835 -0.1270
  359MPD2    C5 5430   0.208   1.657  12.435  0.4325 -0.1632 -0.6605
  359MPD2     H 5431   0.359   1.589  12.085 -2.0467  2.3570 -1.2919
  359MPD2    H1 5432   0.319   1.488  12.502 -0.0196 -0.0712  1.1849
  359MPD2    H2 5433   0.101   1.808  12.339 -0.3744 -0.5114 -0.2550
  359MPD2    H3 5434   0.170   1.690  12.531 -0.2093 -1.7049 -0.3807
  359MPD2     N 5435   0.428   1.405  12.290  0.5322 -0.0444 -0.0304
  359MPD2    H5 5436   0.433   1.356  12.379 -2.1828 -1.3223 -0.5875
  359MPD2    N1 5437   0.196   1.780  12.076 -0.0577  0.4748 -0.6839
  359MPD2    H7 5438   0.208   1.734  11.987  1.6083 -0.0911 -0.1732
  360TMC3    C1 5439   0.135   1.958  11.935 -0.1091 -0.3882  0.1593
  360TMC3    C2 5440   0.192   2.081  11.903 -0.2444  0.2614  0.2251
  360TMC3    C3 5441   0.208   2.112  11.774  0.1702  0.3528  0.5273
  360TMC3    C4 5442   0.118   1.862  11.837 -0.1702 -0.7105 -0.2608
  360TMC3    C5 5443   0.161   1.894  11.712 -0.0291 -0.4525  0.0172
  360TMC3    C6 5444   0.211   2.021  11.673 -0.7217  0.0443 -0.2087
  360TMC3     C 5445   0.152   1.908  12.074  0.0277 -0.7429  0.5715
  360TMC3     O 5446   0.160   1.994  12.158 -0.2101  0.0060 -0.3074
  360TMC3     H 5447   0.198   2.159  11.978  1.7763  1.1777 -0.8788
  360TMC3    H1 5448   0.071   1.767  11.857 -0.4489  0.0247  2.5323
  360TMC3    H2 5449   0.237   2.040  11.570  0.3809  0.8921  0.2317
  360TMC3    C7 5450   0.137   1.808  11.601  0.6552 -0.5518  0.1519
  360TMC3    C8 5451   0.287   2.234  11.750  0.4982 -0.5731  0.0987
  360TMC3    O1 5452   0.123   1.867  11.493  0.1119 -0.8416 -0.3845
  360TMC3    O2 5453   0.231   2.340  11.726 -0.2261  0.0147 -0.4938
  361MPD2     C 5454   2.617   0.646  17.306  0.3653 -0.3268  0.0817
  361MPD2    C1 5455   2.539   0.540  17.271 -1.3319 -0.1773 -0.1983
  361MPD2    C2 5456   2.574   0.413  17.312  0.0680  0.3352 -0.6476
  361MPD2    C3 5457   2.685   0.385  17.391  0.2917 -0.3233  0.4219
  361MPD2    C4 5458   2.767   0.493  17.416 -0.5098  0.5682  0.8239
  361MPD2    C5 5459   2.730   0.618  17.373 -0.0704 -0.0518 -0.0038
  361MPD2     H 5460   2.506   0.337  17.275  0.4132 -0.5165  0.4518
  361MPD2    H1 5461   2.864   0.489  17.465 -0.8906 -2.0863  1.3139
  361MPD2    H2 5462   2.594   0.747  17.275 -0.7794 -0.4155  0.6561
  361MPD2    H3 5463   2.800   0.700  17.385  0.3047 -0.6024  1.4742
  361MPD2     N 5464   2.730   0.256  17.427 -0.3167  0.1009 -0.1194
  361MPD2    H5 5465   2.818   0.255  17.479 -0.2614 -1.2708 -0.2471
  361MPD2    N1 5466   2.434   0.556  17.180 -0.4631  0.4086 -0.2688
  361MPD2    H7 5467   2.395   0.474  17.136 -0.3400  0.8203 -1.1372
  362TMC3    C1 5468   2.241   0.636  17.082 -0.9533  0.3625  0.1931
  362TMC3    C2 5469   2.130   0.601  17.157  0.6580 -0.0963  0.2340
  362TMC3    C3 5470   2.029   0.520  17.106 -0.5330 -0.3549  1.2785
  362TMC3    C4 5471   2.246   0.590  16.953 -0.1005  0.1481 -1.1183
  362TMC3    C5 5472   2.149   0.509  16.906 -0.5191 -0.0133 -0.1631
  362TMC3    C6 5473   2.046   0.466  16.984  0.5820  0.5273  0.2374
  362TMC3     C 5474   2.366   0.669  17.150  0.4074  0.6423 -0.2212
  362TMC3     O 5475   2.375   0.771  17.215  0.4550 -0.9298  0.2953
  362TMC3     H 5476   2.137   0.621  17.263 -1.9269 -2.6482  0.8758
  362TMC3    H1 5477   2.324   0.628  16.888  0.6980 -4.2488 -2.7912
  362TMC3    H2 5478   1.965   0.398  16.959  0.1772  0.8638  0.6273
  362TMC3    C7 5479   2.116   0.521  16.767  0.1975  0.4562 -0.0577
  362TMC3    C8 5480   1.916   0.477  17.174  0.1295 -0.1550  0.3192
  362TMC3    O1 5481   2.192   0.588  16.700  0.4354 -0.2580 -0.0445
  362TMC3    O2 5482   1.873   0.363  17.159 -0.3683  0.1053  0.1534
  363TMC3    C1 5483   1.169   3.419   9.935  0.0177  0.2863  0.9447
  363TMC3    C2 5484   1.271   3.328   9.954 -0.6563  0.5249  0.2191
  363TMC3    C3 5485   1.392   3.381   9.985  0.0004  0.1439 -0.6032
  363TMC3    C4 5486   1.183   3.558   9.947 -0.0868  0.1124 -0.0690
  363TMC3    C5 5487   1.305   3.601   9.989 -0.2563 -0.0958 -0.9932
  363TMC3    C6 5488   1.415   3.515  10.004  0.5670  0.8281 -0.0088
  363TMC3     C 5489   1.038   3.365   9.916  0.6169 -0.1374 -1.0573
  363TMC3     O 5490   1.033   3.240   9.926  0.3338 -0.3819  0.0369
  363TMC3     H 5491   1.252   3.222   9.953  1.7555  0.0949 -0.2256
  363TMC3    H1 5492   1.106   3.634   9.938 -0.1584  0.0463 -0.0069
  363TMC3    H2 5493   1.516   3.553  10.007  0.2310  1.7966 -0.6818
  363TMC3    C7 5494   1.317   3.747  10.012  0.3425  0.1122 -0.0103
  363TMC3    C8 5495   1.518   3.305   9.966  0.2472 -1.1210  0.8336
  363TMC3    O1 5496   1.223   3.816   9.979 -0.7558 -0.8766  0.4399
  363TMC3    O2 5497   1.620   3.372   9.948  0.5208  0.3041  0.3285
  364MPD2     C 5498   4.214   2.695   9.822  0.1469  0.6312 -0.1710
  364MPD2    C1 5499   4.253   2.747   9.946  0.2934  0.4234  0.2029
  364MPD2    C2 5500   4.252   2.658  10.055  0.6198 -0.0207 -0.6480
  364MPD2    C3 5501   4.221   2.521  10.040 -0.4436 -0.5928 -0.3934
  364MPD2    C4 5502   4.176   2.474   9.917  0.7467  0.5703 -0.0185
  364MPD2    C5 5503   4.185   2.561   9.813  0.3054  0.3318 -0.5406
  364MPD2     H 5504   4.282   2.697  10.152 -2.6210  2.0238 -0.4608
  364MPD2    H1 5505   4.140   2.372   9.914  1.4472  0.3787 -2.2754
  364MPD2    H2 5506   4.221   2.758   9.735  3.0238  0.7886  0.1765
  364MPD2    H3 5507   4.139   2.524   9.722 -0.5573  0.5898 -0.2119
  364MPD2     N 5508   4.223   2.424  10.144  0.1269  0.0330 -0.2128
  364MPD2    H5 5509   4.201   2.329  10.116 -3.6551  0.6473  0.7681
  364MPD2    N1 5510   4.285   2.887   9.957  0.1507 -0.0694 -0.8401
  364MPD2    H7 5511   4.278   2.937   9.870  2.2656 -1.4024 -1.7906
  365TMC3    C1 5512   4.282   3.107  10.034 -0.9524 -0.2696 -0.2025
  365TMC3    C2 5513   4.362   3.149   9.933  0.0643  0.3643  0.1396
  365TMC3    C3 5514   4.392   3.283   9.926  0.2784 -0.6048 -0.4515
  365TMC3    C4 5515   4.219   3.194  10.122  0.0417  0.1554 -0.1157
  365TMC3    C5 5516   4.238   3.332  10.095  0.5033 -0.2803 -0.2305
  365TMC3    C6 5517   4.331   3.372  10.002 -0.4227 -0.1285  0.5102
  365TMC3     C 5518   4.277   2.970  10.069  0.7146 -0.2791  1.0572
  365TMC3     O 5519   4.244   2.939  10.182 -0.2332 -0.3220  0.1529
  365TMC3     H 5520   4.399   3.074   9.863  0.4046  0.0472  0.6598
  365TMC3    H1 5521   4.151   3.156  10.198  0.5879  1.4542  1.0285
  365TMC3    H2 5522   4.349   3.478   9.997 -0.6671 -0.1515 -0.9646
  365TMC3    C7 5523   4.206   3.427  10.201 -0.9809 -0.8462  0.3070
  365TMC3    C8 5524   4.498   3.338   9.852  0.0209 -0.5523 -0.5324
  365TMC3    O1 5525   4.163   3.540  10.172  0.0846 -0.0745  0.3987
  365TMC3    O2 5526   4.496   3.454   9.820 -0.1580 -0.3466 -0.2731
  366MPD2     C 5527   2.490   3.271  15.528 -0.0261  0.2602  0.7534
  366MPD2    C1 5528   2.534   3.376  15.451 -0.8196  0.0385 -0.3634
  366MPD2    C2 5529   2.638   3.360  15.363  0.2075 -0.4622 -0.0850
  366MPD2    C3 5530   2.693   3.237  15.343 -0.7428  1.1913 -0.5908
  366MPD2    C4 5531   2.658   3.127  15.423 -0.5320 -0.1041  0.3809
  366MPD2    C5 5532   2.555   3.146  15.509 -0.2921  0.6820  0.6721
  366MPD2     H 5533   2.675   3.447  15.311  1.4202 -2.4793 -2.5965
  366MPD2    H1 5534   2.699   3.027  15.415 -1.6051 -0.4434 -0.8984
  366MPD2    H2 5535   2.409   3.289  15.597 -0.3988  1.1344  0.0879
  366MPD2    H3 5536   2.521   3.055  15.557  0.3329 -0.5566 -1.2269
  366MPD2     N 5537   2.783   3.232  15.232  0.3271  0.0618 -0.4806
  366MPD2    H5 5538   2.799   3.318  15.181  0.1643  1.0281  1.0891
  366MPD2    N1 5539   2.465   3.498  15.466  0.6429 -0.6027 -0.1894
  366MPD2    H7 5540   2.403   3.520  15.543  0.3553  0.0146 -0.5936
  367TMC3    C1 5541   2.457   3.719  15.405 -0.5705  0.0601 -0.2456
  367TMC3    C2 5542   2.562   3.759  15.480  0.1596  0.0231 -0.8853
  367TMC3    C3 5543   2.616   3.881  15.457  0.4221 -0.0174  0.2127
  367TMC3    C4 5544   2.402   3.798  15.304  0.2565 -0.5768 -0.1995
  367TMC3    C5 5545   2.467   3.920  15.284  1.7541 -0.2635 -0.9534
  367TMC3    C6 5546   2.572   3.962  15.354 -0.5033  0.6644  0.3247
  367TMC3     C 5547   2.471   3.586  15.362  0.7019 -0.0161  0.3588
  367TMC3     O 5548   2.476   3.576  15.241  0.2029 -0.0179  0.1511
  367TMC3     H 5549   2.602   3.678  15.541 -2.3503  0.0940  0.8279
  367TMC3    H1 5550   2.327   3.750  15.242  2.0955 -0.0339 -2.8260
  367TMC3    H2 5551   2.614   4.061  15.337 -0.3974  0.4169 -0.9175
  367TMC3    C7 5552   2.402   4.009  15.193 -0.4885 -0.0974 -0.0648
  367TMC3    C8 5553   2.738   3.910  15.533  0.6167  0.2258  0.2383
  367TMC3    O1 5554   2.471   4.082  15.128  0.0330 -0.2127  0.1459
  367TMC3    O2 5555   2.764   3.829  15.619 -0.1605 -0.4159 -0.1281
  368MPD2     C 5556   4.089   0.363  12.809  0.0205  0.2352 -0.5248
  368MPD2    C1 5557   4.134   0.479  12.870 -0.3143 -0.0769  0.0432
  368MPD2    C2 5558   4.270   0.502  12.888  0.2355  0.4993 -0.4358
  368MPD2    C3 5559   4.363   0.419  12.834 -0.1583 -0.1727 -0.7198
  368MPD2    C4 5560   4.315   0.315  12.752 -0.1224 -0.3644 -0.1274
  368MPD2    C5 5561   4.180   0.283  12.745  0.1584  0.3757 -0.5095
  368MPD2     H 5562   4.304   0.580  12.955  1.1977  1.1424 -1.6801
  368MPD2    H1 5563   4.382   0.265  12.683 -0.1446  0.3183 -0.6457
  368MPD2    H2 5564   3.984   0.348  12.789 -0.4240  0.5617  1.5135
  368MPD2    H3 5565   4.131   0.204  12.690  1.4610  0.0566 -1.2245
  368MPD2     N 5566   4.504   0.436  12.838  0.5208  1.0099 -0.1282
  368MPD2    H5 5567   4.559   0.392  12.765 -0.5368 -3.4900  1.8435
  368MPD2    N1 5568   4.029   0.561  12.928 -0.5011  0.1326 -0.4740
  368MPD2    H7 5569   3.933   0.541  12.899  0.0583 -1.0901 -1.4737
  369TMC3    C1 5570   3.921   0.739  13.050 -0.4301 -1.0997  0.8201
  369TMC3    C2 5571   3.927   0.875  13.026  0.2793 -0.5940  0.7799
  369TMC3    C3 5572   3.816   0.944  13.036  0.0612  0.0735 -0.0756
  369TMC3    C4 5573   3.802   0.672  13.065  0.0407  0.3254  0.4264
  369TMC3    C5 5574   3.690   0.754  13.070 -0.1270 -0.5267  0.3690
  369TMC3    C6 5575   3.694   0.892  13.064  0.9888  0.2010 -0.5573
  369TMC3     C 5576   4.044   0.675  13.005 -0.2343  0.3056  0.5370
  369TMC3     O 5577   4.149   0.730  13.029  0.1711  0.0219 -0.1534
  369TMC3     H 5578   4.020   0.925  13.003 -0.9782  1.1112 -0.5779
  369TMC3    H1 5579   3.784   0.566  13.077  0.5119  0.3037  0.9715
  369TMC3    H2 5580   3.601   0.948  13.056 -0.3792 -2.0696 -0.6860
  369TMC3    C7 5581   3.561   0.694  13.103  0.0041  0.3740  0.4011
  369TMC3    C8 5582   3.807   1.085  13.011 -0.2687 -0.1906  0.0441
  369TMC3    O1 5583   3.476   0.768  13.151  0.3323 -0.0636 -0.1179
  369TMC3    O2 5584   3.716   1.136  12.950  0.0901  0.0683 -0.4749
  370TMC3    C1 5585   3.964   1.306  16.557 -0.4563 -0.3927 -0.1116
  370TMC3    C2 5586   3.856   1.266  16.627 -0.4140 -0.2385 -0.4254
  370TMC3    C3 5587   3.766   1.186  16.568  0.4151  1.1350 -0.3674
  370TMC3    C4 5588   3.983   1.253  16.429  0.4553  0.6884  0.6498
  370TMC3    C5 5589   3.899   1.164  16.381 -0.1273 -0.1859 -0.0014
  370TMC3    C6 5590   3.784   1.132  16.443 -0.0297 -0.1535 -0.0853
  370TMC3     C 5591   4.070   1.360  16.634 -0.7855  0.1682 -0.5161
  370TMC3     O 5592   4.068   1.352  16.752 -0.2665  0.2362  0.0095
  370TMC3     H 5593   3.844   1.312  16.725  0.9412 -0.1576 -0.2926
  370TMC3    H1 5594   4.082   1.261  16.386 -0.0304 -0.7408 -0.7239
  370TMC3    H2 5595   3.705   1.072  16.399  0.6272 -0.0593 -1.4039
  370TMC3    C7 5596   3.932   1.118  16.246  0.5885 -0.2481  0.2224
  370TMC3    C8 5597   3.669   1.113  16.645 -0.1007 -0.7064 -0.6684
  370TMC3    O1 5598   4.010   1.181  16.172 -0.0116 -0.5396 -0.0868
  370TMC3    O2 5599   3.599   1.022  16.598  0.0403 -0.4541 -0.3310
  371TMC3    C1 5600   4.641   4.164  15.382  0.0777 -0.2169  0.1697
  371TMC3    C2 5601   4.514   4.138  15.426 -0.2854 -0.3889 -0.2327
  371TMC3    C3 5602   4.422   4.241  15.433  0.4529 -0.5703  0.5219
  371TMC3    C4 5603   4.677   4.290  15.341 -0.1093  0.2350  0.0156
  371TMC3    C5 5604   4.582   4.391  15.352  0.4722 -0.3189 -0.4917
  371TMC3    C6 5605   4.458   4.367  15.402 -0.0756  0.1688  0.7333
  371TMC3     C 5606   0.001   4.061  15.348  0.6608  0.6237 -0.3841
  371TMC3     O 5607   0.104   4.099  15.292  0.2545 -0.0809  0.1308
  371TMC3     H 5608   4.487   4.035  15.450 -0.0459 -0.7830 -1.6931
  371TMC3    H1 5609   0.043   4.318  15.332  0.4071 -0.8156  2.8432
  371TMC3    H2 5610   4.388   4.449  15.391  0.6670  0.4046 -2.1585
  371TMC3    C7 5611   4.609   4.502  15.263  0.2360 -0.1045 -0.1162
  371TMC3    C8 5612   4.314   4.227  15.527 -0.5932  0.7317 -0.0792
  371TMC3    O1 5613   4.536   4.602  15.272 -0.3324 -0.0267 -0.1111
  371TMC3    O2 5614   4.260   4.116  15.526  0.5220  0.4673  0.1330
  372MPD2     C 5615   3.877   0.866  13.380  0.3907 -0.1316  0.1724
  372MPD2    C1 5616   3.998   0.793  13.390 -0.2369  0.3729  0.7194
  372MPD2    C2 5617   3.987   0.658  13.416 -0.0654  0.6630  0.7661
  372MPD2    C3 5618   3.865   0.599  13.437 -0.0524 -0.1062  0.0472
  372MPD2    C4 5619   3.752   0.676  13.429  0.7837 -1.0115  1.1006
  372MPD2    C5 5620   3.757   0.808  13.403 -0.2534  0.3589  0.3856
  372MPD2     H 5621   4.080   0.602  13.410  0.7706  2.1480 -0.1265
  372MPD2    H1 5622   3.654   0.636  13.450  0.9689 -0.7326  2.4557
  372MPD2    H2 5623   3.885   0.973  13.369 -0.3300 -0.0588  0.3460
  372MPD2    H3 5624   3.664   0.862  13.389  0.4068  1.1452 -0.9012
  372MPD2     N 5625   3.873   0.463  13.466  0.1121 -0.3662 -0.3864
  372MPD2    H5 5626   3.966   0.424  13.465 -0.1582 -1.0214  0.7467
  372MPD2    N1 5627   4.127   0.852  13.374  0.5786 -0.3329  0.2227
  372MPD2    H7 5628   4.208   0.797  13.404 -0.5847 -2.2576 -0.1861
  373TMC3    C1 5629   3.803   0.248  13.538  0.0130  0.0824  0.5678
  373TMC3    C2 5630   3.717   0.188  13.629  0.5120  0.1257 -0.5246
  373TMC3    C3 5631   3.748   0.070  13.694  0.0862 -0.3266  0.0402
  373TMC3    C4 5632   3.923   0.192  13.508 -0.5903  0.0961  0.9045
  373TMC3    C5 5633   3.958   0.081  13.587  0.2382 -0.2983 -0.5146
  373TMC3    C6 5634   3.876   0.017  13.679  0.2747  0.2206 -0.2670
  373TMC3     C 5635   3.766   0.387  13.502 -0.4336 -0.1314 -0.2010
  373TMC3     O 5636   3.645   0.416  13.510  0.1243 -0.0952 -0.3144
  373TMC3     H 5637   3.637   0.247  13.673  0.6668  0.2805 -0.4504
  373TMC3    H1 5638   3.997   0.231  13.439 -1.5767  0.0795 -0.1674
  373TMC3    H2 5639   3.924   4.679  13.740 -0.4747 -0.7140 -0.8525
  373TMC3    C7 5640   4.083   0.018  13.556  0.0719  0.1501 -0.2252
  373TMC3    C8 5641   3.713   0.094  13.835  0.3510  0.0403  0.9217
  373TMC3    O1 5642   4.122   0.028  13.439  0.6813 -0.0500 -0.5223
  373TMC3    O2 5643   3.605   0.053  13.875 -0.5881  0.0721 -0.2220
  374TMC3    C1 5644   4.558   1.284   9.591 -0.0980 -0.2454  0.6596
  374TMC3    C2 5645   4.664   1.225   9.646 -0.6683 -0.2104 -0.1477
  374TMC3    C3 5646   0.041   1.259   9.594 -0.5107  0.5830 -0.4701
  374TMC3    C4 5647   4.566   1.391   9.501 -0.0653  0.3495 -0.3522
  374TMC3    C5 5648   4.687   1.420   9.442  0.0106  0.1442 -0.3595
  374TMC3    C6 5649   0.052   1.346   9.485 -0.2143 -0.3183 -0.0942
  374TMC3     C 5650   4.420   1.250   9.627  0.3219 -0.0131  0.4158
  374TMC3     O 5651   4.349   1.348   9.645  0.2774  0.6114  0.1924
  374TMC3     H 5652   4.650   1.152   9.725  2.5908  2.6213  3.0244
  374TMC3    H1 5653   4.476   1.443   9.471 -0.8301 -2.3771 -2.7126
  374TMC3    H2 5654   0.151   1.373   9.449 -0.7685  0.1811 -1.2574
  374TMC3    C7 5655   4.713   1.509   9.324 -0.0757  0.1587 -0.1260
  374TMC3    C8 5656   0.159   1.184   9.625  0.2788  0.0959 -0.4926
  374TMC3    O1 5657   0.090   1.551   9.314 -0.3888  0.2352 -0.3881
  374TMC3    O2 5658   0.246   1.174   9.539  0.0666 -0.0177 -0.1459
  375MPD2     C 5659   0.037   0.724  16.793 -0.3190  0.0853 -0.6910
  375MPD2    C1 5660   0.077   0.834  16.869 -1.0288 -0.3572 -0.5479
  375MPD2    C2 5661   0.168   0.930  16.810 -1.4311  0.3692 -0.4172
  375MPD2    C3 5662   0.204   0.909  16.678 -0.2183  0.1255  0.7507
  375MPD2    C4 5663   0.157   0.803  16.607  0.7072  0.9322 -0.3809
  375MPD2    C5 5664   0.079   0.705  16.664  0.0522 -0.5165  0.7636
  375MPD2     H 5665   0.195   1.018  16.866  0.9395 -0.6189 -0.0167
  375MPD2    H1 5666   0.188   0.791  16.504  1.6309  3.2850 -0.3793
  375MPD2    H2 5667   4.692   0.663  16.823 -0.8299  1.0129 -0.2287
  375MPD2    H3 5668   0.048   0.622  16.602  0.1328 -1.2094  1.6557
  375MPD2     N 5669   0.280   1.007  16.611 -0.2969  0.1830 -0.2977
  375MPD2    H5 5670   0.272   1.002  16.510  1.5191  1.4154 -0.5156
  375MPD2    N1 5671   0.045   0.854  17.002  0.4305 -0.2090  0.2502
  375MPD2    H7 5672   0.077   0.942  17.039 -2.1773  0.5258  0.8079
  376TMC3    C1 5673   0.451   1.172  16.580 -0.4658  0.6734 -0.0845
  376TMC3    C2 5674   0.576   1.211  16.610  0.7136 -0.4445 -0.3866
  376TMC3    C3 5675   0.631   1.319  16.540  0.2393 -0.3736  0.2459
  376TMC3    C4 5676   0.387   1.212  16.466  0.7595  0.8951 -0.2474
  376TMC3    C5 5677   0.439   1.320  16.398  0.0477 -0.5149  0.4491
  376TMC3    C6 5678   0.560   1.374  16.432 -0.2155 -0.4368  0.0920
  376TMC3     C 5679   0.379   1.077  16.670 -0.0545  0.4888 -0.1609
  376TMC3     O 5680   0.424   1.078  16.786 -0.0912 -0.1308 -0.0485
  376TMC3     H 5681   0.631   1.161  16.689 -0.1432 -0.4182  0.2289
  376TMC3    H1 5682   0.280   1.198  16.461  0.9183 -0.4533  0.2806
  376TMC3    H2 5683   0.597   1.455  16.371 -0.5367 -1.1881 -1.0944
  376TMC3    C7 5684   0.375   1.365  16.277  0.1586 -0.6707  0.5334
  376TMC3    C8 5685   0.777   1.341  16.531 -0.1992 -0.1699 -0.1023
  376TMC3    O1 5686   0.403   1.480  16.249  0.2826  0.5803  0.5049
  376TMC3    O2 5687   0.809   1.438  16.461 -0.4177 -0.3903  0.0782
  377MPD2     C 5688   3.457   1.274  13.089  0.2488  1.0106 -0.6449
  377MPD2    C1 5689   3.341   1.312  13.028 -0.1520  0.5055 -0.2514
  377MPD2    C2 5690   3.221   1.289  13.096 -0.0946  0.5339  0.3429
  377MPD2    C3 5691   3.215   1.220  13.219 -0.2011 -0.0272 -1.1145
  377MPD2    C4 5692   3.336   1.180  13.272 -0.3977  0.5290  0.7246
  377MPD2    C5 5693   3.451   1.203  13.209  0.1244 -0.6272 -0.1281
  377MPD2     H 5694   3.126   1.309  13.048 -0.3156 -2.2633 -0.3680
  377MPD2    H1 5695   3.337   1.126  13.366 -0.8987 -1.7386 -0.5875
  377MPD2    H2 5696   3.560   1.272  13.055  1.2488  0.8954  2.3906
  377MPD2    H3 5697   3.541   1.163  13.254  0.6997 -0.5919 -1.2573
  377MPD2     N 5698   3.098   1.183  13.287 -0.0229 -0.3995  0.0179
  377MPD2    H5 5699   3.109   1.146  13.381 -0.0937 -0.9705 -0.1950
  377MPD2    N1 5700   3.343   1.374  12.896  0.0513  0.1329  0.4308
  377MPD2    H7 5701   3.433   1.389  12.852  0.1385  0.8610  0.8536
  378TMC3    C1 5702   3.089   1.546  12.553  0.4310 -0.5439 -0.0353
  378TMC3    C2 5703   3.133   1.441  12.635 -0.3388 -0.0870 -1.0503
  378TMC3    C3 5704   3.247   1.453  12.703  0.5190  0.5603  0.0904
  378TMC3    C4 5705   3.187   1.638  12.511  0.9570  0.3487  0.1426
  378TMC3    C5 5706   3.314   1.636  12.572 -0.4146 -0.4527  0.3619
  378TMC3    C6 5707   3.347   1.542  12.668  0.3618 -1.1716 -0.5457
  378TMC3     C 5708   2.947   1.547  12.506 -0.0169 -0.4178 -0.1861
  378TMC3     O 5709   2.887   1.442  12.522 -0.4307 -0.6308  0.2253
  378TMC3     H 5710   3.063   1.364  12.666  1.1737 -0.0560  2.3870
  378TMC3    H1 5711   3.159   1.736  12.472 -0.2467 -0.6348 -1.4790
  378TMC3    H2 5712   3.433   1.561  12.731  0.6069  1.5337 -1.7233
  378TMC3    C7 5713   3.424   1.662  12.485  0.6715  0.2357  0.1263
  378TMC3    C8 5714   3.228   1.420  12.838 -0.1044 -1.0233  0.2602
  378TMC3    O1 5715   3.529   1.620  12.531  0.2831 -0.0336  0.0782
  378TMC3    O2 5716   3.117   1.450  12.876  0.2166 -0.5439 -0.1403
  379MPD2     C 5717   3.892   4.088  16.179  0.3989  0.3361 -0.1454
  379MPD2    C1 5718   3.825   3.979  16.231 -0.8987 -0.1338 -0.0157
  379MPD2    C2 5719   3.894   3.904  16.328 -0.9284 -0.5785  0.2015
  379MPD2    C3 5720   4.025   3.929  16.354  0.0740 -0.5444 -0.1480
  379MPD2    C4 5721   4.088   4.030  16.291 -0.2306  0.5736  0.1992
  379MPD2    C5 5722   4.023   4.109  16.205 -0.4758 -0.3158 -0.2074
  379MPD2     H 5723   3.843   3.823  16.378 -0.6933 -0.7070  0.2338
  379MPD2    H1 5724   4.194   4.052  16.302 -0.0247 -0.4122  0.1888
  379MPD2    H2 5725   3.844   4.156  16.110 -1.9703 -3.9636 -2.7459
  379MPD2    H3 5726   4.076   4.186  16.150 -0.5216 -0.1524 -0.0234
  379MPD2     N 5727   4.098   3.851  16.452 -0.0800 -0.2865 -0.5427
  379MPD2    H5 5728   4.196   3.875  16.463  0.2594 -1.1896 -1.5570
  379MPD2    N1 5729   3.697   3.960  16.181  0.1742  0.1434  0.4012
  379MPD2    H7 5730   3.664   4.038  16.124  1.2744 -0.8180 -1.5565
  380TMC3    C1 5731   3.541   3.840  16.061 -0.3806  0.9848  0.6386
  380TMC3    C2 5732   3.593   3.739  15.979 -0.0900  0.0498 -0.1016
  380TMC3    C3 5733   3.535   3.733  15.854 -0.5026  0.8382 -0.0609
  380TMC3    C4 5734   3.458   3.938  16.017  0.2336  0.2674 -0.2917
  380TMC3    C5 5735   3.393   3.917  15.901  0.4757 -0.4792  0.1133
  380TMC3    C6 5736   3.419   3.803  15.820  0.0423  0.0164 -0.4309
  380TMC3     C 5737   3.630   3.841  16.183  0.6755  0.5674  0.6691
  380TMC3     O 5738   3.669   3.733  16.223 -0.5996 -0.4689 -0.2251
  380TMC3     H 5739   3.663   3.662  16.010 -2.1062 -0.9650  1.8734
  380TMC3    H1 5740   3.419   4.008  16.091  1.1928  0.3110  0.1781
  380TMC3    H2 5741   3.380   3.797  15.719 -0.7549 -0.5615 -0.0948
  380TMC3    C7 5742   3.316   4.027  15.846 -0.2281  0.7267  0.0193
  380TMC3    C8 5743   3.632   3.729  15.748  0.7550  0.8390  0.4224
  380TMC3    O1 5744   3.346   4.139  15.884 -0.0943  0.0215 -0.0591
  380TMC3    O2 5745   3.590   3.770  15.642 -0.1063  0.0234  0.5941
  381TMC3    C1 5746   3.352   0.773  16.494 -1.0803 -0.5200 -0.4177
  381TMC3    C2 5747   3.481   0.800  16.460 -0.5332  0.7659  0.3407
  381TMC3    C3 5748   3.584   0.721  16.512 -0.0995 -0.4662  0.2236
  381TMC3    C4 5749   3.320   0.665  16.576 -0.3015  0.9244 -1.3683
  381TMC3    C5 5750   3.427   0.596  16.624  0.0812 -0.9963 -0.0333
  381TMC3    C6 5751   3.560   0.623  16.597  0.1596 -0.3188  0.1602
  381TMC3     C 5752   3.255   0.882  16.487 -0.1089 -0.8274 -0.4739
  381TMC3     O 5753   3.137   0.855  16.490  0.3234 -0.4876 -0.1451
  381TMC3     H 5754   3.500   0.891  16.405  1.7660 -0.4145 -0.8417
  381TMC3    H1 5755   3.218   0.643  16.603 -0.2254  1.6729 -0.4426
  381TMC3    H2 5756   3.634   0.550  16.630 -0.5289 -1.2416 -0.3484
  381TMC3    C7 5757   3.409   0.523  16.745 -0.6297 -0.2684  0.6928
  381TMC3    C8 5758   3.711   0.773  16.503  0.0844  0.0944  0.1308
  381TMC3    O1 5759   3.470   0.419  16.744 -0.0650 -0.9622 -0.0432
  381TMC3    O2 5760   3.731   0.827  16.396  0.0497  0.2841  0.3265
  382MPD2     C 5761   3.184   2.757  17.392  0.6642  0.3421 -0.6320
  382MPD2    C1 5762   3.049   2.773  17.386  0.0399 -0.2793 -1.3646
  382MPD2    C2 5763   2.961   2.659  17.384  0.6728 -0.2980 -0.2951
  382MPD2    C3 5764   3.019   2.528  17.400 -0.7955  0.4020  0.4863
  382MPD2    C4 5765   3.153   2.518  17.408 -0.1962  0.2394 -0.4825
  382MPD2    C5 5766   3.235   2.627  17.400 -0.4916 -0.6505  0.7490
  382MPD2     H 5767   2.855   2.676  17.373  0.0457 -1.3340  4.3193
  382MPD2    H1 5768   3.206   2.424  17.407 -1.2323 -0.3628  0.6162
  382MPD2    H2 5769   3.264   2.829  17.399  1.6359 -0.8964  0.8337
  382MPD2    H3 5770   3.343   2.620  17.404 -0.4673 -1.0315 -0.4148
  382MPD2     N 5771   2.945   2.405  17.389  0.1276 -0.0320 -0.0440
  382MPD2    H5 5772   2.996   2.319  17.407 -0.4667 -0.2088  0.8520
  382MPD2    N1 5773   2.992   2.904  17.377  0.2008  0.0475 -0.4607
  382MPD2    H7 5774   2.891   2.912  17.367  0.0940 -0.5847  0.1038
  383TMC3    C1 5775   2.756   2.262  17.354 -0.2719 -0.2304  0.0819
  383TMC3    C2 5776   2.642   2.225  17.286 -0.9911 -0.7198 -0.1916
  383TMC3    C3 5777   2.575   2.120  17.343 -0.2067 -0.6741  1.0068
  383TMC3    C4 5778   2.808   2.186  17.459  0.3757  0.5191 -0.0571
  383TMC3    C5 5779   2.741   2.078  17.500 -0.1927 -0.0832 -0.0996
  383TMC3    C6 5780   2.614   2.048  17.450 -0.4896  0.6995  1.0566
  383TMC3     C 5781   2.810   2.397  17.351 -0.8990  0.3580 -0.3720
  383TMC3     O 5782   2.724   2.492  17.327 -0.4301 -0.0926  0.2415
  383TMC3     H 5783   2.601   2.297  17.215 -0.9859 -1.0927 -0.5689
  383TMC3    H1 5784   2.891   2.218  17.521 -0.1457  0.7875  0.4948
  383TMC3    H2 5785   2.557   1.973  17.503 -2.0193 -0.6880 -2.5638
  383TMC3    C7 5786   2.785   2.009  17.615  0.5231 -0.4480  0.2211
  383TMC3    C8 5787   2.439   2.093  17.290  0.7177 -0.0657 -0.4695
  383TMC3    O1 5788   2.697   1.948  17.671  0.6329  1.0079 -0.0382
  383TMC3    O2 5789   2.413   2.151  17.185  0.0474 -0.1155 -0.0698
  384MPD2     C 5790   3.897   3.895  12.051  0.7333  0.2268 -0.3222
  384MPD2    C1 5791   3.891   3.796  12.148 -0.3935 -0.0831 -0.0774
  384MPD2    C2 5792   3.927   3.666  12.127 -0.1450  0.2550 -1.1693
  384MPD2    C3 5793   3.945   3.625  11.995  0.0204 -0.1799 -0.2420
  384MPD2    C4 5794   3.939   3.722  11.899  0.0984 -0.5559 -0.6503
  384MPD2    C5 5795   3.924   3.856  11.924  0.6129  0.5285  0.7858
  384MPD2     H 5796   3.923   3.598  12.211 -2.5678  0.3898 -1.1617
  384MPD2    H1 5797   3.934   3.692  11.795 -1.8185 -0.0975 -0.6800
  384MPD2    H2 5798   3.900   4.001  12.074  1.5215  0.1301  0.0398
  384MPD2    H3 5799   3.940   3.925  11.842 -1.3205 -0.3675 -0.3547
  384MPD2     N 5800   3.965   3.489  11.962 -0.5095  0.6024 -0.4019
  384MPD2    H5 5801   3.977   3.478  11.862 -1.3906 -2.9513 -0.0980
  384MPD2    N1 5802   3.878   3.831  12.285 -0.6928 -0.3000  0.6546
  384MPD2    H7 5803   3.894   3.757  12.353  0.4355 -1.7325 -1.1739
  385TMC3    C1 5804   4.048   3.276  11.997 -0.2836 -0.2688 -0.7922
  385TMC3    C2 5805   4.151   3.301  11.908 -0.3236 -0.1319 -0.0952
  385TMC3    C3 5806   4.273   3.241  11.935 -0.1529  0.1617  0.4006
  385TMC3    C4 5807   4.068   3.192  12.107  0.2036  0.4058  0.2090
  385TMC3    C5 5808   4.197   3.147  12.134  0.1279 -0.2047 -0.2799
  385TMC3    C6 5809   4.296   3.163  12.044  0.2348  0.2609 -0.6563
  385TMC3     C 5810   3.972   3.385  12.046 -0.3804  0.1196  0.4542
  385TMC3     O 5811   3.954   3.376  12.166 -0.0112 -0.3246 -0.0270
  385TMC3     H 5812   4.144   3.364  11.820  0.2581  0.6821  0.4414
  385TMC3    H1 5813   3.992   3.156  12.175 -0.8599  1.2908 -0.5097
  385TMC3    H2 5814   4.391   3.113  12.059 -0.1415 -0.1508  0.3443
  385TMC3    C7 5815   4.237   3.151  12.271  1.1601 -0.2756  0.5380
  385TMC3    C8 5816   4.379   3.240  11.825  0.4274  0.4204 -0.4904
  385TMC3    O1 5817   4.355   3.128  12.298 -0.4165 -0.1537  0.4978
  385TMC3    O2 5818   4.494   3.254  11.862 -0.1546  0.1771 -0.6745
  386TMC3    C1 5819   4.075   0.601  11.940  0.0512  0.2006 -0.2624
  386TMC3    C2 5820   4.182   0.591  11.851  0.0594  0.7267 -1.2423
  386TMC3    C3 5821   4.199   0.700  11.774  0.4297 -0.1859  0.0857
  386TMC3    C4 5822   4.007   0.722  11.953  0.6329 -0.7603 -0.0325
  386TMC3    C5 5823   4.029   0.834  11.876 -0.7897  0.3268 -0.5166
  386TMC3    C6 5824   4.127   0.819  11.780 -0.0854  0.1393  0.1384
  386TMC3     C 5825   4.064   0.515  12.048  0.0188 -0.2178  0.1263
  386TMC3     O 5826   4.007   0.555  12.146 -0.5792  0.4680 -0.7026
  386TMC3     H 5827   4.242   0.502  11.837 -0.4217  0.5265 -2.0111
  386TMC3    H1 5828   3.927   0.728  12.025  1.5833  0.1754  0.9488
  386TMC3    H2 5829   4.152   0.905  11.719  0.9023 -0.7048 -0.6376
  386TMC3    C7 5830   3.974   0.959  11.916 -0.3173  0.0628 -0.7399
  386TMC3    C8 5831   4.305   0.700  11.674 -0.1992 -0.3142 -0.3576
  386TMC3    O1 5832   3.919   0.965  12.029  0.0088 -0.1241 -0.1171
  386TMC3    O2 5833   4.298   0.605  11.593  0.7411  0.1578  0.0380
  387MPD2     C 5834   1.935   1.424   9.944 -0.2322  0.3880 -0.4352
  387MPD2    C1 5835   1.925   1.353  10.058 -0.3259  0.6988 -0.4511
  387MPD2    C2 5836   1.924   1.217  10.047 -0.2130 -0.2339 -0.1885
  387MPD2    C3 5837   1.923   1.152   9.925 -0.4488  0.1758 -0.4315
  387MPD2    C4 5838   1.919   1.225   9.805  0.3040  0.4542 -0.1152
  387MPD2    C5 5839   1.914   1.363   9.820  1.0443 -0.0800  0.1478
  387MPD2     H 5840   1.926   1.157  10.137 -1.4744  2.2095  1.4715
  387MPD2    H1 5841   1.921   1.184   9.705 -3.0781 -0.8515  0.3355
  387MPD2    H2 5842   1.954   1.530   9.941 -0.5658  0.4588 -0.1559
  387MPD2    H3 5843   1.924   1.413   9.725 -1.2404 -1.5968 -0.8787
  387MPD2     N 5844   1.966   1.020   9.929 -0.1654 -0.9952  0.0113
  387MPD2    H5 5845   1.985   0.981  10.021  0.9170 -1.0003 -0.2100
  387MPD2    N1 5846   1.929   1.411  10.189 -0.3715  0.8372  0.3931
  387MPD2    H7 5847   1.930   1.337  10.258 -2.3165  1.3307  0.9459
  388TMC3    C1 5848   2.036   1.538  10.352 -0.0143  0.8803  0.5391
  388TMC3    C2 5849   2.043   1.650  10.426  0.0909  0.6752 -0.4715
  388TMC3    C3 5850   2.141   1.649  10.525 -0.2363 -0.1128 -0.3092
  388TMC3    C4 5851   2.108   1.426  10.381  0.3019 -0.1643  0.0755
  388TMC3    C5 5852   2.191   1.430  10.487 -0.6217 -0.5128 -0.2538
  388TMC3    C6 5853   2.218   1.540  10.558 -0.5244  1.0980 -0.0785
  388TMC3     C 5854   1.975   1.536  10.217  0.3653 -0.2095  0.4987
  388TMC3     O 5855   1.994   1.635  10.150 -0.0688 -0.0138  0.8024
  388TMC3     H 5856   1.980   1.734  10.400 -0.2290  0.2252 -1.1401
  388TMC3    H1 5857   2.121   1.348  10.307 -0.5140 -0.3841  0.1547
  388TMC3    H2 5858   2.277   1.527  10.648 -2.4115 -0.4958  0.9257
  388TMC3    C7 5859   2.275   1.313  10.501  0.6691  0.0220  0.3191
  388TMC3    C8 5860   2.180   1.769  10.591 -0.5273 -0.2317  0.0177
  388TMC3    O1 5861   2.401   1.322  10.513 -0.5723  0.2894 -0.1884
  388TMC3    O2 5862   2.237   1.752  10.695 -0.1472  0.8385  0.2103
  389MPD2     C 5863   1.484   4.676  11.584 -0.5289  0.5020 -0.1794
  389MPD2    C1 5864   1.434   4.576  11.505 -0.3314 -0.0783  0.2531
  389MPD2    C2 5865   1.341   4.489  11.566  0.0382  0.9743  0.2858
  389MPD2    C3 5866   1.306   4.498  11.703 -0.1755 -0.4214 -0.5709
  389MPD2    C4 5867   1.360   4.601  11.775  0.4521 -0.6148 -0.0005
  389MPD2    C5 5868   1.448   4.688  11.714  0.6437 -0.3055  0.4533
  389MPD2     H 5869   1.296   4.408  11.509  0.1099 -0.4495  2.2345
  389MPD2    H1 5870   1.341   4.607  11.882  0.0554  1.7957 -0.2068
  389MPD2    H2 5871   1.550   0.013  11.544  0.0962  0.9558  1.7122
  389MPD2    H3 5872   1.496   0.027  11.772  1.0979 -0.0365 -0.2876
  389MPD2     N 5873   1.209   4.407  11.769 -0.1477  0.6037 -0.1724
  389MPD2    H5 5874   1.178   4.437  11.861  1.4380 -0.8916  0.8719
  389MPD2    N1 5875   1.461   4.589  11.365  0.0602 -0.5270  0.7194
  389MPD2    H7 5876   1.529   4.654  11.327 -0.6946  0.2862  0.7522
  390TMC3    C1 5877   1.061   4.226  11.792  0.2449 -0.4728  0.4221
  390TMC3    C2 5878   1.068   4.096  11.828 -0.9070  0.6987 -0.8838
  390TMC3    C3 5879   0.989   4.064  11.930  0.1913 -0.4501 -0.3263
  390TMC3    C4 5880   0.965   4.312  11.837  0.4440  0.1618  0.7543
  390TMC3    C5 5881   0.874   4.264  11.925 -0.1230 -0.3496 -0.1185
  390TMC3    C6 5882   0.888   4.141  11.982  0.4165 -0.6736 -0.3490
  390TMC3     C 5883   1.168   4.278  11.722  0.3780 -0.3771  0.3938
  390TMC3     O 5884   1.219   4.205  11.642  0.2462  0.0322  0.0104
  390TMC3     H 5885   1.145   4.028  11.791 -1.4027 -1.0704  1.3502
  390TMC3    H1 5886   0.949   4.412  11.800  2.6591  0.2735  0.0839
  390TMC3    H2 5887   0.831   4.112  12.069  0.1735 -2.6528 -1.1594
  390TMC3    C7 5888   0.736   4.300  11.896 -0.5383  0.7184 -0.1001
  390TMC3    C8 5889   0.991   3.926  11.968  0.4185 -0.0408 -0.7581
  390TMC3    O1 5890   0.717   4.410  11.840  0.5387 -0.3332  0.4061
  390TMC3    O2 5891   0.990   3.842  11.880  0.0000 -0.1560  0.6347
  391MPD2     C 5892   0.496   1.092  11.240 -0.7768 -1.0137 -0.2067
  391MPD2    C1 5893   0.561   1.206  11.199 -1.2540 -0.4465 -0.2797
  391MPD2    C2 5894   0.566   1.216  11.059 -0.3257 -0.6120  0.4796
  391MPD2    C3 5895   0.517   1.122  10.969  0.3217  0.6171  0.0454
  391MPD2    C4 5896   0.444   1.016  11.016  0.5798 -0.3068 -0.2389
  391MPD2    C5 5897   0.436   1.006  11.152 -0.1521  0.0064 -0.3936
  391MPD2     H 5898   0.594   1.312  11.017 -0.4522 -0.1947  1.3470
  391MPD2    H1 5899   0.403   0.936  10.956  1.4240 -0.5691 -0.4738
  391MPD2    H2 5900   0.471   1.079  11.344 -0.4523  0.6309  0.0772
  391MPD2    H3 5901   0.372   0.934  11.201 -0.7211  1.5043  1.0419
  391MPD2     N 5902   0.528   1.152  10.830 -0.3156 -0.4194 -0.1368
  391MPD2    H5 5903   0.572   1.243  10.818  1.4897 -1.2646  0.0151
  391MPD2    N1 5904   0.590   1.306  11.293  0.6694  0.8505 -0.4250
  391MPD2    H7 5905   0.572   1.278  11.389 -4.0024  2.2679 -0.9221
  392TMC3    C1 5906   0.514   1.137  10.593 -0.0787  0.0758 -0.0050
  392TMC3    C2 5907   0.435   1.120  10.482 -0.5708  0.4285  0.2656
  392TMC3    C3 5908   0.487   1.159  10.366 -0.9197  0.2491 -0.3713
  392TMC3    C4 5909   0.641   1.188  10.585 -0.3601 -0.3192 -0.1854
  392TMC3    C5 5910   0.682   1.240  10.464 -1.0811 -0.5554  0.1149
  392TMC3    C6 5911   0.596   1.230  10.358 -1.0110 -0.2899 -0.1400
  392TMC3     C 5912   0.471   1.090  10.723 -0.6047 -0.6053 -0.8224
  392TMC3     O 5913   0.386   1.002  10.714 -0.5292  0.1760  0.1022
  392TMC3     H 5914   0.336   1.076  10.487 -0.5725  0.4804  0.7275
  392TMC3    H1 5915   0.711   1.186  10.667  0.3499  1.3811 -0.7422
  392TMC3    H2 5916   0.631   1.265  10.262  3.4909 -0.3932  1.4628
  392TMC3    C7 5917   0.791   1.340  10.464  0.4616  0.2767  0.6371
  392TMC3    C8 5918   0.410   1.143  10.240  0.3840 -0.1583  0.2141
  392TMC3    O1 5919   0.824   1.388  10.572  0.0896  0.7861 -0.4929
  392TMC3    O2 5920   0.289   1.124  10.245  0.3128 -0.3535 -0.3135
  393TMC3    C1 5921   3.628   3.938  11.120 -0.1292  0.2669 -0.1548
  393TMC3    C2 5922   3.554   3.975  11.232  0.1320 -0.1666 -0.7598
  393TMC3    C3 5923   3.514   3.873  11.311  0.0792 -0.9913 -0.5108
  393TMC3    C4 5924   3.680   3.812  11.096  1.3642  0.1554  0.3150
  393TMC3    C5 5925   3.649   3.715  11.190  0.5612  0.6265 -0.3993
  393TMC3    C6 5926   3.564   3.745  11.296 -0.0663 -0.0681  0.3275
  393TMC3     C 5927   3.638   4.040  11.016 -0.4074  0.3179  0.5714
  393TMC3     O 5928   3.558   4.132  11.025 -0.3108  0.1640  0.1858
  393TMC3     H 5929   3.524   4.078  11.243 -1.0855 -0.7189  1.2967
  393TMC3    H1 5930   3.718   3.778  11.000 -0.3824 -0.0201 -0.3058
  393TMC3    H2 5931   3.547   3.675  11.377 -2.2742  1.8715  1.5179
  393TMC3    C7 5932   3.745   3.609  11.214  0.7057 -0.6685 -0.4265
  393TMC3    C8 5933   3.433   3.907  11.427 -0.5739 -0.6758  0.4328
  393TMC3    O1 5934   3.728   3.539  11.313 -0.5296  0.4547 -0.2865
  393TMC3    O2 5935   3.379   3.811  11.479  0.2186  0.2835  1.1969
  394TMC3    C1 5936   1.417   4.575  11.131  0.2191 -0.0993 -0.0427
  394TMC3    C2 5937   1.312   4.573  11.048 -0.5519  1.7359  0.0225
  394TMC3    C3 5938   1.342   4.546  10.916 -0.2016  0.5432 -0.1255
  394TMC3    C4 5939   1.552   4.568  11.092 -0.1333 -0.1117  0.1091
  394TMC3    C5 5940   1.569   4.539  10.961 -1.0317 -0.1410  0.0531
  394TMC3    C6 5941   1.471   4.521  10.869  0.2831  0.0772  0.9859
  394TMC3     C 5942   1.385   4.528  11.269 -0.0671 -0.3187 -0.2600
  394TMC3     O 5943   1.273   4.479  11.278 -0.7524  0.0706  0.8465
  394TMC3     H 5944   1.207   4.569  11.077 -0.3382  2.6867  0.9264
  394TMC3    H1 5945   1.638   4.568  11.157 -0.7859 -0.9836  0.9621
  394TMC3    H2 5946   1.491   4.519  10.763 -0.2091 -2.2654  0.9240
  394TMC3    C7 5947   1.699   4.574  10.913  0.1858 -0.3026  0.0195
  394TMC3    C8 5948   1.225   4.518  10.838 -0.2004 -0.0732  0.1093
  394TMC3    O1 5949   1.765   4.654  10.976  0.3303  0.0584 -0.8575
  394TMC3    O2 5950   1.116   4.572  10.856 -0.0754 -0.2694  0.1669
  395TMC3    C1 5951   0.971   1.674  14.587 -0.4171 -0.1092 -0.0146
  395TMC3    C2 5952   0.952   1.615  14.459 -0.2047  0.5788 -0.3666
  395TMC3    C3 5953   1.030   1.661  14.358  0.0416 -0.2731 -0.2827
  395TMC3    C4 5954   1.056   1.774  14.612  0.2921  0.8876 -0.3515
  395TMC3    C5 5955   1.146   1.805  14.512 -0.3936  0.8143  0.5339
  395TMC3    C6 5956   1.135   1.742  14.395 -0.5190 -0.3802 -0.0087
  395TMC3     C 5957   0.873   1.641  14.693 -0.3316  0.6996  0.0780
  395TMC3     O 5958   0.856   1.727  14.777  0.3395 -0.7661 -0.0783
  395TMC3     H 5959   0.893   1.530  14.428  1.2984 -0.4086 -0.5252
  395TMC3    H1 5960   1.060   1.825  14.708  0.8379 -1.2918  0.7733
  395TMC3    H2 5961   1.191   1.782  14.311  0.2920  0.7892  1.0962
  395TMC3    C7 5962   1.252   1.895  14.543  1.0029  0.4086  0.2889
  395TMC3    C8 5963   1.066   1.563  14.255  0.2477  0.0831 -0.2445
  395TMC3    O1 5964   1.250   1.952  14.650  0.3473  0.3219  0.4189
  395TMC3    O2 5965   1.187   1.540  14.249  0.0668  0.1665  0.1329
  396MPD2     C 5966   1.245   2.447  16.790 -0.7466  0.1665 -0.5806
  396MPD2    C1 5967   1.364   2.515  16.819  0.1858  0.1752  0.1713
  396MPD2    C2 5968   1.446   2.565  16.719  0.4806 -0.5232  0.3027
  396MPD2    C3 5969   1.417   2.536  16.590 -0.3702  0.1301 -0.7619
  396MPD2    C4 5970   1.303   2.463  16.560  0.9801  0.3158  0.0281
  396MPD2    C5 5971   1.218   2.430  16.661  0.0378  0.7728  0.0317
  396MPD2     H 5972   1.540   2.613  16.745  0.1294 -0.1397  0.8704
  396MPD2    H1 5973   1.271   2.422  16.464  0.1871 -0.8518  0.7945
  396MPD2    H2 5974   1.187   2.414  16.875  0.6448 -0.1637  0.2456
  396MPD2    H3 5975   1.140   2.359  16.635 -1.0300  2.5127 -1.4644
  396MPD2     N 5976   1.495   2.583  16.485 -0.3183 -0.0841 -0.6103
  396MPD2    H5 5977   1.576   2.641  16.504 -2.3329  3.0691 -1.5723
  396MPD2    N1 5978   1.396   2.542  16.953  1.4171 -0.4402 -0.0963
  396MPD2    H7 5979   1.348   2.487  17.024 -2.0703 -0.5497 -2.5029
  397TMC3    C1 5980   1.524   2.615  17.145 -0.3467 -0.2086  0.2327
  397TMC3    C2 5981   1.635   2.528  17.135  0.9236 -0.0956  0.0879
  397TMC3    C3 5982   1.616   2.397  17.168 -0.4749 -0.0160 -0.0020
  397TMC3    C4 5983   1.410   2.558  17.212 -0.2078 -0.8681 -0.2163
  397TMC3    C5 5984   1.407   2.431  17.266  0.3188 -0.1595 -0.2247
  397TMC3    C6 5985   1.501   2.341  17.230 -0.8606  0.1130  0.0613
  397TMC3     C 5986   1.498   2.632  17.003  0.3278  1.1140 -0.3538
  397TMC3     O 5987   1.562   2.718  16.941 -0.1319 -0.6540  0.3443
  397TMC3     H 5988   1.708   2.562  17.063 -0.1136 -0.4321 -1.1123
  397TMC3    H1 5989   1.330   2.622  17.246  0.0812 -0.9944  0.7127
  397TMC3    H2 5990   1.477   2.236  17.236 -0.5370  0.0594  0.3995
  397TMC3    C7 5991   1.272   2.376  17.261  0.2402 -0.0318 -0.0924
  397TMC3    C8 5992   1.654   2.307  17.056  0.4358  0.3571 -0.7089
  397TMC3    O1 5993   1.223   2.392  17.150  0.5255 -0.2115 -0.1557
  397TMC3    O2 5994   1.567   2.225  17.028  0.4214 -0.4677 -0.5091
  398MPD2     C 5995   3.898   3.972   0.168  0.2527  0.4923  0.1313
  398MPD2    C1 5996   3.984   3.880   0.221  0.7318 -0.0052  1.0926
  398MPD2    C2 5997   4.109   3.926   0.257  0.5041 -0.8827  0.1598
  398MPD2    C3 5998   4.158   4.057   0.244  0.4084 -0.2243 -0.4443
  398MPD2    C4 5999   4.070   4.148   0.197 -0.1514 -0.2258  0.4533
  398MPD2    C5 6000   3.950   4.105   0.150 -0.2609  0.2958  0.0014
  398MPD2     H 6001   4.175   3.860   0.310  0.9656 -1.5089 -1.2008
  398MPD2    H1 6002   4.099   4.252   0.188 -3.3342  0.7928  2.1018
  398MPD2    H2 6003   3.810   3.944   0.112 -0.2042  0.2106  0.9978
  398MPD2    H3 6004   3.888   4.183   0.108 -0.4928 -0.5286 -1.1972
  398MPD2     N 6005   4.289   4.088   0.274  0.4254 -0.3516 -0.3066
  398MPD2    H5 6006   4.342   4.014   0.319  2.3174  0.0976 -1.7460
  398MPD2    N1 6007   3.959   3.741   0.238  0.4540 -0.2275 -0.2501
  398MPD2    H7 6008   4.043   3.695   0.272  0.3234 -0.7615 -0.6555
  399TMC3    C1 6009   3.853   3.534   0.228  0.2784 -0.0077  0.4025
  399TMC3    C2 6010   3.954   3.496   0.306  0.3893 -0.0592  0.3222
  399TMC3    C3 6011   3.998   3.366   0.291 -0.1478 -0.3666 -0.1802
  399TMC3    C4 6012   3.798   3.452   0.134  0.6738  0.8611 -0.0895
  399TMC3    C5 6013   3.854   3.334   0.111 -0.8178  0.4052  0.5927
  399TMC3    C6 6014   3.950   3.281   0.196  0.0251 -0.4604 -0.2212
  399TMC3     C 6015   3.838   3.675   0.210 -0.3462  0.2101 -1.2603
  399TMC3     O 6016   3.732   3.722   0.168 -0.2357 -0.3731  0.3960
  399TMC3     H 6017   3.989   3.546   0.395  0.4374  0.6767 -0.1116
  399TMC3    H1 6018   3.725   3.500   0.069 -0.5089 -1.5257 -0.5151
  399TMC3    H2 6019   4.006   3.190   0.178  1.6378  0.0592  2.1292
  399TMC3    C7 6020   3.801   3.237   0.011 -0.0121  0.3779 -0.2016
  399TMC3    C8 6021   4.113   3.323   0.374  0.2911 -0.2552  0.0795
  399TMC3    O1 6022   3.848   3.125   0.011  0.4692 -0.1348  0.0027
  399TMC3    O2 6023   4.188   3.418   0.403 -0.6329  0.2537  0.7483
  400TMC3    C1 6024   2.436   1.803  17.045 -0.1764 -0.3216  0.2195
  400TMC3    C2 6025   2.340   1.700  17.035  0.1198 -0.1274 -0.3872
  400TMC3    C3 6026   2.243   1.717  16.942  0.1190 -0.2184 -0.6240
  400TMC3    C4 6027   2.449   1.908  16.963 -0.0037 -0.6323  0.0896
  400TMC3    C5 6028   2.358   1.906  16.856  0.2895 -0.4642 -0.3416
  400TMC3    C6 6029   2.258   1.813  16.846  0.0431 -0.4635 -0.2609
  400TMC3     C 6030   2.546   1.762  17.127  0.4760 -0.3107 -0.3802
  400TMC3     O 6031   2.526   1.664  17.199  0.3042 -0.1935 -0.0801
  400TMC3     H 6032   2.326   1.624  17.111 -2.5434 -2.4109 -3.1544
  400TMC3    H1 6033   2.530   1.980  16.975  1.7008 -2.4124 -0.8897
  400TMC3    H2 6034   2.182   1.817  16.768  0.7897 -3.8848 -1.2079
  400TMC3    C7 6035   2.337   2.023  16.771  0.7842  0.0849 -1.1846
  400TMC3    C8 6036   2.147   1.612  16.938  0.7617  0.8011  0.3244
  400TMC3    O1 6037   2.269   2.007  16.673 -0.0942 -0.5677  0.2458
  400TMC3    O2 6038   2.128   1.541  17.033 -0.6565 -0.0103  0.2323
  401MPD2     C 6039   0.487   0.603   0.931  0.0201  0.2957  0.0243
  401MPD2    C1 6040   0.623   0.613   0.942 -0.0607 -0.5520  0.2103
  401MPD2    C2 6041   0.707   0.505   0.916  0.0464 -0.0280 -0.5060
  401MPD2    C3 6042   0.653   0.380   0.884 -0.3034 -0.2206 -0.0937
  401MPD2    C4 6043   0.517   0.367   0.877  0.0572 -0.1212  0.7221
  401MPD2    C5 6044   0.436   0.478   0.901  0.3693 -0.7431 -1.1274
  401MPD2     H 6045   0.814   0.514   0.927 -0.0811  0.4281  0.3551
  401MPD2    H1 6046   0.471   0.273   0.848  3.6843 -1.9157  0.8903
  401MPD2    H2 6047   0.418   0.686   0.937 -0.5026 -0.0642 -1.0250
  401MPD2    H3 6048   0.329   0.464   0.892 -0.1469  2.4847  0.0970
  401MPD2     N 6049   0.735   0.266   0.873  0.0378 -0.2237 -0.2642
  401MPD2    H5 6050   0.833   0.286   0.891  0.0515 -1.6425  1.2549
  401MPD2    N1 6051   0.688   0.732   0.976 -0.6883 -0.5461 -0.8509
  401MPD2    H7 6052   0.788   0.734   0.959 -0.4217 -2.4721  0.4865
  402TMC3    C1 6053   0.818   0.068   0.809 -0.1834 -0.4488  0.4362
  402TMC3    C2 6054   0.918   0.075   0.903 -0.3700 -1.3484  0.6235
  402TMC3    C3 6055   1.031   4.734   0.899  0.0773 -0.2135  0.3503
  402TMC3    C4 6056   0.822   4.711   0.714  0.0987  1.3111  0.7701
  402TMC3    C5 6057   0.922   4.618   0.726  0.8019  1.0682  0.6651
  402TMC3    C6 6058   1.028   4.628   0.817 -0.4068 -0.0313 -0.1200
  402TMC3     C 6059   0.697   0.139   0.830 -0.0387  0.2799 -0.5992
  402TMC3     O 6060   0.591   0.106   0.784 -0.8177 -0.2790 -0.1064
  402TMC3     H 6061   0.914   0.143   0.988 -0.2916  1.6448 -1.8067
  402TMC3    H1 6062   0.738   4.706   0.645  0.6865  0.6290  0.1037
  402TMC3    H2 6063   1.091   4.543   0.844  1.4854  0.4016 -3.1660
  402TMC3    C7 6064   0.930   4.521   0.619 -0.0718  0.2854 -0.3380
  402TMC3    C8 6065   1.125   4.719   1.013  0.0280 -0.2008 -0.3840
  402TMC3    O1 6066   0.834   4.525   0.543  0.0237  0.2774 -0.0262
  402TMC3    O2 6067   1.201   4.623   1.012 -0.0205 -0.3398  0.1053
  403MPD2     C 6068   3.802   3.625  13.229 -0.1820 -0.0996 -0.5945
  403MPD2    C1 6069   3.709   3.628  13.330  0.4327  0.2400 -0.0107
  403MPD2    C2 6070   3.739   3.682  13.455 -0.3459 -0.5034  0.2737
  403MPD2    C3 6071   3.862   3.733  13.481  0.0714 -0.3434 -0.1120
  403MPD2    C4 6072   3.954   3.715  13.384  0.3538  0.5642 -0.3279
  403MPD2    C5 6073   3.924   3.670  13.259  0.4566 -0.5782 -0.3890
  403MPD2     H 6074   3.675   3.670  13.542  0.7238 -0.0042  1.1258
  403MPD2    H1 6075   4.060   3.731  13.400  0.2424 -0.0629  1.0306
  403MPD2    H2 6076   3.773   3.590  13.130 -0.5505 -0.7627 -0.2539
  403MPD2    H3 6077   4.007   3.656  13.191 -0.4932 -1.3285 -1.3877
  403MPD2     N 6078   3.894   3.794  13.606  0.2452  0.1162  0.1442
  403MPD2    H5 6079   3.992   3.808  13.627  0.2920  0.9735 -0.6953
  403MPD2    N1 6080   3.582   3.572  13.295 -0.0651 -0.2658 -0.4072
  403MPD2    H7 6081   3.568   3.548  13.198 -0.3246  0.4859 -0.5539
  404TMC3    C1 6082   3.381   3.465  13.322  0.0443  0.1379  0.1028
  404TMC3    C2 6083   3.329   3.370  13.401  0.1942  0.0567 -0.2135
  404TMC3    C3 6084   3.264   3.260  13.347  0.3677 -0.3432  0.0030
  404TMC3    C4 6085   3.362   3.467  13.185  0.7054  0.3908  0.3609
  404TMC3    C5 6086   3.298   3.356  13.135  0.0999 -0.5573 -0.4503
  404TMC3    C6 6087   3.243   3.254  13.212 -0.2711 -0.4367 -0.3206
  404TMC3     C 6088   3.480   3.550  13.390  0.3004 -0.0666  0.2896
  404TMC3     O 6089   3.477   3.567  13.511 -0.1365  0.1463 -0.3647
  404TMC3     H 6090   3.349   3.369  13.507  1.6001 -2.4130 -0.4837
  404TMC3    H1 6091   3.416   3.539  13.125 -0.5541  1.2663  0.2925
  404TMC3    H2 6092   3.186   3.176  13.163  0.2593 -1.7858  1.2377
  404TMC3    C7 6093   3.296   3.348  12.989 -0.4296 -0.5578  0.3186
  404TMC3    C8 6094   3.281   3.140  13.426 -0.5921  0.9080  0.0663
  404TMC3    O1 6095   3.400   3.375  12.933 -0.1222  0.1059 -0.2902
  404TMC3    O2 6096   3.317   3.037  13.369  0.0364  0.1718  0.0552
  405MPD2     C 6097   3.775   4.177  14.712  0.3223 -0.3336  0.1614
  405MPD2    C1 6098   3.638   4.149  14.708  1.0052 -0.0965  0.0912
  405MPD2    C2 6099   3.554   4.252  14.715 -0.1200 -0.7197 -0.0933
  405MPD2    C3 6100   3.604   4.380  14.741  0.1506 -0.2172 -0.6325
  405MPD2    C4 6101   3.739   4.401  14.761 -0.5028  0.8438 -0.1965
  405MPD2    C5 6102   3.822   4.298  14.740  0.1475  0.5738  0.9081
  405MPD2     H 6103   3.446   4.251  14.700 -0.3138 -1.5901  1.3466
  405MPD2    H1 6104   3.782   4.491  14.804  2.4198 -0.2609 -0.7458
  405MPD2    H2 6105   3.850   4.101  14.691  0.5999 -0.4166  1.4375
  405MPD2    H3 6106   3.927   4.295  14.768 -0.2176  2.0831  2.4403
  405MPD2     N 6107   3.511   4.480  14.763  0.0757 -0.1240  0.0541
  405MPD2    H5 6108   3.417   4.449  14.739 -1.1583  1.6252  2.6184
  405MPD2    N1 6109   3.602   4.008  14.693 -0.0773 -0.7616 -0.6756
  405MPD2    H7 6110   3.672   3.935  14.700 -0.1451 -0.7108  0.6058
  406TMC3    C1 6111   3.265   0.104  14.811  0.1125 -0.4033 -0.3328
  406TMC3    C2 6112   3.160   0.036  14.869  0.5148  0.0998 -0.8156
  406TMC3    C3 6113   3.176   4.648  14.898  0.3677  0.8529 -0.2076
  406TMC3    C4 6114   3.383   0.050  14.797 -1.2887  0.0035  0.6197
  406TMC3    C5 6115   3.398   4.664  14.839  0.3377 -0.7864 -0.7743
  406TMC3    C6 6116   3.298   4.591  14.878  0.4691  0.1194  0.6238
  406TMC3     C 6117   3.229   0.203  14.716  0.4162  0.5723  0.1946
  406TMC3     O 6118   3.158   0.295  14.757 -0.1054 -0.6418  0.1935
  406TMC3     H 6119   3.061   0.077  14.855 -0.3629 -0.7602  2.7459
  406TMC3    H1 6120   3.464   0.101  14.746 -0.3402  0.4856  2.6194
  406TMC3    H2 6121   3.314   4.486  14.902  0.9996  0.1513  0.4102
  406TMC3    C7 6122   3.527   4.602  14.815 -0.7206  0.6484  0.0243
  406TMC3    C8 6123   3.058   4.563  14.897  0.0028  0.0792 -0.3702
  406TMC3    O1 6124   3.624   4.662  14.861  0.3440  0.1272  0.2931
  406TMC3    O2 6125   2.953   4.610  14.942 -0.2147  0.0868  0.1202
  407MPD2     C 6126   1.463   0.780   9.622 -0.1539  0.0348  0.5886
  407MPD2    C1 6127   1.583   0.839   9.656  0.7334 -0.2182  0.7573
  407MPD2    C2 6128   1.586   0.943   9.749 -0.4889  0.1224  0.3454
  407MPD2    C3 6129   1.480   0.955   9.836  0.1425  0.3961 -0.5496
  407MPD2    C4 6130   1.379   0.867   9.830  0.1361 -0.0740 -0.0551
  407MPD2    C5 6131   1.366   0.779   9.720  0.1313  0.5027  0.2488
  407MPD2     H 6132   1.683   0.987   9.769  0.0879 -1.5503  1.2182
  407MPD2    H1 6133   1.302   0.879   9.905 -0.4413  3.1943 -1.1617
  407MPD2    H2 6134   1.453   0.704   9.546 -0.9920  0.8896 -0.1524
  407MPD2    H3 6135   1.281   0.712   9.717 -0.1528  0.8570  0.4073
  407MPD2     N 6136   1.480   1.052   9.941  0.1565 -0.1118  0.3180
  407MPD2    H5 6137   1.421   1.044  10.024 -1.0185  1.0229 -0.4057
  407MPD2    N1 6138   1.700   0.807   9.589 -0.0914 -0.2044 -0.4701
  407MPD2    H7 6139   1.779   0.864   9.618  0.1738 -0.4755 -0.6503
  408TMC3    C1 6140   1.851   0.730   9.421  0.1896  0.2137 -0.1305
  408TMC3    C2 6141   1.910   0.618   9.372 -1.4290 -0.1951 -0.1026
  408TMC3    C3 6142   2.047   0.632   9.337  0.6054  0.0135 -0.1786
  408TMC3    C4 6143   1.912   0.853   9.424 -0.3420 -1.0871 -0.3335
  408TMC3    C5 6144   2.041   0.862   9.379  0.3193  0.2062 -0.9473
  408TMC3    C6 6145   2.113   0.753   9.347  0.5429  0.1293 -0.0250
  408TMC3     C 6146   1.725   0.706   9.498 -0.0183 -0.1778 -0.4848
  408TMC3     O 6147   1.658   0.604   9.474  0.2418 -0.4831 -0.0007
  408TMC3     H 6148   1.863   0.520   9.368  0.9106 -1.3689  1.0167
  408TMC3    H1 6149   1.863   0.939   9.469 -0.4919 -0.1322 -2.3120
  408TMC3    H2 6150   2.219   0.761   9.325  0.7008  0.2759  0.7804
  408TMC3    C7 6151   2.120   0.944   9.469 -0.7941 -0.3760  0.2122
  408TMC3    C8 6152   2.111   0.528   9.396  0.3920  0.1624  0.8973
  408TMC3    O1 6153   2.217   0.903   9.528  0.1412  0.4530  0.5316
  408TMC3    O2 6154   2.068   0.413   9.386  0.6337 -0.0504 -0.0876
  409MPD2     C 6155   1.312   1.396  16.854  0.6622  0.0131  0.4012
  409MPD2    C1 6156   1.404   1.422  16.948  0.2685 -0.0518  0.5154
  409MPD2    C2 6157   1.492   1.521  16.932 -0.2083  0.2051  0.2268
  409MPD2    C3 6158   1.496   1.602  16.820 -0.0366  0.4932 -0.0663
  409MPD2    C4 6159   1.405   1.566  16.720  0.2537  0.5348 -0.7047
  409MPD2    C5 6160   1.317   1.473  16.740  0.0849 -0.1283 -0.1313
  409MPD2     H 6161   1.551   1.543  17.020 -0.1920 -1.4638  0.6278
  409MPD2    H1 6162   1.404   1.617  16.624  0.4489  0.9521 -0.4868
  409MPD2    H2 6163   1.230   1.325  16.857 -0.7225  1.6221  0.4917
  409MPD2    H3 6164   1.245   1.451  16.663 -0.6031  1.4664  0.0752
  409MPD2     N 6165   1.580   1.707  16.793 -0.3019  0.0375 -0.1451
  409MPD2    H5 6166   1.558   1.748  16.702 -1.6617 -0.0047  0.1640
  409MPD2    N1 6167   1.383   1.367  17.076 -0.1359  0.1216  0.1445
  409MPD2    H7 6168   1.445   1.402  17.149 -0.1319 -1.5491  0.9311
  410TMC3    C1 6169   1.737   1.884  16.831 -0.3686  0.0626 -0.2999
  410TMC3    C2 6170   1.808   1.942  16.925  0.3998  0.0334  0.1096
  410TMC3    C3 6171   1.915   2.017  16.892 -0.4775 -0.1651  0.0547
  410TMC3    C4 6172   1.781   1.886  16.700  0.1653 -0.1238  0.1449
  410TMC3    C5 6173   1.896   1.962  16.671 -0.4773 -0.7456 -1.0113
  410TMC3    C6 6174   1.964   2.036  16.770 -0.2196 -0.1623 -0.3252
  410TMC3     C 6175   1.667   1.763  16.885  0.8854  0.1771 -0.3112
  410TMC3     O 6176   1.674   1.745  17.006 -0.0866 -0.3981  0.3177
  410TMC3     H 6177   1.758   1.967  17.019  0.0361 -0.0075 -0.0723
  410TMC3    H1 6178   1.732   1.825  16.625 -0.7829  1.3051 -0.3766
  410TMC3    H2 6179   2.049   2.093  16.734 -0.8758  0.4753 -0.8610
  410TMC3    C7 6180   1.941   1.949  16.534 -0.0701  0.7560  0.3997
  410TMC3    C8 6181   2.016   2.021  16.993  0.4670  0.6609  0.2046
  410TMC3    O1 6182   1.901   1.853  16.472  0.1557 -0.3151 -0.1912
  410TMC3    O2 6183   2.106   2.104  16.972  0.2426  0.0679 -0.2117
  411MPD2     C 6184   1.820   3.110  14.234  0.1346  0.3116  0.1506
  411MPD2    C1 6185   1.739   3.028  14.305  0.4905 -0.2213  0.5496
  411MPD2    C2 6186   1.711   2.898  14.259 -0.0881 -0.5292 -0.0376
  411MPD2    C3 6187   1.768   2.850  14.145  0.7516  0.1362  0.5495
  411MPD2    C4 6188   1.849   2.935  14.076  0.3814 -0.4261 -0.6513
  411MPD2    C5 6189   1.875   3.063  14.115  0.1626  0.4589 -0.2779
  411MPD2     H 6190   1.640   2.840  14.317  0.6896 -1.4515  0.0002
  411MPD2    H1 6191   1.871   2.914  13.972  1.1960  0.8627 -0.7341
  411MPD2    H2 6192   1.832   3.215  14.258  0.2921  0.4284 -0.4386
  411MPD2    H3 6193   1.926   3.125  14.042 -2.0417  3.7291  0.9550
  411MPD2     N 6194   1.738   2.728  14.082  0.0186 -0.4039 -0.1547
  411MPD2    H5 6195   1.796   2.705  14.002 -0.1750  0.9279 -0.6755
  411MPD2    N1 6196   1.686   3.091  14.418 -0.3441 -0.2639 -0.2552
  411MPD2    H7 6197   1.687   3.193  14.422  0.3949 -0.2055 -2.0779
  412TMC3    C1 6198   1.643   2.514  14.058  0.5993  0.3876 -0.2681
  412TMC3    C2 6199   1.680   2.520  13.926  0.0947  0.1846 -0.0926
  412TMC3    C3 6200   1.681   2.403  13.860  0.7142  0.0350  0.1026
  412TMC3    C4 6201   1.590   2.400  14.119 -0.2722 -0.0070  0.0362
  412TMC3    C5 6202   1.596   2.286  14.047 -0.2775 -0.1952  0.5605
  412TMC3    C6 6203   1.643   2.287  13.917  0.2047 -0.0283 -0.3829
  412TMC3     C 6204   1.654   2.637  14.134 -1.0679 -0.5238  0.1234
  412TMC3     O 6205   1.590   2.645  14.240  0.3666  0.6210  0.5439
  412TMC3     H 6206   1.695   2.615  13.875 -3.3395  0.1735 -1.1285
  412TMC3    H1 6207   1.574   2.406  14.226 -1.4117 -0.0030 -0.1341
  412TMC3    H2 6208   1.676   2.194  13.871  1.3751 -0.2053  0.8347
  412TMC3    C7 6209   1.500   2.183  14.068  0.7029  0.1751 -0.3802
  412TMC3    C8 6210   1.636   2.408  13.726  0.3464  0.1132  0.4445
  412TMC3    O1 6211   1.507   2.089  13.990 -0.3516 -0.3250  0.1215
  412TMC3    O2 6212   1.671   2.501  13.656 -0.6213 -0.5105  0.6115
  413MPD2     C 6213   3.085   0.739  15.708  0.1151 -1.2067 -0.4139
  413MPD2    C1 6214   3.057   0.743  15.572 -0.0715  0.6195 -0.6249
  413MPD2    C2 6215   3.156   0.736  15.480 -0.1979 -0.1203  0.2540
  413MPD2    C3 6216   3.283   0.714  15.527  0.0387 -0.1760  0.4632
  413MPD2    C4 6217   3.310   0.717  15.668  0.8115  0.2295  0.4235
  413MPD2    C5 6218   3.210   0.733  15.755  0.3538 -0.4042  0.1554
  413MPD2     H 6219   3.130   0.719  15.377  2.3173 -0.3273 -0.3491
  413MPD2    H1 6220   3.410   0.710  15.711  0.8142  0.6671  0.4889
  413MPD2    H2 6221   3.002   0.748  15.778  2.2215 -1.0350  2.0509
  413MPD2    H3 6222   3.222   0.742  15.862  1.4053  2.7575 -0.2260
  413MPD2     N 6223   3.385   0.689  15.430 -0.0920 -0.4615 -0.3786
  413MPD2    H5 6224   3.361   0.708  15.333  1.0498  0.2194 -0.5301
  413MPD2    N1 6225   2.918   0.726  15.544 -0.0112  0.1930  0.3536
  413MPD2    H7 6226   2.850   0.717  15.618 -0.4803 -0.0800 -0.1072
  414TMC3    C1 6227   3.573   0.593  15.344  0.4089 -0.4986  0.1981
  414TMC3    C2 6228   3.616   0.464  15.357  0.1499  0.5956  0.1459
  414TMC3    C3 6229   3.579   0.377  15.260 -0.1070  0.5852  0.0125
  414TMC3    C4 6230   3.499   0.635  15.234  0.0618 -0.6008  0.7367
  414TMC3    C5 6231   3.474   0.551  15.132 -0.5708 -0.7651 -0.4354
  414TMC3    C6 6232   3.509   0.417  15.145 -0.2516  0.4892 -0.2353
  414TMC3     C 6233   3.513   0.649  15.460 -0.8443  0.1004 -0.5128
  414TMC3     O 6234   3.553   0.612  15.570 -0.2377 -0.1874 -0.0927
  414TMC3     H 6235   3.662   0.442  15.453  0.7612 -1.1538 -0.5638
  414TMC3    H1 6236   3.474   0.740  15.219  1.1998 -0.5981 -1.0662
  414TMC3    H2 6237   3.470   0.347  15.072  0.1891  0.0601 -0.0575
  414TMC3    C7 6238   3.411   0.606  15.017 -0.1329  0.1291 -0.4456
  414TMC3    C8 6239   3.637   0.240  15.258 -0.1910 -1.1620  0.8365
  414TMC3    O1 6240   3.336   0.699  15.035  0.4806 -0.6461  0.8462
  414TMC3    O2 6241   3.603   0.171  15.163 -0.0439 -0.2551 -0.0160
  415TMC3    C1 6242   3.744   3.860   9.692 -0.3457 -0.7050 -0.0973
  415TMC3    C2 6243   3.775   3.976   9.633 -0.3631  0.2135 -0.3208
  415TMC3    C3 6244   3.716   4.010   9.512 -0.2305 -0.5363  0.0019
  415TMC3    C4 6245   3.647   3.775   9.645  0.0268  0.5482 -0.3411
  415TMC3    C5 6246   3.579   3.824   9.541 -0.1478 -0.2645  0.3112
  415TMC3    C6 6247   3.615   3.934   9.472 -1.0458 -0.4723  0.4848
  415TMC3     C 6248   3.772   3.829   9.831 -0.9084  0.4371 -0.6790
  415TMC3     O 6249   3.769   3.706   9.860  0.3883  0.2370 -0.1167
  415TMC3     H 6250   3.871   4.011   9.671 -1.1440 -0.1395  1.9670
  415TMC3    H1 6251   3.610   3.694   9.707  0.1095 -1.5554 -3.0370
  415TMC3    H2 6252   3.569   3.957   9.376  2.1886 -0.0104 -0.9605
  415TMC3    C7 6253   3.453   3.755   9.496  0.0583 -1.0774  0.3150
  415TMC3    C8 6254   3.757   4.115   9.426 -0.0489 -0.3411  0.7645
  415TMC3    O1 6255   3.384   3.818   9.413  0.4571 -0.0158 -0.1931
  415TMC3    O2 6256   3.711   4.129   9.312 -0.2209 -0.8243  0.3623
  416MPD2     C 6257   0.369   2.287  11.420 -0.7891 -0.2736  0.7170
  416MPD2    C1 6258   0.244   2.253  11.381  0.2936 -0.1226 -0.0894
  416MPD2    C2 6259   0.229   2.154  11.290 -0.0732 -0.1130 -0.0114
  416MPD2    C3 6260   0.332   2.084  11.237 -0.0011  0.2746  0.5009
  416MPD2    C4 6261   0.457   2.121  11.275 -0.1906  0.6239 -0.0001
  416MPD2    C5 6262   0.479   2.226  11.364 -0.5763 -0.4205 -0.1364
  416MPD2     H 6263   0.132   2.125  11.252 -0.7568  0.0003  1.6206
  416MPD2    H1 6264   0.545   2.077  11.229  0.5288 -0.5926  2.5333
  416MPD2    H2 6265   0.388   2.373  11.483  0.1622 -0.6847  0.9847
  416MPD2    H3 6266   0.574   2.271  11.390 -0.7819 -0.2821  0.3756
  416MPD2     N 6267   0.291   1.991  11.138  0.0405  0.0235 -0.1549
  416MPD2    H5 6268   0.192   1.993  11.113  0.6660  3.1304 -2.3882
  416MPD2    N1 6269   0.145   2.339  11.428 -0.0094 -0.3018 -0.7183
  416MPD2    H7 6270   0.171   2.421  11.481 -2.4641 -0.2573  0.4430
  417TMC3    C1 6271   4.672   2.416  11.482  0.0406  0.1546 -0.4364
  417TMC3    C2 6272   4.713   2.447  11.610  0.3255 -0.5925 -0.0925
  417TMC3    C3 6273   4.670   2.561  11.665 -0.2225  0.3398 -0.2246
  417TMC3    C4 6274   4.604   2.502  11.401  0.0924 -0.4732 -0.2037
  417TMC3    C5 6275   4.559   2.618  11.461 -0.2407 -0.1951  0.3474
  417TMC3    C6 6276   4.582   2.645  11.595  0.2785 -0.7474  0.3968
  417TMC3     C 6277   0.011   2.318  11.412  0.5900 -0.6031  0.1960
  417TMC3     O 6278   4.685   2.222  11.366 -0.4552 -0.0856 -0.3693
  417TMC3     H 6279   0.037   2.375  11.662  2.6012  0.7482 -0.9482
  417TMC3    H1 6280   4.584   2.474  11.298 -0.8204  1.0606 -0.4453
  417TMC3    H2 6281   4.536   2.735  11.634  0.2267 -0.2577 -0.8019
  417TMC3    C7 6282   4.552   2.736  11.375  0.3039 -1.2467  0.1195
  417TMC3    C8 6283   4.682   2.586  11.804 -0.4071  0.1373  0.9153
  417TMC3    O1 6284   4.577   2.842  11.428 -0.3769  0.4004  0.1759
  417TMC3    O2 6285   4.586   2.648  11.856 -0.8499 -0.0934 -0.0414
  418TMC3    C1 6286   4.684   4.147   0.120 -0.2359 -0.2396 -0.1741
  418TMC3    C2 6287   4.565   4.213   0.133 -0.4424 -0.1254  0.3140
  418TMC3    C3 6288   4.505   4.205   0.255  0.4637 -0.3103 -0.9195
  418TMC3    C4 6289   4.731   4.061   0.212  0.1804  0.0600  0.1337
  418TMC3    C5 6290   4.676   4.064   0.334 -0.6921 -0.3564  0.4190
  418TMC3    C6 6291   4.562   4.128   0.352  0.0918  0.2058  0.5652
  418TMC3     C 6292   4.730   4.136  17.740  0.1004 -0.2638 -0.1558
  418TMC3     O 6293   4.697   4.225  17.664 -0.2539  0.8426 -0.3983
  418TMC3     H 6294   4.532   4.283   0.057 -0.8379 -0.5471  0.0938
  418TMC3    H1 6295   0.083   4.006   0.190  0.3061  0.1719  0.3717
  418TMC3    H2 6296   4.522   4.129   0.453 -1.3143  1.7201 -0.0172
  418TMC3    C7 6297   4.701   3.956   0.423  0.1497 -0.2244  0.5366
  418TMC3    C8 6298   4.357   4.209   0.259  0.2328 -0.3349  0.7043
  418TMC3    O1 6299   0.012   3.857   0.371  0.0425 -0.2132  0.2806
  418TMC3    O2 6300   4.318   4.311   0.205  0.1484  0.6028 -0.0044
  419MPD2     C 6301   2.504   2.030  12.743 -0.2448 -0.2271  0.1703
  419MPD2    C1 6302   2.549   2.157  12.718  0.9528 -0.2378 -0.3307
  419MPD2    C2 6303   2.620   2.230  12.811 -0.3876 -0.2703 -0.1227
  419MPD2    C3 6304   2.646   2.175  12.933 -0.3034  0.1010 -0.3326
  419MPD2    C4 6305   2.605   2.043  12.956  0.1991 -0.4305  0.0740
  419MPD2    C5 6306   2.534   1.976  12.861  0.7641 -0.1104  0.0536
  419MPD2     H 6307   2.647   2.331  12.784  1.0845 -0.5809  0.1781
  419MPD2    H1 6308   2.627   2.000  13.053 -0.3825  0.3339  0.5484
  419MPD2    H2 6309   2.452   1.974  12.666  1.1067 -2.6097  0.9944
  419MPD2    H3 6310   2.514   1.872  12.884 -0.8384  0.0600 -0.5475
  419MPD2     N 6311   2.722   2.257  13.023  0.1994  0.7574  0.1843
  419MPD2    H5 6312   2.742   2.348  12.983 -2.2925  0.7315 -1.0689
  419MPD2    N1 6313   2.531   2.220  12.585  1.2697  0.1145  0.5113
  419MPD2    H7 6314   2.563   2.314  12.565 -0.3462  0.1836 -1.7400
  420TMC3    C1 6315   2.798   2.332  13.236  0.0846  0.7973 -0.2175
  420TMC3    C2 6316   2.738   2.456  13.221  0.1772  0.3012 -0.3645
  420TMC3    C3 6317   2.742   2.549  13.324 -0.4795  0.0356  0.4755
  420TMC3    C4 6318   2.832   2.287  13.360 -0.5895 -0.2167 -0.1124
  420TMC3    C5 6319   2.815   2.377  13.467 -0.1451  0.3246 -0.1302
  420TMC3    C6 6320   2.771   2.510  13.451  0.0291  0.2048 -0.4075
  420TMC3     C 6321   2.749   2.222  13.151 -0.5410 -0.1070  0.1263
  420TMC3     O 6322   2.716   2.119  13.209 -0.5960 -0.1679 -0.1157
  420TMC3     H 6323   2.718   2.496  13.122 -0.4285 -0.3240 -0.4945
  420TMC3    H1 6324   2.863   2.184  13.373 -2.1169 -0.6067  0.4136
  420TMC3    H2 6325   2.760   2.581  13.532  0.8528  1.2295 -1.1871
  420TMC3    C7 6326   2.859   2.352  13.601 -0.8288 -0.3900  0.0873
  420TMC3    C8 6327   2.710   2.689  13.312 -0.2301 -0.6454  0.2524
  420TMC3    O1 6328   2.820   2.433  13.687 -0.2913 -0.3102 -0.0496
  420TMC3    O2 6329   2.686   2.749  13.414  0.5374  0.2112 -0.0154
  421TMC3    C1 6330   3.856   3.861  13.827 -0.4628 -0.2677 -0.3928
  421TMC3    C2 6331   3.819   3.973  13.899  0.4968  0.0780  0.2018
  421TMC3    C3 6332   3.908   4.015  13.998 -0.4334  0.5030 -0.0603
  421TMC3    C4 6333   3.973   3.796  13.861  0.3088  0.1224  0.5303
  421TMC3    C5 6334   4.054   3.848  13.964  0.1464  0.4203  0.3266
  421TMC3    C6 6335   4.030   3.969  14.025 -0.1850  0.2756 -0.4718
  421TMC3     C 6336   3.799   3.831  13.698 -0.3542  1.1294 -0.2528
  421TMC3     O 6337   3.680   3.856  13.681 -0.4819 -0.3497  0.0088
  421TMC3     H 6338   3.724   4.019  13.874  0.2816 -0.5851 -0.2139
  421TMC3    H1 6339   4.005   3.706  13.811  2.1305  0.3437  1.2794
  421TMC3    H2 6340   4.090   3.985  14.114 -1.8898 -1.7564  1.0453
  421TMC3    C7 6341   4.180   3.788  13.987  0.2416 -0.4865 -0.2578
  421TMC3    C8 6342   3.890   4.140  14.071  0.3083 -0.2367  0.4215
  421TMC3    O1 6343   4.270   3.865  14.022  0.0519 -0.3543 -0.1674
  421TMC3    O2 6344   3.979   4.179  14.144 -0.3166  0.1899 -0.6803
  422TMC3    C1 6345   1.714   0.949  12.216  0.2111  1.1055  0.2355
  422TMC3    C2 6346   1.633   1.060  12.231 -0.2571  0.1816 -0.3185
  422TMC3    C3 6347   1.524   1.046  12.316  0.0092  0.5851 -0.6849
  422TMC3    C4 6348   1.672   0.827  12.258 -0.4629 -0.3077 -0.5505
  422TMC3    C5 6349   1.548   0.818  12.316 -0.3756  0.5368 -0.0233
  422TMC3    C6 6350   1.475   0.926  12.355  0.6664 -0.6634  0.1708
  422TMC3     C 6351   1.844   0.962  12.156 -0.3491 -0.5628  0.0721
  422TMC3     O 6352   1.926   0.874  12.179 -0.4329 -0.5138 -0.1148
  422TMC3     H 6353   1.665   1.160  12.203 -1.3711  0.8287  0.7232
  422TMC3    H1 6354   1.725   0.739  12.222 -1.5785 -1.3578  0.3723
  422TMC3    H2 6355   1.377   0.914  12.400  0.7916 -0.5576  0.4683
  422TMC3    C7 6356   1.479   0.694  12.287 -0.0412 -0.8953 -0.4175
  422TMC3    C8 6357   1.461   1.170  12.356  0.2898 -0.2981 -0.5577
  422TMC3    O1 6358   1.510   0.632  12.187 -0.2184  0.0145  0.0216
  422TMC3    O2 6359   1.530   1.267  12.350  0.4266  0.0959  0.6474
  423MPD2     C 6360   3.400   1.251   0.712  0.8276  0.6141 -0.2102
  423MPD2    C1 6361   3.455   1.137   0.766  1.1550 -0.8240 -0.2157
  423MPD2    C2 6362   3.491   1.036   0.678  0.3509 -0.4953 -0.1296
  423MPD2    C3 6363   3.468   1.057   0.541  0.3184 -0.7197  0.3361
  423MPD2    C4 6364   3.426   1.176   0.498 -0.5383  0.6633  0.1366
  423MPD2    C5 6365   3.390   1.273   0.580  0.2825 -0.0914 -0.4380
  423MPD2     H 6366   3.531   0.943   0.720  0.7696  0.5770  1.8647
  423MPD2    H1 6367   3.415   1.187   0.391  1.4242  0.9198 -0.0461
  423MPD2    H2 6368   3.383   1.334   0.781 -2.9742 -1.3231  1.2024
  423MPD2    H3 6369   3.348   1.364   0.539 -1.3682 -1.4799 -1.8197
  423MPD2     N 6370   3.492   0.960   0.443 -0.0688  0.5813  0.6288
  423MPD2    H5 6371   3.462   0.991   0.351  1.5230 -1.4671 -0.5859
  423MPD2    N1 6372   3.468   1.118   0.902  0.3307 -0.4199 -0.6552
  423MPD2    H7 6373   3.500   1.026   0.930 -0.6203 -1.1771 -2.0758
  424TMC3    C1 6374   3.464   1.133   1.125  0.3763 -0.4133 -0.4948
  424TMC3    C2 6375   3.593   1.127   1.132 -0.1104 -0.1589  0.1603
  424TMC3    C3 6376   3.648   1.112   1.257  0.2983 -0.7243  0.0774
  424TMC3    C4 6377   3.385   1.130   1.236 -0.6651  0.7558 -0.6819
  424TMC3    C5 6378   3.443   1.114   1.362 -0.1346 -0.1925 -1.1951
  424TMC3    C6 6379   3.578   1.108   1.373  0.5576  0.7303 -0.2026
  424TMC3     C 6380   3.410   1.190   1.004  0.0847 -0.3153  0.2502
  424TMC3     O 6381   3.309   1.260   1.002 -0.5863 -0.2290 -0.7080
  424TMC3     H 6382   3.651   1.129   1.040 -1.3741  2.4662 -0.5892
  424TMC3    H1 6383   3.286   1.172   1.224  0.2593  2.6348 -1.7216
  424TMC3    H2 6384   3.627   1.074   1.464  0.9243  2.5534  0.2945
  424TMC3    C7 6385   3.365   1.081   1.479 -0.1790 -0.1061  0.0867
  424TMC3    C8 6386   3.766   1.026   1.267  0.5408  0.7020  0.3981
  424TMC3    O1 6387   3.427   1.066   1.587  0.6072  1.2024  0.5117
  424TMC3    O2 6388   3.775   0.948   1.357 -0.1428  0.1492  0.1825
  425MPD2     C 6389   2.252   0.447  17.453 -0.2234  0.2716 -0.3356
  425MPD2    C1 6390   2.145   0.366  17.444 -0.0163 -0.1370 -0.3888
  425MPD2    C2 6391   2.023   0.408  17.493 -0.6859 -0.9119  0.3483
  425MPD2    C3 6392   2.006   0.539  17.535  0.2456  0.7926 -0.6027
  425MPD2    C4 6393   2.112   0.625  17.541 -0.2511 -0.5189  0.1165
  425MPD2    C5 6394   2.235   0.574  17.504  0.5512 -0.1685  0.4266
  425MPD2     H 6395   1.935   0.345  17.495  0.0938 -1.9408  1.4944
  425MPD2    H1 6396   2.095   0.726  17.576 -1.7731 -1.7111  2.8308
  425MPD2    H2 6397   2.351   0.406  17.432 -0.6486 -1.1476  0.4115
  425MPD2    H3 6398   2.319   0.640  17.520  0.3749  0.1144  0.1830
  425MPD2     N 6399   1.874   0.572  17.566 -0.1320  0.0363  0.2763
  425MPD2    H5 6400   1.815   0.490  17.561  2.3696 -1.6962 -1.1680
  425MPD2    N1 6401   2.163   0.226  17.402 -0.8462  0.2540  0.7402
  425MPD2    H7 6402   2.250   0.205  17.353 -1.6359  1.6420 -1.2945
  426TMC3    C1 6403   2.108   4.736  17.383 -0.2236  0.0001 -0.1629
  426TMC3    C2 6404   2.223   4.715  17.303  0.0597  0.1104  0.1240
  426TMC3    C3 6405   2.243   4.601  17.243  0.2287  0.4704  0.1436
  426TMC3    C4 6406   2.016   4.638  17.389 -0.5926  0.6771  1.5791
  426TMC3    C5 6407   2.035   4.519  17.319  0.1801 -0.1206  0.0666
  426TMC3    C6 6408   2.157   4.496  17.258 -0.1396  0.6785 -0.2327
  426TMC3     C 6409   2.081   0.125  17.444 -0.1004  0.7686  0.6768
  426TMC3     O 6410   1.984   0.121  17.520  0.1621  0.1055 -0.3684
  426TMC3     H 6411   2.293   0.057  17.283 -0.6657  1.7119  4.1040
  426TMC3    H1 6412   1.917   4.659  17.427 -1.7946 -0.1500 -1.1296
  426TMC3    H2 6413   2.179   4.404  17.205 -0.2404  1.5044 -1.7146
  426TMC3    C7 6414   1.963   4.396  17.355 -0.4485  0.4478 -0.6659
  426TMC3    C8 6415   2.321   4.584  17.119  0.4209 -0.5964  0.3280
  426TMC3    O1 6416   2.001   4.287  17.317  0.6401 -0.0906  0.0578
  426TMC3    O2 6417   2.321   4.483  17.056 -0.5379 -0.3182 -0.3047
  427MPD2     C 6418   0.856   2.573  14.530  0.3344  0.4927 -0.0821
  427MPD2    C1 6419   0.827   2.547  14.661 -0.6136 -0.3191 -0.5401
  427MPD2    C2 6420   0.704   2.577  14.708  0.1135  0.9126 -0.8272
  427MPD2    C3 6421   0.608   2.634  14.629 -0.0240 -0.1726 -0.3364
  427MPD2    C4 6422   0.633   2.657  14.494  0.6481 -0.4455  0.3130
  427MPD2    C5 6423   0.759   2.624  14.449  0.1972  0.6953  0.6437
  427MPD2     H 6424   0.678   2.559  14.812  0.0403 -0.1352 -1.0226
  427MPD2    H1 6425   0.560   2.700  14.427 -0.1586 -0.7781  0.9815
  427MPD2    H2 6426   0.954   2.549  14.488 -0.1722  0.5674 -1.3074
  427MPD2    H3 6427   0.767   2.658  14.346  1.0508 -2.6020 -0.3778
  427MPD2     N 6428   0.477   2.677  14.672  0.1309  0.8829  0.1772
  427MPD2    H5 6429   0.404   2.689  14.602  0.2855 -0.1574 -0.1513
  427MPD2    N1 6430   0.914   2.479  14.748  0.4034  0.6622 -0.2159
  427MPD2    H7 6431   0.874   2.463  14.840 -2.0536 -2.3538 -1.7757
  428TMC3    C1 6432   1.079   2.333  14.837 -0.4184  1.0428  0.3259
  428TMC3    C2 6433   0.980   2.303  14.927 -0.6829  0.1108 -0.2366
  428TMC3    C3 6434   1.025   2.255  15.044 -0.6625  0.3362 -0.3205
  428TMC3    C4 6435   1.210   2.363  14.875  0.0123 -0.6504 -0.5419
  428TMC3    C5 6436   1.248   2.322  15.000  0.8987 -0.3236 -0.3435
  428TMC3    C6 6437   1.157   2.266  15.079 -0.4693 -0.2732  0.2134
  428TMC3     C 6438   1.037   2.420  14.727  0.3055  0.3710 -0.4804
  428TMC3     O 6439   1.119   2.447  14.637  0.1327  0.2555  0.2189
  428TMC3     H 6440   0.876   2.294  14.898  0.0655  0.4978 -2.9991
  428TMC3    H1 6441   1.275   2.378  14.789 -0.2938 -1.4396 -0.9085
  428TMC3    H2 6442   1.192   2.224  15.173  2.0685  2.0352  0.2871
  428TMC3    C7 6443   1.371   2.344  15.055  0.5703  0.2425  0.5133
  428TMC3    C8 6444   0.922   2.214  15.142  0.1379 -0.0617  0.8479
  428TMC3    O1 6445   1.416   2.265  15.137  0.1393 -0.0320 -0.2661
  428TMC3    O2 6446   0.825   2.160  15.083 -0.2505  0.0885  0.1226
  429MPD2     C 6447   1.747   2.648  17.463  0.2382  1.1138 -0.4388
  429MPD2    C1 6448   1.863   2.567  17.467  0.2185  0.8169  0.1525
  429MPD2    C2 6449   1.977   2.612  17.408  0.3823 -0.5112 -0.6295
  429MPD2    C3 6450   1.986   2.734  17.336  0.0901 -0.2691 -0.1120
  429MPD2    C4 6451   1.869   2.801  17.324 -0.4328  0.1372 -0.2021
  429MPD2    C5 6452   1.755   2.764  17.390 -0.7696  0.0291 -0.1559
  429MPD2     H 6453   2.063   2.547  17.415  0.5404 -0.0195  2.1200
  429MPD2    H1 6454   1.859   2.886  17.257 -1.1012  0.2191  0.0046
  429MPD2    H2 6455   1.654   2.624  17.513  0.5838  1.5559  0.4291
  429MPD2    H3 6456   1.669   2.830  17.394  0.5558  1.6634  1.6612
  429MPD2     N 6457   2.112   2.776  17.284  0.0377  0.1817  0.3756
  429MPD2    H5 6458   2.186   2.711  17.309 -1.9984 -2.6765 -0.9781
  429MPD2    N1 6459   1.883   2.441  17.520  0.0969 -0.4192 -0.0381
  429MPD2    H7 6460   1.964   2.380  17.509 -1.5344 -2.4657 -0.7103
  430TMC3    C1 6461   2.268   2.866  17.139 -0.5113  0.6484  0.4396
  430TMC3    C2 6462   2.298   2.962  17.047 -0.2198  0.5945  0.1074
  430TMC3    C3 6463   2.401   2.933  16.965  0.2744 -0.0519  0.4547
  430TMC3    C4 6464   2.349   2.755  17.163  0.8878  0.1658  0.5564
  430TMC3    C5 6465   2.452   2.742  17.080 -0.1604  0.0679  0.4270
  430TMC3    C6 6466   2.475   2.824  16.977  0.0958 -0.1266 -0.3927
  430TMC3     C 6467   2.134   2.877  17.200 -0.5670 -0.3811 -0.4737
  430TMC3     O 6468   2.062   2.954  17.144  0.1172 -0.5981  0.6143
  430TMC3     H 6469   2.234   3.050  17.042  1.3635  1.7871  0.5950
  430TMC3    H1 6470   2.329   2.677  17.235  0.7365  0.3004  0.6621
  430TMC3    H2 6471   2.563   2.808  16.916  0.3258  2.0954 -0.6518
  430TMC3    C7 6472   2.467   2.605  17.036 -0.1117 -0.5365 -0.2624
  430TMC3    C8 6473   2.374   2.949  16.820 -0.1010  0.3491 -0.4660
  430TMC3    O1 6474   2.442   2.509  17.106  0.1142 -0.1431  0.0540
  430TMC3    O2 6475   2.422   2.863  16.745 -0.6686 -0.1377  0.3731
  431MPD2     C 6476   2.162   2.954  12.626 -0.1088  0.5372 -0.0629
  431MPD2    C1 6477   2.253   2.980  12.530  0.2815  0.3530  0.4870
  431MPD2    C2 6478   2.294   2.877  12.446  1.1613  0.3291  0.2795
  431MPD2    C3 6479   2.245   2.748  12.463 -0.3791 -0.1067 -0.9501
  431MPD2    C4 6480   2.145   2.729  12.554  0.4140  0.0735 -0.4355
  431MPD2    C5 6481   2.096   2.828  12.636 -0.1804 -0.1186 -0.2110
  431MPD2     H 6482   2.373   2.900  12.374  0.8871  0.8318  0.1379
  431MPD2    H1 6483   2.088   2.637  12.545 -0.8117  0.7974 -0.0924
  431MPD2    H2 6484   2.123   3.035  12.686 -0.4906  0.6137 -0.4123
  431MPD2    H3 6485   2.019   2.807  12.709  0.0837  0.6729  0.3056
  431MPD2     N 6486   2.297   2.631  12.394 -0.1156 -0.3377 -1.0111
  431MPD2    H5 6487   2.260   2.543  12.430 -0.4047  0.9826  1.8336
  431MPD2    N1 6488   2.318   3.106  12.516 -0.1131 -0.4198  0.3736
  431MPD2    H7 6489   2.392   3.113  12.447  0.0631 -0.5367  0.5487
  432TMC3    C1 6490   2.427   2.472  12.286 -0.1494  0.1217 -0.3530
  432TMC3    C2 6491   2.470   2.427  12.161 -0.3309 -0.3828  0.8965
  432TMC3    C3 6492   2.525   2.307  12.153 -0.3063  0.6689 -0.4294
  432TMC3    C4 6493   2.445   2.387  12.396 -0.8749 -0.0797  0.3898
  432TMC3    C5 6494   2.473   2.254  12.371  0.6333 -0.5968  0.0477
  432TMC3    C6 6495   2.508   2.211  12.247 -0.1822 -0.9074  0.3893
  432TMC3     C 6496   2.397   2.615  12.300  0.4111  0.0279 -0.3124
  432TMC3     O 6497   2.463   2.696  12.238  0.1428 -0.0710 -0.1827
  432TMC3     H 6498   2.468   2.501  12.081  0.3309 -0.5494  0.7224
  432TMC3    H1 6499   2.421   2.427  12.494 -2.2008 -0.0224  0.0381
  432TMC3    H2 6500   2.529   2.105  12.235 -1.7824 -1.2445  0.6085
  432TMC3    C7 6501   2.479   2.156  12.478 -0.6392  0.8579 -0.1459
  432TMC3    C8 6502   2.581   2.268  12.025 -0.3054 -0.1872  0.4817
  432TMC3    O1 6503   2.399   2.064  12.471 -0.0999  0.7480 -0.3264
  432TMC3    O2 6504   2.569   2.150  11.997  0.7921  0.3792  0.0853
  433MPD2     C 6505   1.334   1.806  10.923 -0.3580 -0.2747  0.2236
  433MPD2    C1 6506   1.222   1.754  10.987  0.6959 -0.3818  0.2423
  433MPD2    C2 6507   1.185   1.799  11.114 -0.8294  0.3361 -0.3295
  433MPD2    C3 6508   1.253   1.904  11.176  0.4472  0.6108  0.4299
  433MPD2    C4 6509   1.358   1.960  11.107 -0.6543 -0.3090 -0.2850
  433MPD2    C5 6510   1.396   1.905  10.987 -0.3544 -0.0402  0.1363
  433MPD2     H 6511   1.090   1.775  11.161 -0.8538  0.1685 -0.4635
  433MPD2    H1 6512   1.422   2.037  11.149  0.3027 -0.3786 -1.6056
  433MPD2    H2 6513   1.382   1.784  10.828 -1.8813 -0.8491 -0.4126
  433MPD2    H3 6514   1.479   1.953  10.938 -0.4231 -0.4469 -0.3794
  433MPD2     N 6515   1.208   1.948  11.301 -0.5354 -0.1607 -0.5866
  433MPD2    H5 6516   1.156   1.880  11.355  0.3811 -0.4221 -0.0177
  433MPD2    N1 6517   1.151   1.642  10.937 -0.3279 -0.3070 -0.3428
  433MPD2    H7 6518   1.085   1.605  11.004  0.7786  0.2913  1.0634
  434TMC3    C1 6519   1.094   1.456  10.805 -0.5269 -0.6410  0.1068
  434TMC3    C2 6520   1.058   1.386  10.918  0.2209  0.3520  0.8076
  434TMC3    C3 6521   1.044   1.248  10.917 -0.5923 -0.1036  0.0508
  434TMC3    C4 6522   1.106   1.386  10.684  0.4793 -0.7533  0.1529
  434TMC3    C5 6523   1.087   1.247  10.684  0.7942 -0.4385  0.2242
  434TMC3    C6 6524   1.065   1.183  10.797  0.1675 -0.3909  0.5037
  434TMC3     C 6525   1.173   1.576  10.817 -0.0184 -0.0417  0.1189
  434TMC3     O 6526   1.237   1.618  10.720 -0.7909  0.5456  0.1535
  434TMC3     H 6527   1.030   1.435  11.010  1.0066  0.9168  0.7408
  434TMC3    H1 6528   1.144   1.432  10.593 -0.1892  0.1626  0.3378
  434TMC3    H2 6529   1.057   1.075  10.799  1.1460 -0.4966 -1.6777
  434TMC3    C7 6530   1.126   1.178  10.559 -0.4085  0.5529 -0.1686
  434TMC3    C8 6531   1.095   1.186  11.040  0.3329  0.1141 -0.4229
  434TMC3    O1 6532   1.103   1.239  10.455 -0.0268  0.6694 -0.0728
  434TMC3    O2 6533   1.165   1.252  11.115  0.5017  0.4392  1.0450
  435MPD2     C 6534   3.978   1.499  15.683  0.1603  0.1008  1.0317
  435MPD2    C1 6535   3.943   1.486  15.820  0.2813  0.4756  0.6918
  435MPD2    C2 6536   4.018   1.397  15.893  0.2506 -0.0851  0.0297
  435MPD2    C3 6537   4.104   1.301  15.830  0.2103 -0.2258  0.2639
  435MPD2    C4 6538   4.118   1.308  15.695 -0.4116 -0.6400  0.3245
  435MPD2    C5 6539   4.053   1.407  15.625 -0.0847 -0.4509 -0.8826
  435MPD2     H 6540   3.999   1.392  16.000 -1.7678  1.4431 -0.2653
  435MPD2    H1 6541   4.178   1.244  15.630 -2.3321 -0.9407 -1.1741
  435MPD2    H2 6542   3.927   1.563  15.612  0.6498 -0.8323 -0.1611
  435MPD2    H3 6543   4.063   1.417  15.517  1.9193 -0.5459 -0.7018
  435MPD2     N 6544   4.144   1.199  15.914 -0.0330 -0.1701 -0.0920
  435MPD2    H5 6545   4.120   1.201  16.013  2.6635 -0.1901  0.5615
  435MPD2    N1 6546   3.867   1.582  15.897 -0.0956  0.4149 -0.3197
  435MPD2    H7 6547   3.859   1.568  15.997  2.9859  0.3805 -0.0877
  436TMC3    C1 6548   3.760   1.862  16.155  0.1030  0.2387  0.8561
  436TMC3    C2 6549   3.802   1.768  16.069  0.5727 -0.3138  0.5501
  436TMC3    C3 6550   3.765   1.796  15.939 -1.3203  0.4771 -0.4106
  436TMC3    C4 6551   3.674   1.966  16.121  0.4705  0.3470 -0.2433
  436TMC3    C5 6552   3.633   1.972  15.994 -0.6857  0.5142 -0.7542
  436TMC3    C6 6553   3.683   1.895  15.895  0.3836  0.6410 -0.1401
  436TMC3     C 6554   3.796   1.851  16.292 -0.3934  0.3583  0.2698
  436TMC3     O 6555   3.909   1.802  16.315 -0.3614 -0.2085  0.0530
  436TMC3     H 6556   3.885   1.705  16.099  0.5923 -1.4374 -1.9030
  436TMC3    H1 6557   3.642   2.048  16.184  0.8962  0.2212  0.1407
  436TMC3    H2 6558   3.644   1.892  15.794  0.2236 -0.9670 -0.0441
  436TMC3    C7 6559   3.550   2.092  15.954  1.2957  0.7809  0.0051
  436TMC3    C8 6560   3.806   1.695  15.838 -1.1170 -0.5777  0.4393
  436TMC3    O1 6561   3.526   2.179  16.038 -0.9883  0.3516 -0.1069
  436TMC3    O2 6562   3.788   1.713  15.718  0.3200 -0.0907  0.1446
  437TMC3    C1 6563   1.915   3.284  12.665 -0.1265 -0.1261  0.8683
  437TMC3    C2 6564   1.850   3.236  12.554  0.3200  0.3245  0.2573
  437TMC3    C3 6565   1.886   3.292  12.431  0.0391  0.2736 -0.2392
  437TMC3    C4 6566   2.009   3.389  12.664  0.2013 -0.2663  0.1165
  437TMC3    C5 6567   2.038   3.438  12.541  0.1008 -0.4405 -0.7973
  437TMC3    C6 6568   1.980   3.389  12.425 -0.2634 -0.2164  0.6198
  437TMC3     C 6569   1.883   3.225  12.795  0.8708 -0.1007  0.4898
  437TMC3     O 6570   1.767   3.193  12.829  0.0839 -0.7208  0.1159
  437TMC3     H 6571   1.761   3.176  12.568  0.4406  0.1290  0.1762
  437TMC3    H1 6572   2.049   3.431  12.755  0.3974 -1.9908  0.8359
  437TMC3    H2 6573   2.009   3.426  12.327  3.2293  2.3819  2.6458
  437TMC3    C7 6574   2.121   3.554  12.525  0.1060  0.7473  0.5190
  437TMC3    C8 6575   1.829   3.255  12.301 -0.2349 -0.3574  0.5991
  437TMC3    O1 6576   2.107   3.611  12.418  0.5171  0.5362 -0.1981
  437TMC3    O2 6577   1.858   3.323  12.203 -0.1350 -0.6424 -0.0569
  438MPD2     C 6578   0.032   4.004  16.729  0.5231 -0.0944  0.2689
  438MPD2    C1 6579   0.036   3.873  16.765  0.3780  0.0790 -0.2099
  438MPD2    C2 6580   0.004   3.840  16.900 -0.3630  0.8284  0.7382
  438MPD2    C3 6581   4.701   3.935  16.990  0.5873  0.8667 -0.0530
  438MPD2    C4 6582   4.693   4.066  16.955  0.0278  0.1066 -0.5710
  438MPD2    C5 6583   4.730   4.101  16.820  0.3460  0.2466 -0.4662
  438MPD2     H 6584   4.738   3.733  16.917 -2.4155  1.0345  1.3962
  438MPD2    H1 6585   4.661   4.148  17.019 -1.8918 -1.0460 -0.0541
  438MPD2    H2 6586   0.063   4.037  16.630 -0.8065  1.9002  0.5148
  438MPD2    H3 6587   0.002   4.206  16.796  1.4839  0.2938  0.2418
  438MPD2     N 6588   4.669   3.904  17.128 -0.0363  0.5197 -0.7028
  438MPD2    H5 6589   4.643   3.981  17.189 -2.1033 -0.0297 -0.8646
  438MPD2    N1 6590   0.097   3.771  16.678  0.0845  0.0778 -0.1200
  438MPD2    H7 6591   0.121   3.678  16.708  1.4093 -0.5449 -3.1124
  439TMC3    C1 6592   0.234   3.724  16.490  0.4600 -0.4496 -0.3071
  439TMC3    C2 6593   0.253   3.737  16.358  0.6962  0.1907 -0.1067
  439TMC3    C3 6594   0.368   3.676  16.309  0.5222 -0.1714  0.0619
  439TMC3    C4 6595   0.329   3.663  16.575  0.0456  0.0910 -0.3973
  439TMC3    C5 6596   0.437   3.604  16.516  0.1582 -0.5172  0.2804
  439TMC3    C6 6597   0.461   3.615  16.380 -0.0261 -0.0302  0.1107
  439TMC3     C 6598   0.121   3.797  16.542 -0.2092  0.2524 -0.4006
  439TMC3     O 6599   0.071   3.874  16.464 -0.0712  0.3700 -0.1667
  439TMC3     H 6600   0.185   3.794  16.297 -0.4097 -1.3667 -0.3188
  439TMC3    H1 6601   0.305   3.638  16.678  1.5838 -0.6535 -0.2215
  439TMC3    H2 6602   0.552   3.574  16.339 -0.2129  1.0681 -1.3936
  439TMC3    C7 6603   0.508   3.499  16.592  0.7729 -0.3064 -0.7575
  439TMC3    C8 6604   0.404   3.675  16.176 -1.4728 -0.0346  0.2004
  439TMC3    O1 6605   0.523   3.517  16.713 -0.1736  0.1780 -0.0030
  439TMC3    O2 6606   0.516   3.724  16.158  0.0174 -0.5918 -0.6141
  440MPD2     C 6607   3.164   4.245  15.194 -0.6192 -0.0675 -0.1054
  440MPD2    C1 6608   3.242   4.359  15.161 -0.5495  0.5962 -0.0342
  440MPD2    C2 6609   3.375   4.345  15.122  0.0699 -0.6340 -0.3359
  440MPD2    C3 6610   3.425   4.221  15.107 -0.0994  0.0720 -0.2857
  440MPD2    C4 6611   3.351   4.110  15.139 -0.4544 -0.7976  0.0803
  440MPD2    C5 6612   3.223   4.119  15.176 -0.1045  0.7157  0.1022
  440MPD2     H 6613   3.426   4.437  15.097 -0.2417 -0.1788  0.6904
  440MPD2    H1 6614   3.387   4.010  15.119 -0.6904 -0.8461 -0.1110
  440MPD2    H2 6615   3.064   4.255  15.236  0.0221  0.2413  1.3306
  440MPD2    H3 6616   3.169   4.034  15.214 -2.2957  1.6938 -0.8523
  440MPD2     N 6617   3.564   4.197  15.086 -0.1810  0.0633  0.1252
  440MPD2    H5 6618   3.592   4.100  15.082 -2.5271 -0.5487 -1.6629
  440MPD2    N1 6619   3.197   4.492  15.182  0.6380  0.1068 -0.3395
  440MPD2    H7 6620   3.264   4.569  15.181  1.1789 -0.3391  0.7308
  441TMC3    C1 6621   3.794   4.232  15.090  0.1900 -0.7448  0.6762
  441TMC3    C2 6622   3.898   4.324  15.105 -0.3059 -0.3331  0.8326
  441TMC3    C3 6623   3.994   4.302  15.198 -0.2159 -0.0065  0.3169
  441TMC3    C4 6624   3.797   4.113  15.164  0.4812 -0.0591 -0.1758
  441TMC3    C5 6625   3.904   4.088  15.251  0.5433 -0.2077 -0.0990
  441TMC3    C6 6626   3.993   4.191  15.280  0.4618  0.4328 -0.0703
  441TMC3     C 6627   3.663   4.295  15.092 -0.4839  0.0124 -0.2727
  441TMC3     O 6628   3.660   4.417  15.123 -0.2018  0.4831 -0.3103
  441TMC3     H 6629   3.902   4.419  15.053  3.3571 -0.0202  1.6476
  441TMC3    H1 6630   3.719   4.038  15.169 -0.1527  0.6970  1.2561
  441TMC3    H2 6631   4.067   4.173  15.358  0.9593 -1.2159 -0.9267
  441TMC3    C7 6632   3.876   4.002  15.370 -0.4653 -0.2951 -0.2701
  441TMC3    C8 6633   4.036   4.426  15.261  0.5903  0.1967 -0.0038
  441TMC3    O1 6634   3.759   3.992  15.399  0.1396  0.3562  0.0410
  441TMC3    O2 6635   4.133   4.411  15.337  0.1890 -0.2903 -0.2448
  442MPD2     C 6636   1.929   0.003  16.672  0.9079  1.3463  1.0461
  442MPD2    C1 6637   1.803   4.691  16.704 -0.9235 -0.1212  0.0079
  442MPD2    C2 6638   1.760   4.587  16.626 -0.5244 -0.1918  0.3934
  442MPD2    C3 6639   1.836   4.537  16.522  0.7362  0.1886 -0.0054
  442MPD2    C4 6640   1.955   4.599  16.484 -0.3551 -0.1748 -0.5280
  442MPD2    C5 6641   2.000   4.699  16.564  0.0177 -0.3775 -0.1716
  442MPD2     H 6642   1.671   4.532  16.652  0.1311 -1.6795 -0.4995
  442MPD2    H1 6643   2.029   4.565  16.413  0.0101 -1.7165  0.5842
  442MPD2    H2 6644   1.976   0.081  16.731  0.1385  1.6509  1.2574
  442MPD2    H3 6645   2.089   0.016  16.538 -2.0270  2.2845 -1.5525
  442MPD2     N 6646   1.804   4.422  16.445  0.1334  0.4311 -0.2888
  442MPD2    H5 6647   1.877   4.385  16.385 -1.9876 -1.1865 -1.8475
  442MPD2    N1 6648   1.718   4.731  16.806 -0.1254  0.4488 -0.2618
  442MPD2    H7 6649   1.634   4.680  16.833  0.5036 -0.2515  0.3878
  443TMC3    C1 6650   1.618   0.125  16.944  0.1898  0.3705 -0.3722
  443TMC3    C2 6651   1.571   0.257  16.934 -0.7533  0.1571 -0.1200
  443TMC3    C3 6652   1.448   0.279  16.986 -0.3949 -0.1390 -0.8395
  443TMC3    C4 6653   1.546   0.026  16.995 -0.2342  0.3294  0.0916
  443TMC3    C5 6654   1.422   0.053  17.047  0.5045 -0.5043 -0.4991
  443TMC3    C6 6655   1.377   0.183  17.049  0.3403  0.5244 -0.2745
  443TMC3     C 6656   1.744   0.099  16.879 -0.8413  0.3165 -0.2097
  443TMC3     O 6657   1.823   0.189  16.855 -0.1774 -0.3746 -0.3259
  443TMC3     H 6658   1.626   0.335  16.883  1.9027 -1.9234 -0.4291
  443TMC3    H1 6659   1.579   4.662  17.003  3.9591  1.5838 -0.7071
  443TMC3    H2 6660   1.280   0.207  17.091  0.3941 -1.7892  1.1911
  443TMC3    C7 6661   1.358   4.687  17.115  0.2057 -0.6309 -0.4532
  443TMC3    C8 6662   1.377   0.413  16.985  0.4667 -0.4005  0.0590
  443TMC3    O1 6663   1.394   4.579  17.072  0.4210 -0.3925 -0.6482
  443TMC3    O2 6664   1.273   0.419  17.051  0.5071  0.2106 -0.1220
  444MPD2     C 6665   1.889   4.476  16.969  0.3009  0.4847 -0.3519
  444MPD2    C1 6666   1.815   4.359  16.968 -0.1745 -0.1723 -0.5978
  444MPD2    C2 6667   1.836   4.273  16.852 -0.1517 -0.1017  0.2321
  444MPD2    C3 6668   1.950   4.285  16.771  0.2744  0.7485  0.2530
  444MPD2    C4 6669   2.031   4.400  16.786  0.0855  0.0766 -0.5138
  444MPD2    C5 6670   2.003   4.488  16.888 -0.0841  0.4545  0.0544
  444MPD2     H 6671   1.781   4.179  16.847  1.9628 -1.4090  1.6918
  444MPD2    H1 6672   2.119   4.425  16.728 -2.2027  2.3699 -2.9725
  444MPD2    H2 6673   1.873   4.548  17.048  0.1563 -1.7341  1.6038
  444MPD2    H3 6674   2.068   4.575  16.897  0.7996 -0.2809  0.7984
  444MPD2     N 6675   1.986   4.185  16.680 -0.0123  0.1112  0.1601
  444MPD2    H5 6676   1.926   4.104  16.667  0.5287 -0.3764  0.7009
  444MPD2    N1 6677   1.703   4.332  17.052  0.4611  0.1710 -0.0290
  444MPD2    H7 6678   1.650   4.248  17.030  0.1972  0.5625 -0.8930
  445TMC3    C1 6679   2.131   4.066  16.529 -0.1709 -0.2652 -0.0793
  445TMC3    C2 6680   2.017   4.031  16.463 -0.2191  0.2199  0.0786
  445TMC3    C3 6681   2.003   3.899  16.426  0.4969 -0.1549  0.2886
  445TMC3    C4 6682   2.233   3.977  16.550  0.0404  0.8069 -0.2881
  445TMC3    C5 6683   2.224   3.851  16.500  0.2773  0.1529  0.1025
  445TMC3    C6 6684   2.109   3.810  16.430  0.4986 -0.1986 -0.5967
  445TMC3     C 6685   2.115   4.175  16.627 -0.0611  0.3395 -0.4217
  445TMC3     O 6686   2.219   4.227  16.676 -0.7580  0.2068  0.6996
  445TMC3     H 6687   1.945   4.108  16.437  0.1590  0.7624  0.6172
  445TMC3    H1 6688   2.316   4.007  16.614  0.7254 -1.7190  0.0210
  445TMC3    H2 6689   2.105   3.713  16.382 -1.1243 -1.2639  1.7258
  445TMC3    C7 6690   2.345   3.767  16.504  0.2297  1.2864  0.2162
  445TMC3    C8 6691   1.895   3.875  16.331  0.2732 -0.0942  0.0024
  445TMC3    O1 6692   2.448   3.825  16.534  0.2323  0.4841 -0.3145
  445TMC3    O2 6693   1.811   3.961  16.301 -0.1806  0.1658  0.4079
  446MPD2     C 6694   0.975   1.014  11.570 -0.3280  0.3349  0.0172
  446MPD2    C1 6695   0.947   1.065  11.444 -0.0248 -0.0373  0.1725
  446MPD2    C2 6696   1.033   1.159  11.391  0.8753 -0.0195  0.3887
  446MPD2    C3 6697   1.154   1.188  11.456 -0.4246 -0.2990 -0.1789
  446MPD2    C4 6698   1.176   1.132  11.578  0.0374 -0.2409  0.6697
  446MPD2    C5 6699   1.092   1.040  11.635  0.4990  0.5414 -0.2549
  446MPD2     H 6700   1.014   1.206  11.296  2.9831 -0.1517 -0.1087
  446MPD2    H1 6701   1.242   1.181  11.649  1.5251 -0.1495 -0.7891
  446MPD2    H2 6702   0.899   0.952  11.616  0.7880  0.1993  1.6889
  446MPD2    H3 6703   1.108   0.999  11.734  1.0191  0.6883 -0.2784
  446MPD2     N 6704   1.236   1.285  11.392  0.4198  0.3242  0.4719
  446MPD2    H5 6705   1.197   1.326  11.307  1.3831  2.1189  0.8939
  446MPD2    N1 6706   0.856   1.010  11.354  0.3678  0.0892 -0.0431
  446MPD2    H7 6707   0.882   1.022  11.257  0.7419  0.2864  0.0819
  447TMC3    C1 6708   1.408   1.426  11.352  0.1903 -0.4574  0.0579
  447TMC3    C2 6709   1.374   1.437  11.223  0.0391 -0.0152 -0.4715
  447TMC3    C3 6710   1.437   1.536  11.144 -0.1824  0.2632 -0.1137
  447TMC3    C4 6711   1.529   1.479  11.392 -0.0934 -0.3056 -0.5591
  447TMC3    C5 6712   1.598   1.568  11.307 -0.9049 -0.4789  0.1852
  447TMC3    C6 6713   1.544   1.611  11.189  0.0694 -0.2162  0.9046
  447TMC3     C 6714   1.352   1.327  11.432 -0.1955  0.8718  0.5765
  447TMC3     O 6715   1.419   1.280  11.521  0.1267 -0.2269 -0.1761
  447TMC3     H 6716   1.274   1.409  11.192  0.1125 -0.4278 -0.3298
  447TMC3    H1 6717   1.549   1.478  11.498 -1.6658  1.4999 -0.2292
  447TMC3    H2 6718   1.590   1.687  11.128  1.3128 -0.8856  1.0147
  447TMC3    C7 6719   1.744   1.545  11.299  0.5240 -0.0938 -0.2438
  447TMC3    C8 6720   1.471   1.492  11.007 -0.2255 -0.4717 -0.2108
  447TMC3    O1 6721   1.797   1.479  11.386 -0.4771 -0.1986  0.2722
  447TMC3    O2 6722   1.562   1.550  10.951 -0.2892  0.4503 -0.0037
  448TMC3    C1 6723   0.738   0.725  16.602 -0.2511  0.2470 -0.3560
  448TMC3    C2 6724   0.753   0.605  16.538  0.0085 -0.7453 -0.1114
  448TMC3    C3 6725   0.756   0.496  16.621  0.7479 -1.1891  0.0962
  448TMC3    C4 6726   0.735   0.747  16.737  0.5646 -0.6540 -0.4847
  448TMC3    C5 6727   0.750   0.634  16.812 -0.1831 -0.0258  0.9894
  448TMC3    C6 6728   0.754   0.510  16.757  0.0265 -0.4629 -0.1220
  448TMC3     C 6729   0.749   0.841  16.522 -0.2035  0.0270  0.3951
  448TMC3     O 6730   0.815   0.936  16.562 -0.1183 -0.3085 -0.1138
  448TMC3     H 6731   0.758   0.606  16.429 -1.4935 -0.0555 -0.1606
  448TMC3    H1 6732   0.747   0.845  16.782 -0.1233 -1.3150  1.1459
  448TMC3    H2 6733   0.778   0.421  16.815 -2.1986 -2.3980 -2.1307
  448TMC3    C7 6734   0.746   0.647  16.953 -0.3548 -0.6290  0.3969
  448TMC3    C8 6735   0.734   0.368  16.569 -0.6102 -0.3136  0.6922
  448TMC3    O1 6736   0.770   0.754  17.008 -0.4372  0.1124 -0.3768
  448TMC3    O2 6737   0.678   0.296  16.649  0.2980  0.1103 -0.4275
  449MPD2     C 6738   1.352   3.782  13.946 -0.3659  0.6633 -0.3730
  449MPD2    C1 6739   1.231   3.803  13.883 -0.1247  0.4175 -0.1684
  449MPD2    C2 6740   1.120   3.829  13.959  1.5884  0.8607  0.3720
  449MPD2    C3 6741   1.126   3.835  14.095  0.0609 -0.1330  0.0249
  449MPD2    C4 6742   1.248   3.813  14.154  0.3263  0.3352  0.5527
  449MPD2    C5 6743   1.361   3.790  14.081  0.4853 -0.3239  1.1288
  449MPD2     H 6744   1.030   3.842  13.900  0.4584  0.2123  1.9555
  449MPD2    H1 6745   1.245   3.802  14.262  1.0688 -3.3860  0.1692
  449MPD2    H2 6746   1.438   3.763  13.884 -0.4649 -0.5880 -0.1143
  449MPD2    H3 6747   1.455   3.756  14.123  0.4413 -1.9202 -0.0248
  449MPD2     N 6748   1.005   3.852  14.166  0.2436  0.4099 -0.3629
  449MPD2    H5 6749   0.920   3.832  14.114  1.8223 -2.4730 -1.8167
  449MPD2    N1 6750   1.212   3.810  13.742  0.3090 -0.2180  0.1207
  449MPD2    H7 6751   1.114   3.822  13.718  0.2624 -0.4493  0.1939
  450TMC3    C1 6752   1.251   3.885  13.514  0.9301 -0.2155 -0.2822
  450TMC3    C2 6753   1.297   4.016  13.484  0.8910  0.7290 -0.2480
  450TMC3    C3 6754   1.205   4.104  13.446  0.6590 -0.7352  0.0417
  450TMC3    C4 6755   1.119   3.861  13.507  0.2686  0.1006  0.2318
  450TMC3    C5 6756   1.030   3.964  13.491  0.6162  0.3048 -0.5504
  450TMC3    C6 6757   1.073   4.087  13.457  0.2001 -0.4095  0.2162
  450TMC3     C 6758   1.306   3.838  13.639  0.9452 -0.0956  0.0411
  450TMC3     O 6759   1.425   3.858  13.657  0.0382 -0.5087  0.2891
  450TMC3     H 6760   1.401   4.037  13.504  0.9519 -2.2544  2.6535
  450TMC3    H1 6761   1.095   3.758  13.528 -0.1411 -0.0320 -0.8928
  450TMC3    H2 6762   1.013   4.177  13.449 -0.7085 -1.1690 -1.6686
  450TMC3    C7 6763   0.923   3.964  13.585  0.6694  0.0525  0.3152
  450TMC3    C8 6764   1.254   4.202  13.349  0.6330 -0.1039  0.1383
  450TMC3    O1 6765   0.909   3.871  13.666  0.3773  0.5547 -0.0100
  450TMC3    O2 6766   1.216   4.313  13.371 -0.3826  0.0604  0.3445
  451MPD2     C 6767   2.712   2.745   0.363 -0.1617 -0.2898  0.3152
  451MPD2    C1 6768   2.675   2.678   0.477  0.0586 -0.4283 -0.9048
  451MPD2    C2 6769   2.737   2.562   0.511  0.4573  0.3074  0.0273
  451MPD2    C3 6770   2.843   2.515   0.425  0.1845 -0.4032  0.4867
  451MPD2    C4 6771   2.872   2.586   0.308  0.0570  0.2217  0.0336
  451MPD2    C5 6772   2.805   2.701   0.276  0.4570 -0.1750 -0.6587
  451MPD2     H 6773   2.707   2.498   0.594 -0.1098 -1.4791 -1.5710
  451MPD2    H1 6774   2.959   2.560   0.250  0.3082  3.3993 -0.9607
  451MPD2    H2 6775   2.663   2.838   0.334  0.3410  0.1781  0.9746
  451MPD2    H3 6776   2.828   2.754   0.184 -1.1765  0.9234 -0.4416
  451MPD2     N 6777   2.921   2.399   0.452  0.2997 -0.2609 -0.4445
  451MPD2    H5 6778   2.994   2.372   0.387  0.2915 -0.3499 -0.4172
  451MPD2    N1 6779   2.574   2.739   0.554 -0.1084 -0.2277  0.7850
  451MPD2    H7 6780   2.536   2.825   0.518  1.9905  0.7487  0.8754
  452TMC3    C1 6781   2.993   2.198   0.544  0.1764  0.0240  0.4760
  452TMC3    C2 6782   2.950   2.085   0.601  0.0839  0.3746  0.5241
  452TMC3    C3 6783   3.031   1.976   0.577 -0.3647  0.0921  0.3719
  452TMC3    C4 6784   3.111   2.213   0.478  0.0631 -0.1407 -0.0474
  452TMC3    C5 6785   3.190   2.104   0.461  0.0530 -0.0779 -0.0517
  452TMC3    C6 6786   3.149   1.981   0.512 -0.1194  0.2154  0.1646
  452TMC3     C 6787   2.898   2.308   0.549 -0.8653  0.2672 -0.2674
  452TMC3     O 6788   2.797   2.299   0.617  0.2463 -0.3715  0.2959
  452TMC3     H 6789   2.858   2.087   0.658 -0.0103  0.3684  0.3723
  452TMC3    H1 6790   3.145   2.311   0.444 -1.7822  0.4156 -0.3090
  452TMC3    H2 6791   3.223   1.901   0.506  0.6573  0.8124  1.9220
  452TMC3    C7 6792   3.303   2.117   0.364 -0.1546  0.0246 -0.0370
  452TMC3    C8 6793   2.976   1.840   0.597  0.2381  0.0045 -0.1626
  452TMC3    O1 6794   3.303   2.233   0.320  0.4447 -0.4848 -0.3099
  452TMC3    O2 6795   3.031   1.750   0.532  0.4502 -0.0151 -0.1135
  453TMC3    C1 6796   3.413   0.131  12.296 -0.6473  0.0467 -0.0833
  453TMC3    C2 6797   3.304   0.082  12.229  0.2278  0.2297  0.4609
  453TMC3    C3 6798   3.261   0.159  12.123  0.2015  0.7982 -0.1840
  453TMC3    C4 6799   3.480   0.242  12.261 -0.6993  0.1687 -0.5381
  453TMC3    C5 6800   3.425   0.323  12.159 -0.5404  0.4443  0.1265
  453TMC3    C6 6801   3.308   0.284  12.103 -0.0462  0.8544 -0.1104
  453TMC3     C 6802   3.496   0.034  12.364 -0.2069  0.3886 -0.4536
  453TMC3     O 6803   3.614   0.060  12.387  0.5603  0.4791  0.4335
  453TMC3     H 6804   3.265   4.721  12.246 -2.9002  1.4267  0.2389
  453TMC3    H1 6805   3.579   0.262  12.302 -1.0667  0.2771  0.2922
  453TMC3    H2 6806   3.277   0.353  12.026 -3.0354 -1.7629 -1.2377
  453TMC3    C7 6807   3.521   0.366  12.061 -0.5859  0.3667  0.1221
  453TMC3    C8 6808   3.279   0.083  11.998 -0.3130  0.7821  0.1667
  453TMC3    O1 6809   3.606   0.286  12.022 -0.1752 -0.6595  0.2308
  453TMC3    O2 6810   3.283   0.153  11.895 -0.2499 -0.3474 -0.5496
  454MPD2     C 6811   2.783   3.992  16.216  0.3562  0.1217 -0.9600
  454MPD2    C1 6812   2.714   4.051  16.112  0.6962  0.1123  0.2633
  454MPD2    C2 6813   2.669   4.183  16.115 -0.5369 -0.2531 -0.0208
  454MPD2    C3 6814   2.706   4.268  16.221 -0.4457 -0.0379  0.2950
  454MPD2    C4 6815   2.783   4.213  16.325 -0.0302 -0.0695  0.8696
  454MPD2    C5 6816   2.816   4.078  16.319  0.6520 -0.5780 -0.0805
  454MPD2     H 6817   2.614   4.224  16.031 -2.0644  0.6100  1.4105
  454MPD2    H1 6818   2.824   4.278  16.401  0.1215  1.5301 -0.5768
  454MPD2    H2 6819   2.816   3.889  16.221  2.6331  1.0891  3.4727
  454MPD2    H3 6820   2.875   4.029  16.395  1.7658  0.4404 -0.2850
  454MPD2     N 6821   2.653   4.400  16.230  0.0212  0.2210 -0.6521
  454MPD2    H5 6822   2.679   4.449  16.315 -2.0293 -1.6630  1.0701
  454MPD2    N1 6823   2.683   3.978  15.997 -0.7373  0.2522  0.1973
  454MPD2    H7 6824   2.637   4.031  15.924  0.3403  0.6785 -0.1696
  455TMC3    C1 6825   2.455   4.532  16.219 -0.0614  0.1089 -0.6709
  455TMC3    C2 6826   2.474   4.587  16.345 -0.4466  0.6547 -0.5663
  455TMC3    C3 6827   2.391   4.539  16.447 -0.0364 -0.1094  0.5664
  455TMC3    C4 6828   2.337   4.461  16.192 -0.4914  0.0805 -0.0132
  455TMC3    C5 6829   2.246   4.436  16.293  0.3816  0.2893  0.5150
  455TMC3    C6 6830   2.279   4.468  16.425 -0.6489  0.4786 -0.5397
  455TMC3     C 6831   2.562   4.463  16.154  0.1637 -0.7211 -0.2366
  455TMC3     O 6832   2.546   4.457  16.030  0.3555 -0.1264 -0.0510
  455TMC3     H 6833   2.565   4.643  16.362 -1.3018  1.6209  0.8027
  455TMC3    H1 6834   2.312   4.424  16.093 -0.2866 -0.2972  0.0750
  455TMC3    H2 6835   2.212   4.442  16.506  3.2772 -2.8146  1.6761
  455TMC3    C7 6836   2.182   4.307  16.283 -0.0459 -0.7839 -0.2259
  455TMC3    C8 6837   2.395   4.594  16.583 -0.7517 -0.8884  0.1918
  455TMC3    O1 6838   2.068   4.289  16.316 -0.4661  0.4471  0.2493
  455TMC3    O2 6839   2.292   4.594  16.658  0.0866 -0.1984  0.0314
  456MPD2     C 6840   0.213   3.984  16.000  0.2709  0.2833  0.1878
  456MPD2    C1 6841   0.329   4.066  15.989  0.2762  0.1476  0.7005
  456MPD2    C2 6842   0.351   4.155  16.089  0.2503  0.2929  0.0949
  456MPD2    C3 6843   0.284   4.162  16.205 -0.8567 -0.1403  0.0332
  456MPD2    C4 6844   0.173   4.078  16.222 -0.5799 -0.3098 -0.0240
  456MPD2    C5 6845   0.134   3.998  16.120  0.1483 -0.0253 -0.8077
  456MPD2     H 6846   0.436   4.222  16.086  1.3348 -1.0529  0.7584
  456MPD2    H1 6847   0.112   4.082  16.311 -0.2329  0.1933  0.1909
  456MPD2    H2 6848   0.176   3.913  15.927 -0.2521 -1.2998  2.0083
  456MPD2    H3 6849   0.043   3.940  16.124  0.6119 -0.5756  1.6347
  456MPD2     N 6850   0.347   4.236  16.310 -0.3543 -0.4904 -0.3255
  456MPD2    H5 6851   0.428   4.291  16.286  1.2426 -1.8797  1.9158
  456MPD2    N1 6852   0.408   4.036  15.873  0.3934  0.0765  0.3646
  456MPD2    H7 6853   0.383   3.959  15.812  0.1487  0.5012 -0.0693
  457TMC3    C1 6854   0.406   4.296  16.531 -0.1451  0.1071  0.4166
  457TMC3    C2 6855   0.457   4.411  16.488 -0.1754 -0.2364 -0.2723
  457TMC3    C3 6856   0.540   4.473  16.569  0.7114 -0.6282 -0.4329
  457TMC3    C4 6857   0.436   4.235  16.653  0.0824  0.1788 -0.4676
  457TMC3    C5 6858   0.514   4.310  16.736  0.1539  0.8396 -0.2295
  457TMC3    C6 6859   0.571   4.431  16.691  0.2086 -0.4735 -0.9761
  457TMC3     C 6860   0.310   4.230  16.446  0.6309  0.7874  0.1980
  457TMC3     O 6861   0.222   4.162  16.499 -0.1996  0.7689 -0.6074
  457TMC3     H 6862   0.430   4.455  16.392  1.1558  0.7392 -0.1936
  457TMC3    H1 6863   0.397   4.139  16.685  0.4870  0.6279  1.3929
  457TMC3    H2 6864   0.645   4.484  16.750 -1.1714 -1.1008  1.3359
  457TMC3    C7 6865   0.531   4.259  16.870 -0.2176  0.2682  0.1774
  457TMC3    C8 6866   0.570   4.611  16.541 -0.3311  0.0349 -0.7006
  457TMC3    O1 6867   0.529   4.135  16.891  0.1772 -0.2710  0.3745
  457TMC3    O2 6868   0.597   4.680  16.634 -0.2612 -0.0791 -0.7911
  458MPD2     C 6869   2.524   3.851  12.597  0.3276 -0.1557 -0.8834
  458MPD2    C1 6870   2.517   3.767  12.704  0.1010 -0.2434  0.1343
  458MPD2    C2 6871   2.413   3.678  12.716 -0.2818  0.9952  0.2844
  458MPD2    C3 6872   2.322   3.668  12.616  0.6952 -0.1175 -0.3200
  458MPD2    C4 6873   2.340   3.743  12.502  0.4878 -0.2177 -0.9260
  458MPD2    C5 6874   2.428   3.846  12.497  0.1937 -0.7490 -0.1523
  458MPD2     H 6875   2.402   3.616  12.805 -2.3784 -1.4662 -1.6788
  458MPD2    H1 6876   2.291   3.728  12.407  0.0265  1.3547 -0.9354
  458MPD2    H2 6877   2.590   3.936  12.591  1.5741 -1.0929 -0.3100
  458MPD2    H3 6878   2.416   3.923  12.422 -1.9644 -0.0556  0.9278
  458MPD2     N 6879   2.223   3.567  12.618  0.4105 -0.1652  0.1574
  458MPD2    H5 6880   2.225   3.513  12.705  1.3934 -1.4296 -0.6574
  458MPD2    N1 6881   2.623   3.776  12.798  1.1645 -0.2494  0.4753
  458MPD2    H7 6882   2.702   3.833  12.773 -1.2814  3.0737  0.3446
  459TMC3    C1 6883   2.763   3.682  12.975  0.0344  0.1492 -0.4244
  459TMC3    C2 6884   2.882   3.720  12.918  0.1916 -0.6872  0.0851
  459TMC3    C3 6885   2.994   3.670  12.970  0.2135  0.3346  0.1139
  459TMC3    C4 6886   2.766   3.591  13.083  0.0646  0.4232  0.1117
  459TMC3    C5 6887   2.884   3.542  13.131  0.0002  0.7277  0.6780
  459TMC3    C6 6888   3.005   3.579  13.072 -0.1013 -0.4949  0.1520
  459TMC3     C 6889   2.632   3.714  12.923 -0.7742  0.3152 -0.7228
  459TMC3     O 6890   2.539   3.672  12.984 -0.4245  0.4854  0.2346
  459TMC3     H 6891   2.893   3.791  12.838 -2.1852  0.5161  0.8247
  459TMC3    H1 6892   2.670   3.556  13.119 -0.0547  0.8270  0.1876
  459TMC3    H2 6893   3.097   3.552  13.122  0.5213 -1.6575 -1.6124
  459TMC3    C7 6894   2.881   3.417  13.205  0.2343  0.4602 -0.2398
  459TMC3    C8 6895   3.117   3.731  12.926 -0.3686  0.2907 -0.3390
  459TMC3    O1 6896   2.956   3.324  13.165 -0.0877  0.3725 -0.0337
  459TMC3    O2 6897   3.133   3.768  12.811  0.9515  0.2449 -0.3731
  460MPD2     C 6898   1.419   1.147  10.888 -0.7287  0.4907  0.7868
  460MPD2    C1 6899   1.440   1.281  10.873 -0.2252  0.0311  0.9919
  460MPD2    C2 6900   1.475   1.329  10.749  0.0488  0.1231 -0.1398
  460MPD2    C3 6901   1.501   1.236  10.646 -0.5219 -0.1907 -0.4745
  460MPD2    C4 6902   1.474   1.107  10.660 -0.1962  0.5214 -0.6947
  460MPD2    C5 6903   1.433   1.060  10.784  0.5296 -0.3305 -0.2881
  460MPD2     H 6904   1.488   1.436  10.736 -3.2669  0.4192 -1.0054
  460MPD2    H1 6905   1.469   1.034  10.580 -0.9328 -0.9786  0.7061
  460MPD2    H2 6906   1.393   1.117  10.989  1.5276 -0.8720  0.9401
  460MPD2    H3 6907   1.397   0.959  10.799 -0.3385 -0.2461 -1.8081
  460MPD2     N 6908   1.520   1.288  10.515  0.6111  0.1916 -1.0273
  460MPD2    H5 6909   1.502   1.387  10.500 -1.7830 -0.4896 -2.6053
  460MPD2    N1 6910   1.417   1.365  10.982 -0.4042 -0.0999  0.3930
  460MPD2    H7 6911   1.364   1.325  11.059 -0.6422 -0.5975 -0.0234
  461TMC3    C1 6912   1.575   1.279  10.286 -0.2157  0.2819  0.2911
  461TMC3    C2 6913   1.576   1.198  10.177 -0.1161  0.0954 -0.3518
  461TMC3    C3 6914   1.580   1.248  10.051 -0.3695  0.1100  0.4408
  461TMC3    C4 6915   1.589   1.414  10.282  0.2462 -0.1499 -0.5162
  461TMC3    C5 6916   1.611   1.463  10.149  0.1544 -1.0668  0.3227
  461TMC3    C6 6917   1.604   1.390  10.036 -0.2799 -0.3318  0.8701
  461TMC3     C 6918   1.564   1.208  10.413  0.2994  0.0961 -0.2331
  461TMC3     O 6919   1.608   1.097  10.405 -0.3976  0.0618  0.0858
  461TMC3     H 6920   1.565   1.091  10.186  1.0550 -0.0270 -0.3514
  461TMC3    H1 6921   1.566   1.485  10.361 -0.3070 -2.5755  1.4851
  461TMC3    H2 6922   1.606   1.438   9.939  0.4658  0.7655  1.4341
  461TMC3    C7 6923   1.626   1.607  10.127  0.7153  0.3159  0.1831
  461TMC3    C8 6924   1.563   1.165   9.931 -0.2781 -0.7423 -0.4402
  461TMC3    O1 6925   1.615   1.661  10.018 -0.0033 -0.7488  0.3131
  461TMC3    O2 6926   1.614   1.211   9.828 -0.3455 -0.0019 -0.3496
  462TMC3    C1 6927   2.424   1.994   0.271 -0.1951  0.3831  0.4822
  462TMC3    C2 6928   2.483   1.868   0.243 -0.3716 -0.8831 -0.6510
  462TMC3    C3 6929   2.403   1.758   0.247  0.1468 -0.0724 -0.6830
  462TMC3    C4 6930   2.293   2.012   0.300 -0.0086  0.1119 -1.0872
  462TMC3    C5 6931   2.222   1.895   0.313  0.0353 -0.0087  0.1698
  462TMC3    C6 6932   2.277   1.768   0.288  0.3834 -0.2443  0.7596
  462TMC3     C 6933   2.512   2.102   0.243 -0.2124 -0.3257 -0.4374
  462TMC3     O 6934   2.451   2.196   0.196  0.0125  0.3501  0.1655
  462TMC3     H 6935   2.581   1.848   0.204 -0.3285 -0.3302 -0.8338
  462TMC3    H1 6936   2.266   2.109   0.340  0.8444 -0.0003 -0.2661
  462TMC3    H2 6937   2.210   1.683   0.280 -1.0566  0.9557 -0.0924
  462TMC3    C7 6938   2.078   1.895   0.329  0.7137  0.5016 -0.2242
  462TMC3    C8 6939   2.442   1.644   0.167  0.0259  0.3369 -0.0515
  462TMC3    O1 6940   2.019   1.790   0.353  0.3162 -0.2125 -0.2769
  462TMC3    O2 6941   2.531   1.664   0.084 -0.5601  0.1028  1.0930
  463MPD2     C 6942   3.902   0.103   1.589 -0.3542  0.3503 -0.4014
  463MPD2    C1 6943   3.812   0.200   1.543  0.1471 -0.1642  0.5181
  463MPD2    C2 6944   3.866   0.326   1.545 -0.7705  0.0878  0.2060
  463MPD2    C3 6945   3.995   0.363   1.594 -0.5873 -0.8559 -0.2570
  463MPD2    C4 6946   4.075   0.261   1.642  0.5413 -0.4917  0.2493
  463MPD2    C5 6947   4.026   0.132   1.635 -0.2890  0.5594  0.6104
  463MPD2     H 6948   3.810   0.412   1.509 -1.9133 -0.5199  0.5412
  463MPD2    H1 6949   4.169   0.287   1.690  1.8505 -2.5201 -1.1859
  463MPD2    H2 6950   3.876   4.737   1.592 -0.5120  0.4277  0.6627
  463MPD2    H3 6951   4.099   0.055   1.658  0.4075  0.8699 -0.5840
  463MPD2     N 6952   4.049   0.500   1.594 -0.1404  1.3339 -0.6652
  463MPD2    H5 6953   4.147   0.493   1.618 -0.5076  3.4621  1.3922
  463MPD2    N1 6954   3.681   0.179   1.499 -0.1075  0.0199  0.4896
  463MPD2    H7 6955   3.634   0.257   1.455  2.3175  0.9778 -0.4017
  464TMC3    C1 6956   3.487   0.061   1.448 -0.2708 -0.5968 -0.3143
  464TMC3    C2 6957   3.402   0.155   1.504 -0.5031 -0.3782 -0.4389
  464TMC3    C3 6958   3.268   0.138   1.499 -0.2251  0.4034  0.1668
  464TMC3    C4 6959   3.436   4.691   1.389 -0.9198  0.7068  0.4878
  464TMC3    C5 6960   3.299   4.676   1.374 -0.1728  0.2256  0.0860
  464TMC3    C6 6961   3.217   0.031   1.426 -0.1471 -0.0745  0.3170
  464TMC3     C 6962   3.619   0.053   1.497 -0.4416  0.1315  0.1434
  464TMC3     O 6963   3.670   4.681   1.513 -0.4375 -0.1032  0.3894
  464TMC3     H 6964   3.440   0.245   1.549  0.3530 -0.3978 -1.1185
  464TMC3    H1 6965   3.506   4.622   1.342 -3.3822 -0.6909 -1.1032
  464TMC3    H2 6966   3.110   0.016   1.421 -0.2083  1.2490 -2.2338
  464TMC3    C7 6967   3.250   4.561   1.291 -0.4669 -0.6474 -0.4130
  464TMC3    C8 6968   3.172   0.237   1.549 -0.3432  0.5830  0.8138
  464TMC3    O1 6969   3.319   4.466   1.257  0.2213 -0.0845  0.3948
  464TMC3    O2 6970   3.056   0.229   1.510 -0.1286  0.4204 -0.0567
  465MPD2     C 6971   4.329   3.896  16.958  0.0936 -0.3044  0.7751
  465MPD2    C1 6972   4.193   3.896  16.999  0.1470  0.5471  0.9950
  465MPD2    C2 6973   4.089   3.950  16.919 -0.3295 -0.3757  0.4903
  465MPD2    C3 6974   4.116   4.018  16.799  0.4277  0.2140 -0.1250
  465MPD2    C4 6975   4.250   4.002  16.754  0.1695  0.5696  0.3091
  465MPD2    C5 6976   4.352   3.945  16.832 -0.4107 -0.2596  0.2887
  465MPD2     H 6977   3.989   3.963  16.958 -0.2384  0.7230  0.3713
  465MPD2    H1 6978   4.273   4.058  16.664 -0.4669  2.2687  1.2006
  465MPD2    H2 6979   4.403   3.833  17.006 -1.1552 -1.0361  1.7407
  465MPD2    H3 6980   4.452   3.938  16.791 -0.3557  2.7719 -0.0529
  465MPD2     N 6981   4.012   4.096  16.731 -0.2100  0.6150  0.3969
  465MPD2    H5 6982   3.921   4.073  16.770 -0.2399 -0.6059 -0.3853
  465MPD2    N1 6983   4.152   3.848  17.132  0.1627  0.1260 -0.3437
  465MPD2    H7 6984   4.055   3.868  17.153 -0.3284 -0.8083 -1.6931
  466TMC3    C1 6985   3.702   4.170  16.457  0.0935  0.2131  0.1491
  466TMC3    C2 6986   3.706   4.292  16.396  0.2968  0.8380 -0.1181
  466TMC3    C3 6987   3.810   4.377  16.411 -0.2053  0.2841 -0.0972
  466TMC3    C4 6988   3.802   4.138  16.548  0.0667 -0.8907  0.1489
  466TMC3    C5 6989   3.901   4.228  16.574 -0.5499 -0.4568 -0.5908
  466TMC3    C6 6990   3.902   4.354  16.511 -0.5364 -0.2436 -0.6242
  466TMC3     C 6991   3.581   4.133  16.518 -0.5908 -0.8417 -0.5774
  466TMC3     O 6992   3.584   4.050  16.609  0.5100 -0.4854 -0.1379
  466TMC3     H 6993   3.640   4.325  16.317  1.1704  1.2681 -0.6673
  466TMC3    H1 6994   3.807   4.036  16.584 -1.2477 -1.0108  0.0173
  466TMC3    H2 6995   3.994   4.408  16.529 -0.4274 -0.2169 -1.2599
  466TMC3    C7 6996   4.030   4.177  16.623 -0.0816  0.8154  0.0424
  466TMC3    C8 6997   3.790   4.509  16.365 -0.0952 -0.1129  0.2862
  466TMC3    O1 6998   4.131   4.229  16.577 -0.4116  0.1736 -0.3251
  466TMC3    O2 6999   3.748   4.528  16.247 -0.5514  0.2046  0.1925
  467TMC3    C1 7000   0.228   3.051  13.935 -0.5051 -0.1212  0.8136
  467TMC3    C2 7001   0.127   3.137  13.902 -0.4348 -0.3450 -0.2438
  467TMC3    C3 7002   0.016   3.082  13.842  0.0327  0.2246 -0.1774
  467TMC3    C4 7003   0.194   2.919  13.934 -0.5761  0.0572 -0.0304
  467TMC3    C5 7004   0.070   2.871  13.898 -0.1092  0.4775  0.6119
  467TMC3    C6 7005   4.714   2.954  13.850 -0.2327 -0.1155  0.2203
  467TMC3     C 7006   0.366   3.084  13.904 -0.8720  0.4998  0.6024
  467TMC3     O 7007   0.395   3.198  13.944  0.1512  1.0928  0.1613
  467TMC3     H 7008   0.156   3.239  13.880 -0.4374  0.3335  2.7945
  467TMC3    H1 7009   0.267   2.845  13.963  0.0124  0.7459  0.2687
  467TMC3    H2 7010   4.627   2.922  13.793 -0.4228 -0.1993  0.5559
  467TMC3    C7 7011   0.017   2.761  13.979  0.5975  0.4606  0.4104
  467TMC3    C8 7012   0.032   3.131  13.697  0.0984  0.2416 -0.5773
  467TMC3    O1 7013   0.105   2.689  14.026 -0.0744  0.4042  0.0465
  467TMC3    O2 7014   0.035   3.252  13.682 -0.3892 -0.2004  0.6211
  468MPD2     C 7015   4.076   1.354  10.895  0.3846  0.5040  0.0543
  468MPD2    C1 7016   4.170   1.269  10.951 -0.4913  0.5259  0.1585
  468MPD2    C2 7017   4.154   1.132  10.935  0.2488  0.7292 -0.3499
  468MPD2    C3 7018   4.036   1.076  10.882  0.9572  0.1678 -0.4793
  468MPD2    C4 7019   3.951   1.161  10.828  0.9613 -0.1183 -0.5361
  468MPD2    C5 7020   3.969   1.298  10.833  0.4171  0.1744  0.3759
  468MPD2     H 7021   4.231   1.068  10.977  1.2870  1.7403 -0.7188
  468MPD2    H1 7022   3.870   1.120  10.769  0.7046 -1.0143  0.4418
  468MPD2    H2 7023   4.087   1.462  10.902  0.8085  0.4718 -0.1170
  468MPD2    H3 7024   3.902   1.371  10.790  0.0162 -0.0493  0.6231
  468MPD2     N 7025   4.022   0.939  10.861  0.1205  0.5213 -0.5401
  468MPD2    H5 7026   3.932   0.913  10.822  0.4661 -1.0437 -0.3024
  468MPD2    N1 7027   4.280   1.321  11.022  0.4280 -0.1927 -0.0440
  468MPD2    H7 7028   4.341   1.263  11.078  0.4827 -0.5294 -0.4493
  469TMC3    C1 7029   4.421   1.471  11.130  0.1239 -0.3022  0.0054
  469TMC3    C2 7030   4.511   1.364  11.145 -0.3546 -0.3291  0.0991
  469TMC3    C3 7031   4.581   1.352  11.259 -0.0006  0.8394  0.7380
  469TMC3    C4 7032   4.404   1.562  11.228 -0.5060  0.7778 -0.3981
  469TMC3    C5 7033   4.483   1.546  11.339 -1.0200 -0.2883 -0.5694
  469TMC3    C6 7034   4.570   1.437  11.358  0.2791  0.0414 -0.4282
  469TMC3     C 7035   4.308   1.453  11.037  0.3611  0.3412  0.4249
  469TMC3     O 7036   4.256   1.555  10.993 -0.3182  0.3449  0.7107
  469TMC3     H 7037   4.522   1.283  11.073 -2.4168  0.1394 -0.7522
  469TMC3    H1 7038   4.337   1.647  11.217 -1.5770 -0.0037  0.0238
  469TMC3    H2 7039   4.624   1.411  11.448 -0.3484  2.1113  0.5314
  469TMC3    C7 7040   4.466   1.639  11.451 -0.8229 -1.1961  0.1886
  469TMC3    C8 7041   4.632   1.217  11.287  0.4856  0.2583 -0.0660
  469TMC3    O1 7042   4.410   1.745  11.420 -0.0433  0.2474  0.5312
  469TMC3    O2 7043   4.706   1.158  11.207  0.4128  0.2133  0.4960
  470TMC3    C1 7044   1.280   2.306   0.534  0.7865 -0.3360  0.2887
  470TMC3    C2 7045   1.261   2.396   0.632 -0.1916 -0.5384 -0.1038
  470TMC3    C3 7046   1.261   2.350   0.760 -0.1557  0.2315  0.3290
  470TMC3    C4 7047   1.310   2.175   0.565  0.5675  0.0822 -0.6286
  470TMC3    C5 7048   1.306   2.131   0.693  0.2488  0.5345 -0.6476
  470TMC3    C6 7049   1.290   2.218   0.797  0.0132  0.3908 -0.5581
  470TMC3     C 7050   1.298   2.352   0.399  0.1113 -0.7076  0.3591
  470TMC3     O 7051   1.244   2.295   0.303  0.3891  0.0295  0.1576
  470TMC3     H 7052   1.260   2.499   0.600 -3.2780 -0.2579  0.9986
  470TMC3    H1 7053   1.319   2.115   0.475  2.4101  0.1064 -0.4606
  470TMC3    H2 7054   1.280   2.179   0.898 -0.6419 -1.9450 -1.5099
  470TMC3    C7 7055   1.294   1.984   0.708  0.4137  0.0206  0.2483
  470TMC3    C8 7056   1.246   2.457   0.864  0.0347  0.1117 -0.3439
  470TMC3    O1 7057   1.269   1.926   0.602  0.1614 -0.5691  0.4220
  470TMC3    O2 7058   1.292   2.451   0.978  0.0883  0.4132  0.1453
  471MPD2     C 7059   2.068   3.133  16.451  0.0665  0.1431  0.2322
  471MPD2    C1 7060   2.166   3.039  16.446 -0.2411  0.0504  0.8945
  471MPD2    C2 7061   2.240   3.009  16.559 -0.5972  0.1516 -0.3491
  471MPD2    C3 7062   2.211   3.078  16.677  0.1276 -0.2553 -0.6438
  471MPD2    C4 7063   2.124   3.181  16.682 -0.7700  0.6320  0.0165
  471MPD2    C5 7064   2.055   3.203  16.570 -0.0545  0.1133  0.8454
  471MPD2     H 7065   2.325   2.942  16.550 -0.4791  0.4525 -1.4536
  471MPD2    H1 7066   2.099   3.228  16.776 -0.0898 -0.8773  0.9622
  471MPD2    H2 7067   2.004   3.170  16.371 -2.0035 -1.8948  0.9722
  471MPD2    H3 7068   1.989   3.289  16.575  0.2920  0.4257  0.0337
  471MPD2     N 7069   2.280   3.052  16.801  0.1310  0.1389  0.4717
  471MPD2    H5 7070   2.284   3.116  16.880 -2.5042  0.2630  0.5202
  471MPD2    N1 7071   2.177   2.964  16.328 -0.1554 -0.1009 -0.2432
  471MPD2    H7 7072   2.236   2.882  16.338 -0.0943 -0.0650 -0.3103
  472TMC3    C1 7073   2.098   2.850  16.138 -0.3235 -0.1256  0.0298
  472TMC3    C2 7074   2.017   2.850  16.032 -0.0217  0.3867  0.8137
  472TMC3    C3 7075   1.995   2.726  15.967 -0.1441  0.4971 -0.1216
  472TMC3    C4 7076   2.124   2.728  16.201  0.2379  0.4156  0.4959
  472TMC3    C5 7077   2.093   2.610  16.136 -0.4379 -0.0550 -0.6662
  472TMC3    C6 7078   2.037   2.606  16.013 -0.5143 -0.1989 -0.6451
  472TMC3     C 7079   2.106   2.977  16.210 -0.6304 -0.0205  0.3987
  472TMC3     O 7080   2.046   3.072  16.164  0.1907 -0.2853 -0.3006
  472TMC3     H 7081   1.985   2.939  15.981 -0.1701 -0.4641 -0.5810
  472TMC3    H1 7082   2.180   2.731  16.294  1.4919 -1.7736 -0.1999
  472TMC3    H2 7083   2.031   2.511  15.962 -2.5648 -1.6475  2.2873
  472TMC3    C7 7084   2.083   2.493  16.215 -0.2401  0.0313  0.5114
  472TMC3    C8 7085   1.866   2.717  15.895  0.3687 -0.4874  0.0523
  472TMC3    O1 7086   2.055   2.507  16.332  0.0583  0.5269 -0.2196
  472TMC3    O2 7087   1.825   2.828  15.864 -0.3551  0.1087  0.1188
  473MPD2     C 7088   1.385   0.566  14.027  0.4540 -0.5382  0.8202
  473MPD2    C1 7089   1.443   0.613  13.909  0.2003  1.0434 -0.0582
  473MPD2    C2 7090   1.559   0.689  13.913 -0.2115  0.1612  0.8490
  473MPD2    C3 7091   1.629   0.703  14.024 -0.2096 -0.3630 -1.4077
  473MPD2    C4 7092   1.579   0.653  14.144  0.1359  0.2411  0.1935
  473MPD2    C5 7093   1.459   0.588  14.141 -0.4584 -0.2509  0.1247
  473MPD2     H 7094   1.598   0.720  13.817  0.0690 -1.5655  0.3982
  473MPD2    H1 7095   1.633   0.673  14.236  1.0315 -1.0491 -0.0494
  473MPD2    H2 7096   1.291   0.511  14.025  0.9670 -1.3599 -0.4982
  473MPD2    H3 7097   1.414   0.546  14.231 -1.2455 -0.2104 -0.2518
  473MPD2     N 7098   1.750   0.778  14.012  0.1443  0.5419  0.2109
  473MPD2    H5 7099   1.784   0.813  13.922 -1.4283 -0.5320 -0.7949
  473MPD2    N1 7100   1.384   0.605  13.778  0.0076  0.7982  0.5836
  473MPD2    H7 7101   1.437   0.650  13.705 -0.7696  0.0293 -0.4497
  474TMC3    C1 7102   1.950   0.893  14.060  0.0992  0.2668 -0.0340
  474TMC3    C2 7103   1.916   0.988  13.967 -0.1245  0.2036  0.6847
  474TMC3    C3 7104   1.994   1.099  13.966  0.1261 -0.1174  0.4556
  474TMC3    C4 7105   2.055   0.905  14.145 -0.1251  0.0666  1.1616
  474TMC3    C5 7106   2.130   1.014  14.126 -0.5787  0.6030  0.2058
  474TMC3    C6 7107   2.112   1.113  14.033  0.1014 -0.4172  0.1094
  474TMC3     C 7108   1.838   0.812  14.116  0.5526 -0.7839 -0.1104
  474TMC3     O 7109   1.821   0.806  14.233 -0.2478  0.1932  0.0057
  474TMC3     H 7110   1.820   0.986  13.917  1.1451 -0.9537 -1.7171
  474TMC3    H1 7111   2.073   0.834  14.224  1.4523  1.1396  1.7809
  474TMC3    H2 7112   2.182   1.195  14.025 -1.4714  0.8925 -0.2642
  474TMC3    C7 7113   2.251   1.014  14.198  0.1597  0.6224 -0.4127
  474TMC3    C8 7114   1.948   1.213  13.890  0.1783 -0.2839  0.1401
  474TMC3    O1 7115   2.356   1.008  14.139 -0.3481 -0.8282  0.4977
  474TMC3    O2 7116   1.870   1.197  13.793 -0.0255 -0.1473  0.6225
  475MPD2     C 7117   4.213   3.403  11.167  0.3939 -0.0649 -0.4228
  475MPD2    C1 7118   4.199   3.504  11.079 -0.0595  0.3410  0.2239
  475MPD2    C2 7119   4.085   3.575  11.070  0.2906 -0.1499  0.3074
  475MPD2    C3 7120   3.987   3.551  11.159  0.4703 -0.0905 -0.1047
  475MPD2    C4 7121   3.998   3.452  11.256 -0.8122 -0.8466  0.0260
  475MPD2    C5 7122   4.109   3.376  11.257 -0.4610  0.2027  0.6486
  475MPD2     H 7123   4.080   3.656  10.999  2.3901 -3.5153 -3.6381
  475MPD2    H1 7124   3.917   3.428  11.323 -0.2599 -0.4038  0.8495
  475MPD2    H2 7125   4.300   3.339  11.180  0.7124  0.7498  1.4136
  475MPD2    H3 7126   4.104   3.291  11.324 -1.3128  1.2821  1.9625
  475MPD2     N 7127   3.863   3.623  11.136  0.0159  0.0706  0.0697
  475MPD2    H5 7128   3.862   3.692  11.063 -1.4419 -0.9531 -0.8695
  475MPD2    N1 7129   4.305   3.532  10.980 -0.1792 -0.4068 -0.2291
  475MPD2    H7 7130   4.292   3.617  10.925  0.8310 -0.6873 -0.9026
  476TMC3    C1 7131   4.484   3.498  10.842  0.2924 -0.0696 -0.5305
  476TMC3    C2 7132   4.419   3.576  10.751  0.3619  0.6605 -0.3796
  476TMC3    C3 7133   4.497   3.646  10.661 -0.1897  0.0649  0.4837
  476TMC3    C4 7134   4.620   3.502  10.853 -0.4224 -1.0243 -1.2323
  476TMC3    C5 7135   4.695   3.565  10.761 -0.3819 -0.5906  0.4453
  476TMC3    C6 7136   4.632   3.637  10.657  0.1056  0.3605  0.5695
  476TMC3     C 7137   4.409   3.450  10.951 -0.4864 -0.6996  0.1166
  476TMC3     O 7138   4.444   3.351  11.019  0.3742  0.0982 -0.3962
  476TMC3     H 7139   4.311   3.590  10.750 -0.2330 -3.7966  0.4625
  476TMC3    H1 7140   4.667   3.445  10.932  1.2541  1.8988 -0.0985
  476TMC3    H2 7141   4.689   3.706  10.596 -1.4000  0.9983 -0.1026
  476TMC3    C7 7142   0.087   3.602  10.814  0.3345  0.3937  0.7331
  476TMC3    C8 7143   4.421   3.743  10.587  0.0902  0.8291  0.0947
  476TMC3    O1 7144   0.139   3.521  10.892  0.2666  0.0859 -0.6217
  476TMC3    O2 7145   4.341   3.809  10.654 -0.1756 -0.5369 -0.0458
  477MPD2     C 7146   2.179   0.928  11.735  0.2847  0.2556  0.1648
  477MPD2    C1 7147   2.082   0.838  11.753 -0.0540 -0.1910 -0.4694
  477MPD2    C2 7148   2.106   0.706  11.795  0.0493 -0.1328 -0.6198
  477MPD2    C3 7149   2.233   0.663  11.815  0.1646 -0.3997 -0.2408
  477MPD2    C4 7150   2.334   0.759  11.804 -0.0460  0.7594 -0.3948
  477MPD2    C5 7151   2.305   0.882  11.752 -0.0019 -0.0598 -0.0992
  477MPD2     H 7152   2.018   0.645  11.811 -0.1236  0.0558 -0.8569
  477MPD2    H1 7153   2.439   0.738  11.823 -0.7492 -2.0320  0.4455
  477MPD2    H2 7154   2.171   1.024  11.684  2.6548  1.4572  2.1097
  477MPD2    H3 7155   2.386   0.951  11.732 -0.7302  1.7923  3.3927
  477MPD2     N 7156   2.247   0.534  11.873  0.4216  0.5624 -0.4082
  477MPD2    H5 7157   2.163   0.480  11.893 -0.6460  1.6500 -1.9664
  477MPD2    N1 7158   1.949   0.881  11.726 -0.1098 -0.6160 -0.2011
  477MPD2    H7 7159   1.943   0.981  11.710  1.0376 -0.6709 -0.9586
  478TMC3    C1 7160   1.724   0.877  11.677 -0.3304  0.6013 -0.0140
  478TMC3    C2 7161   1.708   0.997  11.744 -0.4866  0.5184  0.1684
  478TMC3    C3 7162   1.585   1.057  11.729  0.1067  0.1064  0.1557
  478TMC3    C4 7163   1.632   0.821  11.592  0.2126  0.8508  0.6628
  478TMC3    C5 7164   1.520   0.890  11.577  0.2025  0.5258 -0.7961
  478TMC3    C6 7165   1.487   1.003  11.646 -0.0348 -0.8395  0.2367
  478TMC3     C 7166   1.840   0.800  11.699  0.9643 -0.5597  0.8860
  478TMC3     O 7167   1.844   0.680  11.684  0.0123 -0.7378 -0.3191
  478TMC3     H 7168   1.771   1.016  11.830 -1.0084  0.2608  0.6127
  478TMC3    H1 7169   1.652   0.728  11.540  0.7342  0.5894  1.3282
  478TMC3    H2 7170   1.395   1.056  11.624  0.1563 -0.8281 -0.5328
  478TMC3    C7 7171   1.415   0.818  11.503  0.7474  0.4110  0.3240
  478TMC3    C8 7172   1.545   1.153  11.832  0.2402  0.3658  0.0562
  478TMC3    O1 7173   1.406   0.697  11.520  0.1337  0.1709 -0.1800
  478TMC3    O2 7174   1.611   1.167  11.934 -0.3531 -0.0156 -0.0391
  479MPD2     C 7175   1.576   2.639  14.974  1.0919 -0.3666  0.6832
  479MPD2    C1 7176   1.537   2.531  15.044  0.8544  0.0454  0.5686
  479MPD2    C2 7177   1.594   2.512  15.172 -0.4055 -0.8546 -0.2016
  479MPD2    C3 7178   1.668   2.614  15.230  0.7329 -0.4114 -0.1907
  479MPD2    C4 7179   1.695   2.732  15.162 -0.4187  0.0553  0.0466
  479MPD2    C5 7180   1.656   2.736  15.032  0.4663  0.5874 -0.3669
  479MPD2     H 7181   1.578   2.420  15.226 -0.3040 -1.1985 -0.7537
  479MPD2    H1 7182   1.741   2.820  15.205  0.3790  0.8361 -2.3483
  479MPD2    H2 7183   1.524   2.666  14.883  1.5633  0.3932  0.6379
  479MPD2    H3 7184   1.663   2.833  14.983 -2.9045  1.6574  1.2450
  479MPD2     N 7185   1.733   2.604  15.357 -0.4219  0.6028 -0.0634
  479MPD2    H5 7186   1.803   2.678  15.365 -0.1870  0.4676 -0.8951
  479MPD2    N1 7187   1.422   2.460  14.999 -0.8357 -0.2074 -0.6033
  479MPD2    H7 7188   1.379   2.486  14.911 -1.5463 -0.4776 -0.3310
  480TMC3    C1 7189   1.419   2.323  15.596 -0.4823 -0.2626 -0.4724
  480TMC3    C2 7190   1.306   2.380  15.539  0.3200  0.6330 -0.2911
  480TMC3    C3 7191   1.330   2.496  15.465 -0.5590 -0.4110  0.3240
  480TMC3    C4 7192   1.546   2.366  15.561 -0.1309 -0.0744  0.1565
  480TMC3    C5 7193   1.562   2.482  15.491 -0.4658  0.2181 -0.4667
  480TMC3    C6 7194   1.453   2.554  15.443  0.2279 -0.7627  0.7016
  480TMC3     C 7195   1.420   2.197  15.671  0.9153 -0.1580 -0.0704
  480TMC3     O 7196   1.518   2.124  15.680 -0.2449  0.1087 -0.2935
  480TMC3     H 7197   1.203   2.351  15.553  1.6095 -2.1779  3.4045
  480TMC3    H1 7198   1.635   2.309  15.586  0.7017  1.6822  1.1386
  480TMC3    H2 7199   1.466   2.644  15.385  0.4130 -1.5371 -0.4475
  480TMC3    C7 7200   1.701   2.524  15.469  0.4809  0.4360 -0.2116
  480TMC3    C8 7201   1.221   2.534  15.372  0.3350  0.2176 -0.2010
  480TMC3    O1 7202   1.787   2.490  15.555  0.1798 -0.5411  0.5577
  480TMC3    O2 7203   1.115   2.480  15.380  0.4626  0.0306 -0.3671
  481MPD2     C 7204   3.185   1.848  14.635  0.2246 -0.4463 -0.4278
  481MPD2    C1 7205   3.094   1.943  14.673  0.4431 -0.1808 -0.0884
  481MPD2    C2 7206   3.078   1.963  14.808  0.2542 -0.2002 -0.2864
  481MPD2    C3 7207   3.139   1.881  14.903  0.4255 -0.0905  0.3667
  481MPD2    C4 7208   3.236   1.793  14.863  0.6238  0.6634  0.5251
  481MPD2    C5 7209   3.266   1.782  14.733  0.7064  0.0883  0.0579
  481MPD2     H 7210   3.012   2.045  14.834 -0.4680 -1.0115  0.4698
  481MPD2    H1 7211   3.304   1.741  14.930  1.2814  0.3393 -0.4068
  481MPD2    H2 7212   3.214   1.835  14.532 -1.2695  1.6932 -1.1299
  481MPD2    H3 7213   3.350   1.716  14.713 -0.5188 -1.6481  0.6886
  481MPD2     N 7214   3.108   1.890  15.037  0.1741  0.1483  0.0615
  481MPD2    H5 7215   3.161   1.833  15.103 -0.1062  0.5118  0.5951
  481MPD2    N1 7216   3.024   2.023  14.578  0.1814 -0.1671  0.7999
  481MPD2    H7 7217   3.079   2.020  14.493 -0.2283 -1.2196  0.5639
  482TMC3    C1 7218   2.832   2.100  14.451  0.5768  0.3688  0.5562
  482TMC3    C2 7219   2.687   2.104  14.443  0.1557  0.3197 -1.0656
  482TMC3    C3 7220   2.621   2.190  14.354 -0.3282 -0.1663  0.6557
  482TMC3    C4 7221   2.904   2.170  14.356  0.1087  0.9528 -0.7666
  482TMC3    C5 7222   2.835   2.253  14.274  0.5248  1.1964  0.6561
  482TMC3    C6 7223   2.694   2.261  14.269 -0.3710 -0.1043 -0.2302
  482TMC3     C 7224   2.891   2.045  14.578  0.5869  0.1503  0.0580
  482TMC3     O 7225   2.803   1.993  14.646  0.1331 -0.1943  0.3248
  482TMC3     H 7226   2.629   2.038  14.506  1.4031  0.1682 -0.0704
  482TMC3    H1 7227   3.011   2.166  14.374  0.4591 -0.3571 -3.1045
  482TMC3    H2 7228   2.647   2.330  14.201  0.1550 -0.3920 -0.8927
  482TMC3    C7 7229   2.897   2.297  14.154 -0.5168  0.3635  0.1015
  482TMC3    C8 7230   2.516   2.116  14.294  0.5405 -0.6298 -0.1344
  482TMC3    O1 7231   2.841   2.383  14.086 -0.5427  0.3443  0.1467
  482TMC3    O2 7232   2.529   1.996  14.300 -0.6125 -0.3308  0.1892
  483TMC3    C1 7233   0.731   0.954   1.048  0.3066  0.4824 -0.7075
  483TMC3    C2 7234   0.754   1.050   0.964  0.1990  0.1880  0.0927
  483TMC3    C3 7235   0.879   1.097   0.954  0.1686 -0.2252  0.2775
  483TMC3    C4 7236   0.831   0.895   1.126  1.0052 -0.0194 -0.0676
  483TMC3    C5 7237   0.955   0.954   1.122 -0.1539  0.1589  0.1217
  483TMC3    C6 7238   0.983   1.059   1.042  0.1941  0.6783  0.4911
  483TMC3     C 7239   0.633   0.858   1.009 -0.5663  0.3097 -0.3206
  483TMC3     O 7240   0.517   0.886   1.025 -0.4856  0.2736 -0.5098
  483TMC3     H 7241   0.684   1.088   0.890  1.5385  1.1943 -0.6593
  483TMC3    H1 7242   0.801   0.809   1.186 -0.2800 -0.0256 -0.7249
  483TMC3    H2 7243   1.079   1.108   1.058  0.6505  0.1453 -0.5832
  483TMC3    C7 7244   1.057   0.865   1.176 -0.0038 -0.1301 -0.5875
  483TMC3    C8 7245   0.904   1.199   0.857 -0.4457  0.1864 -0.4976
  483TMC3    O1 7246   1.023   0.751   1.197  0.0720 -0.5739 -0.1071
  483TMC3    O2 7247   1.019   1.194   0.813  0.0456  0.0114 -0.0539
  484MPD2     C 7248   3.365   3.858  13.169 -0.4060 -0.6778 -0.2295
  484MPD2    C1 7249   3.328   3.801  13.055 -0.1693  0.4098  0.1461
  484MPD2    C2 7250   3.416   3.788  12.948  0.3252 -0.1723 -0.0819
  484MPD2    C3 7251   3.548   3.821  12.959 -0.1669 -0.3971  0.5215
  484MPD2    C4 7252   3.589   3.867  13.082 -0.6446  0.3948  0.1412
  484MPD2    C5 7253   3.498   3.893  13.181 -0.2372 -0.3439 -0.3134
  484MPD2     H 7254   3.372   3.761  12.853 -1.5195 -1.6307  1.1806
  484MPD2    H1 7255   3.694   3.885  13.103  0.3994 -1.0174 -3.8724
  484MPD2    H2 7256   3.291   3.868  13.247  0.8944 -1.8968  1.1480
  484MPD2    H3 7257   3.537   3.933  13.273  0.7070 -0.9134 -0.4634
  484MPD2     N 7258   3.639   3.837  12.857 -0.2590 -0.5084  0.1987
  484MPD2    H5 7259   3.735   3.831  12.892  0.0751 -0.1807 -0.6750
  484MPD2    N1 7260   3.190   3.768  13.038  0.0162  0.0162 -0.0206
  484MPD2    H7 7261   3.139   3.748  13.124 -3.6145  0.1461 -2.1395
  485TMC3    C1 7262   3.736   3.863  12.650 -0.2158 -0.0536 -1.0684
  485TMC3    C2 7263   3.843   3.787  12.691  0.4666  0.1303  0.3786
  485TMC3    C3 7264   3.962   3.791  12.615 -0.2187 -0.5604 -0.3461
  485TMC3    C4 7265   3.743   3.949  12.540  0.1150  0.0348 -0.2832
  485TMC3    C5 7266   3.857   3.960  12.473  0.0550 -0.6723 -0.5359
  485TMC3    C6 7267   3.960   3.879  12.509  0.2506 -0.2497  0.6754
  485TMC3     C 7268   3.613   3.874  12.731 -0.0922  0.4164 -0.8657
  485TMC3     O 7269   3.508   3.919  12.681  0.2623  0.1108  0.8233
  485TMC3     H 7270   3.814   3.699  12.747 -1.6434  0.2313 -0.5706
  485TMC3    H1 7271   3.664   4.017  12.511 -0.9925 -0.1611  2.3018
  485TMC3    H2 7272   4.051   3.894  12.453  0.0975 -0.6360  0.3193
  485TMC3    C7 7273   3.846   3.957  12.334  0.1921  0.4403  0.2750
  485TMC3    C8 7274   4.000   3.657  12.565  0.0529 -0.2547  0.4875
  485TMC3    O1 7275   3.807   4.058  12.277  0.5731  0.2772  0.2175
  485TMC3    O2 7276   4.007   3.656  12.443 -0.1639  0.2371  0.0146
  486MPD2     C 7277   1.031   2.594  12.787  0.7611 -0.2672  0.1771
  486MPD2    C1 7278   0.916   2.572  12.713  0.5191 -0.0755  0.2604
  486MPD2    C2 7279   0.843   2.682  12.661 -0.2127 -0.3959 -0.4628
  486MPD2    C3 7280   0.888   2.808  12.685  0.1609  0.1063  0.3876
  486MPD2    C4 7281   1.000   2.835  12.767  0.1369 -0.6185  0.5844
  486MPD2    C5 7282   1.069   2.721  12.811  0.0731 -0.4717  0.2728
  486MPD2     H 7283   0.752   2.664  12.604 -0.7893  2.5049 -0.4548
  486MPD2    H1 7284   1.021   2.936  12.799 -2.9196 -0.2196  1.3128
  486MPD2    H2 7285   1.080   2.510  12.834  1.0781 -2.1124 -3.4973
  486MPD2    H3 7286   1.155   2.732  12.877  1.2753  2.3839 -1.8016
  486MPD2     N 7287   0.792   2.903  12.634 -0.3037 -0.1446 -0.0731
  486MPD2    H5 7288   0.723   2.865  12.570 -0.1177 -2.1833  0.9388
  486MPD2    N1 7289   0.863   2.440  12.718  0.3765  0.1929 -0.4455
  486MPD2    H7 7290   0.921   2.375  12.770 -2.0065 -0.9951  0.7434
  487TMC3    C1 7291   0.736   2.249  12.670  0.4938  0.9555 -0.2006
  487TMC3    C2 7292   0.676   2.168  12.573  0.2530 -0.5774 -0.1789
  487TMC3    C3 7293   0.667   2.033  12.590 -0.8158  0.5016 -1.0151
  487TMC3    C4 7294   0.801   2.186  12.775  0.2329  0.2735 -0.1884
  487TMC3    C5 7295   0.812   2.049  12.775  0.2627  0.2442  0.0793
  487TMC3    C6 7296   0.754   1.974  12.681  0.6809  0.4999  0.8659
  487TMC3     C 7297   0.751   2.393  12.650 -0.3384 -0.3608 -0.3012
  487TMC3     O 7298   0.682   2.449  12.567 -0.0465 -0.8037 -0.6067
  487TMC3     H 7299   0.616   2.218  12.498 -0.2179 -0.0443  0.5503
  487TMC3    H1 7300   0.843   2.245  12.856 -0.5806  2.8952 -1.6965
  487TMC3    H2 7301   0.757   1.866  12.694 -2.7249  0.6267  2.9726
  487TMC3    C7 7302   0.801   1.987  12.903  0.5375 -0.4703  0.5298
  487TMC3    C8 7303   0.528   2.005  12.616 -1.0589  0.0640  0.6506
  487TMC3    O1 7304   0.890   1.919  12.944  0.3105 -0.1037 -0.3672
  487TMC3    O2 7305   0.443   2.094  12.618 -0.3822 -0.3187  0.3394
  488MPD2     C 7306   1.119   4.190  16.368 -0.1283 -0.0207  0.3037
  488MPD2    C1 7307   1.145   4.284  16.467 -0.2342  0.2434 -0.4951
  488MPD2    C2 7308   1.113   4.254  16.600  0.1052  0.4949 -0.1321
  488MPD2    C3 7309   1.041   4.136  16.635  0.7995 -0.5694  0.5273
  488MPD2    C4 7310   1.011   4.047  16.532  0.0023  0.9554  0.1451
  488MPD2    C5 7311   1.062   4.076  16.402 -0.1855 -0.2685 -0.4572
  488MPD2     H 7312   1.133   4.321  16.683 -1.2583  2.6546 -1.5185
  488MPD2    H1 7313   0.976   3.947  16.555  1.9359  0.3889  0.6544
  488MPD2    H2 7314   1.150   4.205  16.265 -0.0622  1.7766  0.5807
  488MPD2    H3 7315   1.049   4.007  16.319 -1.3516  0.5625 -0.9587
  488MPD2     N 7316   1.009   4.118  16.772  0.1617 -0.1928 -0.7374
  488MPD2    H5 7317   1.022   4.202  16.828 -0.9613 -0.7200  0.3117
  488MPD2    N1 7318   1.230   4.396  16.442 -0.3037  0.0018  0.1880
  488MPD2    H7 7319   1.280   4.418  16.528  0.2415 -1.5283  0.2609
  489TMC3    C1 7320   0.893   4.035  16.964 -0.7992 -0.2705 -0.5264
  489TMC3    C2 7321   0.906   4.159  17.015  0.1736  0.3805 -0.5006
  489TMC3    C3 7322   0.928   4.168  17.150 -0.3048  0.0257 -0.4614
  489TMC3    C4 7323   0.901   3.925  17.043  0.5166 -0.2699 -0.0248
  489TMC3    C5 7324   0.916   3.941  17.180  0.3465 -0.5652 -0.5080
  489TMC3    C6 7325   0.947   4.059  17.235  0.7257  0.1198  0.7558
  489TMC3     C 7326   0.941   4.011  16.827  0.4392 -0.3318 -0.3893
  489TMC3     O 7327   0.910   3.907  16.770 -0.0230  0.2857  0.3142
  489TMC3     H 7328   0.911   4.249  16.956 -0.2670  0.9593  0.3459
  489TMC3    H1 7329   0.898   3.829  16.993 -0.9491  0.0351 -0.5159
  489TMC3    H2 7330   0.963   4.068  17.342 -0.1533  0.6785  0.8431
  489TMC3    C7 7331   0.944   3.825  17.262 -0.0267 -0.4072  0.2764
  489TMC3    C8 7332   1.024   4.273  17.175 -0.0317  0.2061  0.2199
  489TMC3    O1 7333   1.006   3.857  17.366 -0.5941 -0.6081  0.3120
  489TMC3    O2 7334   1.083   4.319  17.084 -0.1520  0.3790 -0.4737
  490MPD2     C 7335   1.792   3.813  17.020 -0.1406  0.3288  0.1514
  490MPD2    C1 7336   1.896   3.741  17.081 -0.1659 -0.0800  0.4320
  490MPD2    C2 7337   1.992   3.813  17.153 -0.4130  0.0041  0.0300
  490MPD2    C3 7338   1.994   3.955  17.152  0.5261  0.0238  0.6443
  490MPD2    C4 7339   1.895   4.030  17.088 -0.6888  0.3197 -0.5375
  490MPD2    C5 7340   1.790   3.953  17.024 -0.1802 -0.2734  0.6038
  490MPD2     H 7341   2.073   3.757  17.199 -1.1747 -0.2837  1.0374
  490MPD2    H1 7342   1.895   4.138  17.082 -1.8076  0.2703 -1.4605
  490MPD2    H2 7343   1.703   3.764  16.984  0.5570  0.2092 -1.4044
  490MPD2    H3 7344   1.708   4.008  16.980 -1.8993 -2.4791  1.0393
  490MPD2     N 7345   2.097   4.042  17.203  0.3664  0.2627 -0.6175
  490MPD2    H5 7346   2.070   4.134  17.239 -1.5020 -0.1722 -0.9006
  490MPD2    N1 7347   1.897   3.603  17.091  0.8277 -0.2798  0.4149
  490MPD2    H7 7348   1.971   3.555  17.143  2.8105  0.4252 -1.7836
  491TMC3    C1 7349   1.848   3.391  17.038  0.0912  0.2092  0.4704
  491TMC3    C2 7350   1.845   3.352  17.167  0.1907  0.3276 -0.1135
  491TMC3    C3 7351   1.796   3.228  17.188  0.0345  0.0666  0.2874
  491TMC3    C4 7352   1.830   3.320  16.933 -0.2713  0.5163  0.1152
  491TMC3    C5 7353   1.809   3.188  16.959 -0.0997 -0.0217  0.2198
  491TMC3    C6 7354   1.796   3.136  17.087  0.3628  0.0964 -0.0384
  491TMC3     C 7355   1.812   3.522  17.019  0.7465  0.2007 -0.1043
  491TMC3     O 7356   1.721   3.543  16.942 -0.1781 -0.1247 -0.3936
  491TMC3     H 7357   1.838   3.423  17.249  0.4577  0.3281 -0.0887
  491TMC3    H1 7358   1.847   3.374  16.841 -0.5459  1.5257  0.6539
  491TMC3    H2 7359   1.777   3.031  17.105 -0.3528 -0.0179 -1.4326
  491TMC3    C7 7360   1.815   3.102  16.848  0.7145 -0.3814  0.3390
  491TMC3    C8 7361   1.727   3.196  17.308 -0.0335 -0.2352 -1.3313
  491TMC3    O1 7362   1.782   3.154  16.741 -0.3356  0.0713  0.3304
  491TMC3    O2 7363   1.788   3.244  17.405 -0.1834 -0.5603  0.0977
  492MPD2     C 7364   2.005   4.234  11.656  0.2146  0.0002  0.1274
  492MPD2    C1 7365   1.980   4.116  11.580 -0.1383 -0.3494  0.4346
  492MPD2    C2 7366   1.909   4.016  11.645  0.0344 -0.2705  0.6173
  492MPD2    C3 7367   1.866   4.024  11.778 -0.1014  0.5279 -0.0647
  492MPD2    C4 7368   1.868   4.148  11.835  0.2651 -0.5204 -0.3855
  492MPD2    C5 7369   1.945   4.246  11.777 -0.3482 -0.5104 -0.3644
  492MPD2     H 7370   1.912   3.920  11.594  0.5277 -0.3354  0.7720
  492MPD2    H1 7371   1.830   4.159  11.936  1.0591 -0.4547 -0.0912
  492MPD2    H2 7372   2.059   4.318  11.613 -1.2964  0.3587 -1.0364
  492MPD2    H3 7373   1.950   4.342  11.828 -0.2764  0.6540 -2.5512
  492MPD2     N 7374   1.805   3.918  11.845  0.0750 -0.8246 -0.0480
  492MPD2    H5 7375   1.777   3.935  11.941  0.0159 -0.4909 -0.1250
  492MPD2    N1 7376   2.030   4.100  11.447 -0.1030  0.3001  0.4354
  492MPD2    H7 7377   2.083   4.181  11.417  1.0941  0.0384  1.8346
  493TMC3    C1 7378   2.063   4.014  11.232  0.5553  0.5458 -0.6889
  493TMC3    C2 7379   2.184   4.083  11.209 -0.1998  0.3467 -0.0559
  493TMC3    C3 7380   2.235   4.091  11.078  0.0610 -0.3851  1.3075
  493TMC3    C4 7381   2.013   3.935  11.135 -0.6713 -0.3561  0.0746
  493TMC3    C5 7382   2.064   3.945  11.009  0.2170  0.2178 -0.2884
  493TMC3    C6 7383   2.169   4.031  10.975 -0.5760  0.1814  0.2966
  493TMC3     C 7384   2.005   3.995  11.362  0.2701  0.2083  0.5196
  493TMC3     O 7385   1.931   3.899  11.367  0.2997 -0.0286  0.1846
  493TMC3     H 7386   2.225   4.143  11.290 -0.0218  1.1428 -0.7352
  493TMC3    H1 7387   1.917   3.885  11.146 -2.2384  2.1430 -2.2494
  493TMC3    H2 7388   2.224   4.012  10.884  1.0144  0.3722  1.2063
  493TMC3    C7 7389   2.002   3.875  10.900 -0.4963  0.6929  0.0946
  493TMC3    C8 7390   2.357   4.169  11.059  0.6268 -0.0033 -0.4169
  493TMC3    O1 7391   1.971   3.946  10.801  0.4039  0.6612 -0.5189
  493TMC3    O2 7392   2.412   4.204  11.159 -0.3040 -0.2508 -0.5467
  494TMC3    C1 7393   2.632   0.412   0.761 -0.0332  0.0449  0.4061
  494TMC3    C2 7394   2.700   0.294   0.751 -0.5224 -0.0887  0.5385
  494TMC3    C3 7395   2.785   0.277   0.643 -0.4787  0.3996 -0.3660
  494TMC3    C4 7396   2.649   0.522   0.673  0.0068 -0.2784  0.3052
  494TMC3    C5 7397   2.736   0.497   0.573  0.2166 -0.1264 -0.0736
  494TMC3    C6 7398   2.797   0.376   0.553 -0.1546 -0.2912  0.3579
  494TMC3     C 7399   2.578   0.446   0.892 -0.4553  0.0429 -0.0783
  494TMC3     O 7400   2.625   0.385   0.987 -0.5357  0.2305 -0.2215
  494TMC3     H 7401   2.686   0.226   0.834  0.7368  0.2766  1.0576
  494TMC3    H1 7402   2.597   0.613   0.700  1.6377  0.9391 -0.6897
  494TMC3    H2 7403   2.850   0.350   0.462  1.1149 -0.8529  1.2379
  494TMC3    C7 7404   2.776   0.605   0.484 -0.1880 -0.2546  0.0051
  494TMC3    C8 7405   2.840   0.142   0.630  0.0724 -0.1127 -0.4178
  494TMC3    O1 7406   2.886   0.582   0.437 -0.2820 -0.2750  0.1879
  494TMC3    O2 7407   2.957   0.119   0.604 -0.1172  0.3496  0.4768
  495TMC3    C1 7408   1.568   3.103  14.617  0.1750 -0.1635 -0.4199
  495TMC3    C2 7409   1.481   3.187  14.557  0.8173 -0.4383  0.4011
  495TMC3    C3 7410   1.346   3.176  14.579 -0.4179 -0.4452 -0.3335
  495TMC3    C4 7411   1.524   3.035  14.724 -0.0421  0.4578  0.7125
  495TMC3    C5 7412   1.393   3.030  14.754  0.5453 -0.5167 -0.3435
  495TMC3    C6 7413   1.301   3.095  14.677  0.0113  0.2048  0.2848
  495TMC3     C 7414   1.627   3.019  14.521 -0.9962 -0.3749 -0.1257
  495TMC3     O 7415   1.618   2.899  14.539  0.0892  0.0473 -0.1154
  495TMC3     H 7416   1.515   3.262  14.487  0.8825 -1.2974 -0.4791
  495TMC3    H1 7417   1.586   2.960  14.773  0.4373  0.7023  0.4778
  495TMC3    H2 7418   1.195   3.087  14.696  0.0839  1.7631  1.4154
  495TMC3    C7 7419   1.353   2.955  14.877  0.7936 -0.1208 -0.1841
  495TMC3    C8 7420   1.265   3.153  14.463 -0.2362  0.8329 -0.1097
  495TMC3    O1 7421   1.426   2.965  14.975 -0.8502 -0.5964 -0.3542
  495TMC3    O2 7422   1.144   3.149  14.478  0.3609  0.2702 -0.1005
  496MPD2     C 7423   3.160   2.756  15.416  0.9786 -0.4046  0.1494
  496MPD2    C1 7424   3.228   2.676  15.503  0.3744 -0.6457  0.1223
  496MPD2    C2 7425   3.183   2.672  15.635  0.5475 -0.2615 -0.9397
  496MPD2    C3 7426   3.069   2.735  15.676 -0.0736  1.0669  0.6794
  496MPD2    C4 7427   2.997   2.805  15.588  0.4387 -0.0324  0.5001
  496MPD2    C5 7428   3.043   2.823  15.457 -0.4272  1.0300  0.8721
  496MPD2     H 7429   3.235   2.601  15.698 -1.9200  0.5228  2.0228
  496MPD2    H1 7430   2.907   2.858  15.616 -0.0491 -1.1375  0.9926
  496MPD2    H2 7431   3.186   2.776  15.313  2.2854 -2.5032  0.0725
  496MPD2    H3 7432   3.002   2.901  15.395  0.7301  0.0321 -1.1488
  496MPD2     N 7433   3.016   2.723  15.806  0.6355  0.2056  0.6363
  496MPD2    H5 7434   2.923   2.758  15.830  1.5990  2.1906  1.5200
  496MPD2    N1 7435   3.357   2.619  15.451  0.1830 -0.5939 -0.2979
  496MPD2    H7 7436   3.371   2.625  15.351 -0.9590  2.4284 -0.2818
  497TMC3    C1 7437   3.019   2.658  16.032 -0.0701 -0.5224  0.1208
  497TMC3    C2 7438   2.886   2.620  16.022  0.1815 -0.0545  0.1896
  497TMC3    C3 7439   2.820   2.611  16.144 -0.1397  0.3208  0.6303
  497TMC3    C4 7440   3.083   2.684  16.150  0.5450  0.5093  1.0769
  497TMC3    C5 7441   3.014   2.670  16.269 -0.4487  0.0390 -0.5509
  497TMC3    C6 7442   2.879   2.644  16.264  0.0984  0.6183 -0.3631
  497TMC3     C 7443   3.094   2.679  15.915  0.3531  0.1998 -0.1295
  497TMC3     O 7444   3.217   2.675  15.930  0.3150  1.2346  0.1211
  497TMC3     H 7445   2.832   2.589  15.934 -0.6627  1.6370  0.1260
  497TMC3    H1 7446   3.190   2.697  16.150  0.6425 -0.2869  1.6580
  497TMC3    H2 7447   2.812   2.654  16.348  2.2283  0.6356  1.3348
  497TMC3    C7 7448   3.062   2.718  16.398  0.6487 -0.6971 -0.3029
  497TMC3    C8 7449   2.679   2.563  16.138  0.5151 -0.4955 -0.1859
  497TMC3    O1 7450   2.980   2.731  16.486  0.2244  0.1037 -0.0430
  497TMC3    O2 7451   2.634   2.512  16.239 -0.0631  0.0974  1.1234
  498MPD2     C 7452   4.019   4.554   9.382  0.0194 -0.9058 -0.0932
  498MPD2    C1 7453   4.052   4.492   9.499 -0.1599  0.6352 -0.2699
  498MPD2    C2 7454   3.993   4.376   9.538 -0.5998  0.4305 -0.7224
  498MPD2    C3 7455   3.902   4.320   9.451 -0.0677  0.0584  0.6169
  498MPD2    C4 7456   3.861   4.378   9.335  0.1024 -0.1280 -0.5800
  498MPD2    C5 7457   3.921   4.498   9.302 -0.3958  0.1917  0.3103
  498MPD2     H 7458   4.014   4.332   9.635  0.7894  0.9243 -0.7959
  498MPD2    H1 7459   3.781   4.339   9.273  0.7416 -1.6647 -0.4476
  498MPD2    H2 7460   4.047   4.653   9.348 -0.0374 -1.2308 -1.0817
  498MPD2    H3 7461   3.905   4.544   9.205 -1.2296 -1.2755 -0.2457
  498MPD2     N 7462   3.850   4.192   9.490 -0.5083 -0.4289 -0.4155
  498MPD2    H5 7463   3.874   4.157   9.582 -3.7065  0.5023  0.7599
  498MPD2    N1 7464   4.157   4.549   9.582  0.3110 -0.1116  0.0197
  498MPD2    H7 7465   4.169   4.496   9.668  1.3838  1.3403  0.7650
  499TMC3    C1 7466   4.344   4.673   9.657 -0.4797  0.7004  0.7899
  499TMC3    C2 7467   4.410   4.566   9.710 -0.2716 -0.0211  0.4061
  499TMC3    C3 7468   4.543   4.569   9.746  0.1008  0.8283  0.1169
  499TMC3    C4 7469   4.415   0.049   9.636 -0.4539  0.3686 -0.3609
  499TMC3    C5 7470   4.550   0.055   9.663  0.1868  0.5767 -0.8829
  499TMC3    C6 7471   4.616   4.686   9.710  0.4401 -0.0499  0.0865
  499TMC3     C 7472   4.242   4.657   9.558  0.5489  0.2843  0.1453
  499TMC3     O 7473   4.227   4.735   9.464 -0.4227 -0.3148  0.6402
  499TMC3     H 7474   4.352   4.474   9.715  0.8680 -0.7883 -0.4846
  499TMC3    H1 7475   4.368   0.129   9.580 -1.6047 -0.5371 -0.7002
  499TMC3    H2 7476   4.717   4.695   9.747  0.6908 -1.5744 -0.2116
  499TMC3    C7 7477   4.608   0.184   9.669 -0.0914  0.5294 -0.2714
  499TMC3    C8 7478   4.580   4.462   9.843 -0.1116  0.2918  0.1129
  499TMC3    O1 7479   4.726   0.204   9.655  0.0795 -0.5983  0.2635
  499TMC3    O2 7480   4.484   4.407   9.895  0.1943  0.0054  0.3216
  500MPD2     C 7481   1.489   0.037  10.069  0.4427 -0.2363 -0.3443
  500MPD2    C1 7482   1.409   0.135  10.121 -0.0433 -0.2554  0.4189
  500MPD2    C2 7483   1.282   0.149  10.051  0.2162 -0.6715  0.0229
  500MPD2    C3 7484   1.250   0.078   9.937 -0.7643 -0.1295  0.4458
  500MPD2    C4 7485   1.348   0.000   9.884  0.0823  0.1850  0.2315
  500MPD2    C5 7486   1.470   4.725   9.950  0.2477  0.6113 -0.1937
  500MPD2     H 7487   1.215   0.224  10.091 -2.0008  0.3100 -5.5088
  500MPD2    H1 7488   1.317   4.685   9.795 -1.5777  1.0160  0.3204
  500MPD2    H2 7489   1.585   0.017  10.115  0.7681 -2.1635 -1.8411
  500MPD2    H3 7490   1.540   4.655   9.907  0.6675 -0.0814  1.6238
  500MPD2     N 7491   1.125   0.092   9.871 -0.0106  0.1948  0.3649
  500MPD2    H5 7492   1.104   0.049   9.782 -0.0136 -1.0277  0.9589
  500MPD2    N1 7493   1.440   0.215  10.231 -0.5294  0.3382  0.3029
  500MPD2    H7 7494   1.381   0.296  10.245 -2.3009 -0.6764 -1.2152
  501TMC3    C1 7495   1.533   0.291  10.436  0.0151 -0.5320  0.1192
  501TMC3    C2 7496   1.425   0.374  10.457 -0.3457 -0.1092 -0.5133
  501TMC3    C3 7497   1.438   0.456  10.560 -0.2051 -0.1355  0.5535
  501TMC3    C4 7498   1.652   0.292  10.512  0.4581 -0.0493 -0.7371
  501TMC3    C5 7499   1.653   0.377  10.620 -0.0022  1.3240  0.4599
  501TMC3    C6 7500   1.551   0.465  10.641  0.4585 -0.0395 -0.0189
  501TMC3     C 7501   1.534   0.197  10.322 -0.3570  0.6561  0.0543
  501TMC3     O 7502   1.611   0.105  10.327  0.2860 -0.5454 -0.0758
  501TMC3     H 7503   1.327   0.363  10.412  0.3296 -2.9738 -1.2691
  501TMC3    H1 7504   1.719   0.208  10.498  0.7418  0.3961 -2.0673
  501TMC3    H2 7505   1.551   0.544  10.715  2.6219  0.4642 -0.5491
  501TMC3    C7 7506   1.751   0.343  10.721 -0.2456 -0.0533  0.4360
  501TMC3    C8 7507   1.375   0.587  10.548 -0.5292  0.5160  0.1976
  501TMC3    O1 7508   1.786   0.227  10.720 -0.0808  0.1080 -0.7719
  501TMC3    O2 7509   1.386   0.658  10.650 -0.2182 -0.2956 -0.0153
  502TMC3    C1 7510   0.617   3.488  14.751 -0.2557  0.4359 -0.0673
  502TMC3    C2 7511   0.630   3.619  14.794  0.2434 -0.3789  0.0955
  502TMC3    C3 7512   0.515   3.674  14.847  1.1367  0.9107 -0.9036
  502TMC3    C4 7513   0.499   3.421  14.767 -0.5228  0.2941  0.3649
  502TMC3    C5 7514   0.390   3.486  14.812  0.3418  0.0688 -0.1531
  502TMC3    C6 7515   0.393   3.613  14.860 -0.6156 -1.0282 -0.4962
  502TMC3     C 7516   0.732   3.406  14.790 -0.6472  0.1019 -0.2574
  502TMC3     O 7517   0.753   3.300  14.739 -0.0971 -0.0113  0.2695
  502TMC3     H 7518   0.728   3.665  14.786 -0.5603  1.0131 -1.6039
  502TMC3    H1 7519   0.484   3.318  14.737  0.2802  0.5784 -0.9609
  502TMC3    H2 7520   0.309   3.657  14.911 -0.2642 -0.9457  0.0057
  502TMC3    C7 7521   0.294   3.402  14.874 -0.3746 -0.2052  0.3452
  502TMC3    C8 7522   0.535   3.785  14.929  0.1616 -0.3575  0.6195
  502TMC3    O1 7523   0.350   3.301  14.915 -0.2532 -0.5237 -0.2351
  502TMC3    O2 7524   0.646   3.771  14.978 -0.3972 -0.4748  0.1053
  503MPD2     C 7525   2.863   4.203  17.080  0.2163  0.7583 -0.0131
  503MPD2    C1 7526   2.904   4.214  17.210  0.4995 -0.3593  0.4667
  503MPD2    C2 7527   2.965   4.104  17.265 -0.5367 -0.3615 -0.3270
  503MPD2    C3 7528   3.008   4.000  17.173  0.0476 -0.1301  0.4174
  503MPD2    C4 7529   2.974   4.003  17.039  0.2395 -0.3359  0.0506
  503MPD2    C5 7530   2.893   4.108  16.999 -0.4848  0.5811 -0.1171
  503MPD2     H 7531   2.991   4.105  17.370  0.8328 -0.3143 -0.6591
  503MPD2    H1 7532   2.999   3.932  16.961  0.8240 -1.2352  1.0624
  503MPD2    H2 7533   2.806   4.286  17.040 -1.6178  0.0499  1.1451
  503MPD2    H3 7534   2.856   4.103  16.897 -0.1176  0.2147 -0.2330
  503MPD2     N 7535   3.085   3.892  17.223  0.2420  0.0855 -0.1444
  503MPD2    H5 7536   3.097   3.891  17.324 -0.2534  0.4083 -0.0811
  503MPD2    N1 7537   2.886   4.326  17.298  0.5929  0.2001 -0.9630
  503MPD2    H7 7538   2.903   4.317  17.398 -0.5837  0.2297 -0.7694
  504TMC3    C1 7539   3.203   3.688  17.232 -0.4800  0.1386  0.0246
  504TMC3    C2 7540   3.187   3.692  17.369  0.2205 -0.6056  0.4451
  504TMC3    C3 7541   3.300   3.688  17.447 -0.1904  0.2301  0.9161
  504TMC3    C4 7542   3.328   3.653  17.178 -0.8797 -0.1244  0.1604
  504TMC3    C5 7543   3.433   3.656  17.264 -0.3014  0.2435  0.2067
  504TMC3    C6 7544   3.423   3.672  17.398  0.2787  0.1910 -0.1858
  504TMC3     C 7545   3.132   3.784  17.152  0.1574  0.1200 -0.1163
  504TMC3     O 7546   3.125   3.760  17.029 -0.0115  0.4614 -0.1242
  504TMC3     H 7547   3.087   3.717  17.403  0.2340  1.4277 -1.0110
  504TMC3    H1 7548   3.344   3.673  17.073  0.8921  0.1004  0.4826
  504TMC3    H2 7549   3.503   3.680  17.471  0.2509 -2.4831  0.1572
  504TMC3    C7 7550   3.556   3.614  17.196  1.0384 -0.0258 -0.5226
  504TMC3    C8 7551   3.295   3.775  17.557 -0.5292  0.1077 -0.3199
  504TMC3    O1 7552   3.563   3.624  17.075  0.2839 -0.0740 -0.2042
  504TMC3    O2 7553   3.237   3.884  17.541 -0.5211 -0.4775  0.3150
  505MPD2     C 7554   3.048   3.173  10.405 -0.2199  0.9193  1.0570
  505MPD2    C1 7555   3.150   3.116  10.323  0.2907 -0.0165 -0.3663
  505MPD2    C2 7556   3.283   3.143  10.354 -0.2333  0.3941  0.3298
  505MPD2    C3 7557   3.311   3.232  10.453 -0.0199  0.8043 -0.1251
  505MPD2    C4 7558   3.205   3.280  10.532 -0.2863 -0.3906  0.7259
  505MPD2    C5 7559   3.078   3.246  10.514 -0.2281 -0.4238 -0.0771
  505MPD2     H 7560   3.359   3.097  10.290 -0.8189  1.3091 -1.0161
  505MPD2    H1 7561   3.222   3.351  10.612  0.2181 -1.6121  1.6990
  505MPD2    H2 7562   2.946   3.168  10.370  0.9560 -1.2389 -2.0333
  505MPD2    H3 7563   3.000   3.285  10.578 -0.4173 -0.2038 -0.4454
  505MPD2     N 7564   3.445   3.276  10.472  0.1799  0.3925  0.1531
  505MPD2    H5 7565   3.510   3.222  10.416 -0.4477  2.5025 -2.6008
  505MPD2    N1 7566   3.111   3.047  10.206  0.1896  0.4049 -0.1260
  505MPD2    H7 7567   3.020   3.069  10.168  1.2312  4.5797 -0.1286
  506TMC3    C1 7568   3.144   2.918  10.013 -0.3416  0.0193  0.7205
  506TMC3    C2 7569   3.090   3.027   9.944 -0.8101 -0.2600 -0.4792
  506TMC3    C3 7570   3.139   3.047   9.817  0.1625  0.3883  0.0241
  506TMC3    C4 7571   3.242   2.838   9.954 -0.4936 -0.0687 -0.0447
  506TMC3    C5 7572   3.300   2.882   9.838 -0.6467 -0.2809  0.4629
  506TMC3    C6 7573   3.243   2.978   9.760 -0.1048 -0.6782  0.0272
  506TMC3     C 7574   3.192   2.962  10.138 -0.1191 -0.2739 -0.1885
  506TMC3     O 7575   3.295   2.909  10.184 -0.0814  0.2674  0.1102
  506TMC3     H 7576   3.022   3.101   9.983 -1.3296 -1.6938  1.3293
  506TMC3    H1 7577   3.294   2.769  10.019  0.7563 -0.3896 -1.3830
  506TMC3    H2 7578   3.302   3.021   9.680  0.6619 -1.9565 -0.0958
  506TMC3    C7 7579   3.440   2.863   9.817  0.2358  0.1729 -0.3230
  506TMC3    C8 7580   3.094   3.158   9.734  0.1777 -1.0715 -0.2333
  506TMC3    O1 7581   3.485   2.873   9.706  0.1192 -0.5601  0.2967
  506TMC3    O2 7582   2.973   3.159   9.709 -0.0714  0.2104 -0.3457
  507TMC3    C1 7583   3.482   3.780  14.983 -0.0280 -0.7547 -1.1496
  507TMC3    C2 7584   3.350   3.764  15.007 -0.5152  0.2976 -0.3580
  507TMC3    C3 7585   3.267   3.777  14.895  0.1175  0.4998  0.4618
  507TMC3    C4 7586   3.539   3.809  14.861 -0.3843 -0.7553 -0.3696
  507TMC3    C5 7587   3.455   3.838  14.762 -0.1399  0.4218  0.2538
  507TMC3    C6 7588   3.319   3.809  14.770 -0.3906 -0.8116 -0.0619
  507TMC3     C 7589   3.575   3.759  15.093  0.1058 -0.0291 -0.7431
  507TMC3     O 7590   3.673   3.830  15.097 -0.9399 -0.0894 -0.2301
  507TMC3     H 7591   3.300   3.742  15.101 -0.0866 -0.9092 -0.4176
  507TMC3    H1 7592   3.648   3.815  14.856 -0.5685  1.2778 -1.7531
  507TMC3    H2 7593   3.262   3.826  14.679 -1.4664  2.0912  1.1670
  507TMC3    C7 7594   3.468   3.971  14.712  0.3934 -0.1504  0.7667
  507TMC3    C8 7595   3.142   3.839  14.925  0.2410  0.7703 -0.2552
  507TMC3    O1 7596   3.364   4.035  14.704  0.3698  0.1674 -0.2656
  507TMC3    O2 7597   3.062   3.781  14.999 -0.1548  0.4822 -0.5443
  508MPD2     C 7598   0.197   1.177  16.019 -0.5081 -0.5266 -0.5929
  508MPD2    C1 7599   0.242   1.292  16.082 -0.0643  0.4369 -0.0819
  508MPD2    C2 7600   0.229   1.411  16.018  1.0321  0.0450 -0.0721
  508MPD2    C3 7601   0.179   1.422  15.890 -0.0932  0.5754 -0.1519
  508MPD2    C4 7602   0.141   1.306  15.823 -0.0617  0.3607  0.3147
  508MPD2    C5 7603   0.158   1.186  15.885 -0.3318 -0.6664  0.7244
  508MPD2     H 7604   0.253   1.503  16.070  1.6260  0.1643 -0.5512
  508MPD2    H1 7605   0.110   1.299  15.719 -2.5469  1.5293  0.9961
  508MPD2    H2 7606   0.198   1.084  16.074 -2.3634  0.4507  1.0698
  508MPD2    H3 7607   0.134   1.105  15.817  0.8116 -1.7481  1.6102
  508MPD2     N 7608   0.160   1.553  15.837  0.5596  0.5703  0.3923
  508MPD2    H5 7609   0.180   1.634  15.894 -1.2262  1.2687  0.0259
  508MPD2    N1 7610   0.296   1.272  16.210  0.3168 -0.0827  0.1988
  508MPD2    H7 7611   0.291   1.178  16.248  2.4969 -0.5774 -0.7117
  509TMC3    C1 7612   0.126   1.881  15.496  0.1094 -0.1000  0.2841
  509TMC3    C2 7613   0.170   1.987  15.576  0.4205  0.2216 -1.0453
  509TMC3    C3 7614   0.203   1.947  15.707  0.3200 -0.0687 -0.6404
  509TMC3    C4 7615   0.116   1.747  15.536 -0.4343  0.2003  0.3912
  509TMC3    C5 7616   0.143   1.725  15.667  0.1631 -0.3124 -0.4984
  509TMC3    C6 7617   0.186   1.817  15.753  0.6587  0.3442 -0.0115
  509TMC3     C 7618   0.046   1.910  15.376  0.5016 -0.2116  0.3371
  509TMC3     O 7619   4.736   1.814  15.318  0.2030  0.0124 -0.0759
  509TMC3     H 7620   0.174   2.090  15.542  1.4127  0.5960  0.2363
  509TMC3    H1 7621   0.081   1.666  15.473 -0.4617 -0.0116  0.6796
  509TMC3    H2 7622   0.215   1.785  15.852  0.8316 -2.7216 -1.0592
  509TMC3    C7 7623   0.142   1.579  15.702  0.1433 -0.2805 -0.7631
  509TMC3    C8 7624   0.275   2.038  15.795 -0.8277  0.5186  0.2602
  509TMC3    O1 7625   0.131   1.498  15.614 -0.2709  0.9746 -0.6192
  509TMC3    O2 7626   0.281   1.993  15.911 -0.3149  0.5762  0.4819
  510MPD2     C 7627   2.609   3.331  14.672 -0.2154 -0.9054  0.3590
  510MPD2    C1 7628   2.676   3.221  14.722 -0.2911 -0.5258 -0.2546
  510MPD2    C2 7629   2.795   3.199  14.657 -0.4324 -0.0644 -0.1457
  510MPD2    C3 7630   2.852   3.279  14.568  0.4980  0.7945 -0.1539
  510MPD2    C4 7631   2.783   3.390  14.521 -0.9301 -0.0642 -1.3624
  510MPD2    C5 7632   2.660   3.414  14.574  0.1148  0.0832  0.7620
  510MPD2     H 7633   2.854   3.118  14.699 -2.0585 -1.2814 -0.1708
  510MPD2    H1 7634   2.816   3.449  14.437  1.0520 -3.0470 -2.6529
  510MPD2    H2 7635   2.507   3.359  14.695 -0.0806 -0.9410  1.0171
  510MPD2    H3 7636   2.619   3.513  14.555  2.5736  1.1527  1.0143
  510MPD2     N 7637   2.982   3.247  14.520 -0.8156 -0.7354  0.4607
  510MPD2    H5 7638   3.016   3.161  14.562 -1.4172 -1.7380 -1.1146
  510MPD2    N1 7639   2.619   3.146  14.831 -0.4195 -0.2883  0.1837
  510MPD2    H7 7640   2.531   3.179  14.870 -0.5058  0.3409 -0.5358
  511TMC3    C1 7641   2.578   2.960  14.971 -0.3694 -0.3947 -0.8001
  511TMC3    C2 7642   2.513   3.029  15.070  0.2025  0.1220 -0.9587
  511TMC3    C3 7643   2.422   2.964  15.149 -0.2756  0.1244 -1.1477
  511TMC3    C4 7644   2.566   2.822  14.957 -0.0457 -0.0823  0.5488
  511TMC3    C5 7645   2.479   2.755  15.041 -0.0111 -0.6753 -0.1964
  511TMC3    C6 7646   2.406   2.827  15.130 -0.9531  0.2005 -0.7008
  511TMC3     C 7647   2.664   3.023  14.870 -0.3432  0.8341 -0.4210
  511TMC3     O 7648   2.742   2.951  14.813 -0.0303  0.1269  0.2969
  511TMC3     H 7649   2.520   3.137  15.075 -2.4460  0.1881  1.3767
  511TMC3    H1 7650   2.614   2.769  14.876 -1.2563 -2.5771  1.4688
  511TMC3    H2 7651   2.342   2.770  15.197  1.8215 -0.9000  1.0222
  511TMC3    C7 7652   2.427   2.629  14.990 -0.6666 -0.0709 -0.4309
  511TMC3    C8 7653   2.341   3.041  15.236 -0.0620  0.1200 -0.6489
  511TMC3    O1 7654   2.459   2.605  14.873 -0.2364  0.1641 -0.0971
  511TMC3    O2 7655   2.318   3.151  15.200 -0.9325 -0.1866  0.3353
  512TMC3    C1 7656   1.500   2.783  13.519 -0.3523  0.9543  0.1635
  512TMC3    C2 7657   1.636   2.808  13.532  0.3138 -0.8426  0.2870
  512TMC3    C3 7658   1.726   2.773  13.427 -0.5505 -0.0035  0.6483
  512TMC3    C4 7659   1.453   2.714  13.407 -0.6002 -0.7024 -0.0260
  512TMC3    C5 7660   1.545   2.670  13.315  0.4374 -0.1689 -0.4818
  512TMC3    C6 7661   1.679   2.694  13.330 -0.0843 -0.6138  0.5549
  512TMC3     C 7662   1.432   2.770  13.648 -0.6994 -0.9208  0.0096
  512TMC3     O 7663   1.444   2.862  13.730 -0.1731  0.5986  0.2567
  512TMC3     H 7664   1.670   2.829  13.633 -0.7588 -1.0163  0.6837
  512TMC3    H1 7665   1.345   2.715  13.395 -0.4032 -1.2812 -1.9129
  512TMC3    H2 7666   1.750   2.647  13.263  0.7460  0.2172  0.8609
  512TMC3    C7 7667   1.489   2.645  13.184  0.0216  0.4381 -0.3838
  512TMC3    C8 7668   1.863   2.760  13.461  0.1895  0.6714  0.2850
  512TMC3    O1 7669   1.380   2.700  13.155 -0.3929  0.0216  0.3460
  512TMC3    O2 7670   1.926   2.676  13.399  0.2901  0.5002  0.2415
  513MPD2     C 7671   3.677   3.267  13.135  0.3220 -0.4340 -0.6218
  513MPD2    C1 7672   3.608   3.159  13.093  0.3300  0.5053  0.2214
  513MPD2    C2 7673   3.608   3.049  13.176 -0.5988  0.4842  0.6263
  513MPD2    C3 7674   3.670   3.041  13.296  0.8233 -0.1633  0.0611
  513MPD2    C4 7675   3.741   3.155  13.338  0.3959  0.8292 -0.2528
  513MPD2    C5 7676   3.743   3.264  13.258  0.6743  0.0181 -0.6480
  513MPD2     H 7677   3.559   2.961  13.136 -0.6663  1.1334 -0.7346
  513MPD2    H1 7678   3.775   3.173  13.440  1.6252 -1.0183 -0.3226
  513MPD2    H2 7679   3.682   3.359  13.077  2.9282  0.5053  1.1068
  513MPD2    H3 7680   3.777   3.361  13.292 -2.9925  0.0922  2.7223
  513MPD2     N 7681   3.667   2.916  13.368 -0.1463  0.3373 -0.0359
  513MPD2    H5 7682   3.618   2.845  13.315  0.8534  0.0258 -0.5464
  513MPD2    N1 7683   3.556   3.147  12.955 -0.2029  0.6595 -0.3052
  513MPD2    H7 7684   3.536   3.232  12.903 -1.5648  1.6024  1.7597
  514TMC3    C1 7685   3.434   3.060  12.786  0.2224 -0.2782 -0.0950
  514TMC3    C2 7686   3.499   3.084  12.672  0.0642  0.5537  0.6305
  514TMC3    C3 7687   3.451   3.040  12.555 -0.0316  0.0724  0.1772
  514TMC3    C4 7688   3.324   2.983  12.787 -0.0331 -0.2802  1.0591
  514TMC3    C5 7689   3.295   2.907  12.672  0.2410 -0.7584 -0.5275
  514TMC3    C6 7690   3.359   2.937  12.554  0.6740  0.0234  0.1702
  514TMC3     C 7691   3.523   3.034  12.894 -0.1338  0.1739  0.2593
  514TMC3     O 7692   3.546   2.914  12.924 -0.1910 -0.1864 -0.0824
  514TMC3     H 7693   3.586   3.147  12.663 -0.2309  1.0447  1.2571
  514TMC3    H1 7694   3.270   2.963  12.879  0.1522  0.7823  1.3919
  514TMC3    H2 7695   3.335   2.878  12.466  0.0935 -0.7640  0.8606
  514TMC3    C7 7696   3.284   2.766  12.699  0.0973  0.6683  0.7819
  514TMC3    C8 7697   3.501   3.097  12.427  0.2966  0.1550  0.4699
  514TMC3    O1 7698   3.266   2.692  12.605  0.6673  0.3756 -0.1175
  514TMC3    O2 7699   3.586   3.187  12.436  0.6109  0.4665 -0.1315
  515MPD2     C 7700   1.384   4.702  14.849 -0.8667 -0.2791 -0.2088
  515MPD2    C1 7701   1.469   4.597  14.815  0.7845  0.1146  0.4045
  515MPD2    C2 7702   1.602   4.618  14.842 -0.5201  0.2828 -0.9084
  515MPD2    C3 7703   1.649   4.723  14.917 -0.5276  0.2108  0.0380
  515MPD2    C4 7704   1.556   0.078  14.964 -0.0323  0.4250  0.2236
  515MPD2    C5 7705   1.425   0.065  14.928  0.1887 -0.2405 -0.5777
  515MPD2     H 7706   1.666   4.535  14.818 -0.5267  0.0250 -0.0363
  515MPD2    H1 7707   1.588   0.159  15.028 -0.3253  0.6753  0.0564
  515MPD2    H2 7708   1.276   4.697  14.838 -0.6859 -1.5896 -1.4135
  515MPD2    H3 7709   1.347   0.137  14.948  0.0648 -0.4771 -0.2169
  515MPD2     N 7710   1.788   0.010  14.946 -0.1037  0.0574  0.3716
  515MPD2    H5 7711   1.804   0.084  15.014  1.3951 -1.0465  1.2369
  515MPD2    N1 7712   1.430   4.486  14.734  0.0501 -0.0247 -0.0019
  515MPD2    H7 7713   1.510   4.427  14.715  0.7117  0.8980 -0.0770
  516TMC3    C1 7714   1.311   4.343  14.589 -0.0009  0.0467 -0.2589
  516TMC3    C2 7715   1.231   4.342  14.483  0.6379  0.1407  0.5183
  516TMC3    C3 7716   1.238   4.238  14.400 -0.0616  0.1082  0.0824
  516TMC3    C4 7717   1.389   4.240  14.624  0.1095 -0.4475 -0.2884
  516TMC3    C5 7718   1.399   4.128  14.542  0.6604  1.0494 -0.0232
  516TMC3    C6 7719   1.324   4.130  14.427 -0.7367 -0.3768 -0.7930
  516TMC3     C 7720   1.302   4.458  14.677  0.0249 -0.4593 -0.4954
  516TMC3     O 7721   1.193   4.507  14.698  0.3266  0.1811 -0.4232
  516TMC3     H 7722   1.165   4.425  14.459  0.4853  0.0174  0.5142
  516TMC3    H1 7723   1.451   4.234  14.713 -0.1306 -0.6441 -0.1374
  516TMC3    H2 7724   1.341   4.049  14.357  1.2742 -0.7058  0.0741
  516TMC3    C7 7725   1.413   3.999  14.610  0.2424 -0.3322 -0.0187
  516TMC3    C8 7726   1.149   4.234  14.290 -0.0739  0.4343  0.4045
  516TMC3    O1 7727   1.485   3.998  14.709  0.0652 -0.4366 -0.0410
  516TMC3    O2 7728   1.052   4.303  14.307 -0.5862 -0.3500  0.6430
  517MPD2     C 7729   1.187   1.031  17.603 -0.6010 -0.3426 -0.3101
  517MPD2    C1 7730   1.290   1.036  17.684  0.5222  0.0113  0.2036
  517MPD2    C2 7731   1.314   1.153   0.001  0.6425  0.4245 -0.1054
  517MPD2    C3 7732   1.229   1.262  17.748  0.1372  0.3248 -0.4834
  517MPD2    C4 7733   1.122   1.248  17.667  0.6825 -0.2514 -0.0814
  517MPD2    C5 7734   1.111   1.136  17.594 -0.4548  0.0860  0.8103
  517MPD2     H 7735   1.397   1.161   0.071  0.6552  0.9252 -0.1797
  517MPD2    H1 7736   1.050   1.326  17.651  1.1254 -0.0246 -0.9680
  517MPD2    H2 7737   1.154   0.951  17.538 -1.5531 -0.8555  0.8180
  517MPD2    H3 7738   1.024   1.134  17.529 -0.3105 -1.4709  0.6689
  517MPD2     N 7739   1.232   1.372   0.083  0.5388  0.4983  0.1183
  517MPD2    H5 7740   1.158   1.441   0.077  1.4850  1.5210  0.2753
  517MPD2    N1 7741   1.374   0.929  17.699 -0.1528  0.3140 -0.3641
  517MPD2    H7 7742   1.450   0.938   0.012 -0.5667 -3.2424  0.6196
  518TMC3    C1 7743   1.465   0.706  17.694 -0.2907  0.0030  0.4527
  518TMC3    C2 7744   1.437   0.574  17.701 -0.1806  0.4862 -0.5474
  518TMC3    C3 7745   1.537   0.479  17.704  0.1987  0.0417 -0.0750
  518TMC3    C4 7746   1.595   0.745  17.681 -0.5658 -0.2534 -0.4277
  518TMC3    C5 7747   1.694   0.652  17.687 -0.7680 -0.7930 -0.3792
  518TMC3    C6 7748   1.669   0.520  17.713 -0.4713  0.5037  0.0926
  518TMC3     C 7749   1.353   0.798  17.649 -0.0539  0.3523 -0.3673
  518TMC3     O 7750   1.264   0.740  17.589 -0.4423  0.1338 -0.6104
  518TMC3     H 7751   1.333   0.543  17.690  0.1205 -0.6821 -0.1177
  518TMC3    H1 7752   1.629   0.845  17.656  0.9712 -0.8586 -0.7706
  518TMC3    H2 7753   1.751   0.454  17.740 -0.7682  0.9749  2.1489
  518TMC3    C7 7754   1.813   0.684  17.617  0.2571  0.3316 -0.0291
  518TMC3    C8 7755   1.524   0.339  17.670  0.3432  0.1165  1.2757
  518TMC3    O1 7756   1.863   0.794  17.609  0.1460  0.2020 -0.0898
  518TMC3    O2 7757   1.630   0.277  17.652 -0.3003  0.4725  0.2337
  519MPD2     C 7758   2.990   4.155  14.508  0.1580  0.5540 -0.4622
  519MPD2    C1 7759   2.944   4.174  14.383  0.0330  0.2798 -0.6831
  519MPD2    C2 7760   3.014   4.111  14.275 -0.1721 -0.0604 -0.0096
  519MPD2    C3 7761   3.124   4.036  14.286  0.2259  0.0194 -0.2045
  519MPD2    C4 7762   3.162   4.015  14.417 -0.5880  0.0384 -0.5163
  519MPD2    C5 7763   3.096   4.072  14.523  0.0712 -0.4235  0.3072
  519MPD2     H 7764   2.967   4.130  14.179  0.6269 -1.4992 -0.6784
  519MPD2    H1 7765   3.244   3.946  14.434 -2.1616 -2.1254 -1.7480
  519MPD2    H2 7766   2.943   4.206  14.591 -0.2129 -0.4918 -0.0299
  519MPD2    H3 7767   3.132   4.051  14.623 -1.2233  2.5257  1.4002
  519MPD2     N 7768   3.196   3.976  14.177 -0.3087 -0.8603 -0.2630
  519MPD2    H5 7769   3.249   3.895  14.206 -1.2643 -0.9495  1.2993
  519MPD2    N1 7770   2.825   4.255  14.371 -0.6598 -0.2344  0.2418
  519MPD2    H7 7771   2.789   4.292  14.458 -0.4806 -1.5586  0.8753
  520TMC3    C1 7772   3.228   3.925  13.953  0.9298  0.0180  0.4893
  520TMC3    C2 7773   3.179   3.939  13.830 -0.3159 -0.0295 -0.2525
  520TMC3    C3 7774   3.232   3.854  13.731 -0.0804  0.4994 -0.3821
  520TMC3    C4 7775   3.332   3.840  13.980  0.0551  0.6355 -0.2073
  520TMC3    C5 7776   3.389   3.767  13.881 -0.8613  1.0037 -0.8072
  520TMC3    C6 7777   3.336   3.772  13.755  0.5273 -0.3717  0.1718
  520TMC3     C 7778   3.178   4.021  14.047 -0.1995 -0.2762 -0.3826
  520TMC3     O 7779   3.118   4.118  14.008  0.2126  0.1480  0.1389
  520TMC3     H 7780   3.091   3.998  13.810 -0.4980  0.2221  1.2979
  520TMC3    H1 7781   3.389   3.852  14.071  0.4168 -0.1374 -0.3335
  520TMC3    H2 7782   3.373   3.721  13.666 -1.9938 -1.5978 -0.1630
  520TMC3    C7 7783   3.467   3.646  13.928 -0.4397 -0.3511 -0.5334
  520TMC3    C8 7784   3.184   3.871  13.593  0.2221 -0.1482  0.6663
  520TMC3    O1 7785   3.494   3.652  14.045 -0.0431  0.2510 -0.5129
  520TMC3    O2 7786   3.252   3.836  13.499 -0.1316  0.0535  0.1213
  521MPD2     C 7787   3.892   1.127  17.484 -0.2709  0.2788 -0.4262
  521MPD2    C1 7788   3.972   1.232  17.444 -0.0512 -0.2647  0.2636
  521MPD2    C2 7789   4.094   1.199  17.391 -0.0995  0.0327  0.9453
  521MPD2    C3 7790   4.142   1.067  17.391  0.0488 -0.4551 -0.0200
  521MPD2    C4 7791   4.059   0.971  17.438 -0.2009 -0.2900 -0.6049
  521MPD2    C5 7792   3.935   1.003  17.492  0.6608  0.0581 -0.0636
  521MPD2     H 7793   4.170   1.275  17.373 -1.0727  0.7583 -0.0662
  521MPD2    H1 7794   4.087   0.867  17.447  1.6587  0.2853  0.1486
  521MPD2    H2 7795   3.803   1.152  17.540  1.0261  0.4736  1.5525
  521MPD2    H3 7796   3.873   0.926  17.537  0.2052  1.7616  2.1943
  521MPD2     N 7797   4.268   1.040  17.338 -0.3454  0.1498 -0.6864
  521MPD2    H5 7798   4.327   1.116  17.306  1.7804 -1.2784 -0.1335
  521MPD2    N1 7799   3.913   1.358  17.454 -1.0760  0.2171  0.7274
  521MPD2    H7 7800   3.831   1.368  17.513  2.0353  1.0203  4.8502
  522TMC3    C1 7801   4.464   0.941  17.284 -0.0736 -0.1714  0.2931
  522TMC3    C2 7802   4.525   0.831  17.224  0.1884 -0.2667  0.0682
  522TMC3    C3 7803   4.659   0.843  17.198 -0.3170 -0.1842  0.1519
  522TMC3    C4 7804   4.538   1.057  17.313 -0.3993  0.0052 -0.4504
  522TMC3    C5 7805   4.677   1.062  17.292  0.6166 -0.5733 -0.0234
  522TMC3    C6 7806   4.731   0.957  17.233 -0.6070  0.2776 -0.5679
  522TMC3     C 7807   4.329   0.919  17.324 -0.5926  0.3317 -0.5719
  522TMC3     O 7808   4.298   0.802  17.335 -0.5011 -0.0162 -0.1874
  522TMC3     H 7809   4.456   0.765  17.172 -0.8339 -0.4358  1.6403
  522TMC3    H1 7810   4.500   1.122  17.390  1.1685 -1.0422  1.2036
  522TMC3    H2 7811   0.098   0.958  17.210 -0.3078  1.8671  0.8061
  522TMC3    C7 7812   0.007   1.186  17.255  0.4763  0.3581  0.5117
  522TMC3    C8 7813   4.697   0.775  17.080  0.8883 -0.5400  0.2251
  522TMC3    O1 7814   0.126   1.174  17.220 -0.0829 -0.0984 -0.0561
  522TMC3    O2 7815   4.648   0.664  17.051  0.3818  1.2930 -0.1277
  523MPD2     C 7816   1.732   1.852  10.374 -0.2663 -0.2814 -0.0022
  523MPD2    C1 7817   1.668   1.809  10.260  0.2260  0.4000 -0.1270
  523MPD2    C2 7818   1.607   1.901  10.176  0.2667  0.3447  0.4957
  523MPD2    C3 7819   1.629   2.036  10.204 -0.0550 -0.7901  0.4344
  523MPD2    C4 7820   1.702   2.072  10.314 -0.1713  0.2057 -0.3851
  523MPD2    C5 7821   1.744   1.983  10.402  0.0448 -0.0992  0.0839
  523MPD2     H 7822   1.550   1.867  10.090  0.3294 -2.1704  1.4312
  523MPD2    H1 7823   1.703   2.178  10.338 -0.2677  0.0680  0.2377
  523MPD2    H2 7824   1.785   1.783  10.438  0.7147  1.9403  1.5507
  523MPD2    H3 7825   1.784   2.010  10.499  0.8914  1.5415 -0.7192
  523MPD2     N 7826   1.581   2.148  10.128 -0.3703  0.0154  0.1214
  523MPD2    H5 7827   1.628   2.236  10.148  0.5492 -0.2469 -0.8591
  523MPD2    N1 7828   1.664   1.667  10.242  0.1453  0.8617 -0.1403
  523MPD2    H7 7829   1.686   1.611  10.324  2.9538  2.5360  0.2243
  524TMC3    C1 7830   1.465   2.265   9.972 -0.5711  0.4481 -0.3334
  524TMC3    C2 7831   1.346   2.279   9.906 -0.3524 -0.3073 -0.5782
  524TMC3    C3 7832   1.339   2.378   9.815 -0.4710  0.0262 -0.1103
  524TMC3    C4 7833   1.561   2.363   9.972 -0.0929  0.0200  0.1273
  524TMC3    C5 7834   1.538   2.473   9.898  0.3588 -0.6379 -0.2827
  524TMC3    C6 7835   1.430   2.484   9.819 -0.4196 -0.6650 -0.2662
  524TMC3     C 7836   1.488   2.135  10.031  0.3444 -0.5386 -0.0122
  524TMC3     O 7837   1.413   2.042  10.001 -0.4029  0.8820  0.8126
  524TMC3     H 7838   1.275   2.197   9.900 -2.8498  1.9005 -0.9604
  524TMC3    H1 7839   1.657   2.346  10.020  0.6430 -0.8196 -1.6540
  524TMC3    H2 7840   1.414   2.564   9.748 -1.2046  0.1470  0.8155
  524TMC3    C7 7841   1.633   2.576   9.888  0.8236  0.3790  0.0036
  524TMC3    C8 7842   1.234   2.379   9.715 -0.4016  0.3567  0.6482
  524TMC3    O1 7843   1.749   2.559   9.849  0.2612  0.5451 -0.2149
  524TMC3    O2 7844   1.125   2.326   9.747 -0.2852 -0.1372 -0.4045
  525MPD2     C 7845   4.358   3.729  14.400 -0.1420  0.4310 -0.1501
  525MPD2    C1 7846   4.471   3.692  14.460 -0.2455  0.4543  0.6645
  525MPD2    C2 7847   4.583   3.775  14.467 -0.4775  0.1951 -0.2878
  525MPD2    C3 7848   4.574   3.900  14.420 -0.0441 -0.1206 -0.3523
  525MPD2    C4 7849   4.456   3.938  14.355 -0.4171 -0.0211 -0.4522
  525MPD2    C5 7850   4.348   3.855  14.341  0.0395 -0.1797 -0.3023
  525MPD2     H 7851   4.665   3.741  14.529 -0.7621 -0.7851 -0.4498
  525MPD2    H1 7852   4.439   4.038  14.319  1.5143  0.4370 -0.0769
  525MPD2    H2 7853   4.275   3.661  14.380 -0.0325 -0.1011  1.2427
  525MPD2    H3 7854   4.259   3.890  14.290 -0.8321  1.1233  2.0940
  525MPD2     N 7855   4.672   3.997  14.435 -0.4083 -0.3943 -0.2153
  525MPD2    H5 7856   4.639   4.090  14.413  0.2600  0.7291  3.6213
  525MPD2    N1 7857   4.483   3.561  14.509  0.1111  0.2502  0.2355
  525MPD2    H7 7858   4.401   3.502  14.502 -0.0566  0.1882  2.6671
  526TMC3    C1 7859   4.572   3.369  14.614 -0.5256  0.0893  0.3532
  526TMC3    C2 7860   4.461   3.354  14.689  0.8186  0.4659  0.3072
  526TMC3    C3 7861   4.464   3.234  14.759  0.0135  0.1216 -0.2817
  526TMC3    C4 7862   4.670   3.280  14.598  0.0412 -0.6735 -0.1648
  526TMC3    C5 7863   4.671   3.170  14.682  0.7225 -0.5965  0.7955
  526TMC3    C6 7864   4.562   3.144  14.754 -0.1657 -0.1837 -0.3671
  526TMC3     C 7865   4.595   3.496  14.555  0.1991 -0.0156  0.5411
  526TMC3     O 7866   4.712   3.533  14.550 -0.2683  0.4473  0.2446
  526TMC3     H 7867   4.392   3.433  14.718  1.0508  0.8130 -0.0799
  526TMC3    H1 7868   0.022   3.312  14.548  0.8262 -1.0700  1.0320
  526TMC3    H2 7869   4.559   3.067  14.831 -0.4554  2.5813  2.4056
  526TMC3    C7 7870   0.052   3.107  14.716  0.0495  0.3869  0.0662
  526TMC3    C8 7871   4.382   3.225  14.880 -0.0769  0.3413  0.0286
  526TMC3    O1 7872   0.066   3.043  14.820 -0.4067 -0.6603  0.3765
  526TMC3    O2 7873   4.363   3.327  14.943 -0.4426  0.0877 -0.0693
  527MPD2     C 7874   2.902   1.023   1.678  0.1851 -0.1092  0.1364
  527MPD2    C1 7875   2.883   1.042   1.539 -0.0730 -0.4255 -0.1944
  527MPD2    C2 7876   2.998   1.060   1.464  0.2069  0.3684 -0.0831
  527MPD2    C3 7877   3.123   1.051   1.518 -0.6081  0.3367 -0.6236
  527MPD2    C4 7878   3.132   1.016   1.650 -0.1404  0.1710 -0.1965
  527MPD2    C5 7879   3.024   1.016   1.731  0.3011  0.0914  0.1854
  527MPD2     H 7880   2.998   1.087   1.359 -1.3074  1.1505  0.1296
  527MPD2    H1 7881   3.227   1.022   1.703  0.6936  0.9638 -1.7815
  527MPD2    H2 7882   2.813   1.016   1.740  0.2511 -0.7669  0.1587
  527MPD2    H3 7883   3.041   1.024   1.838 -1.5401  1.1844  0.4080
  527MPD2     N 7884   3.231   1.089   1.444  0.3448 -0.3537  0.1484
  527MPD2    H5 7885   3.208   1.092   1.345 -0.3572 -1.1854  0.2863
  527MPD2    N1 7886   2.761   1.028   1.468 -0.0187  0.8435  0.6228
  527MPD2    H7 7887   2.771   1.037   1.367  2.0166 -1.1321  0.6503
  528TMC3    C1 7888   2.535   0.989   1.418 -0.4667  0.0036  0.5429
  528TMC3    C2 7889   2.580   0.934   1.305 -0.4445 -0.5421  0.2532
  528TMC3    C3 7890   2.490   0.914   1.200 -0.5349  0.4422  0.1683
  528TMC3    C4 7891   2.404   0.999   1.449 -0.3651  0.9475  0.0345
  528TMC3    C5 7892   2.315   0.977   1.344  0.0242  0.2881 -0.3763
  528TMC3    C6 7893   2.359   0.941   1.216 -0.1266 -0.2565 -0.8216
  528TMC3     C 7894   2.637   1.009   1.524 -0.0249  0.5175 -0.6653
  528TMC3     O 7895   2.608   0.993   1.641  0.1880 -0.3695  0.2125
  528TMC3     H 7896   2.682   0.901   1.290 -1.0933 -1.5194 -2.1228
  528TMC3    H1 7897   2.371   1.048   1.539  0.5100 -1.8292  1.8506
  528TMC3    H2 7898   2.293   0.906   1.137 -0.3368 -0.9272 -0.3552
  528TMC3    C7 7899   2.180   1.028   1.340  0.0601  0.3855  0.1422
  528TMC3    C8 7900   2.547   0.857   1.081 -0.3312 -0.7517 -0.4905
  528TMC3    O1 7901   2.115   0.995   1.241  0.0092  0.1270 -0.1015
  528TMC3    O2 7902   2.507   0.904   0.978 -0.0518  0.3390  0.3479
  529MPD2     C 7903   0.088   4.411   0.393  0.0241 -0.0461  0.6163
  529MPD2    C1 7904   0.204   4.361   0.338 -0.9378 -0.5154  0.0672
  529MPD2    C2 7905   0.250   4.416   0.220  0.3817 -0.0857  0.5335
  529MPD2    C3 7906   0.179   4.514   0.155  0.2850 -0.0700 -0.6030
  529MPD2    C4 7907   0.059   4.554   0.204  0.5050  0.0967  0.1405
  529MPD2    C5 7908   0.018   4.509   0.327 -1.1113  0.3699  0.6976
  529MPD2     H 7909   0.342   4.380   0.176  1.1784 -0.1711  2.2530
  529MPD2    H1 7910   4.737   4.621   0.144 -0.0638 -0.2500  0.3226
  529MPD2    H2 7911   0.033   4.371   0.477  0.0509 -2.1275 -0.3546
  529MPD2    H3 7912   4.658   4.532   0.364 -1.0322  3.1109 -0.7797
  529MPD2     N 7913   0.216   4.574   0.033  0.4472  0.1427  0.4115
  529MPD2    H5 7914   0.146   4.627  17.734  3.1952  2.7428 -0.6775
  529MPD2    N1 7915   0.274   4.257   0.400  0.4162 -0.0253  0.2589
  529MPD2    H7 7916   0.346   4.205   0.351 -0.3533  0.3863 -1.3300
  530TMC3    C1 7917   0.346   4.132   0.596 -0.9964  0.6193  0.1988
  530TMC3    C2 7918   0.373   4.171   0.723 -0.0660  0.7622  0.3877
  530TMC3    C3 7919   0.418   4.075   0.809  0.1740  1.0704  0.1324
  530TMC3    C4 7920   0.331   4.004   0.568 -0.5019 -0.6866 -0.0076
  530TMC3    C5 7921   0.363   3.908   0.659  0.1166  0.1529 -0.3815
  530TMC3    C6 7922   0.420   3.947   0.776  0.6225 -0.1344  0.0884
  530TMC3     C 7923   0.253   4.225   0.532  0.3868 -0.2410 -0.1013
  530TMC3     O 7924   0.183   4.276   0.617 -0.5183  0.4493  0.2857
  530TMC3     H 7925   0.381   4.276   0.750 -1.0593  0.9477 -0.0577
  530TMC3    H1 7926   0.270   3.974   0.484 -3.9598 -0.5685  2.4460
  530TMC3    H2 7927   0.464   3.874   0.843  0.2740  0.9438  1.4937
  530TMC3    C7 7928   0.361   3.773   0.616  0.7362  0.7998  0.3259
  530TMC3    C8 7929   0.468   4.121   0.937 -0.0907  0.0023  0.1525
  530TMC3    O1 7930   0.340   3.751   0.496  0.4027 -0.2465 -0.1951
  530TMC3    O2 7931   0.422   4.230   0.973  0.2127  0.0588 -0.1457
  531MPD2     C 7932   3.479   2.372  12.969  0.4353  0.6233 -0.5787
  531MPD2    C1 7933   3.482   2.487  13.049 -0.2601 -0.3379 -0.0669
  531MPD2    C2 7934   3.436   2.605  12.986  0.0689 -0.5878  0.9507
  531MPD2    C3 7935   3.365   2.608  12.864  0.0604 -0.4724 -0.6416
  531MPD2    C4 7936   3.358   2.493  12.791 -0.6714 -0.1516 -0.2948
  531MPD2    C5 7937   3.423   2.378  12.843 -0.2511 -0.1646 -0.2716
  531MPD2     H 7938   3.443   2.700  13.038 -0.1628 -0.0242 -0.0427
  531MPD2    H1 7939   3.321   2.486  12.690  0.3889 -2.9120 -0.4968
  531MPD2    H2 7940   3.512   2.274  13.004  1.6457  1.0682 -0.4640
  531MPD2    H3 7941   3.416   2.290  12.781 -0.2114  0.2346 -0.8393
  531MPD2     N 7942   3.334   2.742  12.817 -0.4802 -0.3515 -0.4745
  531MPD2    H5 7943   3.366   2.818  12.876 -2.8662 -0.4378  0.9006
  531MPD2    N1 7944   3.542   2.492  13.178  0.1328 -0.4782 -0.1262
  531MPD2    H7 7945   3.617   2.428  13.204 -0.5387 -1.6038 -0.9488
  532TMC3    C1 7946   3.591   2.587  13.393 -0.5814  0.5169 -0.3635
  532TMC3    C2 7947   3.589   2.708  13.462 -0.6741  0.0791  0.4209
  532TMC3    C3 7948   3.700   2.760  13.526  0.1676 -0.3164  0.5987
  532TMC3    C4 7949   3.699   2.506  13.403  1.2335  0.3586 -0.6295
  532TMC3    C5 7950   3.812   2.561  13.454  0.1690 -0.4509 -0.2769
  532TMC3    C6 7951   3.817   2.683  13.521 -0.0780 -0.3804 -1.1810
  532TMC3     C 7952   3.515   2.596  13.264 -0.5279  0.0701 -0.8038
  532TMC3     O 7953   3.432   2.686  13.259 -0.2609  0.5265  0.2786
  532TMC3     H 7954   3.501   2.771  13.477 -0.3454  0.7402 -0.4497
  532TMC3    H1 7955   3.693   2.401  13.378  0.3513  0.6219 -1.5099
  532TMC3    H2 7956   3.910   2.733  13.546 -0.7678 -0.0195  0.6703
  532TMC3    C7 7957   3.912   2.471  13.502  0.0017 -0.1496 -0.1947
  532TMC3    C8 7958   3.727   2.896  13.488 -0.0119  0.1065 -0.1400
  532TMC3    O1 7959   3.980   2.511  13.594  0.0651 -0.2862  0.1452
  532TMC3    O2 7960   3.821   2.956  13.542 -0.5387 -0.2102  0.2836
  533TMC3    C1 7961   0.119   4.105  14.538 -0.3964  0.4439  0.1018
  533TMC3    C2 7962   0.251   4.083  14.568 -0.0471  0.6784 -0.2439
  533TMC3    C3 7963   0.308   4.121  14.683  0.0263  0.7037 -0.4142
  533TMC3    C4 7964   0.046   4.169  14.637 -0.1475  0.7976  0.3339
  533TMC3    C5 7965   0.104   4.204  14.755 -0.2189 -0.9064  0.0683
  533TMC3    C6 7966   0.237   4.187  14.774  0.2680 -0.1813  0.0829
  533TMC3     C 7967   0.055   3.982  14.499 -0.0895  0.6636  0.6872
  533TMC3     O 7968   0.115   3.884  14.537  0.2589 -0.2948 -0.2943
  533TMC3     H 7969   0.305   4.038  14.486 -0.0905  1.7304 -0.8433
  533TMC3    H1 7970   4.679   4.184  14.618 -0.0777 -2.6547 -2.7800
  533TMC3    H2 7971   0.283   4.224  14.865  1.9144 -1.8522 -0.0749
  533TMC3    C7 7972   0.021   4.176  14.870  0.0017  0.1993 -0.0187
  533TMC3    C8 7973   0.452   4.111  14.699  0.3050 -0.4514 -0.6728
  533TMC3    O1 7974   0.053   4.076  14.937  0.5364 -0.1432  0.4284
  533TMC3    O2 7975   0.491   4.206  14.767  0.7930 -0.1308 -0.1039
  534MPD2     C 7976   3.052   4.355   1.213  0.4748 -0.1900  0.9849
  534MPD2    C1 7977   3.034   4.492   1.202 -0.4492  0.3110  0.3661
  534MPD2    C2 7978   2.914   4.531   1.146  0.2359  0.5934  0.3456
  534MPD2    C3 7979   2.816   4.439   1.108  0.4529  0.4530 -0.4404
  534MPD2    C4 7980   2.843   4.309   1.128  0.6754 -0.9563  0.3228
  534MPD2    C5 7981   2.960   4.267   1.172  0.1023 -0.4076  0.6389
  534MPD2     H 7982   2.895   4.637   1.134  3.7684  1.3135  1.1035
  534MPD2    H1 7983   2.772   4.234   1.094  0.8526 -0.3167 -1.4495
  534MPD2    H2 7984   3.145   4.315   1.252  1.0605  1.2455  1.0663
  534MPD2    H3 7985   2.985   4.162   1.173 -0.5716 -0.5800 -1.3240
  534MPD2     N 7986   2.695   4.478   1.050 -0.0562 -0.5535  0.6526
  534MPD2    H5 7987   2.629   4.402   1.040  0.7597 -1.1512 -0.1740
  534MPD2    N1 7988   3.124   4.588   1.254  0.0223  0.6758 -0.1588
  534MPD2    H7 7989   3.094   4.685   1.262  1.0098  1.0396 -0.8929
  535TMC3    C1 7990   2.522   4.631   0.998 -0.5137  0.4215  0.6490
  535TMC3    C2 7991   2.440   4.574   1.085 -0.2969 -0.0860 -0.3741
  535TMC3    C3 7992   2.311   4.618   1.086 -0.0073 -0.3913 -0.2507
  535TMC3    C4 7993   2.488   4.724   0.903  0.2171  0.2721 -0.6973
  535TMC3    C5 7994   2.356   0.018   0.905 -0.4617 -0.7217 -0.1691
  535TMC3    C6 7995   2.260   4.704   0.992  0.0656  0.2259  0.2446
  535TMC3     C 7996   2.661   4.605   1.020 -0.7331  0.4188  0.1786
  535TMC3     O 7997   2.736   4.695   0.990 -0.1085 -0.1095  0.4393
  535TMC3     H 7998   2.484   4.513   1.163  0.2019 -0.0244 -0.6069
  535TMC3    H1 7999   2.567   0.031   0.844 -1.3124 -0.3294 -3.2262
  535TMC3    H2 8000   2.155   4.729   1.000 -0.3741 -1.0408 -1.5814
  535TMC3    C7 8001   2.311   0.125   0.811  0.6220 -0.0175  0.6328
  535TMC3    C8 8002   2.223   4.595   1.198  0.0100  0.0142 -0.2196
  535TMC3    O1 8003   2.393   0.165   0.728  0.7639  0.2133  0.1835
  535TMC3    O2 8004   2.103   4.587   1.174  0.1686 -0.3108  0.4800
  536MPD2     C 8005   1.667   3.106  15.765  0.1489 -0.3216  0.7809
  536MPD2    C1 8006   1.557   3.062  15.847  0.6414 -0.4076 -0.7398
  536MPD2    C2 8007   1.431   3.118  15.819  0.3507  1.1029 -0.1165
  536MPD2    C3 8008   1.420   3.222  15.729  0.1027 -0.1710 -0.0927
  536MPD2    C4 8009   1.530   3.261  15.650 -0.1649  0.8722 -0.4081
  536MPD2    C5 8010   1.650   3.199  15.671 -0.2887  0.3965 -0.7358
  536MPD2     H 8011   1.345   3.081  15.874  1.8827 -2.2044  0.0518
  536MPD2    H1 8012   1.531   3.336  15.572 -1.2932  1.0821 -0.2126
  536MPD2    H2 8013   1.767   3.076  15.795  1.5270  1.3048 -2.2435
  536MPD2    H3 8014   1.733   3.233  15.610  0.8043 -0.5384  0.2306
  536MPD2     N 8015   1.301   3.296  15.710  0.6280 -0.7044  0.5369
  536MPD2    H5 8016   1.305   3.376  15.647  1.2323  1.2222  3.0059
  536MPD2    N1 8017   1.584   2.972  15.949  0.0754  0.4771 -0.2138
  536MPD2    H7 8018   1.682   2.953  15.970 -0.2892  0.7241  1.7589
  537TMC3    C1 8019   1.561   2.818  16.125  0.8437 -0.9445 -0.4588
  537TMC3    C2 8020   1.689   2.845  16.163  0.1452 -0.0041  0.2712
  537TMC3    C3 8021   1.751   2.759  16.252 -0.6354 -0.8191  0.3941
  537TMC3    C4 8022   1.491   2.717  16.176 -0.5436  0.2635  0.2416
  537TMC3    C5 8023   1.557   2.627  16.261  0.0683 -0.5348  0.2348
  537TMC3    C6 8024   1.689   2.644  16.302  0.2207  0.7678  0.7196
  537TMC3     C 8025   1.497   2.904  16.029 -0.1724 -0.6942  0.3318
  537TMC3     O 8026   1.375   2.909  16.029  0.1193 -0.6208 -0.5489
  537TMC3     H 8027   1.739   2.941  16.153 -1.3015  0.6253 -0.9567
  537TMC3    H1 8028   1.386   2.705  16.152 -0.7863  2.0773  0.4389
  537TMC3    H2 8029   1.727   2.576  16.377  0.6837  1.9229  1.5383
  537TMC3    C7 8030   1.464   2.564  16.349 -0.7551 -1.2832 -0.6850
  537TMC3    C8 8031   1.817   2.822  16.364  0.5337 -0.4052 -0.4979
  537TMC3    O1 8032   1.370   2.507  16.292  0.3737 -0.0610  0.3144
  537TMC3    O2 8033   1.776   2.934  16.394 -0.1055 -0.3108 -0.5336
  538TMC3    C1 8034   1.862   1.840  11.419 -0.3522 -0.4315 -0.0574
  538TMC3    C2 8035   1.985   1.780  11.406 -0.2277 -0.1731  0.1140
  538TMC3    C3 8036   2.051   1.791  11.287 -0.2911 -0.3434 -0.5667
  538TMC3    C4 8037   1.815   1.920  11.321  0.1648 -0.3531  0.7756
  538TMC3    C5 8038   1.872   1.916  11.200 -0.0059  0.8530 -0.1104
  538TMC3    C6 8039   1.993   1.865  11.176  0.5545 -0.3049 -0.5823
  538TMC3     C 8040   1.774   1.828  11.536  0.1625  0.6839  0.1442
  538TMC3     O 8041   1.655   1.843  11.524 -0.1965  0.2883  0.2199
  538TMC3     H 8042   2.015   1.707  11.480  2.0168  1.5337  0.8552
  538TMC3    H1 8043   1.724   1.976  11.338 -1.2019 -2.0635 -1.0007
  538TMC3    H2 8044   2.046   1.866  11.082 -0.4094 -1.4411 -1.1348
  538TMC3    C7 8045   1.799   1.959  11.088  1.1468 -1.1052  0.4059
  538TMC3    C8 8046   2.171   1.715  11.272 -0.0607  0.0764  0.1884
  538TMC3    O1 8047   1.679   1.930  11.085  0.2895  0.7741 -0.3802
  538TMC3    O2 8048   2.197   1.632  11.356 -0.4725 -0.1112  0.3504
  539MPD2     C 8049   1.389   1.332  11.999  0.0991 -0.2698 -0.1519
  539MPD2    C1 8050   1.387   1.344  11.862 -0.0191  0.6356  0.0560
  539MPD2    C2 8051   1.330   1.455  11.801 -0.9868  0.0372  1.0648
  539MPD2    C3 8052   1.287   1.562  11.876 -0.4060 -0.2467 -0.1535
  539MPD2    C4 8053   1.289   1.552  12.014  0.0519  0.0391 -0.1508
  539MPD2    C5 8054   1.338   1.438  12.070  0.0240 -0.1212  0.1878
  539MPD2     H 8055   1.323   1.458  11.693  0.5809 -1.1275  0.9242
  539MPD2    H1 8056   1.246   1.627  12.080  1.0221  0.9245 -0.5282
  539MPD2    H2 8057   1.436   1.259  12.064  0.3751  0.1877  0.1610
  539MPD2    H3 8058   1.347   1.432  12.178 -2.1721  0.1119  0.3988
  539MPD2     N 8059   1.243   1.690  11.825 -0.0987 -0.0672 -0.0872
  539MPD2    H5 8060   1.217   1.757  11.896 -1.0202  1.1574 -1.5815
  539MPD2    N1 8061   1.450   1.245  11.788  0.0370 -0.3697 -0.0180
  539MPD2    H7 8062   1.441   1.255  11.687  0.2418 -1.7962 -0.1725
  540TMC3    C1 8063   1.223   1.860  11.674  0.4457 -0.0390 -0.0052
  540TMC3    C2 8064   1.281   1.906  11.562  0.3086 -0.5712  0.1192
  540TMC3    C3 8065   1.239   2.029  11.522  0.6265 -0.7776  0.0469
  540TMC3    C4 8066   1.112   1.923  11.734 -0.3612 -0.0357  0.2958
  540TMC3    C5 8067   1.072   2.040  11.677  0.1253  0.0319 -0.3762
  540TMC3    C6 8068   1.156   2.108  11.593  0.0731 -0.5572  0.9142
  540TMC3     C 8069   1.257   1.719  11.695 -0.2679  1.1292  0.5028
  540TMC3     O 8070   1.290   1.657  11.595  0.2049  0.1211  0.0780
  540TMC3     H 8071   1.362   1.857  11.509  2.3543  2.1502  0.7396
  540TMC3    H1 8072   1.056   1.879  11.815 -0.6195  0.0363  0.1561
  540TMC3    H2 8073   1.123   2.203  11.551  1.0050 -1.0898 -1.0392
  540TMC3    C7 8074   0.943   2.086  11.717 -0.1718 -0.0348 -0.0871
  540TMC3    C8 8075   1.268   2.046  11.378  0.1659 -0.0040  0.4526
  540TMC3    O1 8076   0.887   2.015  11.797  0.5945 -0.3480 -0.6376
  540TMC3    O2 8077   1.347   2.131  11.348  0.0806  0.1957  0.1142
  541MPD2     C 8078   0.045   2.653  13.268  0.2460  0.4354 -0.8339
  541MPD2    C1 8079   0.011   2.554  13.177  0.1492  0.3826  0.1936
  541MPD2    C2 8080   4.699   2.597  13.054 -0.0471  0.2691 -0.5139
  541MPD2    C3 8081   4.696   2.734  13.032 -0.2593 -0.3817  0.0313
  541MPD2    C4 8082   4.734   2.831  13.126 -0.2554 -0.3553  0.3326
  541MPD2    C5 8083   0.045   2.791  13.240  0.2846  0.2868  0.9212
  541MPD2     H 8084   4.664   2.534  12.973 -2.5945  1.3042 -0.2239
  541MPD2    H1 8085   4.734   2.938  13.113 -1.7495 -0.0985  2.4891
  541MPD2    H2 8086   0.074   2.621  13.367  0.2257  0.3169 -0.8670
  541MPD2    H3 8087   0.066   2.864  13.318  3.5204 -2.1908  2.3896
  541MPD2     N 8088   4.650   2.781  12.904  0.5326  0.5235  0.8764
  541MPD2    H5 8089   4.667   2.880  12.888 -1.2878  0.4398 -1.6904
  541MPD2    N1 8090   0.025   2.417  13.214  0.0375 -0.4638 -0.4094
  541MPD2    H7 8091   0.076   2.399  13.300 -0.1712 -2.1585 -0.6497
  542TMC3    C1 8092   4.569   2.784  12.683  0.6205 -0.1054 -0.1669
  542TMC3    C2 8093   4.567   2.713  12.563  0.1713  0.3060  0.3633
  542TMC3    C3 8094   4.549   2.785  12.445  0.1674 -0.6380  0.3856
  542TMC3    C4 8095   4.571   2.921  12.683 -0.0330  0.3799  0.2369
  542TMC3    C5 8096   4.556   2.992  12.568 -0.1521 -0.0686  0.6012
  542TMC3    C6 8097   4.532   2.927  12.450 -0.2992 -0.9838 -0.0266
  542TMC3     C 8098   4.593   2.711  12.805 -0.4824 -0.4180 -0.3774
  542TMC3     O 8099   4.529   2.606  12.815 -0.4291 -0.6620 -0.1415
  542TMC3     H 8100   4.574   2.605  12.561 -0.9072  0.1920  3.1035
  542TMC3    H1 8101   4.552   2.983  12.769 -0.5799  2.4229 -1.3525
  542TMC3    H2 8102   4.535   2.977  12.354 -1.1159 -0.5181  0.1927
  542TMC3    C7 8103   4.615   3.128  12.566 -0.3854 -0.8184 -0.8169
  542TMC3    C8 8104   4.592   2.730  12.319 -0.4299 -0.0274  0.4164
  542TMC3    O1 8105   4.668   3.163  12.669  0.2728 -0.1170  0.3585
  542TMC3    O2 8106   4.536   2.768  12.220 -0.5206 -0.0098 -0.2828
  543TMC3    C1 8107   4.614   3.775  17.317 -0.4028  0.2226  0.0389
  543TMC3    C2 8108   4.636   3.655  17.382 -0.1360  0.3245  0.2514
  543TMC3    C3 8109   4.601   3.640  17.511  0.6316 -0.3511  0.0114
  543TMC3    C4 8110   4.547   3.875  17.371  0.4820 -0.6336 -0.3394
  543TMC3    C5 8111   4.511   3.858  17.503 -0.3784  0.0434  0.4797
  543TMC3    C6 8112   4.543   3.745  17.578  0.2437 -0.5725  0.2719
  543TMC3     C 8113   4.673   3.782  17.183 -0.2472 -0.1745 -0.3401
  543TMC3     O 8114   4.731   3.682  17.143  0.0228  0.4485  0.2056
  543TMC3     H 8115   4.680   3.575  17.324  2.0433  1.5603  0.1939
  543TMC3    H1 8116   4.496   3.944  17.304  1.4462  0.0729 -0.3499
  543TMC3    H2 8117   4.526   3.734  17.684 -0.2122 -0.7020  0.1821
  543TMC3    C7 8118   4.420   3.954  17.568  0.3390  0.1732  0.7366
  543TMC3    C8 8119   4.606   3.510  17.565  0.2337 -0.2126 -0.0697
  543TMC3    O1 8120   4.364   3.917  17.670 -0.7285 -0.4856  0.6913
  543TMC3    O2 8121   4.617   3.419  17.486  0.1818  0.0313 -0.8401
  544MPD2     C 8122   4.592   3.194   0.213 -0.1673  0.3041  0.5668
  544MPD2    C1 8123   4.614   3.163   0.085 -0.3112 -0.8029  0.1704
  544MPD2    C2 8124   4.611   3.264  17.749 -0.0974  0.2000  0.0082
  544MPD2    C3 8125   4.596   3.396   0.034  0.1176 -0.0520 -0.7002
  544MPD2    C4 8126   4.576   3.430   0.166  0.1011 -0.1015  0.0718
  544MPD2    C5 8127   4.562   3.327   0.251 -0.8059  0.1335 -0.1560
  544MPD2     H 8128   4.605   3.235  17.645  0.6099 -3.5694  1.0254
  544MPD2    H1 8129   4.575   3.532   0.202 -1.4668  0.1114 -0.5820
  544MPD2    H2 8130   4.593   3.113   0.286 -1.7981 -0.4700 -0.2826
  544MPD2    H3 8131   4.543   3.359   0.353 -0.6319 -0.7146  0.1393
  544MPD2     N 8132   4.595   3.508  17.702  0.5376  0.3742  0.0222
  544MPD2    H5 8133   4.580   3.595   0.001  1.6531  1.5780 -1.6898
  544MPD2    N1 8134   4.638   3.027   0.056  0.1853  0.9844 -0.5675
  544MPD2    H7 8135   4.611   2.960   0.128  2.0890  0.3788 -0.4247
  545TMC3    C1 8136   4.719   2.836  17.701 -0.9004  0.4402  0.7914
  545TMC3    C2 8137   4.737   2.768   0.067 -0.3594  0.5551  0.1193
  545TMC3    C3 8138   0.090   2.670   0.077  0.1942 -0.2947 -0.4864
  545TMC3    C4 8139   0.057   2.793  17.598 -0.4115  0.5127  0.3107
  545TMC3    C5 8140   0.164   2.711  17.608 -0.0401  0.5502  1.0357
  545TMC3    C6 8141   0.191   2.653  17.733  0.2919  0.1459 -0.5563
  545TMC3     C 8142   4.681   2.976  17.694 -0.0834 -0.3499 -0.5218
  545TMC3     O 8143   4.713   3.040  17.598  0.1990  0.7402 -0.1954
  545TMC3     H 8144   4.679   2.793   0.155 -2.2475 -1.6785 -0.5035
  545TMC3    H1 8145   0.028   2.839  17.504 -0.2930 -1.2098 -0.5571
  545TMC3    H2 8146   0.281   2.597   0.002  0.1093 -0.1335 -0.5309
  545TMC3    C7 8147   0.264   2.702  17.502 -0.2456 -0.1171 -0.6569
  545TMC3    C8 8148   0.105   2.593   0.204  0.4521  0.9013  1.0318
  545TMC3    O1 8149   0.251   2.786  17.413  0.5248  0.2731  0.0594
  545TMC3    O2 8150   0.205   2.523   0.209 -0.0914  0.2599  0.0355
  546MPD2     C 8151   1.546   3.541  17.333  0.1853 -0.9664 -0.4817
  546MPD2    C1 8152   1.431   3.593  17.287  0.1010  0.4179  0.2418
  546MPD2    C2 8153   1.427   3.729  17.287  0.2296 -0.3337  0.5876
  546MPD2    C3 8154   1.539   3.813  17.317  0.2150 -0.9773 -0.3449
  546MPD2    C4 8155   1.651   3.751  17.360  0.3762 -0.4535  0.6971
  546MPD2    C5 8156   1.655   3.614  17.371  0.4254 -0.2097 -0.0226
  546MPD2     H 8157   1.333   3.773  17.255  0.1325 -0.4291  0.7446
  546MPD2    H1 8158   1.739   3.808  17.388  1.3349 -0.8969 -1.3896
  546MPD2    H2 8159   1.541   3.433  17.326 -0.6514 -1.0048  0.9204
  546MPD2    H3 8160   1.751   3.567  17.391  0.7209  1.3793  2.3051
  546MPD2     N 8161   1.537   3.949  17.330 -0.2246 -0.0022  0.7810
  546MPD2    H5 8162   1.624   4.000  17.338 -0.4432 -0.0145  3.3834
  546MPD2    N1 8163   1.335   3.510  17.229  0.1167  0.4963  0.0762
  546MPD2    H7 8164   1.337   3.410  17.248 -1.7326  0.3685 -0.3531
  547TMC3    C1 8165   1.175   3.422  17.084 -1.1577 -0.0809 -0.2295
  547TMC3    C2 8166   1.105   3.430  16.964 -0.3330 -0.9091  0.7531
  547TMC3    C3 8167   1.069   3.312  16.905 -0.5557 -0.2136 -0.2584
  547TMC3    C4 8168   1.204   3.301  17.145  0.6240  0.8608  0.5497
  547TMC3    C5 8169   1.140   3.191  17.092  0.0618  0.2080  0.5386
  547TMC3    C6 8170   1.075   3.198  16.970 -0.0148 -0.3503 -0.1276
  547TMC3     C 8171   1.238   3.543  17.137  0.7157  0.3128 -0.1205
  547TMC3     O 8172   1.219   3.658  17.091  0.7265 -0.3469 -0.1282
  547TMC3     H 8173   1.094   3.523  16.909 -1.2851 -0.3018  1.9697
  547TMC3    H1 8174   1.255   3.289  17.240  0.7969  4.0169  0.8548
  547TMC3    H2 8175   1.021   3.110  16.940  0.4033 -0.5873 -0.1799
  547TMC3    C7 8176   1.140   3.072  17.175 -0.3915  0.3659 -0.1272
  547TMC3    C8 8177   0.958   3.328  16.811  0.4248  1.0547  0.7256
  547TMC3    O1 8178   1.154   3.087  17.296  0.4436  0.0838  0.0741
  547TMC3    O2 8179   0.905   3.438  16.806 -0.1125 -0.0013 -0.1815
  548MPD2     C 8180   0.903   4.522  12.679 -0.3698 -0.0600  0.5924
  548MPD2    C1 8181   0.872   4.388  12.669 -0.2753 -0.0612  0.3513
  548MPD2    C2 8182   0.960   4.294  12.615 -0.6613  0.2149  0.2333
  548MPD2    C3 8183   1.087   4.334  12.585  0.3900  0.3571 -0.3124
  548MPD2    C4 8184   1.121   4.466  12.598  0.8945  0.3536  0.1637
  548MPD2    C5 8185   1.024   4.556  12.636 -0.7070  0.4302  0.8231
  548MPD2     H 8186   0.921   4.195  12.595  1.3698 -0.6711  0.6334
  548MPD2    H1 8187   1.223   4.499  12.581  1.2849 -1.4690 -1.0779
  548MPD2    H2 8188   0.841   4.604  12.713 -1.2116 -0.8127  0.8797
  548MPD2    H3 8189   1.050   4.661  12.637  2.7846 -0.3965 -3.0018
  548MPD2     N 8190   1.173   4.234  12.530 -0.5345 -0.0977  0.3507
  548MPD2    H5 8191   1.132   4.142  12.515  2.2399 -1.0393 -1.4841
  548MPD2    N1 8192   0.740   4.358  12.710  0.2043 -0.0893 -0.6735
  548MPD2    H7 8193   0.684   4.426  12.760 -0.0541  0.5035 -1.7734
  549TMC3    C1 8194   0.543   4.253  12.725  0.0535 -0.1262 -0.7970
  549TMC3    C2 8195   0.466   4.332  12.645  0.5185 -1.1965 -0.2145
  549TMC3    C3 8196   0.326   4.326  12.658  0.1575  0.0038  0.2506
  549TMC3    C4 8197   0.486   4.155  12.803 -0.2547  0.1951 -0.0029
  549TMC3    C5 8198   0.352   4.146  12.812 -1.0335 -0.2283 -0.2099
  549TMC3    C6 8199   0.273   4.233  12.742 -0.1604  0.0618 -0.7242
  549TMC3     C 8200   0.681   4.238  12.700  0.4468 -0.3495 -0.1214
  549TMC3     O 8201   0.726   4.125  12.682  0.3312 -0.2851  0.7036
  549TMC3     H 8202   0.509   4.388  12.563 -2.0970 -1.0425 -1.4538
  549TMC3    H1 8203   0.553   4.084  12.849 -1.0921 -0.4901  0.1625
  549TMC3    H2 8204   0.168   4.230  12.767  0.2979 -1.1246  1.0778
  549TMC3    C7 8205   0.290   4.031  12.863  0.5464  0.5435 -0.1410
  549TMC3    C8 8206   0.242   4.393  12.563 -0.5880 -0.4266  0.1458
  549TMC3    O1 8207   0.178   4.047  12.917  0.4339  0.3921 -0.0801
  549TMC3    O2 8208   0.270   4.504  12.520 -0.8023  0.7221 -1.3874
  550TMC3    C1 8209   4.278   2.573  11.913 -0.0031 -1.1668  0.3313
  550TMC3    C2 8210   4.273   2.621  12.041  0.2064 -0.9508  0.4227
  550TMC3    C3 8211   4.181   2.713  12.074  0.2432 -1.2067  0.4860
  550TMC3    C4 8212   4.214   2.640  11.811 -0.0969  1.0436 -0.8852
  550TMC3    C5 8213   4.134   2.747  11.842 -0.5542 -0.4885 -0.2358
  550TMC3    C6 8214   4.119   2.782  11.972 -0.5290 -0.0633 -0.3580
  550TMC3     C 8215   4.354   2.457  11.899 -0.4860 -0.0319 -0.0947
  550TMC3     O 8216   4.413   2.406  11.990 -0.1220  0.1284 -0.3357
  550TMC3     H 8217   4.353   2.591  12.107  0.5051  0.9527  0.9230
  550TMC3    H1 8218   4.239   2.610  11.710 -0.7273  1.7405 -1.2569
  550TMC3    H2 8219   4.052   2.863  11.998 -0.5655  0.3734 -1.8093
  550TMC3    C7 8220   4.022   2.786  11.759 -0.6952  0.0754  0.5780
  550TMC3    C8 8221   4.156   2.752  12.215 -0.4879 -1.0749  0.4664
  550TMC3    O1 8222   3.918   2.819  11.817 -0.1077 -0.1534 -0.5576
  550TMC3    O2 8223   4.083   2.847  12.234  0.6835 -0.7684 -0.5561
  551TMC3    C1 8224   2.114   0.192  13.215  0.6687 -0.1988  0.3757
  551TMC3    C2 8225   2.230   0.191  13.162  0.2224 -0.3813 -0.2555
  551TMC3    C3 8226   2.326   0.244  13.243  0.4629  0.3919  0.0082
  551TMC3    C4 8227   2.076   0.244  13.332  0.1312  0.5904  0.2844
  551TMC3    C5 8228   2.173   0.291  13.409 -0.2924  0.5330  0.3088
  551TMC3    C6 8229   2.298   0.288  13.362 -0.2135 -0.0243  0.0702
  551TMC3     C 8230   2.009   0.140  13.130 -0.6536 -0.3687  0.3619
  551TMC3     O 8231   1.904   0.203  13.126 -0.5173  0.4162  0.2921
  551TMC3     H 8232   2.243   0.158  13.060 -1.2420  1.4726 -1.0399
  551TMC3    H1 8233   1.973   0.238  13.367 -0.0604  1.6369 -0.1028
  551TMC3    H2 8234   2.373   0.328  13.430  0.2031 -0.8639  0.1127
  551TMC3    C7 8235   2.158   0.334  13.542 -0.6778  0.1521 -0.1387
  551TMC3    C8 8236   2.445   0.285  13.173  0.3644  0.8504  1.0733
  551TMC3    O1 8237   2.251   0.330  13.617  0.0181  0.4666 -0.4015
  551TMC3    O2 8238   2.481   0.216  13.080  0.4078  0.3139  0.7010
  552MPD2     C 8239   3.987   2.255  14.145  0.3332 -0.1356  0.3769
  552MPD2    C1 8240   4.069   2.152  14.099  0.4035  0.0854  0.1575
  552MPD2    C2 8241   4.195   2.140  14.164  0.8303 -0.0051 -0.2642
  552MPD2    C3 8242   4.229   2.222  14.265 -0.3535 -0.5205  0.1235
  552MPD2    C4 8243   4.136   2.304  14.327 -0.1936 -0.0133 -0.5550
  552MPD2    C5 8244   4.015   2.322  14.257 -0.8059 -0.0259 -0.5724
  552MPD2     H 8245   4.263   2.065  14.126  0.3123 -0.2237 -0.7693
  552MPD2    H1 8246   4.134   2.366  14.415  1.4988 -1.0402  0.2087
  552MPD2    H2 8247   3.891   2.281  14.102  0.5939  0.9537  0.4558
  552MPD2    H3 8248   3.942   2.394  14.294  1.5836  1.8203  0.5192
  552MPD2     N 8249   4.357   2.204  14.321 -0.5672  0.1586 -0.4971
  552MPD2    H5 8250   4.368   2.232  14.418  0.1987 -1.2835 -0.1693
  552MPD2    N1 8251   4.048   2.067  13.983 -0.7834 -0.0002  0.1164
  552MPD2    H7 8252   4.115   1.993  13.972  2.0949  2.9201 -2.0323
  553TMC3    C1 8253   3.936   1.955  13.823 -0.1873 -0.3387  0.1833
  553TMC3    C2 8254   3.841   1.963  13.726 -0.0150 -0.0468  0.4544
  553TMC3    C3 8255   3.840   1.859  13.638 -0.0060 -0.1859 -0.5275
  553TMC3    C4 8256   4.033   1.859  13.837 -0.2135 -0.4792 -0.9055
  553TMC3    C5 8257   4.032   1.766  13.735  0.2444  0.2582  0.7268
  553TMC3    C6 8258   3.933   1.755  13.642 -0.5047  0.5020 -0.1691
  553TMC3     C 8259   3.934   2.068  13.914 -0.1707  0.6738 -0.4177
  553TMC3     O 8260   3.842   2.149  13.921 -0.0993  0.5466 -0.1850
  553TMC3     H 8261   3.761   2.036  13.724 -1.4038 -1.5736  0.5023
  553TMC3    H1 8262   4.090   1.847  13.928 -1.6591  0.6185  0.1306
  553TMC3    H2 8263   3.928   1.670  13.574  0.3638  0.8411 -0.6637
  553TMC3    C7 8264   4.143   1.669  13.730  0.7835 -0.0426 -0.3428
  553TMC3    C8 8265   3.738   1.846  13.527  0.9110  0.1798 -0.2580
  553TMC3    O1 8266   4.128   1.563  13.668  0.0082  0.0061 -0.5554
  553TMC3    O2 8267   3.738   1.737  13.466  0.4764 -0.2636  0.3770
  554TMC3    C1 8268   0.744   1.555  11.572  0.5013 -0.0138 -0.0144
  554TMC3    C2 8269   0.702   1.468  11.479  0.0150  0.2550  0.6691
  554TMC3    C3 8270   0.657   1.516  11.359  0.2212  0.0831  0.2774
  554TMC3    C4 8271   0.748   1.690  11.550 -0.6278  0.2623  0.0625
  554TMC3    C5 8272   0.702   1.738  11.434  0.3218  0.0523  0.5644
  554TMC3    C6 8273   0.656   1.652  11.340 -0.0982  0.3112 -0.0037
  554TMC3     C 8274   0.832   1.507  11.670  0.2351  0.4150  0.6133
  554TMC3     O 8275   0.906   1.586  11.726 -0.2727  0.4689  0.1266
  554TMC3     H 8276   0.714   1.361  11.492  1.4861  0.4043  0.6355
  554TMC3    H1 8277   0.788   1.760  11.622  1.1356 -1.7885  1.0823
  554TMC3    H2 8278   0.620   1.692  11.246  0.8230  0.2150 -0.3965
  554TMC3    C7 8279   0.726   1.878  11.407 -0.3946 -0.4548 -0.2281
  554TMC3    C8 8280   0.624   1.433  11.253 -0.4642  1.0233  0.2009
  554TMC3    O1 8281   0.716   1.957  11.496 -0.2924 -0.8336  0.2964
  554TMC3    O2 8282   0.634   1.492  11.144  0.9704 -0.1007 -0.1556
  555TMC3    C1 8283   0.055   0.576  14.903 -0.1645 -0.3909 -0.2140
  555TMC3    C2 8284   0.095   0.655  15.008  0.4545  0.2937  0.3295
  555TMC3    C3 8285   0.110   0.604  15.136  0.0473  0.3473 -0.0680
  555TMC3    C4 8286   0.016   0.446  14.933 -0.6211  1.0405  0.4747
  555TMC3    C5 8287   0.020   0.405  15.060  0.2644 -0.0212  0.3431
  555TMC3    C6 8288   0.060   0.485  15.165 -0.2793  0.4442  0.1734
  555TMC3     C 8289   4.728   0.644  14.796 -0.1584 -0.0983 -0.4442
  555TMC3     O 8290   0.046   0.743  14.754 -0.7462 -0.1325 -0.5201
  555TMC3     H 8291   0.130   0.754  14.984  0.9032  0.3367  1.1575
  555TMC3    H1 8292   4.716   0.379  14.857 -0.3945  1.5710 -0.1165
  555TMC3    H2 8293   0.047   0.453  15.268 -1.1359 -2.1802 -0.7473
  555TMC3    C7 8294   4.726   0.271  15.089 -0.4187  0.1205 -0.3479
  555TMC3    C8 8295   0.176   0.686  15.240 -0.2486 -0.2269  0.1036
  555TMC3    O1 8296   4.681   0.239  15.197  0.8320  0.3045  0.0902
  555TMC3    O2 8297   0.197   0.799  15.206  0.3337 -0.0683 -0.0225
  556MPD2     C 8298   2.547   2.463  10.687 -0.0583 -0.3062 -0.0563
  556MPD2    C1 8299   2.601   2.372  10.775 -0.3567 -0.4534 -0.4571
  556MPD2    C2 8300   2.625   2.241  10.730 -0.7883 -0.1860 -0.3663
  556MPD2    C3 8301   2.585   2.210  10.599 -0.5819  0.0740  0.4301
  556MPD2    C4 8302   2.538   2.310  10.510  0.4034 -0.1573 -0.3605
  556MPD2    C5 8303   2.515   2.435  10.559 -0.3566 -0.0215 -0.4550
  556MPD2     H 8304   2.683   2.172  10.791 -0.0444  0.7034 -0.0616
  556MPD2    H1 8305   2.500   2.296  10.410  0.3330  3.6045 -0.8689
  556MPD2    H2 8306   2.513   2.556  10.731 -0.9814 -1.3821  1.5137
  556MPD2    H3 8307   2.474   2.509  10.492 -0.4510 -0.0871 -0.4692
  556MPD2     N 8308   2.591   2.072  10.557 -0.8341  0.1004 -0.0803
  556MPD2    H5 8309   2.632   2.003  10.620  0.1802 -0.8921 -1.8527
  556MPD2    N1 8310   2.622   2.396  10.908 -0.2195 -0.0484  0.1210
  556MPD2    H7 8311   2.633   2.316  10.970  0.6968  0.1584  0.2263
  557TMC3    C1 8312   2.526   1.876  10.447  0.2098 -0.6912 -0.0327
  557TMC3    C2 8313   2.501   1.812  10.324  0.2608 -0.6442  0.3988
  557TMC3    C3 8314   2.510   1.674  10.323  0.2080  0.4279  0.0101
  557TMC3    C4 8315   2.560   1.801  10.561  0.2757  0.7385  0.2584
  557TMC3    C5 8316   2.573   1.666  10.551 -0.0874 -0.1675 -0.0492
  557TMC3    C6 8317   2.553   1.596  10.431  0.6524 -0.4097 -0.1151
  557TMC3     C 8318   2.535   2.016  10.439 -0.2990  0.1433  0.2742
  557TMC3     O 8319   2.509   2.070  10.333 -0.1798 -0.1583 -0.4101
  557TMC3     H 8320   2.475   1.868  10.235 -0.8617 -0.2823  0.9646
  557TMC3    H1 8321   2.574   1.844  10.660  1.2703 -1.5062  1.0958
  557TMC3    H2 8322   2.573   1.490  10.435  2.2582 -0.0495  1.4339
  557TMC3    C7 8323   2.570   1.583  10.670 -0.2268  0.1983 -0.1908
  557TMC3    C8 8324   2.434   1.610  10.211  0.1458  0.4246  0.0679
  557TMC3    O1 8325   2.637   1.480  10.678 -0.5261  0.2200 -0.5594
  557TMC3    O2 8326   2.361   1.670  10.137 -0.2896 -0.0970 -0.1890
  558TMC3    C1 8327   0.912   0.125   9.845  0.8425  0.5202 -0.8777
  558TMC3    C2 8328   0.796   0.063   9.892  0.4490  0.6726  0.5342
  558TMC3    C3 8329   0.692   0.053   9.797  0.1546  0.0265 -0.2144
  558TMC3    C4 8330   0.938   0.162   9.715 -0.1582 -0.3146  0.2292
  558TMC3    C5 8331   0.827   0.152   9.639  0.5557  0.4890 -0.4093
  558TMC3    C6 8332   0.703   0.102   9.671 -0.5965  0.1121  0.0200
  558TMC3     C 8333   1.017   0.138   9.940 -0.4090  0.2202 -0.2699
  558TMC3     O 8334   0.998   0.166  10.055  0.0117 -0.1636  0.2740
  558TMC3     H 8335   0.803   0.017   9.989 -0.6598  0.7839  0.6728
  558TMC3    H1 8336   1.021   0.222   9.681 -1.2871  1.0006 -0.2213
  558TMC3    H2 8337   0.614   0.109   9.609  0.2231  0.9484 -1.0448
  558TMC3    C7 8338   0.824   0.238   9.522  0.3625  0.5065  0.4285
  558TMC3    C8 8339   0.558   0.002   9.835 -1.4092 -0.9988 -0.0424
  558TMC3    O1 8340   0.934   0.267   9.477  0.1834  0.0738 -0.5173
  558TMC3    O2 8341   0.475   4.720   9.744  0.1954 -0.3735 -0.1119
  559MPD2     C 8342   0.724   0.901  10.376  0.1107 -0.4678  0.3871
  559MPD2    C1 8343   0.618   0.825  10.429  0.4883 -0.5638 -0.3486
  559MPD2    C2 8344   0.613   0.791  10.564  0.0606 -0.5538  0.4938
  559MPD2    C3 8345   0.709   0.838  10.646 -0.2354  0.4354 -0.3399
  559MPD2    C4 8346   0.819   0.901  10.592 -0.0298 -0.4581  0.6069
  559MPD2    C5 8347   0.830   0.923  10.457 -0.3143  0.6728  0.4361
  559MPD2     H 8348   0.538   0.726  10.607  0.1185 -0.0175  1.4099
  559MPD2    H1 8349   0.903   0.930  10.653 -0.9204  0.4998  1.3822
  559MPD2    H2 8350   0.733   0.934  10.273 -2.7957  1.1211  0.6365
  559MPD2    H3 8351   0.915   0.979  10.419  1.5873 -2.7155 -0.3303
  559MPD2     N 8352   0.693   0.818  10.788 -0.5415 -0.4036 -0.3019
  559MPD2    H5 8353   0.621   0.755  10.820 -0.7029  1.3205  2.7688
  559MPD2    N1 8354   0.510   0.782  10.356  0.2398  0.2108  0.6592
  559MPD2    H7 8355   0.427   0.737  10.393 -0.9598  0.0519 -2.1565
  560TMC3    C1 8356   0.726   0.816  11.021 -0.1093 -0.2033 -0.3531
  560TMC3    C2 8357   0.667   0.695  11.033  0.1625  0.6538 -0.4337
  560TMC3    C3 8358   0.643   0.647  11.158 -0.1036  0.0335 -0.0273
  560TMC3    C4 8359   0.763   0.889  11.133  0.1394  0.1164  0.0946
  560TMC3    C5 8360   0.739   0.834  11.256 -0.3343 -0.4842 -0.1374
  560TMC3    C6 8361   0.674   0.716  11.267 -0.4063  0.1684 -0.2300
  560TMC3     C 8362   0.765   0.873  10.891 -0.6952 -0.7161  0.4184
  560TMC3     O 8363   0.856   0.956  10.896 -0.3546 -0.0702 -0.1479
  560TMC3     H 8364   0.632   0.635  10.950  2.1346 -0.0284 -0.7660
  560TMC3    H1 8365   0.801   0.989  11.117 -2.6793  0.8862 -1.8038
  560TMC3    H2 8366   0.633   0.689  11.363 -0.8300 -2.7297 -1.2277
  560TMC3    C7 8367   0.777   0.903  11.375 -0.6283  0.0618 -0.7525
  560TMC3    C8 8368   0.524   0.564  11.170 -0.3414  0.2228 -0.6572
  560TMC3    O1 8369   0.731   0.865  11.482 -0.1526  0.0229 -0.0043
  560TMC3    O2 8370   0.441   0.592  11.261 -0.3907  0.2631  0.1886
  561TMC3    C1 8371   3.439   4.706  11.411 -0.3293  0.8482 -0.6721
  561TMC3    C2 8372   3.334   4.658  11.491  0.1299 -0.2630  0.3487
  561TMC3    C3 8373   3.246   0.004  11.545 -0.4862 -0.1403 -0.1978
  561TMC3    C4 8374   3.437   0.099  11.376 -0.3674 -0.8368  0.9299
  561TMC3    C5 8375   3.346   0.184  11.432 -0.1038 -0.1269 -0.3736
  561TMC3    C6 8376   3.261   0.139  11.530  0.0075 -0.3842  0.4401
  561TMC3     C 8377   3.521   4.610  11.336 -0.4977 -0.0711  0.0742
  561TMC3     O 8378   3.487   4.498  11.368 -0.2088 -0.2476  0.3313
  561TMC3     H 8379   3.339   4.554  11.522  0.6266 -0.0703  0.9158
  561TMC3    H1 8380   3.523   0.131  11.318 -1.7515  0.0733 -0.6108
  561TMC3    H2 8381   3.194   0.212  11.575 -1.4759 -0.0871 -2.2125
  561TMC3    C7 8382   3.363   0.332  11.424  0.1827  0.1159 -0.1638
  561TMC3    C8 8383   3.139   4.676  11.626  0.1851 -0.5596 -0.5389
  561TMC3    O1 8384   3.319   0.397  11.520 -0.6494  0.1475 -0.1130
  561TMC3    O2 8385   3.129   4.555  11.621  0.2605  0.6364  0.4668
  562TMC3    C1 8386   4.673   0.558  15.768  0.3559  0.0126 -0.3018
  562TMC3    C2 8387   4.632   0.626  15.650  0.3682  0.0515 -0.0038
  562TMC3    C3 8388   4.622   0.556  15.535 -0.1376 -0.1390 -0.7590
  562TMC3    C4 8389   4.719   0.429  15.759  0.0889 -0.6004 -0.8331
  562TMC3    C5 8390   4.737   0.378  15.635  0.3316  0.4625  0.0687
  562TMC3    C6 8391   4.684   0.436  15.526  0.3915  0.2363 -0.0778
  562TMC3     C 8392   4.696   0.634  15.889 -0.2306  0.6988 -0.1569
  562TMC3     O 8393   4.727   0.563  15.986 -0.1145 -0.0361  0.2952
  562TMC3     H 8394   4.587   0.725  15.648 -0.2863 -0.2699 -1.0445
  562TMC3    H1 8395   0.005   0.368  15.845 -3.5603  1.6655  1.8292
  562TMC3    H2 8396   4.681   0.392  15.427  3.1998 -1.1170  0.4362
  562TMC3    C7 8397   0.043   0.238  15.619 -0.1189  0.4691  0.0111
  562TMC3    C8 8398   4.559   0.605  15.414  0.5014  0.6832 -0.2545
  562TMC3    O1 8399   0.117   0.221  15.525  0.1016  0.1213 -0.3456
  562TMC3    O2 8400   4.515   0.515  15.345  0.0018 -0.0325 -0.3060
  563MPD2     C 8401   2.866   2.212  15.990  0.0141 -0.0111  0.2158
  563MPD2    C1 8402   2.823   2.238  16.122 -0.2931  0.3533 -0.1229
  563MPD2    C2 8403   2.909   2.279  16.223  0.4775 -0.1218 -0.2814
  563MPD2    C3 8404   3.046   2.295  16.192  0.5255 -0.1041 -0.2029
  563MPD2    C4 8405   3.077   2.304  16.056  0.1490  0.0146 -0.5682
  563MPD2    C5 8406   2.991   2.261  15.959  0.3905 -0.2992 -0.1624
  563MPD2     H 8407   2.870   2.286  16.324  0.3024  0.8095 -0.4112
  563MPD2    H1 8408   3.181   2.327  16.036 -0.4051  1.2767 -1.9925
  563MPD2    H2 8409   2.799   2.174  15.914  1.1321 -0.6269 -0.4484
  563MPD2    H3 8410   3.024   2.248  15.856  1.7065 -0.3687  0.2688
  563MPD2     N 8411   3.139   2.329  16.298  0.1244 -0.2034 -0.0957
  563MPD2    H5 8412   3.093   2.336  16.388 -2.0966 -0.1951 -1.2472
  563MPD2    N1 8413   2.691   2.206  16.165  0.3990 -0.0931  0.0724
  563MPD2    H7 8414   2.665   2.242  16.256  3.7519  2.4975 -0.0191
  564TMC3    C1 8415   2.509   2.064  16.210  0.2533  0.4611 -0.9377
  564TMC3    C2 8416   2.434   1.954  16.168  0.1359  0.0806 -0.0923
  564TMC3    C3 8417   2.368   1.883  16.266 -0.0347  0.3379  0.1312
  564TMC3    C4 8418   2.534   2.082  16.343  0.2598  0.5639 -0.2727
  564TMC3    C5 8419   2.487   1.991  16.437 -0.6907 -0.1303 -0.4493
  564TMC3    C6 8420   2.387   1.897  16.398 -0.8834  0.0039  0.1132
  564TMC3     C 8421   2.593   2.129  16.107 -0.2578  0.5032  0.5218
  564TMC3     O 8422   2.598   2.082  15.990  0.6742 -0.1824 -0.2031
  564TMC3     H 8423   2.447   1.924  16.065 -0.5737 -0.2839 -0.0763
  564TMC3    H1 8424   2.581   2.174  16.376 -1.2312  1.5604 -0.9603
  564TMC3    H2 8425   2.319   1.852  16.469 -1.1192  1.8207  1.0377
  564TMC3    C7 8426   2.564   1.952  16.551 -0.0365 -0.4989 -1.1380
  564TMC3    C8 8427   2.322   1.748  16.233  0.1165  0.2035 -0.2576
  564TMC3    O1 8428   2.658   2.025  16.579  0.4046  0.6847 -0.6587
  564TMC3    O2 8429   2.247   1.696  16.313  0.0856  0.3361 -0.4434
  565TMC3    C1 8430   3.077   4.013  10.285 -0.0252  0.1122  0.2757
  565TMC3    C2 8431   3.055   4.037  10.414 -1.1252  0.3474 -0.4277
  565TMC3    C3 8432   2.937   3.988  10.466  0.0993  0.2573  0.3824
  565TMC3    C4 8433   2.994   3.947  10.193 -0.0265  0.0434 -1.1334
  565TMC3    C5 8434   2.881   3.901  10.254 -0.4800  0.5317 -0.8966
  565TMC3    C6 8435   2.849   3.925  10.387 -0.1557 -0.0657  0.0178
  565TMC3     C 8436   3.182   4.099  10.225  0.0118 -0.3468  0.1406
  565TMC3     O 8437   3.169   4.106  10.101  0.0259 -0.2202 -0.8794
  565TMC3     H 8438   3.128   4.064  10.490 -1.2508  1.7985 -0.8364
  565TMC3    H1 8439   3.020   3.953  10.088  1.5720 -0.5614 -0.7737
  565TMC3    H2 8440   2.774   3.858  10.428 -0.3472  0.9229  1.2927
  565TMC3    C7 8441   2.787   3.821  10.177  0.0640  0.0831  0.2879
  565TMC3    C8 8442   2.919   3.971  10.611  0.1828  0.4910  0.4235
  565TMC3    O1 8443   2.666   3.842  10.185 -0.1081  0.9210 -0.0977
  565TMC3    O2 8444   2.839   3.886  10.652  0.3864 -0.1612 -0.8184
  566MPD2     C 8445   3.853   0.282  14.300 -0.3042 -0.4051  0.1527
  566MPD2    C1 8446   3.937   0.330  14.204  0.0893  0.0349  0.2379
  566MPD2    C2 8447   3.909   0.305  14.070  0.3098  0.3774  0.4502
  566MPD2    C3 8448   3.804   0.218  14.035  0.1651 -0.2910  0.1281
  566MPD2    C4 8449   3.723   0.164  14.128 -0.0277 -0.7819 -0.0774
  566MPD2    C5 8450   3.748   0.202  14.259 -0.3400 -0.8510  0.3129
  566MPD2     H 8451   3.962   0.349  13.986  2.0710  0.4975  1.6231
  566MPD2    H1 8452   3.645   0.093  14.102  1.2247 -2.1416 -0.1278
  566MPD2    H2 8453   3.862   0.306  14.405 -0.5607  2.4356 -0.4664
  566MPD2    H3 8454   3.693   0.155  14.340  1.3274 -1.7725  0.9052
  566MPD2     N 8455   3.806   0.174  13.903 -0.4043  0.4285 -0.5464
  566MPD2    H5 8456   3.886   0.201  13.846  0.6978 -0.5025  0.5495
  566MPD2    N1 8457   4.044   0.404  14.248 -0.1116  0.4399 -0.0002
  566MPD2    H7 8458   4.056   0.391  14.348 -1.4087  0.7318  0.1943
  567TMC3    C1 8459   4.242   0.545  14.216  0.0158  0.7695  0.7852
  567TMC3    C2 8460   4.310   0.629  14.133  0.2388 -0.3759  0.1894
  567TMC3    C3 8461   4.443   0.613  14.115 -0.0527  0.4376 -0.0490
  567TMC3    C4 8462   4.310   0.452  14.294 -0.2543 -0.1523  0.3100
  567TMC3    C5 8463   4.444   0.444  14.271  0.6833  0.4222  0.3130
  567TMC3    C6 8464   4.511   0.525  14.192  0.0858 -0.0597 -0.2673
  567TMC3     C 8465   4.110   0.498  14.167 -0.0678 -0.1268 -0.3198
  567TMC3     O 8466   4.063   0.551  14.063 -0.3421  0.2572 -0.6606
  567TMC3     H 8467   4.247   0.700  14.082  0.9617  0.4066  0.3869
  567TMC3    H1 8468   4.259   0.365  14.333  0.4266 -0.6886  0.0140
  567TMC3    H2 8469   4.618   0.515  14.180  0.0806  0.4095 -0.6890
  567TMC3    C7 8470   4.520   0.346  14.346  0.0221 -0.3001  0.1157
  567TMC3    C8 8471   4.482   0.657  13.980  0.5594 -0.4882  0.5733
  567TMC3    O1 8472   4.634   0.311  14.311 -0.7814  0.0629  0.7836
  567TMC3    O2 8473   4.400   0.716  13.912  0.4071  0.0090  0.2265
  568MPD2     C 8474   1.863   0.374  16.546 -0.5194 -0.6483 -0.4296
  568MPD2    C1 8475   1.953   0.471  16.593  1.0813  0.5587  0.0541
  568MPD2    C2 8476   1.968   0.585  16.518  0.5759  0.0447 -0.3346
  568MPD2    C3 8477   1.907   0.607  16.396 -0.0295  0.2442 -0.4713
  568MPD2    C4 8478   1.850   0.494  16.339 -0.0352 -0.7040  0.1134
  568MPD2    C5 8479   1.825   0.384  16.415  1.1493  0.3338 -0.1341
  568MPD2     H 8480   2.025   0.670  16.553 -0.5034  0.5737  0.1324
  568MPD2    H1 8481   1.819   0.493  16.235 -0.9363 -0.5659  0.3802
  568MPD2    H2 8482   1.837   0.291  16.612  0.8290 -0.0225  0.8911
  568MPD2    H3 8483   1.788   0.286  16.384  2.7332 -0.6940  1.2457
  568MPD2     N 8484   1.909   0.733  16.333  0.1562 -0.0824 -0.0963
  568MPD2    H5 8485   1.971   0.803  16.372  0.6852  0.8538 -2.6220
  568MPD2    N1 8486   2.004   0.457  16.721 -1.1328  0.4400  0.3305
  568MPD2    H7 8487   1.959   0.392  16.784 -3.5077 -0.6275 -2.4758
  569TMC3    C1 8488   1.838   0.922  16.230 -0.4310 -0.2599 -0.1796
  569TMC3    C2 8489   1.823   0.977  16.352 -0.1330 -0.3297  0.1508
  569TMC3    C3 8490   1.859   1.110  16.364  0.1564  0.7492 -0.0642
  569TMC3    C4 8491   1.906   0.986  16.126  0.4569  0.1804  0.6925
  569TMC3    C5 8492   1.936   1.119  16.144 -0.6405 -0.8755  0.3469
  569TMC3    C6 8493   1.908   1.183  16.257  0.2927 -0.2848  0.4505
  569TMC3     C 8494   1.839   0.777  16.225  0.7011 -0.4284  1.0114
  569TMC3     O 8495   1.747   0.723  16.160 -0.0927 -0.2907  0.3501
  569TMC3     H 8496   1.780   0.919  16.432 -1.7402  0.6338 -0.0105
  569TMC3    H1 8497   1.931   0.937  16.033  0.6338 -0.6599  1.1798
  569TMC3    H2 8498   1.890   1.290  16.253 -2.0587 -0.7655 -1.9555
  569TMC3    C7 8499   2.020   1.184  16.047 -0.1224  0.1783 -0.4102
  569TMC3    C8 8500   1.803   1.170  16.482 -0.5160 -0.3780  0.8612
  569TMC3    O1 8501   2.019   1.143  15.933  0.6492  0.2864 -0.3599
  569TMC3    O2 8502   1.728   1.113  16.556 -0.4551 -0.6277  0.0014
  570TMC3    C1 8503   1.386   4.533  16.335  0.8077 -0.4151  0.7199
  570TMC3    C2 8504   1.464   4.554  16.223 -0.2963 -0.3778 -0.7697
  570TMC3    C3 8505   1.533   4.672  16.211  0.0256  0.5063 -0.3367
  570TMC3    C4 8506   1.392   4.621  16.445  0.0483 -0.4562 -0.4353
  570TMC3    C5 8507   1.485   4.723  16.440 -0.0409 -0.0229 -0.0112
  570TMC3    C6 8508   1.546   0.016  16.321 -0.4389 -0.5106 -0.2492
  570TMC3     C 8509   1.278   4.438  16.320 -0.3235  0.8610  0.0441
  570TMC3     O 8510   1.233   4.408  16.210  0.3611 -0.1959  0.8281
  570TMC3     H 8511   1.453   4.476  16.148  0.7584 -0.2411 -1.0608
  570TMC3    H1 8512   1.335   4.607  16.536 -0.8283 -1.2162 -1.1041
  570TMC3    H2 8513   1.629   0.086  16.319  0.9005 -2.1157 -1.2096
  570TMC3    C7 8514   1.460   0.093  16.539 -0.2196 -0.1568  0.2316
  570TMC3    C8 8515   1.626   4.684  16.106  0.2875 -0.1749  0.3385
  570TMC3    O1 8516   1.402   0.066  16.644  0.4295 -0.0340 -0.1867
  570TMC3    O2 8517   1.726   0.013  16.127 -0.0713 -0.1074  0.4247
  571MPD2     C 8518   3.763   2.426   0.276 -0.0563 -0.0127  0.1847
  571MPD2    C1 8519   3.803   2.293   0.286 -0.7293  0.3350 -1.0966
  571MPD2    C2 8520   3.890   2.251   0.186  0.1467  0.1268 -0.1613
  571MPD2    C3 8521   3.951   2.343   0.093  0.2002 -0.0638 -0.1007
  571MPD2    C4 8522   3.910   2.471   0.099 -0.1617  0.0180  0.2623
  571MPD2    C5 8523   3.815   2.514   0.183 -0.0613 -0.2585  0.2671
  571MPD2     H 8524   3.912   2.145   0.186  1.2612  0.3563 -0.4247
  571MPD2    H1 8525   3.941   2.555   0.038 -0.4928 -1.7233 -2.3019
  571MPD2    H2 8526   3.685   2.450   0.348 -1.4044  0.6316 -1.4811
  571MPD2    H3 8527   3.780   2.616   0.173 -0.1633 -0.3121  0.0889
  571MPD2     N 8528   4.039   2.300  17.746 -0.2420 -0.5390  0.2486
  571MPD2    H5 8529   4.102   2.375  17.722  0.6456 -0.9434  1.2864
  571MPD2    N1 8530   3.747   2.203   0.382  0.6684  0.7852 -0.3982
  571MPD2    H7 8531   3.669   2.239   0.436  0.9076  0.7694 -0.0400
  572TMC3    C1 8532   4.215   2.162  17.659 -0.2702 -0.2785  0.3020
  572TMC3    C2 8533   4.287   2.048  17.681  0.5673 -0.7807  0.6526
  572TMC3    C3 8534   4.416   2.048  17.639 -0.2281 -0.1970  0.7543
  572TMC3    C4 8535   4.272   2.269  17.601  0.0667  0.0923 -0.7386
  572TMC3    C5 8536   4.405   2.264  17.562 -0.2626  0.5746  0.0508
  572TMC3    C6 8537   4.484   2.147  17.578 -0.6209 -0.4484  0.2569
  572TMC3     C 8538   4.080   2.168  17.720  0.4357 -0.5160  0.5355
  572TMC3     O 8539   4.031   2.063   0.014  0.1692 -0.2815  0.1591
  572TMC3     H 8540   4.247   1.969  17.744  1.6201 -1.0035  1.0504
  572TMC3    H1 8541   4.217   2.363  17.595  0.2553  0.1804 -1.0936
  572TMC3    H2 8542   4.589   2.135  17.554 -0.3003  0.5490  1.1538
  572TMC3    C7 8543   4.447   2.369  17.472  0.0832 -1.0218 -0.8394
  572TMC3    C8 8544   4.501   1.938  17.667  0.1966  0.0006 -0.4526
  572TMC3    O1 8545   4.384   2.471  17.458 -0.9895  0.5484  0.5027
  572TMC3    O2 8546   4.584   1.893  17.592 -0.2098 -0.3470  0.4928
  573MPD2     C 8547   0.337   1.488   0.212  0.4951  0.1428  0.2789
  573MPD2    C1 8548   0.316   1.623   0.192  0.0802  0.1974  0.4067
  573MPD2    C2 8549   0.361   1.675   0.066 -0.2856 -0.0267 -0.4584
  573MPD2    C3 8550   0.426   1.589  17.727 -0.7097 -0.0058 -0.4863
  573MPD2    C4 8551   0.428   1.454  17.749  0.0997 -0.0363  0.0331
  573MPD2    C5 8552   0.387   1.403   0.113  0.4789  0.2954  0.3106
  573MPD2     H 8553   0.345   1.781   0.053 -0.7747  0.0302  0.5903
  573MPD2    H1 8554   0.478   1.384  17.683  0.7136  0.1267  0.3252
  573MPD2    H2 8555   0.311   1.448   0.309 -2.8365  1.5462 -0.0284
  573MPD2    H3 8556   0.387   1.296   0.130 -2.8002  0.2736  0.0701
  573MPD2     N 8557   0.476   1.643  17.601  0.6440  0.0855  0.2309
  573MPD2    H5 8558   0.525   1.578  17.540 -0.1484 -0.8159  0.5612
  573MPD2    N1 8559   0.277   1.704   0.299 -0.5504 -1.0211  0.3656
  573MPD2    H7 8560   0.269   1.658   0.389 -1.2508  0.8184  1.2372
  574TMC3    C1 8561   0.542   1.807  17.446 -0.0205 -0.5523 -0.4156
  574TMC3    C2 8562   0.495   1.916  17.375 -0.4222  0.1560  0.6046
  574TMC3    C3 8563   0.567   1.964  17.263  0.3265 -0.8517 -0.3302
  574TMC3    C4 8564   0.664   1.751  17.421  0.1771  0.0151 -0.7124
  574TMC3    C5 8565   0.733   1.801  17.309 -0.3173 -0.8024 -0.5244
  574TMC3    C6 8566   0.687   1.902  17.235  0.0332  0.1862 -0.5708
  574TMC3     C 8567   0.469   1.779  17.570  0.1410 -0.1756 -0.1629
  574TMC3     O 8568   0.409   1.874  17.626 -0.2574 -0.6145 -0.5861
  574TMC3     H 8569   0.395   1.957  17.385 -0.4837  0.3277 -0.7087
  574TMC3    H1 8570   0.709   1.675  17.483 -1.3329 -1.0340 -0.9022
  574TMC3    H2 8571   0.726   1.935  17.139 -1.5641  0.6425 -1.0724
  574TMC3    C7 8572   0.873   1.762  17.303  0.6391 -0.8193  0.3829
  574TMC3    C8 8573   0.559   2.105  17.219 -0.1843 -1.3802  0.0652
  574TMC3    O1 8574   0.916   1.680  17.384  0.0143  0.1824  0.2995
  574TMC3    O2 8575   0.625   2.125  17.119  0.2428  0.4530 -0.6724
  575TMC3    C1 8576   2.670   3.669  11.430  0.7739  0.4761 -0.2979
  575TMC3    C2 8577   2.714   3.545  11.437  0.3702 -0.1584 -0.0288
  575TMC3    C3 8578   2.795   3.497  11.335  0.5483  0.2771 -0.0327
  575TMC3    C4 8579   2.708   3.749  11.327 -0.1080 -0.2020 -0.1179
  575TMC3    C5 8580   2.798   3.704  11.234 -0.6117  0.0042  0.1330
  575TMC3    C6 8581   2.844   3.576  11.232 -0.5048  0.5116 -0.2701
  575TMC3     C 8582   2.549   3.701  11.499 -0.0277  0.8037 -0.8553
  575TMC3     O 8583   2.475   3.602  11.518 -0.0801 -0.8804 -0.4700
  575TMC3     H 8584   2.682   3.482  11.519 -0.6795 -2.2313 -2.0349
  575TMC3    H1 8585   2.654   3.841  11.306  1.8006  0.5645 -1.7033
  575TMC3    H2 8586   2.906   3.536  11.153 -0.3652  1.5752 -0.6999
  575TMC3    C7 8587   2.828   3.779  11.115  0.1701  0.5132  0.0558
  575TMC3    C8 8588   2.787   3.355  11.310  0.2905  0.1266  0.2651
  575TMC3    O1 8589   2.850   3.712  11.014 -0.1123  0.0687  0.1714
  575TMC3    O2 8590   2.769   3.295  11.412 -0.0118 -0.6110  0.5656
  576MPD2     C 8591   2.090   0.263  12.572  0.2149 -0.1190  0.3879
  576MPD2    C1 8592   2.210   0.328  12.547 -0.2636 -0.2227 -0.1867
  576MPD2    C2 8593   2.266   0.400  12.643  0.3130 -0.9862  0.0439
  576MPD2    C3 8594   2.209   0.415  12.769  0.1220 -0.2948  0.1700
  576MPD2    C4 8595   2.095   0.344  12.799  0.7115 -0.2048 -0.1255
  576MPD2    C5 8596   2.041   0.267  12.699  0.1494 -0.4337 -0.6533
  576MPD2     H 8597   2.352   0.461  12.621  0.1930 -0.4332  1.0997
  576MPD2    H1 8598   2.036   0.368  12.887 -0.5858  1.3092 -1.4091
  576MPD2    H2 8599   2.047   0.197  12.497 -1.1034 -1.8236  2.6358
  576MPD2    H3 8600   1.949   0.211  12.709  0.4434 -0.8922 -0.5093
  576MPD2     N 8601   2.273   0.505  12.861  0.3218 -0.5798  0.0604
  576MPD2    H5 8602   2.367   0.536  12.839  0.0786  0.4378  0.4724
  576MPD2    N1 8603   2.267   0.304  12.423  0.0620 -0.4501 -0.0928
  576MPD2    H7 8604   2.368   0.304  12.412  0.4258  0.4058  3.1052
  577TMC3    C1 8605   2.285   0.287  12.197  0.0094 -0.0413 -0.4038
  577TMC3    C2 8606   2.384   0.190  12.191  0.7706 -1.0852 -0.2056
  577TMC3    C3 8607   2.478   0.190  12.088 -0.4622 -0.2354  0.0168
  577TMC3    C4 8608   2.261   0.366  12.085  0.1765  0.4690 -0.0790
  577TMC3    C5 8609   2.351   0.356  11.977 -0.2968 -0.7205 -0.0069
  577TMC3    C6 8610   2.454   0.264  11.975  0.4126 -0.0245 -0.2269
  577TMC3     C 8611   2.197   0.292  12.307  0.8175 -0.6115  0.4688
  577TMC3     O 8612   2.078   0.321  12.286 -0.3483  0.4688  0.2847
  577TMC3     H 8613   2.387   0.116  12.270  1.2280 -0.8680 -0.0249
  577TMC3    H1 8614   2.180   0.438  12.090  0.4539  0.8482 -0.9595
  577TMC3    H2 8615   2.526   0.277  11.895 -0.5280 -0.7915 -1.2008
  577TMC3    C7 8616   2.364   0.464  11.884 -0.1527  0.4476  0.4439
  577TMC3    C8 8617   2.590   0.089  12.092 -0.0272  0.0005 -0.9165
  577TMC3    O1 8618   2.470   0.488  11.828 -0.1193 -0.3907 -0.0533
  577TMC3    O2 8619   2.575   0.005  12.182  0.0024  0.2945 -0.1799
  578MPD2     C 8620   1.132   0.185   1.325 -0.4101 -0.2033  0.5338
  578MPD2    C1 8621   1.159   0.076   1.235 -0.2010  0.1012  0.6926
  578MPD2    C2 8622   1.230   4.711   1.292  0.2239  0.3479  0.4338
  578MPD2    C3 8623   1.295   4.716   1.414  0.8673 -0.3034  0.5669
  578MPD2    C4 8624   1.264   0.083   1.497  0.4818 -0.1500 -0.2802
  578MPD2    C5 8625   1.173   0.183   1.457 -0.1981  0.1957  0.5949
  578MPD2     H 8626   1.231   4.617   1.237 -3.1528 -0.1860  1.2649
  578MPD2    H1 8627   1.282   0.070   1.603  2.0059 -0.7891 -0.6118
  578MPD2    H2 8628   1.067   0.268   1.299 -0.0202 -0.0211  0.1326
  578MPD2    H3 8629   1.144   0.262   1.524 -0.2549  0.2080  0.5560
  578MPD2     N 8630   1.370   4.601   1.460 -0.2868  0.1840  0.2383
  578MPD2    H5 8631   1.393   4.545   1.378 -2.7814 -0.1133 -0.2674
  578MPD2    N1 8632   1.106   0.077   1.101 -0.3803 -0.0134  0.2431
  578MPD2    H7 8633   1.056   0.161   1.074 -0.8631 -0.6863 -0.9373
  579TMC3    C1 8634   1.490   4.457   1.593  0.2258 -0.9709 -0.1509
  579TMC3    C2 8635   1.607   4.461   1.672 -0.5204  0.9194 -0.1569
  579TMC3    C3 8636   1.711   4.376   1.629 -0.2846  0.2083  0.2805
  579TMC3    C4 8637   1.461   4.369   1.493 -0.1712  0.1984 -0.1851
  579TMC3    C5 8638   1.567   4.285   1.460  0.1426  0.1126  0.1210
  579TMC3    C6 8639   1.688   4.290   1.517  0.0407 -0.7991 -0.3680
  579TMC3     C 8640   1.411   4.576   1.592 -0.0221  0.1051 -0.2888
  579TMC3     O 8641   1.386   4.628   1.698 -0.1975 -0.0545 -0.0734
  579TMC3     H 8642   1.626   4.539   1.745  0.7081  0.8223 -0.3673
  579TMC3    H1 8643   1.361   4.369   1.451 -1.2798 -1.4999  2.4177
  579TMC3    H2 8644   1.768   4.225   1.484 -0.9480 -2.3430  0.2889
  579TMC3    C7 8645   1.539   4.184   1.357 -0.0444 -0.1217  0.2925
  579TMC3    C8 8646   1.841   4.404   1.675  0.4611 -0.0253  0.6979
  579TMC3    O1 8647   1.644   4.125   1.328 -0.2344  0.3094 -0.7095
  579TMC3    O2 8648   1.842   4.457   1.784  0.1550  0.2105 -0.6075
  580TMC3    C1 8649   4.626   3.616  11.801  0.0858  0.1949  0.8072
  580TMC3    C2 8650   4.719   3.702  11.739 -0.0866  1.0624 -0.2081
  580TMC3    C3 8651   0.092   3.737  11.809 -0.3075 -0.2762 -0.3154
  580TMC3    C4 8652   4.651   3.553  11.917 -0.5578 -0.4052  0.5296
  580TMC3    C5 8653   0.040   3.566  11.974 -0.8264 -0.4531  0.3270
  580TMC3    C6 8654   0.124   3.665  11.923 -0.0144  0.1814 -0.2293
  580TMC3     C 8655   4.494   3.668  11.791 -0.5616 -1.0009  0.4882
  580TMC3     O 8656   4.396   3.596  11.801 -0.3078  0.2088  0.2121
  580TMC3     H 8657   4.704   3.745  11.640  3.3949  1.5345 -0.5346
  580TMC3    H1 8658   4.575   3.495  11.969 -0.8029 -0.6041 -0.0618
  580TMC3    H2 8659   0.212   3.695  11.979  0.7403  1.2196 -1.9854
  580TMC3    C7 8660   0.094   3.477  12.074  0.3824  0.5236  0.1837
  580TMC3    C8 8661   0.133   3.882  11.795  0.1919  0.4240 -0.1082
  580TMC3    O1 8662   0.194   3.516  12.128  0.5963  0.1614 -0.7440
  580TMC3    O2 8663   0.039   3.950  11.746  0.4282  0.3836  0.2550
  581MPD2     C 8664   3.043   3.647  14.600 -0.6845 -0.0851 -0.0240
  581MPD2    C1 8665   2.972   3.633  14.720  0.4757 -0.7423 -0.5746
  581MPD2    C2 8666   2.862   3.720  14.739 -0.1560 -0.2092 -0.1691
  581MPD2    C3 8667   2.809   3.794  14.634  0.2168 -0.4802 -0.5462
  581MPD2    C4 8668   2.879   3.803  14.513  0.0566  0.2911  1.0086
  581MPD2    C5 8669   2.994   3.725  14.497 -0.7042  0.4212 -0.2118
  581MPD2     H 8670   2.813   3.720  14.835  0.1323  1.8254 -0.0130
  581MPD2    H1 8671   2.849   3.852  14.421 -1.4139  0.1905  1.4322
  581MPD2    H2 8672   3.122   3.578  14.573  0.7733  2.0373 -1.1850
  581MPD2    H3 8673   3.045   3.729  14.402  2.4262 -0.0675  1.4419
  581MPD2     N 8674   2.688   3.859  14.672  0.4292  0.0430  0.1085
  581MPD2    H5 8675   2.650   3.858  14.766  1.3882 -0.8986  0.4898
  581MPD2    N1 8676   3.008   3.525  14.810 -0.1310 -0.3033 -0.0474
  581MPD2    H7 8677   3.081   3.466  14.771 -1.1458 -1.8961  0.4802
  582TMC3    C1 8678   2.982   3.364  14.975  0.6076  1.0328  0.7428
  582TMC3    C2 8679   3.113   3.350  14.999 -0.1321 -0.1404 -0.1836
  582TMC3    C3 8680   3.153   3.241  15.074  0.0135 -0.8531 -0.1128
  582TMC3    C4 8681   2.882   3.283  15.017 -0.8815  0.4611  0.1746
  582TMC3    C5 8682   2.925   3.169  15.073 -0.1224  0.2224  0.1144
  582TMC3    C6 8683   3.058   3.144  15.093  0.3472  0.6681 -0.7010
  582TMC3     C 8684   2.938   3.489  14.924 -0.0049  0.1437  0.1916
  582TMC3     O 8685   2.822   3.521  14.952  0.2271 -0.2928 -0.6178
  582TMC3     H 8686   3.190   3.424  14.983 -0.3652 -0.2739 -1.8992
  582TMC3    H1 8687   2.777   3.299  14.995 -0.6807  2.8703  0.8900
  582TMC3    H2 8688   3.080   3.056  15.153  0.0883  0.1173 -1.4077
  582TMC3    C7 8689   2.839   3.118  15.175  0.3292 -0.2152 -0.7089
  582TMC3    C8 8690   3.215   3.272  15.203  0.2488  0.1142  0.3914
  582TMC3    O1 8691   2.840   3.003  15.213 -0.3657 -0.3222  0.5208
  582TMC3    O2 8692   3.208   3.385  15.238 -0.1201 -0.2745 -0.3373
  583MPD2     C 8693   3.328   0.405  17.004  0.9027 -0.0553 -0.0733
  583MPD2    C1 8694   3.305   0.538  16.970 -0.0023  0.2191  0.4134
  583MPD2    C2 8695   3.254   0.627  17.066  0.4239  0.0134  0.1869
  583MPD2    C3 8696   3.228   0.586  17.195  0.2937 -0.0884 -0.1146
  583MPD2    C4 8697   3.250   0.451  17.231 -0.3952  0.8057  0.2372
  583MPD2    C5 8698   3.300   0.366  17.132  0.1252  0.6328 -0.1365
  583MPD2     H 8699   3.227   0.727  17.034 -0.0809  0.8455  3.1498
  583MPD2    H1 8700   3.238   0.405  17.329 -1.2215 -1.5250 -0.9856
  583MPD2    H2 8701   3.364   0.328  16.937  1.9456 -1.4102  2.0342
  583MPD2    H3 8702   3.305   0.262  17.160 -0.1234  0.8071  0.5582
  583MPD2     N 8703   3.196   0.680  17.289  0.1837  0.2018  0.8837
  583MPD2    H5 8704   3.185   0.777  17.261 -1.9423 -0.9009 -2.0526
  583MPD2    N1 8705   3.338   0.590  16.840 -0.2753 -0.1222 -0.0418
  583MPD2    H7 8706   3.317   0.689  16.833 -0.3772 -0.0229  1.8094
  584TMC3    C1 8707   3.111   0.778  17.485 -0.0144 -0.3576 -0.4835
  584TMC3    C2 8708   3.181   0.893  17.477 -0.7929  0.5020 -0.0173
  584TMC3    C3 8709   3.161   0.994  17.561 -0.1377 -0.4521  0.2999
  584TMC3    C4 8710   3.026   0.766  17.588  0.2837 -0.2491 -0.1201
  584TMC3    C5 8711   3.012   0.867  17.676  1.0941  0.0051  0.3579
  584TMC3    C6 8712   3.081   0.986  17.669  0.0600 -0.8419 -0.6381
  584TMC3     C 8713   3.133   0.660  17.409  0.4419  0.1056 -0.0279
  584TMC3     O 8714   3.111   0.555  17.468  0.0697  0.0659 -0.5238
  584TMC3     H 8715   3.249   0.899  17.393 -1.4475 -1.9996 -0.7478
  584TMC3    H1 8716   2.966   0.677  17.595  0.1236 -0.0417  1.2298
  584TMC3    H2 8717   3.083   1.057  17.751 -2.6399 -0.3939 -0.9430
  584TMC3    C7 8718   2.938   0.825   0.039  0.1530 -0.3907 -0.2621
  584TMC3    C8 8719   3.219   1.122  17.537 -0.2951 -0.2785 -0.6126
  584TMC3    O1 8720   2.943   0.707   0.073 -0.0535 -0.0520 -0.1984
  584TMC3    O2 8721   3.325   1.120  17.472 -0.0398  0.7437  0.2115
  585MPD2     C 8722   2.007   4.581   0.083  0.3643 -1.0754 -0.0499
  585MPD2    C1 8723   2.124   4.622   0.024  0.4556  0.0238  0.0794
  585MPD2    C2 8724   2.196   4.538  17.697  0.7247 -0.2410 -0.3020
  585MPD2    C3 8725   2.163   4.404  17.690 -0.5726 -0.4929 -0.6143
  585MPD2    C4 8726   2.052   4.358   0.011  0.2425 -0.8081 -0.1766
  585MPD2    C5 8727   1.977   4.453   0.078  0.0792  0.1782 -0.2167
  585MPD2     H 8728   2.278   4.576  17.638  0.2612  0.5242 -0.4557
  585MPD2    H1 8729   2.008   4.260  17.750 -0.6444 -0.4256 -0.0467
  585MPD2    H2 8730   1.952   4.652   0.143 -1.4097 -1.6427 -0.9857
  585MPD2    H3 8731   1.882   4.430   0.123 -0.3435  2.2407 -0.0759
  585MPD2     N 8732   2.230   4.310  17.605  0.2889  0.0262 -0.0151
  585MPD2    H5 8733   2.178   4.224  17.596  0.0604 -0.2086  3.4248
  585MPD2    N1 8734   2.147   0.019   0.045 -0.5249  0.0763  0.2396
  585MPD2    H7 8735   2.069   0.071   0.084  1.0363  3.5827 -1.2869
  586TMC3    C1 8736   2.375   4.224  17.430  0.0502  0.4322 -0.4494
  586TMC3    C2 8737   2.504   4.214  17.385 -0.5061 -0.2895  0.2174
  586TMC3    C3 8738   2.533   4.126  17.289  0.3000  0.2870  0.3845
  586TMC3    C4 8739   2.278   4.156  17.368 -0.7091 -0.2096 -0.1528
  586TMC3    C5 8740   2.307   4.098  17.253  0.2041  0.2990 -1.0130
  586TMC3    C6 8741   2.438   4.070  17.215  0.5793  0.0469 -0.2074
  586TMC3     C 8742   2.333   4.336  17.514  1.0241 -0.6046  0.2442
  586TMC3     O 8743   2.425   4.413  17.521 -0.4289  0.3601 -1.0298
  586TMC3     H 8744   2.581   4.276  17.430 -0.5903 -1.1951  1.6000
  586TMC3    H1 8745   2.174   4.158  17.399 -0.4979 -0.5867  0.5747
  586TMC3    H2 8746   2.459   4.009  17.128 -0.6802  1.6721 -1.6550
  586TMC3    C7 8747   2.222   3.997  17.197 -0.1977  0.2218 -0.0844
  586TMC3    C8 8748   2.635   4.025  17.318  0.4319  0.3216 -0.3091
  586TMC3    O1 8749   2.268   3.901  17.142  0.1822  0.2572  0.3585
  586TMC3    O2 8750   2.650   3.929  17.240  0.6538 -0.1945  0.2368
  587TMC3    C1 8751   0.102   3.105  16.014 -0.3639 -0.5491  0.2014
  587TMC3    C2 8752   0.102   3.179  16.133  0.0385 -0.0514 -0.6161
  587TMC3    C3 8753   0.226   3.237  16.160  0.0861 -0.4963 -0.0699
  587TMC3    C4 8754   0.209   3.091  15.929  0.6311 -0.7364 -0.1382
  587TMC3    C5 8755   0.325   3.154  15.971 -0.6390 -0.7411 -0.3409
  587TMC3    C6 8756   0.336   3.221  16.085  0.1019  0.5192  0.6677
  587TMC3     C 8757   4.719   3.041  15.982 -0.0998 -0.7102 -0.3312
  587TMC3     O 8758   4.703   3.023  15.865 -0.7229 -0.6000 -0.3435
  587TMC3     H 8759   0.021   3.187  16.204  0.9350  0.0876  0.3844
  587TMC3    H1 8760   0.213   3.020  15.846  3.5951 -1.5453  0.6926
  587TMC3    H2 8761   0.430   3.273  16.101 -0.2549  1.0956  0.9214
  587TMC3    C7 8762   0.450   3.128  15.899  0.3122  0.8008  0.1908
  587TMC3    C8 8763   0.244   3.294  16.291  0.7458 -0.2467 -0.1334
  587TMC3    O1 8764   0.547   3.131  15.969  0.3007  0.0122  0.0153
  587TMC3    O2 8765   0.357   3.296  16.334 -0.0845  0.4054  0.4131
  588TMC3    C1 8766   2.016   0.796   9.884  0.4874  0.1471  0.4346
  588TMC3    C2 8767   1.962   0.677   9.843 -0.0509 -0.7295 -0.6030
  588TMC3    C3 8768   1.989   0.561   9.909  0.6079 -0.9386 -0.2772
  588TMC3    C4 8769   2.094   0.796   9.991  0.4281  0.0919  0.2679
  588TMC3    C5 8770   2.121   0.677  10.059 -0.3794 -0.3249  0.4495
  588TMC3    C6 8771   2.070   0.560  10.020 -0.0310 -0.4309  0.2991
  588TMC3     C 8772   1.960   0.920   9.832 -0.3747 -0.5218  0.2165
  588TMC3     O 8773   1.902   0.926   9.725  0.2370 -0.4293  0.3933
  588TMC3     H 8774   1.883   0.672   9.768 -1.3946 -0.7596  0.8085
  588TMC3    H1 8775   2.149   0.882  10.028 -1.7621  0.5985  2.3637
  588TMC3    H2 8776   2.093   0.477  10.086 -1.5692 -1.2195 -0.1474
  588TMC3    C7 8777   2.195   0.684  10.179 -0.4411 -0.1068 -0.0306
  588TMC3    C8 8778   1.948   0.436   9.849 -0.2270 -0.1910 -0.6251
  588TMC3    O1 8779   2.284   0.601  10.198 -0.1273 -0.1830  0.1252
  588TMC3    O2 8780   1.858   0.438   9.765  0.1870 -0.5598 -0.0929
  589TMC3    C1 8781   1.359   3.118   1.477 -0.0110  0.2005 -0.4802
  589TMC3    C2 8782   1.491   3.102   1.512  0.5647 -0.0342 -0.6652
  589TMC3    C3 8783   1.561   3.004   1.444  0.1082 -0.8585 -0.2081
  589TMC3    C4 8784   1.294   3.027   1.398 -0.1999  0.6121 -0.6767
  589TMC3    C5 8785   1.365   2.922   1.347  1.1455  0.3675  0.5196
  589TMC3    C6 8786   1.499   2.914   1.364 -0.0014 -0.2939 -0.0687
  589TMC3     C 8787   1.280   3.234   1.497  0.1768  0.2401 -0.7496
  589TMC3     O 8788   1.159   3.216   1.485  0.1405  0.1294 -0.7443
  589TMC3     H 8789   1.544   3.153   1.592 -1.5503 -0.2417  0.8673
  589TMC3    H1 8790   1.188   3.015   1.382 -0.2567  1.7607 -1.1606
  589TMC3    H2 8791   1.546   2.825   1.326  0.7570  0.0731  0.0015
  589TMC3    C7 8792   1.310   2.840   1.249  0.1964 -0.6848  0.3080
  589TMC3    C8 8793   1.700   2.986   1.471  1.0090  0.4069  0.4859
  589TMC3    O1 8794   1.316   2.724   1.267  0.3963 -0.2446  0.6891
  589TMC3    O2 8795   1.752   3.040   1.571 -0.4281  0.5955  0.1279
  590MPD2     C 8796   1.062   1.145  16.668  0.0177  0.2915 -0.1247
  590MPD2    C1 8797   0.999   1.229  16.577  0.4061 -0.4679  0.0961
  590MPD2    C2 8798   1.068   1.290  16.477  0.9946  0.6301  0.0631
  590MPD2    C3 8799   1.207   1.269  16.470  0.3609 -0.8540 -0.6784
  590MPD2    C4 8800   1.265   1.183  16.561 -0.2741  0.0932 -0.8555
  590MPD2    C5 8801   1.196   1.129  16.664  0.1594 -0.1643 -0.8925
  590MPD2     H 8802   1.028   1.360  16.405 -1.5335 -1.8013 -0.8663
  590MPD2    H1 8803   1.373   1.175  16.554 -0.3239 -2.1962  0.5927
  590MPD2    H2 8804   1.001   1.111  16.751  1.6545  3.3179  2.3164
  590MPD2    H3 8805   1.243   1.053  16.725 -0.9109  0.1295  0.2716
  590MPD2     N 8806   1.278   1.339  16.371 -0.1216 -0.2682  0.2999
  590MPD2    H5 8807   1.230   1.415  16.323  1.6161  0.6075 -0.0615
  590MPD2    N1 8808   0.857   1.247  16.595  0.4888 -0.5107  0.0645
  590MPD2    H7 8809   0.815   1.176  16.653  1.1380  0.3722  1.6196
  591TMC3    C1 8810   1.467   1.403  16.255  0.5607  0.1274  0.1083
  591TMC3    C2 8811   1.546   1.357  16.153  0.6789  0.6138 -0.1136
  591TMC3    C3 8812   1.562   1.438  16.044 -0.1850  0.7094 -0.3106
  591TMC3    C4 8813   1.407   1.525  16.247  0.6607  0.4632  0.1932
  591TMC3    C5 8814   1.443   1.610  16.143  0.4836 -0.2226 -0.2241
  591TMC3    C6 8815   1.517   1.566  16.036 -0.1190 -0.4280  0.7412
  591TMC3     C 8816   1.406   1.298  16.331  0.1539 -0.3860 -0.1410
  591TMC3     O 8817   1.462   1.189  16.353  0.0249  0.2844 -0.1737
  591TMC3     H 8818   1.578   1.253  16.159 -0.5725  0.2191 -0.3682
  591TMC3    H1 8819   1.368   1.567  16.339 -1.1047  1.4102 -0.9835
  591TMC3    H2 8820   1.543   1.631  15.954  3.1812  0.5443  2.5684
  591TMC3    C7 8821   1.341   1.713  16.121  0.0289  0.0878  0.1269
  591TMC3    C8 8822   1.644   1.377  15.942 -0.2569  0.7359  0.4140
  591TMC3    O1 8823   1.243   1.714  16.194 -0.4072 -0.0620 -0.5280
  591TMC3    O2 8824   1.699   1.274  15.972 -0.0581  0.2926  0.4065
  592MPD2     C 8825   1.479   3.590  11.489 -0.1687 -0.3661  0.3154
  592MPD2    C1 8826   1.411   3.652  11.592  0.0644  0.6130 -0.2810
  592MPD2    C2 8827   1.303   3.597  11.660 -0.0163 -0.1333  0.1524
  592MPD2    C3 8828   1.276   3.462  11.633  0.4610  0.7566 -0.0249
  592MPD2    C4 8829   1.353   3.397  11.535 -0.2120  0.0811  0.7278
  592MPD2    C5 8830   1.453   3.458  11.466 -0.0309 -1.0293 -0.5186
  592MPD2     H 8831   1.243   3.651  11.732  0.7121 -0.6654  1.1564
  592MPD2    H1 8832   1.332   3.299  11.493  2.9269 -0.6810  0.9957
  592MPD2    H2 8833   1.565   3.637  11.444 -0.1677  0.8829  1.5915
  592MPD2    H3 8834   1.499   3.410  11.381  0.6269 -0.1422 -0.6672
  592MPD2     N 8835   1.159   3.407  11.691 -0.4681 -0.0541  0.0349
  592MPD2    H5 8836   1.110   3.452  11.767 -1.0404 -1.7653  0.6867
  592MPD2    N1 8837   1.465   3.781  11.614  0.6614  0.2067  0.0806
  592MPD2    H7 8838   1.520   3.824  11.541  1.2751  3.3952  2.4382
  593TMC3    C1 8839   1.471   3.999  11.713  0.9188 -0.4305 -0.3432
  593TMC3    C2 8840   1.460   4.081  11.820 -0.2518  0.1647 -0.5136
  593TMC3    C3 8841   1.511   4.205  11.822  0.2331 -0.4761  0.2965
  593TMC3    C4 8842   1.506   4.055  11.595 -0.2895 -0.1615 -0.4228
  593TMC3    C5 8843   1.555   4.182  11.596 -0.2952 -0.1734  0.6996
  593TMC3    C6 8844   1.551   4.261  11.707  0.4320 -0.2393 -0.3191
  593TMC3     C 8845   1.426   3.864  11.721  0.4239  0.4072  1.0835
  593TMC3     O 8846   1.380   3.824  11.827 -0.2363  0.1467 -0.2055
  593TMC3     H 8847   1.418   4.032  11.907  0.5097 -0.6381 -0.5984
  593TMC3    H1 8848   1.507   3.993  11.506 -3.5834 -1.0365  0.1244
  593TMC3    H2 8849   1.587   4.363  11.692  0.8777 -0.4944 -1.0276
  593TMC3    C7 8850   1.619   4.232  11.475 -0.2530  0.1977 -0.0183
  593TMC3    C8 8851   1.481   4.289  11.932 -0.4421  0.4661 -0.8575
  593TMC3    O1 8852   1.699   4.323  11.499 -0.3125  0.4249  1.0544
  593TMC3    O2 8853   1.389   4.268  12.009 -0.4724  0.5712 -0.0874
  594MPD2     C 8854   0.563   2.165  14.309 -0.1594  0.2156  0.0250
  594MPD2    C1 8855   0.450   2.234  14.266 -0.2544 -0.3660 -0.2455
  594MPD2    C2 8856   0.469   2.352  14.196  0.1389 -0.3067  0.0931
  594MPD2    C3 8857   0.596   2.402  14.166 -0.1893  0.2838 -0.5504
  594MPD2    C4 8858   0.699   2.334  14.213  0.5352 -0.5275  0.4676
  594MPD2    C5 8859   0.684   2.222  14.281  0.1929  0.4090 -0.2791
  594MPD2     H 8860   0.385   2.414  14.166 -0.2512  0.2552  2.4041
  594MPD2    H1 8861   0.802   2.369  14.207  0.4560 -0.2896  0.5199
  594MPD2    H2 8862   0.570   2.060  14.336 -0.9514 -0.2682 -1.6278
  594MPD2    H3 8863   0.772   2.168  14.314  0.4921  2.5345  2.3982
  594MPD2     N 8864   0.600   2.523  14.093 -0.2662 -0.0860 -0.5914
  594MPD2    H5 8865   0.507   2.550  14.062  0.3299  2.8416  0.2325
  594MPD2    N1 8866   0.327   2.172  14.289 -0.0796  0.3549 -0.6700
  594MPD2    H7 8867   0.337   2.085  14.339 -0.1175  1.8042  1.8744
  595TMC3    C1 8868   0.788   2.949  14.081  0.0059 -0.3378  0.1576
  595TMC3    C2 8869   0.793   2.819  14.031  0.6673 -0.1267  0.4179
  595TMC3    C3 8870   0.683   2.735  14.053 -0.8063  0.3216  0.7044
  595TMC3    C4 8871   0.673   3.003  14.130 -0.2105 -0.2524 -0.5163
  595TMC3    C5 8872   0.560   2.929  14.118  0.4291  0.4397  0.5225
  595TMC3    C6 8873   0.564   2.791  14.089 -0.1464  0.2134  0.1020
  595TMC3     C 8874   0.906   3.029  14.108  0.5635 -0.2690 -0.7391
  595TMC3     O 8875   0.892   3.128  14.180 -0.5079  0.1888 -0.4748
  595TMC3     H 8876   0.886   2.770  14.004 -0.0793 -1.5275  0.4209
  595TMC3    H1 8877   0.658   3.110  14.141  0.1397 -0.5873  3.2946
  595TMC3    H2 8878   0.475   2.729  14.098 -0.9431  1.4832  0.9954
  595TMC3    C7 8879   0.458   2.956  14.220  0.0925  0.6415  0.3998
  595TMC3    C8 8880   0.708   2.598  14.073 -0.0408  0.0949  0.2631
  595TMC3    O1 8881   0.346   2.906  14.199  0.2372  0.1086 -0.0066
  595TMC3    O2 8882   0.822   2.572  14.108 -0.3062 -0.2283  0.0666
  596MPD2     C 8883   4.207   0.060  16.790 -0.3400 -0.3825 -1.1400
  596MPD2    C1 8884   4.143   0.178  16.747  0.3562  0.2804 -0.4689
  596MPD2    C2 8885   4.099   0.188  16.612 -0.5979 -0.6795 -0.3673
  596MPD2    C3 8886   4.113   0.084  16.524 -0.8235 -0.0725 -0.3228
  596MPD2    C4 8887   4.164   4.700  16.566 -0.2387 -0.4222 -0.5859
  596MPD2    C5 8888   4.205   4.695  16.701  0.3902 -0.3588 -0.2533
  596MPD2     H 8889   4.037   0.270  16.578 -0.6616 -0.4569  0.2943
  596MPD2    H1 8890   4.170   4.615  16.500 -0.9659  0.8180 -2.2389
  596MPD2    H2 8891   4.256   0.052  16.887 -0.4661 -2.2253 -1.2255
  596MPD2    H3 8892   4.256   4.605  16.733  2.0922  0.5702 -0.3921
  596MPD2     N 8893   4.069   0.091  16.386 -0.5529  0.0406  0.1888
  596MPD2    H5 8894   4.075   0.006  16.331  0.4661  1.1879 -1.4542
  596MPD2    N1 8895   4.119   0.286  16.832 -0.1033 -0.3768 -0.0622
  596MPD2    H7 8896   4.088   0.373  16.791 -2.1761  1.0521  4.5162
  597TMC3    C1 8897   4.120   0.418  17.014  0.1035  0.4987  0.2557
  597TMC3    C2 8898   4.186   0.522  16.953  0.1682  0.1685  0.4140
  597TMC3    C3 8899   4.160   0.653  16.998 -0.2567  0.2188 -0.2519
  597TMC3    C4 8900   4.024   0.440  17.108  0.1207  0.1390 -0.2148
  597TMC3    C5 8901   4.010   0.568  17.157  0.1221  1.0981  0.3674
  597TMC3    C6 8902   4.079   0.676  17.106 -0.5892 -0.3168 -0.7690
  597TMC3     C 8903   4.134   0.283  16.964 -0.2943 -0.1967 -0.3749
  597TMC3     O 8904   4.133   0.192  17.047 -0.1066  0.1754 -0.1976
  597TMC3     H 8905   4.260   0.502  16.876  0.3095  1.5096  0.1977
  597TMC3    H1 8906   3.978   0.353  17.154 -0.2021  0.6540  0.4257
  597TMC3    H2 8907   4.083   0.774  17.154 -0.1161  0.2871 -2.0496
  597TMC3    C7 8908   3.915   0.587  17.267 -0.6053  0.2699  0.0213
  597TMC3    C8 8909   4.244   0.753  16.934  0.0725  0.8547 -0.3066
  597TMC3    O1 8910   3.858   0.488  17.319 -0.0590  0.7209 -0.0368
  597TMC3    O2 8911   4.314   0.712  16.843 -0.3827 -0.5627 -0.3477
  598TMC3    C1 8912   2.274   1.886  15.529  0.4365  0.5927 -0.3588
  598TMC3    C2 8913   2.177   1.823  15.590  0.2241 -0.4167  0.0381
  598TMC3    C3 8914   2.052   1.845  15.550  0.3649 -0.3395  0.5265
  598TMC3    C4 8915   2.252   1.972  15.426  0.5109  0.9599 -0.1103
  598TMC3    C5 8916   2.124   1.991  15.387 -0.9644 -0.1659 -0.1329
  598TMC3    C6 8917   2.018   1.922  15.438  0.7852  0.1338 -0.1565
  598TMC3     C 8918   2.402   1.897  15.583 -0.2013  0.5089  0.0202
  598TMC3     O 8919   2.451   2.009  15.568  0.0062  0.1805 -0.3014
  598TMC3     H 8920   2.212   1.762  15.673  0.8932 -1.0769 -0.7359
  598TMC3    H1 8921   2.335   2.017  15.372  2.5302 -1.8000  0.7008
  598TMC3    H2 8922   1.912   1.932  15.417  1.3969  1.4443 -2.5908
  598TMC3    C7 8923   2.109   2.042  15.257 -0.0809 -0.2565  0.4812
  598TMC3    C8 8924   1.950   1.839  15.656  0.9393 -0.7530 -0.5598
  598TMC3    O1 8925   2.061   1.974  15.166 -0.3692 -0.4327  0.0455
  598TMC3    O2 8926   1.852   1.908  15.639  0.3636 -0.3116 -0.1754
  599MPD2     C 8927   2.281   4.321  15.836 -0.6425 -0.6433  0.2156
  599MPD2    C1 8928   2.224   4.192  15.830 -0.0624  0.0485  0.1073
  599MPD2    C2 8929   2.090   4.178  15.865  1.1093  0.3776 -1.4713
  599MPD2    C3 8930   2.017   4.290  15.906 -0.7506 -0.5271 -0.5995
  599MPD2    C4 8931   2.069   4.414  15.882 -0.8034 -0.2013  0.0817
  599MPD2    C5 8932   2.204   4.431  15.867  0.7052  0.3715  0.8953
  599MPD2     H 8933   2.051   4.077  15.874 -0.4888  1.2697  1.2822
  599MPD2    H1 8934   2.010   4.505  15.883 -0.3103  0.1052  1.0230
  599MPD2    H2 8935   2.387   4.339  15.824 -0.3397 -0.6206  2.9586
  599MPD2    H3 8936   2.245   4.531  15.878  0.6830  0.4523  0.2520
  599MPD2     N 8937   1.890   4.286  15.976 -1.0204 -0.0857 -0.1544
  599MPD2    H5 8938   1.864   4.372  16.023  1.7426 -0.0375  1.3344
  599MPD2    N1 8939   2.312   4.086  15.802 -0.4027 -0.0965  0.3315
  599MPD2    H7 8940   2.409   4.107  15.825  0.4876  0.1325 -3.5333
  600TMC3    C1 8941   1.726   4.195  16.119 -0.2553  0.2566 -0.2518
  600TMC3    C2 8942   1.623   4.110  16.121  0.1111  0.3242  0.7282
  600TMC3    C3 8943   1.549   4.106  16.233 -0.0795 -0.3632  0.3730
  600TMC3    C4 8944   1.759   4.281  16.223 -0.2119  0.1453 -0.1390
  600TMC3    C5 8945   1.678   4.267  16.338  0.1352 -0.5241 -0.5709
  600TMC3    C6 8946   1.568   4.188  16.337 -0.0948  0.0154  0.0134
  600TMC3     C 8947   1.822   4.172  16.010 -0.1521  0.5802  0.8656
  600TMC3     O 8948   1.833   4.054  15.976 -0.3217 -0.0216 -1.2223
  600TMC3     H 8949   1.619   4.032  16.045 -3.1252  0.9776  0.2343
  600TMC3    H1 8950   1.848   4.340  16.208  0.3428 -0.7024 -0.2244
  600TMC3    H2 8951   1.508   4.163  16.424  0.8762  0.3119  0.7672
  600TMC3    C7 8952   1.684   4.359  16.449 -0.6801 -0.1031  0.2654
  600TMC3    C8 8953   1.451   4.001  16.247 -0.6406  0.0243  0.0617
  600TMC3    O1 8954   1.591   4.360  16.533 -0.2479 -0.1011 -0.0388
  600TMC3    O2 8955   1.442   3.947  16.360  0.1963  0.3151  0.2409
  601MPD2     C 8956   0.083   2.589  17.183  0.7737 -0.0604  0.2471
  601MPD2    C1 8957   4.706   2.642  17.240  0.1632  0.0033  0.8046
  601MPD2    C2 8958   4.626   2.568  17.323 -0.7075 -0.6185 -0.9045
  601MPD2    C3 8959   4.659   2.435  17.355 -0.5889  0.1597 -0.1521
  601MPD2    C4 8960   0.044   2.391  17.308  0.2013  1.1214 -0.5279
  601MPD2    C5 8961   0.123   2.462  17.224 -0.1623  0.3559  0.3795
  601MPD2     H 8962   4.528   2.602  17.354 -1.0614 -1.4865 -1.0582
  601MPD2    H1 8963   0.087   2.297  17.340  1.1612  1.6551 -0.2732
  601MPD2    H2 8964   0.152   2.642  17.119  0.8809  0.0320  0.4379
  601MPD2    H3 8965   0.217   2.417  17.195 -1.7198 -0.9973 -2.5034
  601MPD2     N 8966   4.575   2.348  17.432 -0.1167 -0.0873 -0.2248
  601MPD2    H5 8967   4.620   2.264  17.467 -1.0606 -0.5612 -0.1688
  601MPD2    N1 8968   4.665   2.778  17.220  0.1692  0.8694 -0.2491
  601MPD2    H7 8969   4.574   2.801  17.258  0.0328 -0.0919 -0.0038
  602TMC3    C1 8970   4.633   2.982  17.105 -0.0985 -0.4354 -0.2903
  602TMC3    C2 8971   4.657   3.061  16.999 -0.3090  0.5454  0.3536
  602TMC3    C3 8972   4.563   3.148  16.959 -0.1793 -0.1820  0.2506
  602TMC3    C4 8973   4.515   2.983  17.175  0.3632  0.1531  0.2148
  602TMC3    C5 8974   4.425   3.073  17.135 -0.1571 -0.2942 -0.2267
  602TMC3    C6 8975   4.451   3.163  17.034 -0.4414 -0.6490  0.7293
  602TMC3     C 8976   4.715   2.863  17.125 -0.1279 -0.3374 -0.2558
  602TMC3     O 8977   0.071   2.848  17.050 -0.4226  0.1716  0.3546
  602TMC3     H 8978   0.006   3.045  16.938 -2.1846 -0.4510 -2.0842
  602TMC3    H1 8979   4.494   2.930  17.267 -2.1290 -2.2714 -1.7332
  602TMC3    H2 8980   4.393   3.255  17.031  0.6182  0.0201  0.5752
  602TMC3    C7 8981   4.286   3.060  17.184 -0.2009 -0.3347  0.0781
  602TMC3    C8 8982   4.566   3.202  16.822  0.1990 -0.4454 -0.6743
  602TMC3    O1 8983   4.260   2.958  17.246 -0.3975 -0.4791 -0.3598
  602TMC3    O2 8984   4.648   3.146  16.752 -0.7946  0.6795 -0.3695
  603TMC3    C1 8985   2.303   3.178  11.108 -0.1510  0.0920 -0.0154
  603TMC3    C2 8986   2.318   3.140  11.238  0.0594  0.5486 -0.2417
  603TMC3    C3 8987   2.369   3.234  11.324 -0.9896  0.8501  0.4323
  603TMC3    C4 8988   2.346   3.300  11.061 -0.3720 -0.5254 -0.0196
  603TMC3    C5 8989   2.395   3.386  11.147 -0.4991 -0.0066  0.7441
  603TMC3    C6 8990   2.398   3.360  11.282 -0.5185  0.2819  0.6305
  603TMC3     C 8991   2.264   3.087  11.005 -0.1789 -0.6541  0.4447
  603TMC3     O 8992   2.267   3.126  10.887 -0.2571  0.6628  0.6409
  603TMC3     H 8993   2.275   3.050  11.280  0.7674  0.8324  1.0880
  603TMC3    H1 8994   2.359   3.320  10.956 -0.4509  2.6372  0.5580
  603TMC3    H2 8995   2.447   3.434  11.344  2.5701  1.8964 -3.7251
  603TMC3    C7 8996   2.450   3.512  11.100 -0.4061  0.1478 -0.5428
  603TMC3    C8 8997   2.351   3.207  11.473  0.6413  0.6281 -0.3513
  603TMC3    O1 8998   2.509   3.585  11.178 -0.1925 -0.3700 -0.8615
  603TMC3    O2 8999   2.299   3.103  11.504  0.2279  0.2314 -0.1384
  604MPD2     C 9000   3.711   1.916  16.792 -0.2574  0.8401  0.2381
  604MPD2    C1 9001   3.612   1.981  16.716 -0.4883  0.2773  0.3867
  604MPD2    C2 9002   3.610   1.986  16.578 -0.4840 -0.5174 -0.6008
  604MPD2    C3 9003   3.714   1.917  16.517 -0.1414  0.6430  0.6518
  604MPD2    C4 9004   3.811   1.851  16.590  0.0737  0.3275  0.5366
  604MPD2    C5 9005   3.810   1.851  16.724  0.0032  0.7203 -0.0719
  604MPD2     H 9006   3.538   2.041  16.518  0.9753  0.9651 -0.9927
  604MPD2    H1 9007   3.885   1.793  16.536  1.9396  2.3573  0.9209
  604MPD2    H2 9008   3.708   1.908  16.900  0.1841 -1.5433  0.0653
  604MPD2    H3 9009   3.895   1.812  16.779 -0.3586  1.2333  0.8643
  604MPD2     N 9010   3.707   1.911  16.375 -0.1350 -0.0702  0.0052
  604MPD2    H5 9011   3.619   1.945  16.337  0.7312  0.9135 -1.1061
  604MPD2    N1 9012   3.509   2.036  16.799 -0.0573 -0.3641 -0.6054
  604MPD2    H7 9013   3.529   2.050  16.897 -1.5833  1.5117 -0.5488
  605TMC3    C1 9014   3.292   2.062  16.863  0.0348  0.2038  0.0629
  605TMC3    C2 9015   3.340   2.027  16.985 -0.1211 -0.1011 -0.2310
  605TMC3    C3 9016   3.282   1.925  17.051  0.1921  0.4300  1.0997
  605TMC3    C4 9017   3.181   1.997  16.810  0.4043 -0.2927  0.2771
  605TMC3    C5 9018   3.122   1.897  16.878 -0.7743  0.0188  0.3600
  605TMC3    C6 9019   3.173   1.860  17.000  0.3733 -0.6289 -0.3241
  605TMC3     C 9020   3.383   2.068  16.754 -0.1735 -0.7527  0.7526
  605TMC3     O 9021   3.338   2.060  16.640  0.0009  0.3079 -0.7166
  605TMC3     H 9022   3.423   2.083  17.026 -1.9255  3.4921 -1.5299
  605TMC3    H1 9023   3.146   2.005  16.708  1.2016  0.7979  0.0984
  605TMC3    H2 9024   3.124   1.776  17.049 -0.0906 -0.8764 -1.2150
  605TMC3    C7 9025   2.979   1.891  16.868 -0.1805 -0.4758  0.3375
  605TMC3    C8 9026   3.378   1.844  17.126 -0.0194 -0.4728  0.8324
  605TMC3    O1 9027   2.924   1.995  16.849  0.1085 -0.0970  0.0876
  605TMC3    O2 9028   3.455   1.915  17.194 -0.6538  0.4835  0.8750
  606TMC3    C1 9029   3.987   0.254  17.470 -0.6722 -0.7672  0.1427
  606TMC3    C2 9030   4.126   0.269  17.447  0.2529 -0.3181  0.2015
  606TMC3    C3 9031   4.192   0.174  17.374  0.7941 -0.0879 -0.2790
  606TMC3    C4 9032   3.930   0.140  17.425  0.7608 -1.0859 -0.3171
  606TMC3    C5 9033   4.002   0.050  17.359  0.1006  0.6660  0.0406
  606TMC3    C6 9034   4.135   0.061  17.329  0.2250  0.4232  0.3243
  606TMC3     C 9035   3.918   0.333  17.572 -0.7322  0.3590 -0.0935
  606TMC3     O 9036   3.826   0.279  17.625  0.0417 -0.0008 -0.2115
  606TMC3     H 9037   4.180   0.345  17.503  0.3193 -0.0895 -0.1747
  606TMC3    H1 9038   3.823   0.124  17.433  0.7636  0.0337  1.9500
  606TMC3    H2 9039   4.184   4.727  17.266  3.0245  1.2000  1.6089
  606TMC3    C7 9040   3.941   4.656  17.334 -0.7783 -0.2211  0.3702
  606TMC3    C8 9041   4.336   0.180  17.358 -0.0870 -0.8205 -0.0897
  606TMC3    O1 9042   3.828   4.650  17.371  0.6911  0.2249 -0.2609
  606TMC3    O2 9043   4.394   0.077  17.324 -0.4618  0.2184  0.3366
  607MPD2     C 9044   1.370   3.136  11.844  0.4493 -0.9449  0.1366
  607MPD2    C1 9045   1.388   3.226  11.953 -0.7238 -0.0195 -0.6353
  607MPD2    C2 9046   1.324   3.190  12.072  0.3508  0.0954  0.2579
  607MPD2    C3 9047   1.247   3.078  12.090 -0.6092  0.8449 -0.2374
  607MPD2    C4 9048   1.232   2.995  11.985 -0.0807 -0.1278  0.1993
  607MPD2    C5 9049   1.298   3.029  11.868 -0.0317  0.8896 -0.6074
  607MPD2     H 9050   1.335   3.254  12.159 -0.2475  0.5035  0.0361
  607MPD2    H1 9051   1.166   2.909  11.983  0.1440 -0.3630  2.5483
  607MPD2    H2 9052   1.428   3.152  11.755 -1.0377  1.8438 -0.3277
  607MPD2    H3 9053   1.302   2.952  11.792  2.5884  0.8681 -0.4285
  607MPD2     N 9054   1.204   3.056  12.223 -0.4990  0.1974 -0.4598
  607MPD2    H5 9055   1.238   3.118  12.297  1.0211  0.3646 -1.3005
  607MPD2    N1 9056   1.466   3.341  11.951 -0.1051 -0.5781  0.0145
  607MPD2    H7 9057   1.454   3.410  12.025  0.3904 -1.6286  1.0724
  608TMC3    C1 9058   1.648   3.488  11.902  0.2915 -0.4508 -0.3611
  608TMC3    C2 9059   1.669   3.493  12.038 -0.2613  0.3097 -0.3167
  608TMC3    C3 9060   1.723   3.604  12.092 -0.3690  0.3685 -0.2627
  608TMC3    C4 9061   1.664   3.597  11.826  0.3860  0.0056  0.8950
  608TMC3    C5 9062   1.713   3.707  11.885  0.3461 -1.0999  0.9544
  608TMC3    C6 9063   1.743   3.723  12.021  0.9202 -0.5053  0.2525
  608TMC3     C 9064   1.557   3.386  11.852 -0.3693  0.1437 -0.1612
  608TMC3     O 9065   1.590   3.327  11.748 -0.7536  0.0191  0.2021
  608TMC3     H 9066   1.654   3.402  12.095  2.2765  0.1449  0.0754
  608TMC3    H1 9067   1.637   3.588  11.721 -0.9217  0.9937  1.1497
  608TMC3    H2 9068   1.786   3.806  12.077  0.1640 -0.0789  0.2014
  608TMC3    C7 9069   1.781   3.798  11.790 -0.2388 -0.2420  0.1463
  608TMC3    C8 9070   1.696   3.632  12.233 -0.6349 -0.5743 -0.3463
  608TMC3    O1 9071   1.798   3.756  11.681  0.0768  0.0425 -0.5580
  608TMC3    O2 9072   1.756   3.727  12.285 -0.1705  0.3883 -0.1587
  609TMC3    C1 9073   1.000   2.491   8.919 -0.4648  1.0884 -0.4064
  609TMC3    C2 9074   1.111   2.527   8.842  0.2053  0.3370 -0.3476
  609TMC3    C3 9075   1.226   2.445   8.864 -0.5624 -0.2798  0.6792
  609TMC3    C4 9076   0.997   2.382   9.004  0.2073  0.3542 -0.3290
  609TMC3    C5 9077   1.114   2.317   9.028  0.0233 -0.6582 -0.2737
  609TMC3    C6 9078   1.230   2.342   8.951  0.0264  0.0839 -0.5387
  609TMC3     C 9079   0.885   2.584   8.909 -0.8337  0.1036 -0.3423
  609TMC3     O 9080   0.826   2.605   9.018 -0.5535 -0.0822 -0.3303
  609TMC3     H 9081   1.110   2.628   8.804 -1.4548  0.5243  0.1564
  609TMC3    H1 9082   0.904   2.344   9.046  1.1357 -1.6157 -0.0589
  609TMC3    H2 9083   1.321   2.289   8.979 -1.9092 -2.1719  1.4527
  609TMC3    C7 9084   1.113   2.218   9.133  0.3822 -0.3179 -0.1631
  609TMC3    C8 9085   1.341   2.482   8.794 -0.2616 -0.3122  0.0564
  609TMC3    O1 9086   1.201   2.132   9.124 -0.3849  0.5516  0.4580
  609TMC3    O2 9087   1.341   2.599   8.759  0.2186  0.1167 -0.1691
  610TMC3    C1 9088   2.117   3.339  13.379 -0.8638  0.0770 -0.6192
  610TMC3    C2 9089   2.074   3.404  13.264 -0.1538 -0.1120 -0.1278
  610TMC3    C3 9090   2.149   3.386  13.153  0.5091 -0.8142 -0.1269
  610TMC3    C4 9091   2.231   3.261  13.389 -0.0184  0.3457 -0.7213
  610TMC3    C5 9092   2.303   3.256  13.273  1.0335  0.2747  0.6459
  610TMC3    C6 9093   2.266   3.319  13.154  0.5312 -0.7852  0.3079
  610TMC3     C 9094   2.019   3.329  13.483 -0.3926  0.5100  0.4206
  610TMC3     O 9095   2.049   3.322  13.600  0.0603  0.3776  0.0116
  610TMC3     H 9096   1.996   3.479  13.266 -1.1364 -1.1270 -0.2756
  610TMC3    H1 9097   2.258   3.203  13.477  1.7364  2.6308  0.2399
  610TMC3    H2 9098   2.315   3.291  13.061  1.5271  1.6942  0.0715
  610TMC3    C7 9099   2.413   3.160  13.271 -0.4826  0.0997 -0.0912
  610TMC3    C8 9100   2.125   3.460  13.031  0.3369  0.5454  0.1980
  610TMC3    O1 9101   2.408   3.070  13.352 -0.0596 -0.0843 -0.3382
  610TMC3    O2 9102   2.212   3.466  12.945  0.2715  0.3674  0.2640
  611MPD2     C 9103   1.588   3.222  10.489  0.3560  0.5554 -1.2706
  611MPD2    C1 9104   1.532   3.334  10.427  0.1531  0.0423 -0.2598
  611MPD2    C2 9105   1.618   3.441  10.407  0.1955  0.1410 -0.4181
  611MPD2    C3 9106   1.756   3.436  10.445  0.8152  0.3079 -0.3603
  611MPD2    C4 9107   1.804   3.325  10.503 -0.0305 -0.3484  0.1337
  611MPD2    C5 9108   1.722   3.223  10.528  0.4425 -0.1963  0.8388
  611MPD2     H 9109   1.574   3.534  10.372 -0.4174 -0.1874 -0.5230
  611MPD2    H1 9110   1.910   3.306  10.516  0.6012  2.4394 -1.0583
  611MPD2    H2 9111   1.530   3.130  10.492  0.7588  0.3418 -0.0474
  611MPD2    H3 9112   1.761   3.132  10.572  1.8780 -1.1592 -2.3964
  611MPD2     N 9113   1.850   3.533  10.421 -0.0479 -0.5022 -0.4450
  611MPD2    H5 9114   1.941   3.528  10.467  1.0216  0.8993 -2.4387
  611MPD2    N1 9115   1.392   3.335  10.393  0.5072  0.2509  0.1125
  611MPD2    H7 9116   1.342   3.256  10.432  0.6687 -0.7147 -1.6289
  612TMC3    C1 9117   1.941   3.721  10.323  0.5500 -0.0217  0.5870
  612TMC3    C2 9118   2.011   3.752  10.439  1.0022  0.2035  0.6605
  612TMC3    C3 9119   2.106   3.853  10.425 -0.2105 -0.3067  0.2206
  612TMC3    C4 9120   1.961   3.785  10.209 -0.1379  0.3966 -0.4601
  612TMC3    C5 9121   2.045   3.894  10.208  0.1826 -0.2914 -0.0670
  612TMC3    C6 9122   2.124   3.927  10.314 -0.4335  0.3684 -0.1811
  612TMC3     C 9123   1.832   3.628  10.330  0.3595  0.8486  0.4948
  612TMC3     O 9124   1.743   3.632  10.245  0.2686  0.4422  0.3713
  612TMC3     H 9125   1.993   3.718  10.540  0.8092 -0.7617  0.2946
  612TMC3    H1 9126   1.911   3.752  10.119  0.1987  2.1778 -1.2949
  612TMC3    H2 9127   2.178   4.021  10.319  1.7440 -0.9647  1.2821
  612TMC3    C7 9128   2.092   3.940  10.075  0.4391 -0.5835  0.7223
  612TMC3    C8 9129   2.192   3.886  10.537 -0.1201  0.1255  0.2570
  612TMC3    O1 9130   2.011   3.930   9.984 -0.1169  0.2997 -0.7375
  612TMC3    O2 9131   2.233   4.001  10.537 -0.0055 -0.3925  0.7424
  613MPD2     C 9132   4.586   0.287  16.181 -0.2177  0.4499  0.1584
  613MPD2    C1 9133   4.697   0.206  16.177  0.0433 -0.2018  0.1335
  613MPD2    C2 9134   4.675   0.068  16.169 -0.1099  0.7808  0.2718
  613MPD2    C3 9135   4.547   0.018  16.184  0.0915  0.0156 -0.2289
  613MPD2    C4 9136   4.444   0.106  16.202 -0.1011 -0.0617 -0.2139
  613MPD2    C5 9137   4.462   0.239  16.197  0.0374 -0.4147  0.6486
  613MPD2     H 9138   0.018   4.736  16.168  0.7096  1.7163 -0.8713
  613MPD2    H1 9139   4.348   0.062  16.222  0.0027 -0.7573 -1.2436
  613MPD2    H2 9140   4.604   0.394  16.186 -1.0809  0.5903  0.2929
  613MPD2    H3 9141   4.380   0.310  16.199 -0.2737 -0.7722  0.4543
  613MPD2     N 9142   4.541   4.616  16.174  0.5779 -0.6574 -0.0445
  613MPD2    H5 9143   4.625   4.561  16.157  1.2780  0.1918  0.6261
  613MPD2    N1 9144   0.089   0.268  16.189 -0.3918  0.4780  0.0408
  613MPD2    H7 9145   0.095   0.368  16.200  2.6683  0.7164 -3.8285
  614TMC3    C1 9146   0.318   0.281  16.197  0.0492  0.1270  0.4410
  614TMC3    C2 9147   0.420   0.198  16.158  0.2459  0.5156  0.0405
  614TMC3    C3 9148   0.481   0.216  16.036 -0.2738 -0.5387  0.1663
  614TMC3    C4 9149   0.295   0.388  16.123  0.1484 -1.0299  0.6872
  614TMC3    C5 9150   0.370   0.426  16.009 -0.4566  0.1129 -0.2387
  614TMC3    C6 9151   0.459   0.334  15.962  0.2742 -0.2446  0.3286
  614TMC3     C 9152   0.204   0.194  16.199  0.1337 -0.2957  0.3326
  614TMC3     O 9153   0.227   0.076  16.200 -0.5495 -0.1822  0.2197
  614TMC3     H 9154   0.445   0.115  16.223  1.6751  1.4881  0.7358
  614TMC3    H1 9155   0.228   0.465  16.159  0.6939 -0.2962  0.1073
  614TMC3    H2 9156   0.505   0.358  15.867  2.1161  0.7465  1.4502
  614TMC3    C7 9157   0.340   0.546  15.932  0.0484 -0.0039  1.3887
  614TMC3    C8 9158   0.491   0.104  15.946  0.3747  0.7037 -0.1918
  614TMC3    O1 9159   0.288   0.635  16.000 -0.2697 -0.3191  0.3620
  614TMC3    O2 9160   0.562   0.107  15.849 -0.0981  0.6002 -0.3820
  615MPD2     C 9161   4.680   1.355  16.487 -0.1067 -0.1891 -0.6374
  615MPD2    C1 9162   0.015   1.441  16.403 -0.5906  0.5653  0.3640
  615MPD2    C2 9163   4.701   1.476  16.281 -0.1774  0.0607 -0.6014
  615MPD2    C3 9164   4.571   1.427  16.250 -0.3825 -0.5606  0.5363
  615MPD2    C4 9165   4.506   1.341  16.332 -0.4836  0.0010  0.6291
  615MPD2    C5 9166   4.564   1.305  16.443 -0.2634 -0.3031  0.5760
  615MPD2     H 9167   0.014   1.545  16.215 -0.0200 -1.2921 -1.8878
  615MPD2    H1 9168   4.409   1.295  16.315 -1.3599  2.1897 -0.2358
  615MPD2    H2 9169   4.713   1.341  16.589 -0.1614  0.3975 -0.5432
  615MPD2    H3 9170   4.503   1.241  16.506 -0.1433 -0.4671  0.5242
  615MPD2     N 9171   4.506   1.473  16.129  0.4414  0.7563  0.3835
  615MPD2    H5 9172   4.560   1.540  16.074 -0.5439  0.8237 -0.5087
  615MPD2    N1 9173   0.134   1.506  16.445  0.3240 -0.2173 -0.3703
  615MPD2    H7 9174   0.173   1.568  16.375 -0.7645  2.6590  1.5686
  616TMC3    C1 9175   0.291   1.602  16.590  0.6605 -0.7076  0.5838
  616TMC3    C2 9176   0.339   1.687  16.490 -0.6366  0.8758  0.7272
  616TMC3    C3 9177   0.468   1.732  16.488  0.1196 -0.3775  0.1892
  616TMC3    C4 9178   0.386   1.569  16.682  0.2252  0.4077 -0.0424
  616TMC3    C5 9179   0.511   1.619  16.686 -0.8325  0.3666 -0.5570
  616TMC3    C6 9180   0.558   1.694  16.581  0.1425 -0.0393  0.5208
  616TMC3     C 9181   0.184   1.502  16.565 -0.6276 -0.1038  0.9860
  616TMC3     O 9182   0.173   1.419  16.650  1.1481  0.4949 -0.2581
  616TMC3     H 9183   0.268   1.731  16.421  0.6045  1.7825  0.0281
  616TMC3    H1 9184   0.352   1.505  16.762  2.4950 -1.4429 -0.5771
  616TMC3    H2 9185   0.658   1.734  16.588  0.2052 -0.0451 -0.3387
  616TMC3    C7 9186   0.609   1.575  16.794 -0.2625  0.2467 -0.5393
  616TMC3    C8 9187   0.504   1.834  16.387 -0.4072 -0.1684  0.4979
  616TMC3    O1 9188   0.560   1.492  16.873  0.0976 -0.6291 -0.1240
  616TMC3    O2 9189   0.412   1.869  16.312  0.4566 -0.2924 -0.1583
  617MPD2     C 9190   2.723   0.062  13.476 -0.1108  0.8622 -1.4395
  617MPD2    C1 9191   2.766   0.077  13.603  0.5761  0.8809  0.0216
  617MPD2    C2 9192   2.674   0.109  13.702  0.4658 -0.4117 -0.1030
  617MPD2    C3 9193   2.535   0.114  13.676  0.8405  0.4261  0.0224
  617MPD2    C4 9194   2.494   0.098  13.542 -0.3630 -0.2184 -0.1219
  617MPD2    C5 9195   2.590   0.079  13.449 -0.0717  0.1438 -0.3221
  617MPD2     H 9196   2.705   0.138  13.802  0.8006 -2.5443  0.4233
  617MPD2    H1 9197   2.392   0.089  13.506  0.4666 -0.3986 -2.4183
  617MPD2    H2 9198   2.787   0.031  13.394 -0.2304 -0.8579 -0.8940
  617MPD2    H3 9199   2.570   0.064  13.343 -1.8117 -0.7363  0.1328
  617MPD2     N 9200   2.434   0.122  13.769  0.1079 -0.0861  0.0782
  617MPD2    H5 9201   2.337   0.122  13.738  0.6316  1.5839 -1.5254
  617MPD2    N1 9202   2.905   0.073  13.622 -0.7804 -0.0756 -0.4013
  617MPD2    H7 9203   2.967   0.051  13.545 -1.3793 -0.8839 -0.6593
  618TMC3    C1 9204   3.104   0.091  13.733 -0.3323  0.2651  0.3053
  618TMC3    C2 9205   3.164   4.709  13.762  0.3050  0.3325 -0.5902
  618TMC3    C3 9206   3.296   4.702  13.733 -0.4030  0.1950  0.7074
  618TMC3    C4 9207   3.158   0.191  13.667 -0.8240 -0.1310  0.0016
  618TMC3    C5 9208   3.289   0.179  13.637  0.8525 -0.8721 -0.6625
  618TMC3    C6 9209   3.369   0.070  13.668 -0.4153 -0.7090  0.1581
  618TMC3     C 9210   2.964   0.082  13.744  1.0352 -0.0238  0.0469
  618TMC3     O 9211   2.917   0.058  13.848 -0.5162 -0.0286 -0.5616
  618TMC3     H 9212   3.101   4.628  13.797 -0.1420  1.1254  0.4426
  618TMC3    H1 9213   3.106   0.285  13.655  0.5798  0.4084 -1.8686
  618TMC3    H2 9214   3.472   0.060  13.637  0.6184  2.6262  2.4724
  618TMC3    C7 9215   3.332   0.291  13.553 -0.7949 -0.2016 -0.3875
  618TMC3    C8 9216   3.344   4.570  13.715  0.7534 -0.4361 -0.4657
  618TMC3    O1 9217   3.287   0.400  13.587 -0.3072  0.1984 -0.5723
  618TMC3    O2 9218   3.272   4.472  13.720  0.0005  0.0825 -0.1336
  619MPD2     C 9219   3.717   1.233  13.469  0.4134 -1.4942  0.7214
  619MPD2    C1 9220   3.671   1.358  13.482  0.7252 -0.3724 -0.0512
  619MPD2    C2 9221   3.564   1.399  13.560 -0.9132 -0.7338 -0.0307
  619MPD2    C3 9222   3.499   1.301  13.637 -0.3521  0.0000 -1.0503
  619MPD2    C4 9223   3.531   1.167  13.616  0.1938  0.8124 -0.1792
  619MPD2    C5 9224   3.638   1.133  13.533 -0.0583  0.0283 -0.4544
  619MPD2     H 9225   3.550   1.505  13.581  1.8738 -0.5438  0.9090
  619MPD2    H1 9226   3.462   1.098  13.662  0.1334  0.3803 -0.9129
  619MPD2    H2 9227   3.794   1.203  13.398 -0.7821 -0.5467 -0.9977
  619MPD2    H3 9228   3.663   1.028  13.521  1.2809  0.2297  0.6849
  619MPD2     N 9229   3.409   1.326  13.742  0.4701 -0.5102  0.3664
  619MPD2    H5 9230   3.386   1.244  13.798 -0.4393 -0.4290  0.1165
  619MPD2    N1 9231   3.730   1.459  13.405  0.1759 -0.3532  0.2601
  619MPD2    H7 9232   3.682   1.547  13.387  0.1010 -0.2401  1.0254
  620TMC3    C1 9233   3.851   1.557  13.233 -0.2731 -0.5633 -0.2585
  620TMC3    C2 9234   3.732   1.560  13.161 -0.0018  0.3111  0.6044
  620TMC3    C3 9235   3.713   1.668  13.083 -0.4677 -0.6736  0.1684
  620TMC3    C4 9236   3.943   1.660  13.234  0.5181  0.5810  0.1109
  620TMC3    C5 9237   3.925   1.759  13.146  0.2811 -0.3326  0.0275
  620TMC3    C6 9238   3.808   1.768  13.065 -0.1289  0.1758 -0.1327
  620TMC3     C 9239   3.847   1.451  13.341  0.7681  0.3647 -0.4711
  620TMC3     O 9240   3.952   1.395  13.372  0.4000 -0.0685 -0.1565
  620TMC3     H 9241   3.667   1.474  13.174 -0.4244  0.6839  0.9431
  620TMC3    H1 9242   4.039   1.641  13.280  0.7633 -1.0749 -1.0858
  620TMC3    H2 9243   3.784   1.849  12.997 -0.2039 -0.3067 -0.6770
  620TMC3    C7 9244   3.956   1.889  13.195 -0.6513  0.0786 -0.5873
  620TMC3    C8 9245   3.582   1.678  13.023  0.1287  0.4443 -0.5458
  620TMC3    O1 9246   3.928   1.979  13.116  0.1152  0.3930 -0.1520
  620TMC3    O2 9247   3.558   1.601  12.933 -0.4259  0.2837  0.5072
  621MPD2     C 9248   0.669   2.230   8.993 -0.1673  0.3069  0.3903
  621MPD2    C1 9249   0.663   2.180   9.121  0.3202  0.5356 -0.3077
  621MPD2    C2 9250   0.622   2.261   9.231  0.8887 -0.0111 -0.5614
  621MPD2    C3 9251   0.579   2.396   9.211 -0.2571  0.2934 -0.9089
  621MPD2    C4 9252   0.579   2.436   9.077  0.0909 -0.5730  0.6289
  621MPD2    C5 9253   0.617   2.356   8.975  0.2837  0.6400 -0.2978
  621MPD2     H 9254   0.611   2.221   9.331 -1.4354 -0.0586 -0.8442
  621MPD2    H1 9255   0.548   2.534   9.045 -3.2877 -1.5148  1.0748
  621MPD2    H2 9256   0.705   2.176   8.906  2.1005 -0.8626  2.0614
  621MPD2    H3 9257   0.621   2.396   8.874  1.2715  0.1374 -0.4629
  621MPD2     N 9258   0.540   2.480   9.317  0.0573 -0.7570 -0.2377
  621MPD2    H5 9259   0.541   2.441   9.411 -0.3818  0.7327  0.3769
  621MPD2    N1 9260   0.700   2.046   9.155 -0.3496 -0.1512  0.3320
  621MPD2    H7 9261   0.668   2.018   9.247  1.3759 -0.0656  0.9670
  622TMC3    C1 9262   0.766   1.830   9.122  0.9740 -0.0357 -0.8217
  622TMC3    C2 9263   0.716   1.803   9.249  0.0883  0.1366 -0.0566
  622TMC3    C3 9264   0.685   1.668   9.267 -0.5147 -0.0817 -0.4027
  622TMC3    C4 9265   0.782   1.737   9.026 -0.1814  0.8254  0.6484
  622TMC3    C5 9266   0.758   1.605   9.054 -0.1617  0.3038 -0.0921
  622TMC3    C6 9267   0.701   1.568   9.174 -0.2745 -0.4921 -0.2229
  622TMC3     C 9268   0.768   1.963   9.073 -0.3862  0.2241 -0.2073
  622TMC3     O 9269   0.813   1.980   8.960  0.2094 -0.2614  0.6031
  622TMC3     H 9270   0.719   1.879   9.326  1.3305 -1.1961  1.1977
  622TMC3    H1 9271   0.814   1.758   8.924 -0.4315 -0.6405  0.2620
  622TMC3    H2 9272   0.657   1.473   9.203 -2.1157 -0.5207 -3.1612
  622TMC3    C7 9273   0.798   1.508   8.951 -0.9526 -0.0896  0.6283
  622TMC3    C8 9274   0.639   1.633   9.399  0.0054 -0.0293 -0.4048
  622TMC3    O1 9275   0.871   1.543   8.865  0.8386 -0.0342 -0.4482
  622TMC3    O2 9276   0.680   1.527   9.447 -0.1695  0.8007 -0.1505
  623MPD2     C 9277   3.954   2.182  16.413  0.1265  0.0374 -0.2432
  623MPD2    C1 9278   3.873   2.216  16.522  0.3945  0.2067  0.4008
  623MPD2    C2 9279   3.925   2.192  16.648  0.3715  0.0430  0.2408
  623MPD2    C3 9280   4.050   2.130  16.662  0.3265 -0.1224  0.2665
  623MPD2    C4 9281   4.129   2.096  16.553 -0.3525  0.6989 -0.4797
  623MPD2    C5 9282   4.077   2.115  16.424  0.2878 -0.1356 -0.9023
  623MPD2     H 9283   3.866   2.225  16.733 -0.3465 -0.9524  0.1340
  623MPD2    H1 9284   4.225   2.048  16.562 -0.8896 -0.2854 -0.0117
  623MPD2    H2 9285   3.914   2.212  16.316 -1.5735  1.3348  0.8552
  623MPD2    H3 9286   4.127   2.085  16.333  1.4790 -2.0160  0.3674
  623MPD2     N 9287   4.091   2.105  16.797 -0.1925  0.3373  0.4880
  623MPD2    H5 9288   4.024   2.133  16.868  0.8247  0.5675  1.3590
  623MPD2    N1 9289   3.748   2.280  16.500 -0.2651 -0.1008  0.0915
  623MPD2    H7 9290   3.726   2.297  16.402  0.9116  0.1005 -0.1354
  624TMC3    C1 9291   4.237   1.766  17.058  0.0743 -0.2848 -0.7052
  624TMC3    C2 9292   4.113   1.735  17.101  0.2010  0.3869 -0.9404
  624TMC3    C3 9293   4.015   1.828  17.073  0.1550 -0.0554  0.0724
  624TMC3    C4 9294   4.273   1.889  17.006 -0.6219  0.1129  0.6674
  624TMC3    C5 9295   4.168   1.968  16.968  0.0348  0.3014  0.4285
  624TMC3    C6 9296   4.036   1.948  17.008 -0.5518  0.0069  0.4053
  624TMC3     C 9297   4.336   1.660  17.080 -1.1461 -0.0749  0.3921
  624TMC3     O 9298   4.297   1.557  17.131  0.5197 -0.3287  0.1164
  624TMC3     H 9299   4.090   1.652  17.167 -2.6078  0.4803 -1.8360
  624TMC3    H1 9300   4.371   1.922  16.972  0.3462 -1.6669  1.7096
  624TMC3    H2 9301   3.953   2.008  16.973 -0.4567 -1.3358 -2.1494
  624TMC3    C7 9302   4.199   2.032  16.841  0.3093  0.1696  0.7661
  624TMC3    C8 9303   3.883   1.808  17.119  0.5452 -0.1462 -0.1017
  624TMC3    O1 9304   4.285   1.983  16.770  0.0413  0.4175 -0.1287
  624TMC3    O2 9305   3.816   1.910  17.140 -0.2875 -0.1910  0.2783
  625MPD2     C 9306   3.977   3.079   0.747  0.0907  0.5652  0.5944
  625MPD2    C1 9307   4.017   3.208   0.767 -0.3594  0.0061  0.1783
  625MPD2    C2 9308   4.143   3.228   0.824  0.1115 -0.1303 -0.3325
  625MPD2    C3 9309   4.232   3.128   0.850  0.1886 -0.4997 -0.3704
  625MPD2    C4 9310   4.187   3.004   0.831  0.1101  0.6625 -0.2454
  625MPD2    C5 9311   4.062   2.976   0.785 -0.1052 -0.7520  0.4338
  625MPD2     H 9312   4.171   3.331   0.841  1.0270 -0.3891 -0.2707
  625MPD2    H1 9313   4.243   2.915   0.854  0.0269  0.5351 -0.5349
  625MPD2    H2 9314   3.881   3.050   0.707  1.0892 -2.9426  0.7210
  625MPD2    H3 9315   4.033   2.874   0.765 -3.1152 -0.0234  1.0364
  625MPD2     N 9316   4.362   3.166   0.899 -0.5870 -0.2069 -0.2682
  625MPD2    H5 9317   4.390   3.262   0.915 -0.2345 -0.4425  0.5758
  625MPD2    N1 9318   3.933   3.316   0.725  0.4915 -0.2716  0.2392
  625MPD2    H7 9319   3.981   3.403   0.746  0.9814 -0.3229 -0.6781
  626TMC3    C1 9320   3.743   3.433   0.635  0.0921 -0.1429  0.3896
  626TMC3    C2 9321   3.655   3.443   0.530 -0.5618 -0.4496 -0.2066
  626TMC3    C3 9322   3.583   3.561   0.519  0.0158 -0.2255  0.2033
  626TMC3    C4 9323   3.750   3.524   0.737  0.2178 -0.0860  0.6772
  626TMC3    C5 9324   3.668   3.640   0.724 -0.0347 -0.2724 -0.4614
  626TMC3    C6 9325   3.584   3.658   0.615  0.7740 -0.1792 -0.1714
  626TMC3     C 9326   3.812   3.307   0.654 -0.5458 -0.3867  0.0310
  626TMC3     O 9327   3.750   3.214   0.613  0.4540 -0.4086  0.0541
  626TMC3     H 9328   3.662   3.381   0.442 -2.2633  1.4413 -1.6690
  626TMC3    H1 9329   3.816   3.517   0.824 -0.0344  2.3943  1.0780
  626TMC3    H2 9330   3.532   3.753   0.613  0.1041 -0.5202  1.3023
  626TMC3    C7 9331   3.649   3.730   0.831  0.5088 -0.2403 -0.4938
  626TMC3    C8 9332   3.526   3.589   0.387  0.1783  0.4641  0.4302
  626TMC3    O1 9333   3.747   3.751   0.904  0.3694 -0.1771 -0.5315
  626TMC3    O2 9334   3.555   3.514   0.295 -0.3657  0.8131  0.1503
  627MPD2     C 9335   1.878   3.886  14.596  0.4129  0.0647  0.0163
  627MPD2    C1 9336   2.001   3.835  14.566 -0.8006  0.2716  0.2650
  627MPD2    C2 9337   2.018   3.695  14.563  0.0919 -0.5082 -0.0042
  627MPD2    C3 9338   1.918   3.614  14.604  0.2912 -0.1900 -0.1634
  627MPD2    C4 9339   1.798   3.667  14.633 -0.4932 -0.6516 -0.9901
  627MPD2    C5 9340   1.778   3.809  14.636 -0.2334 -0.1989  0.2264
  627MPD2     H 9341   2.109   3.651  14.525 -1.1486 -1.4163 -1.9887
  627MPD2    H1 9342   1.714   3.608  14.669 -0.6097  0.1312 -0.0039
  627MPD2    H2 9343   1.858   3.991  14.579  1.3622  0.3095  0.4367
  627MPD2    H3 9344   1.682   3.848  14.669  0.2176  2.3342 -1.4234
  627MPD2     N 9345   1.952   3.478  14.601  0.0310  0.0861 -0.2206
  627MPD2    H5 9346   2.046   3.439  14.602  1.2357  3.0794  1.1112
  627MPD2    N1 9347   2.119   3.910  14.541  0.3591  0.2379  1.0697
  627MPD2    H7 9348   2.206   3.859  14.538  1.0986  1.4846  1.0452
  628TMC3    C1 9349   2.278   4.078  14.578  0.2254  0.4731  0.6619
  628TMC3    C2 9350   2.375   3.979  14.553  0.4467 -0.4201 -0.5031
  628TMC3    C3 9351   2.489   3.979  14.630 -0.0630 -0.3488 -0.5499
  628TMC3    C4 9352   2.298   4.171  14.669  0.6798  0.5160  0.3579
  628TMC3    C5 9353   2.424   4.180  14.723 -0.1533  0.0485 -0.6008
  628TMC3    C6 9354   2.520   4.079  14.720  0.5261 -0.3997 -0.6605
  628TMC3     C 9355   2.134   4.044  14.558 -0.7669  0.7009  0.1250
  628TMC3     O 9356   2.051   4.136  14.565  0.1889  0.1591 -0.2072
  628TMC3     H 9357   2.365   3.911  14.469 -1.9411  1.1593 -1.5255
  628TMC3    H1 9358   2.219   4.237  14.704  0.0934 -0.3145  0.5987
  628TMC3    H2 9359   2.627   4.089  14.730  0.3574  1.1135 -0.3594
  628TMC3    C7 9360   2.463   4.319  14.731  0.6232  0.0504  0.1515
  628TMC3    C8 9361   2.608   3.917  14.580 -0.3304  0.1209  0.9295
  628TMC3    O1 9362   2.576   4.337  14.771  0.1322 -0.4182  0.8562
  628TMC3    O2 9363   2.612   3.915  14.458  0.1583  0.0202 -0.1952
  629MPD2     C 9364   0.814   2.156  16.128 -0.3613 -0.1047  0.5705
  629MPD2    C1 9365   0.883   2.090  16.235  0.4649  0.4903  0.1988
  629MPD2    C2 9366   0.828   1.994  16.315  0.4095 -0.1007  0.0893
  629MPD2    C3 9367   0.698   1.957  16.296  1.1673  0.6298  1.4892
  629MPD2    C4 9368   0.627   2.022  16.189  0.1170  0.2613  0.0003
  629MPD2    C5 9369   0.684   2.114  16.108 -0.3969  0.1218 -0.0417
  629MPD2     H 9370   0.883   1.950  16.398 -1.5071 -0.2780  1.2626
  629MPD2    H1 9371   0.522   2.005  16.167  0.5635 -1.0400 -1.1236
  629MPD2    H2 9372   0.858   2.223  16.056 -0.9691 -0.1676  0.1429
  629MPD2    H3 9373   0.622   2.161  16.033 -0.5781  2.5691  1.6401
  629MPD2     N 9374   0.635   1.862  16.385 -0.3017 -0.4396  0.1351
  629MPD2    H5 9375   0.695   1.820  16.455  0.0544  0.0755  0.1353
  629MPD2    N1 9376   1.022   2.133  16.242  0.2017  0.2518  0.5941
  629MPD2    H7 9377   1.061   2.191  16.169 -1.6657  2.6793  1.5272
  630TMC3    C1 9378   1.251   2.137  16.325 -0.6090  0.4177  0.3174
  630TMC3    C2 9379   1.308   2.158  16.202  0.8406 -0.4355 -0.7405
  630TMC3    C3 9380   1.443   2.147  16.186  0.4387 -0.0176  0.2183
  630TMC3    C4 9381   1.325   2.117  16.433  0.8198 -0.0293  0.0265
  630TMC3    C5 9382   1.460   2.131  16.420  0.3080  0.3759  0.4149
  630TMC3    C6 9383   1.522   2.138  16.300  0.1308  0.0924 -0.3779
  630TMC3     C 9384   1.106   2.103  16.349 -0.0350 -0.2780  0.4112
  630TMC3     O 9385   1.089   2.038  16.451 -0.3625 -0.0536 -0.2613
  630TMC3     H 9386   1.248   2.165  16.112 -0.5157 -0.8632  0.1257
  630TMC3    H1 9387   1.286   2.118  16.535  1.1068  3.2719  0.0967
  630TMC3    H2 9388   1.628   2.114  16.294  0.1207 -0.5022  1.6574
  630TMC3    C7 9389   1.520   2.193  16.536 -0.1712 -0.3797 -0.8577
  630TMC3    C8 9390   1.518   2.224  16.085 -0.3277  0.5096  0.2235
  630TMC3    O1 9391   1.461   2.192  16.640 -0.6385 -0.2016  0.1117
  630TMC3    O2 9392   1.635   2.191  16.074  0.5848  0.0482  0.1752
  631MPD2     C 9393   3.851   2.235  15.926 -0.4135  0.1092 -0.4456
  631MPD2    C1 9394   3.848   2.174  15.800 -0.1142  0.0868 -0.4865
  631MPD2    C2 9395   3.923   2.061  15.783  0.6373 -0.1168 -0.5203
  631MPD2    C3 9396   4.000   2.000  15.879  0.3466 -0.5620  0.2159
  631MPD2    C4 9397   4.003   2.068  15.998  0.1056 -0.1313  0.1711
  631MPD2    C5 9398   3.927   2.184  16.019 -0.7266 -0.2135 -0.1668
  631MPD2     H 9399   3.925   2.012  15.686  1.0099 -0.3205 -0.4106
  631MPD2    H1 9400   4.067   2.038  16.081 -1.6377  0.0628  1.5782
  631MPD2    H2 9401   3.798   2.327  15.946  0.6549  1.0217 -1.8387
  631MPD2    H3 9402   3.923   2.234  16.116  4.4355  2.2801 -1.2931
  631MPD2     N 9403   4.082   1.890  15.849 -0.1855 -0.5034  0.1683
  631MPD2    H5 9404   4.073   1.851  15.756  0.6467 -0.6922  0.1701
  631MPD2    N1 9405   3.778   2.239  15.696 -0.3078 -0.5060 -0.0695
  631MPD2    H7 9406   3.738   2.326  15.728  1.6601  0.4077 -0.0805
  632TMC3    C1 9407   3.688   2.284  15.484 -0.2638 -0.1523 -0.3903
  632TMC3    C2 9408   3.600   2.371  15.550  0.1018  0.6116 -0.1657
  632TMC3    C3 9409   3.532   2.459  15.465  0.3803  0.2372 -0.1589
  632TMC3    C4 9410   3.704   2.284  15.351 -0.2850 -0.7345 -0.0594
  632TMC3    C5 9411   3.631   2.366  15.280  0.0536  0.4561 -0.0898
  632TMC3    C6 9412   3.547   2.459  15.330 -0.0347  0.7557  0.4098
  632TMC3     C 9413   3.787   2.215  15.561  0.6368 -0.2865 -0.2289
  632TMC3     O 9414   3.870   2.154  15.499 -0.1599 -0.0123  0.1389
  632TMC3     H 9415   3.583   2.370  15.657  1.4566  0.2460  0.0362
  632TMC3    H1 9416   3.784   2.235  15.298  1.0821  1.2905  0.1482
  632TMC3    H2 9417   3.500   2.530  15.262  1.3933  0.9249 -0.3973
  632TMC3    C7 9418   3.702   2.422  15.165  0.1546  0.2401 -0.1317
  632TMC3    C8 9419   3.447   2.560  15.535 -0.4297  0.1559 -0.5369
  632TMC3    O1 9420   3.734   2.352  15.072  0.3574  0.0985 -0.6442
  632TMC3    O2 9421   3.462   2.584  15.657 -0.1102 -0.2937 -0.2172
  633MPD2     C 9422   3.538   0.133  17.542 -0.0777  0.0924 -0.8297
  633MPD2    C1 9423   3.526   0.092  17.412 -1.0454 -0.3735  0.1602
  633MPD2    C2 9424   3.479   4.706  17.381  0.3205 -0.0460 -0.3337
  633MPD2    C3 9425   3.435   4.617  17.478  0.8779 -0.0748  0.0619
  633MPD2    C4 9426   3.443   4.662  17.609 -0.7199  0.2010  0.2578
  633MPD2    C5 9427   3.491   0.045  17.640 -0.0990  0.0790 -0.0627
  633MPD2     H 9428   3.472   4.686  17.275 -0.0362 -0.4997 -0.2272
  633MPD2    H1 9429   3.407   4.599  17.690 -0.8692 -3.0121 -2.3056
  633MPD2    H2 9430   3.581   0.226  17.576 -0.2581  0.1595 -0.7860
  633MPD2    H3 9431   3.499   0.074  17.744 -0.2022  0.6684 -0.2199
  633MPD2     N 9432   3.365   4.496  17.451  0.0412 -0.0757 -0.3361
  633MPD2    H5 9433   3.326   4.443  17.528 -0.7045  2.5870  1.0955
  633MPD2    N1 9434   3.567   0.167  17.303 -0.0254  0.0416 -0.0253
  633MPD2    H7 9435   3.568   0.121  17.212  0.2224 -2.3853  1.1818
  634TMC3    C1 9436   3.625   0.339  17.159  0.1124  0.4793  0.5441
  634TMC3    C2 9437   3.685   0.256  17.073  0.6796  0.4410  0.3055
  634TMC3    C3 9438   3.732   0.305  16.960  0.2187 -0.1851  0.3301
  634TMC3    C4 9439   3.615   0.475  17.131 -0.7091  0.0720 -0.1242
  634TMC3    C5 9440   3.664   0.524  17.009  0.1546  0.0085  0.2440
  634TMC3    C6 9441   3.721   0.433  16.920  0.6730 -0.6767  0.2092
  634TMC3     C 9442   3.598   0.300  17.298  0.3723 -0.0728  0.1924
  634TMC3     O 9443   3.570   0.391  17.374  0.4827  0.3496 -0.1293
  634TMC3     H 9444   3.726   0.160  17.104 -0.4717 -0.2725 -0.3822
  634TMC3    H1 9445   3.552   0.533  17.197 -1.4364 -0.3713 -0.4375
  634TMC3    H2 9446   3.761   0.471  16.827 -2.0761 -0.3930 -0.8726
  634TMC3    C7 9447   3.654   0.661  16.954  0.1867 -0.3320 -0.1991
  634TMC3    C8 9448   3.761   0.212  16.849  1.0364 -0.0434  0.3261
  634TMC3    O1 9449   3.733   0.688  16.863  0.3243  0.1486  0.1876
  634TMC3    O2 9450   3.826   0.111  16.871  0.5770 -0.3971 -0.0021
  635TMC3    C1 9451   3.720   1.999   0.508 -0.1113  0.5697  0.7042
  635TMC3    C2 9452   3.772   1.878   0.549  0.6475 -0.0637 -0.0689
  635TMC3    C3 9453   3.705   1.817   0.656  1.2088  0.1815 -0.6653
  635TMC3    C4 9454   3.626   2.066   0.588  0.5814  0.0377  0.5096
  635TMC3    C5 9455   3.568   2.000   0.692  1.0413  0.4324 -0.2366
  635TMC3    C6 9456   3.605   1.875   0.721 -0.2281  0.5289  0.8645
  635TMC3     C 9457   3.790   2.073   0.401  0.1674 -0.1863 -0.2476
  635TMC3     O 9458   3.896   2.021   0.366 -0.7964  0.6001 -0.4869
  635TMC3     H 9459   3.839   1.824   0.483 -0.3710 -2.9155  1.2272
  635TMC3    H1 9460   3.578   2.159   0.558 -1.1823 -1.5259 -1.4653
  635TMC3    H2 9461   3.555   1.825   0.803  2.2961  0.7967  2.5786
  635TMC3    C7 9462   3.448   2.051   0.757  0.0718 -0.0696  0.2514
  635TMC3    C8 9463   3.725   1.679   0.672 -0.7007 -0.3758 -0.1982
  635TMC3    O1 9464   3.370   1.963   0.787  0.0444 -0.4108 -0.2928
  635TMC3    O2 9465   3.646   1.621   0.740  0.6289  0.0282  0.0999
  636MPD2     C 9466   0.058   4.692  15.601  0.2516 -0.8286  0.5770
  636MPD2    C1 9467   4.710   0.006  15.685 -0.4929 -0.1924 -0.1061
  636MPD2    C2 9468   4.623   4.663  15.751 -0.5158 -0.4723 -0.7345
  636MPD2    C3 9469   4.635   4.523  15.743  0.0166 -0.2989  0.1744
  636MPD2    C4 9470   4.729   4.470  15.660  0.0781 -0.2363 -0.1799
  636MPD2    C5 9471   0.071   4.558  15.595 -0.3040 -0.9411 -0.5124
  636MPD2     H 9472   4.543   4.701  15.815 -0.6055 -1.7447 -0.1019
  636MPD2    H1 9473   0.005   4.362  15.652 -3.9066 -0.5955 -2.4799
  636MPD2    H2 9474   0.140   0.005  15.553 -0.2752 -0.0484  0.5226
  636MPD2    H3 9475   0.158   4.515  15.546 -1.4159 -1.6015 -1.9289
  636MPD2     N 9476   4.548   4.446  15.826 -0.9673 -1.0089 -0.0637
  636MPD2    H5 9477   4.486   4.483  15.898  0.4504 -0.0012  0.6283
  636MPD2    N1 9478   4.712   0.151  15.703 -0.8784  0.7820 -0.0237
  636MPD2    H7 9479   4.656   0.192  15.777  1.0866  2.1758  0.7075
  637TMC3    C1 9480   4.507   4.269  15.958 -1.3069 -0.6207 -0.4274
  637TMC3    C2 9481   4.418   4.352  16.026 -0.4101 -0.0401  0.1017
  637TMC3    C3 9482   4.456   4.406  16.143 -0.3880 -0.6820  0.8063
  637TMC3    C4 9483   4.621   4.225  16.019 -0.5785 -0.4876 -0.3798
  637TMC3    C5 9484   4.666   4.296  16.124  0.2919 -0.5383 -0.0069
  637TMC3    C6 9485   4.577   4.374  16.195 -0.3880  0.1813  0.0899
  637TMC3     C 9486   4.537   4.314  15.828  0.3411 -0.3317  0.7449
  637TMC3     O 9487   4.600   4.232  15.754  0.0284  0.3711 -0.0679
  637TMC3     H 9488   4.326   4.366  15.970 -0.2127 -3.4063 -1.0725
  637TMC3    H1 9489   4.690   4.157  15.972  0.4272  0.3422 -0.1155
  637TMC3    H2 9490   4.601   4.404  16.296 -0.7791 -0.3325  0.3348
  637TMC3    C7 9491   0.040   4.385  16.106  0.3156 -0.3728 -0.0529
  637TMC3    C8 9492   4.424   4.544  16.155 -0.4617 -0.5667  0.3023
  637TMC3    O1 9493   0.036   4.477  16.184  0.2879  0.5697 -0.8208
  637TMC3    O2 9494   4.309   4.582  16.130 -0.4767  0.2440 -0.2750
  638MPD2     C 9495   4.465   4.357  14.997  0.5684  0.3920 -0.3447
  638MPD2    C1 9496   4.553   4.249  14.984 -0.4016  0.1672 -0.0832
  638MPD2    C2 9497   4.525   4.129  15.042 -0.3010 -0.0638  0.2257
  638MPD2    C3 9498   4.411   4.108  15.118  0.0386  0.3310  0.0126
  638MPD2    C4 9499   4.327   4.214  15.129 -0.0292 -0.0950 -0.4322
  638MPD2    C5 9500   4.351   4.335  15.067  0.2019  0.1274  0.2953
  638MPD2     H 9501   4.592   4.046  15.019 -0.8216 -0.0253 -1.4485
  638MPD2    H1 9502   4.245   4.205  15.199 -0.2109 -0.7263 -0.7245
  638MPD2    H2 9503   4.479   4.456  14.954  0.3335 -0.4639 -2.3791
  638MPD2    H3 9504   4.283   4.418  15.083 -0.9529 -0.8504  0.4464
  638MPD2     N 9505   4.392   3.972  15.160  0.3462 -0.6793  0.0556
  638MPD2    H5 9506   4.462   3.903  15.134  1.8772  0.8421  0.1747
  638MPD2    N1 9507   4.657   4.262  14.889  0.5894  0.0267 -0.4634
  638MPD2    H7 9508   4.659   4.351  14.840 -0.0666  0.3109  0.0151
  639TMC3    C1 9509   4.271   3.784  15.194  0.1657  0.0896  0.3651
  639TMC3    C2 9510   4.155   3.735  15.141 -0.3185  0.1566 -0.2292
  639TMC3    C3 9511   4.123   3.605  15.168  0.0050 -0.2821 -0.0671
  639TMC3    C4 9512   4.354   3.713  15.272  0.2336 -0.4880 -0.4552
  639TMC3    C5 9513   4.325   3.578  15.283 -0.2345 -0.2186  0.2135
  639TMC3    C6 9514   4.210   3.523  15.234 -0.1404 -0.5979 -0.7360
  639TMC3     C 9515   4.276   3.927  15.205 -0.3345 -0.4531 -0.0445
  639TMC3     O 9516   4.166   3.982  15.208 -0.1914 -0.6379  0.1286
  639TMC3     H 9517   4.085   3.801  15.090 -0.1069  0.5213 -0.0466
  639TMC3    H1 9518   4.435   3.762  15.325  0.8129 -2.5540  0.5728
  639TMC3    H2 9519   4.199   3.416  15.248 -0.1397 -0.3967  0.7839
  639TMC3    C7 9520   4.435   3.483  15.291 -0.8133  0.2818  0.2247
  639TMC3    C8 9521   4.056   3.541  15.059  0.3268 -0.2922  0.5160
  639TMC3    O1 9522   4.404   3.372  15.329  0.4924  0.3668  1.0288
  639TMC3    O2 9523   4.071   3.578  14.943 -0.2105  0.9467 -0.4222
  640MPD2     C 9524   0.420   3.750   9.262 -0.1023 -0.9556  0.4186
  640MPD2    C1 9525   0.388   3.700   9.385 -0.2278  0.6418  0.1104
  640MPD2    C2 9526   0.289   3.757   9.460 -0.6537  0.5453 -0.1585
  640MPD2    C3 9527   0.224   3.870   9.416 -0.2513 -0.1121 -0.3651
  640MPD2    C4 9528   0.264   3.924   9.296  0.2731  0.0325 -0.0169
  640MPD2    C5 9529   0.356   3.863   9.222 -0.9129  0.3960 -1.0935
  640MPD2     H 9530   0.271   3.731   9.564 -2.3885 -1.7219 -1.0398
  640MPD2    H1 9531   0.218   4.013   9.254 -1.6867  0.3525  2.7931
  640MPD2    H2 9532   0.494   3.698   9.202 -0.3386 -0.6354 -0.1402
  640MPD2    H3 9533   0.372   3.907   9.124  6.4934  0.3150  0.0963
  640MPD2     N 9534   0.116   3.939   9.481 -0.0814  0.1195  0.2367
  640MPD2    H5 9535   0.064   4.006   9.425  0.4370 -0.2138 -0.6439
  640MPD2    N1 9536   0.471   3.595   9.437  0.1826 -0.3757 -0.5037
  640MPD2    H7 9537   0.554   3.575   9.382  0.5173 -0.3764 -0.0031
  641TMC3    C1 9538   0.563   3.418   9.561 -0.1855 -0.2215  0.8036
  641TMC3    C2 9539   0.517   3.308   9.626  0.4301  0.1010 -0.9436
  641TMC3    C3 9540   0.594   3.196   9.608 -0.2945 -0.2269 -0.6581
  641TMC3    C4 9541   0.681   3.425   9.488 -0.0507  0.0504  0.5835
  641TMC3    C5 9542   0.770   3.317   9.487  0.1435  0.0497  1.2691
  641TMC3    C6 9543   0.718   3.203   9.550 -0.4621 -0.5017 -0.4490
  641TMC3     C 9544   0.453   3.519   9.550 -0.0680 -0.1230  0.6503
  641TMC3     O 9545   0.363   3.514   9.630  0.1614 -0.5651 -0.1225
  641TMC3     H 9546   0.419   3.307   9.673  0.3541  1.0029 -1.0826
  641TMC3    H1 9547   0.721   3.524   9.469  1.3175 -0.9237 -1.6005
  641TMC3    H2 9548   0.773   3.110   9.539 -0.9604 -0.7832 -0.5739
  641TMC3    C7 9549   0.908   3.353   9.516  0.0978  0.1160  0.4925
  641TMC3    C8 9550   0.570   3.078   9.685  0.0347 -0.4691  0.1138
  641TMC3    O1 9551   0.933   3.471   9.532 -0.3378 -0.7279  0.4049
  641TMC3    O2 9552   0.661   2.994   9.684 -0.2007  0.3758  1.0318
  642TMC3    C1 9553   1.356   4.138  12.408 -0.3932  0.0834  0.1992
  642TMC3    C2 9554   1.457   4.179  12.322  0.3156 -0.0826 -0.1139
  642TMC3    C3 9555   1.510   4.087  12.240 -0.2362 -0.5502  0.0396
  642TMC3    C4 9556   1.294   4.014  12.405 -0.0258 -0.7734  0.2899
  642TMC3    C5 9557   1.354   3.928  12.321 -0.2563  0.8385  0.9012
  642TMC3    C6 9558   1.457   3.957  12.235 -0.1349 -1.3370  0.8417
  642TMC3     C 9559   1.301   4.252  12.478  0.2203  0.0720 -0.5935
  642TMC3     O 9560   1.381   4.345  12.484 -0.2170  0.3685 -0.1671
  642TMC3     H 9561   1.475   4.281  12.290  0.1987  0.2654  0.9225
  642TMC3    H1 9562   1.192   4.000  12.440  0.4551  0.8343  2.3162
  642TMC3    H2 9563   1.507   3.875  12.184  1.3539  0.7124 -1.0152
  642TMC3    C7 9564   1.276   3.816  12.287  0.1785  0.3873  0.1841
  642TMC3    C8 9565   1.650   4.097  12.214 -0.1266 -0.1619  0.0995
  642TMC3    O1 9566   1.281   3.787  12.167  0.1239 -0.1577  0.0207
  642TMC3    O2 9567   1.706   4.001  12.167 -0.3807  0.0262  0.0315
  643TMC3    C1 9568   0.800   2.921   0.067 -0.2596 -0.1318 -0.2027
  643TMC3    C2 9569   0.680   2.934   0.013  0.6866  0.6560 -0.7411
  643TMC3    C3 9570   0.654   2.858  17.650 -0.2677  0.4790  0.6028
  643TMC3    C4 9571   0.896   2.838   0.027  0.2281  0.0823  0.8048
  643TMC3    C5 9572   0.863   2.759  17.672 -0.3125 -0.5518  0.0437
  643TMC3    C6 9573   0.737   2.750  17.613  0.6006 -0.2391 -0.5103
  643TMC3     C 9574   0.826   3.032   0.154  0.1181  0.4100  0.6589
  643TMC3     O 9575   0.753   3.129   0.139  0.5240  0.0841  0.2912
  643TMC3     H 9576   0.615   3.006   0.062  0.9567 -0.5077  1.3733
  643TMC3    H1 9577   0.999   2.848   0.057 -0.4304  1.7519  2.5389
  643TMC3    H2 9578   0.711   2.689  17.527 -2.8825 -1.3129  1.2656
  643TMC3    C7 9579   0.964   2.774  17.576  0.0947 -0.0367 -0.4249
  643TMC3    C8 9580   0.606   2.936  17.535  0.3571 -0.5764 -0.6769
  643TMC3    O1 9581   1.049   2.860  17.593 -0.7183  0.4712  0.1040
  643TMC3    O2 9582   0.610   2.895  17.419 -0.4137  0.3119 -0.3667
  644MPD2     C 9583   1.628   3.930  10.075  0.4176  0.3393 -0.6075
  644MPD2    C1 9584   1.491   3.913  10.063  0.1900  0.5918 -0.0317
  644MPD2    C2 9585   1.400   4.016  10.090  0.5156  0.1934 -0.1628
  644MPD2    C3 9586   1.452   4.144  10.113 -0.5966 -0.0873  0.0458
  644MPD2    C4 9587   1.590   4.155  10.118 -0.2472 -1.3734  0.0198
  644MPD2    C5 9588   1.678   4.055  10.103  0.5617  0.0582 -0.1445
  644MPD2     H 9589   1.293   4.000  10.096  0.2715  2.5189  1.8681
  644MPD2    H1 9590   1.633   4.255  10.130 -1.4857 -0.6410 -1.7425
  644MPD2    H2 9591   1.701   3.855  10.045  1.3544  0.0693  2.3194
  644MPD2    H3 9592   1.784   4.079  10.102  0.4795  0.3522 -1.4513
  644MPD2     N 9593   1.358   4.247  10.127  0.0992 -1.0942  0.5810
  644MPD2    H5 9594   1.264   4.233  10.090  1.0419 -3.0552 -1.1416
  644MPD2    N1 9595   1.444   3.779  10.054  0.3156 -0.1645 -0.5308
  644MPD2    H7 9596   1.514   3.705  10.059  2.4058  1.7497 -1.4868
  645TMC3    C1 9597   1.268   4.447  10.201 -0.6087 -0.0194 -0.2735
  645TMC3    C2 9598   1.275   4.544  10.295  0.2317  0.3125  0.9500
  645TMC3    C3 9599   1.178   4.641  10.297  0.1330  0.6185  0.1257
  645TMC3    C4 9600   1.165   4.448  10.107 -0.6500  0.4752  0.5199
  645TMC3    C5 9601   1.067   4.541  10.126  0.1375 -1.2255  0.1952
  645TMC3    C6 9602   1.069   4.635  10.221 -0.1944  0.4724  0.2410
  645TMC3     C 9603   1.390   4.374  10.178  0.2013  0.0274  0.5857
  645TMC3     O 9604   1.503   4.414  10.217 -0.0842 -0.4727 -0.3094
  645TMC3     H 9605   1.362   4.550  10.359  0.1773 -0.8232  1.1271
  645TMC3    H1 9606   1.165   4.372  10.030  1.2072  2.9007 -1.8855
  645TMC3    H2 9607   0.984   4.703  10.229  0.2915  1.1297 -0.1422
  645TMC3    C7 9608   0.936   4.515  10.074  0.8596 -0.3485  1.0464
  645TMC3    C8 9609   1.175   0.001  10.405 -0.1415 -0.1710  0.1976
  645TMC3    O1 9610   0.848   4.560  10.145 -0.1101  0.4717  0.2882
  645TMC3    O2 9611   1.071   0.068  10.415 -0.1980 -0.3312 -0.0631
  646MPD2     C 9612   0.037   2.907  14.339 -0.3179 -0.2433 -0.0492
  646MPD2    C1 9613   4.703   2.870  14.450  0.3686  0.1655  0.3493
  646MPD2    C2 9614   4.567   2.916  14.470 -0.6418 -0.0970 -1.1285
  646MPD2    C3 9615   4.513   2.998  14.373 -0.0024  0.7460 -0.3759
  646MPD2    C4 9616   4.597   3.054  14.270 -0.6117 -1.0248 -0.3242
  646MPD2    C5 9617   4.722   2.995  14.246  0.5712 -0.5481  0.2336
  646MPD2     H 9618   4.507   2.889  14.556  0.5260  1.7348  0.2428
  646MPD2    H1 9619   4.561   3.136  14.210 -2.3686 -1.3952  0.2359
  646MPD2    H2 9620   0.141   2.883  14.320 -0.1603 -1.2107  2.0096
  646MPD2    H3 9621   0.054   3.034  14.174 -1.1746 -0.7089 -1.5587
  646MPD2     N 9622   4.375   3.031  14.379 -0.1952  0.2109 -0.2295
  646MPD2    H5 9623   4.319   3.003  14.459  3.2254 -0.9443  1.7405
  646MPD2    N1 9624   0.027   2.791  14.554 -0.0326  0.2675 -0.0025
  646MPD2    H7 9625   0.118   2.749  14.535 -0.6460 -1.2168  0.3233
  647TMC3    C1 9626   0.077   2.695  14.757 -0.8767 -0.2334 -0.5491
  647TMC3    C2 9627   0.027   2.618  14.861  0.5297  0.5905 -0.0525
  647TMC3    C3 9628   0.122   2.569  14.940  0.0412 -0.4576  0.0931
  647TMC3    C4 9629   0.207   2.720  14.720 -0.5803 -0.3781  0.3393
  647TMC3    C5 9630   0.292   2.670  14.816 -0.0369 -0.2700 -0.3427
  647TMC3    C6 9631   0.252   2.592  14.919  0.4296  0.0633 -0.1584
  647TMC3     C 9632   4.715   2.755  14.676 -0.1716 -0.1698  0.4306
  647TMC3     O 9633   4.606   2.782  14.727 -0.4087 -0.3762 -0.2417
  647TMC3     H 9634   4.660   2.619  14.885  0.9834 -1.1532  1.9923
  647TMC3    H1 9635   0.241   2.799  14.653  1.3069 -1.2129  0.3107
  647TMC3    H2 9636   0.327   2.540  14.978  0.5288  0.3653 -0.0147
  647TMC3    C7 9637   0.436   2.678  14.801 -0.0638 -0.4867  0.3127
  647TMC3    C8 9638   0.087   2.469  15.031  0.5848  0.0169  0.7549
  647TMC3    O1 9639   0.500   2.663  14.904 -0.4615 -0.1361  0.3777
  647TMC3    O2 9640   0.171   2.453  15.122  0.2459 -0.0982  0.0977
  648TMC3    C1 9641   3.976   0.195  16.191 -0.4798  0.0598 -0.1896
  648TMC3    C2 9642   4.022   0.086  16.126 -0.1635  0.1042  0.1747
  648TMC3    C3 9643   4.061   0.108  15.994  0.2760 -0.3930 -0.9087
  648TMC3    C4 9644   3.968   0.324  16.135  0.4761  0.0449 -0.1329
  648TMC3    C5 9645   4.019   0.347  16.015 -0.0573 -0.2529 -0.5534
  648TMC3    C6 9646   4.065   0.236  15.941 -0.3441  0.8207 -0.2167
  648TMC3     C 9647   4.030   0.204  16.326  0.4672  0.8368 -1.4252
  648TMC3     O 9648   4.046   0.316  16.374  0.4389  0.6991  0.6291
  648TMC3     H 9649   4.009   4.723  16.161 -1.2955 -0.5088 -1.9854
  648TMC3    H1 9650   3.940   0.410  16.196  0.9480  0.3338 -0.3161
  648TMC3    H2 9651   4.118   0.246  15.847  0.3272 -0.7014  0.0010
  648TMC3    C7 9652   4.005   0.471  15.948 -0.3845  0.4302  0.0827
  648TMC3    C8 9653   4.121   4.733  15.921 -0.1293 -0.2216 -0.2078
  648TMC3    O1 9654   4.026   0.483  15.829  0.7031  0.2883 -0.1100
  648TMC3    O2 9655   4.214   0.030  15.853 -0.3782  0.1584  0.5284
  649TMC3    C1 9656   2.753   1.663  12.787 -0.4291 -0.3343  0.3279
  649TMC3    C2 9657   2.873   1.719  12.757  0.7087 -0.5645 -0.5704
  649TMC3    C3 9658   2.965   1.725  12.856  0.0484  0.3828  0.2175
  649TMC3    C4 9659   2.722   1.631  12.915 -0.0177  0.1728  0.0351
  649TMC3    C5 9660   2.814   1.644  13.011  0.5290  0.4036  0.3594
  649TMC3    C6 9661   2.942   1.689  12.982  0.3026 -0.0805  0.0423
  649TMC3     C 9662   2.647   1.686  12.692 -0.2671 -0.0148  0.2324
  649TMC3     O 9663   2.658   1.781  12.610 -0.3187  0.2811 -0.2013
  649TMC3     H 9664   2.891   1.757  12.657 -2.3248  0.1870 -0.8206
  649TMC3    H1 9665   2.621   1.605  12.943 -0.5305 -0.8838 -2.7330
  649TMC3    H2 9666   3.022   1.710  13.052  0.1166 -1.9621  0.8361
  649TMC3    C7 9667   2.787   1.611  13.145 -0.0327 -0.1463  0.3163
  649TMC3    C8 9668   3.095   1.778  12.825 -0.0063  0.5022  0.5759
  649TMC3    O1 9669   2.670   1.624  13.180  0.3665  0.1553 -0.0432
  649TMC3    O2 9670   3.187   1.760  12.898 -0.1801  0.2923  0.4447
  650TMC3    C1 9671   0.673   3.107  12.629 -0.0101 -0.4315  0.8645
  650TMC3    C2 9672   0.665   3.234  12.685 -0.5133  0.2777 -0.2813
  650TMC3    C3 9673   0.541   3.290  12.687  0.0702 -0.5003  0.2054
  650TMC3    C4 9674   0.566   3.038  12.586 -0.2572  0.6599  0.2652
  650TMC3    C5 9675   0.445   3.100  12.589 -0.6063  0.2622 -0.3968
  650TMC3    C6 9676   0.425   3.225  12.638 -0.1673 -0.6492  0.7669
  650TMC3     C 9677   0.791   3.035  12.674  0.8748  0.1319  0.0656
  650TMC3     O 9678   0.868   3.095  12.741 -0.7134 -0.4398  0.2883
  650TMC3     H 9679   0.754   3.277  12.728 -0.9374  2.8539 -1.9617
  650TMC3    H1 9680   0.576   2.942  12.535  2.3034  1.1220 -0.0959
  650TMC3    H2 9681   0.332   3.281  12.631  0.5637  0.2055 -2.0805
  650TMC3    C7 9682   0.349   3.051  12.496 -0.1057  0.3057 -0.9735
  650TMC3    C8 9683   0.517   3.423  12.742  0.4970 -0.2281  0.3599
  650TMC3    O1 9684   0.335   2.923  12.499 -0.2946 -0.4214  0.6451
  650TMC3    O2 9685   0.601   3.507  12.717 -0.1954  0.4353  0.9663
  651MPD2     C 9686   4.485   0.271  10.625  0.4421  0.0142 -0.7152
  651MPD2    C1 9687   4.481   0.404  10.646  0.9625  0.0049  0.4976
  651MPD2    C2 9688   4.575   0.486  10.584 -0.3640  0.2801  0.0528
  651MPD2    C3 9689   4.681   0.430  10.509  0.5452 -0.3959  0.0830
  651MPD2    C4 9690   4.675   0.296  10.483 -0.8296  0.4821  0.5328
  651MPD2    C5 9691   4.574   0.217  10.539 -0.0124 -0.0332  0.3264
  651MPD2     H 9692   4.563   0.592  10.607  0.6958  0.7778 -1.6459
  651MPD2    H1 9693   4.738   0.240  10.415 -1.3810  1.3979 -0.7436
  651MPD2    H2 9694   4.430   0.189  10.670 -2.4062  1.9511 -0.6217
  651MPD2    H3 9695   4.575   0.110  10.520 -0.5504  0.1388 -0.6701
  651MPD2     N 9696   0.033   0.523  10.450  0.7547 -0.7032 -0.2049
  651MPD2    H5 9697   0.011   0.620  10.471 -0.5259 -0.8870 -0.6412
  651MPD2    N1 9698   4.375   0.466  10.723 -0.4456 -0.2473 -0.2816
  651MPD2    H7 9699   4.391   0.562  10.751  1.3630 -1.5277  3.1933
  652TMC3    C1 9700   0.353   0.742  10.193  0.0795  0.0735  0.1860
  652TMC3    C2 9701   0.316   0.624  10.254  0.9970  0.1826 -0.8154
  652TMC3    C3 9702   0.193   0.624  10.315 -0.4293  0.1851 -1.0854
  652TMC3    C4 9703   0.267   0.847  10.176  1.6537 -0.0111 -0.3735
  652TMC3    C5 9704   0.142   0.832  10.220  0.3757 -0.1218  0.1719
  652TMC3    C6 9705   0.102   0.722  10.285  0.2409  0.2218  0.5578
  652TMC3     C 9706   0.489   0.792  10.224  0.0442  0.6577 -0.4904
  652TMC3     O 9707   0.569   0.827  10.139  0.3113 -0.2421 -0.2272
  652TMC3     H 9708   0.395   0.569  10.305 -0.7784 -0.5451  1.1353
  652TMC3    H1 9709   0.298   0.932  10.117 -1.2429 -0.1956 -2.1702
  652TMC3    H2 9710   4.734   0.718  10.304  0.0349 -0.1257 -0.6849
  652TMC3    C7 9711   0.029   0.907  10.153 -0.6090 -0.4536 -0.3780
  652TMC3    C8 9712   0.148   0.496  10.378  0.0153 -0.2277  0.5243
  652TMC3    O1 9713   4.664   0.850  10.131 -0.1530  0.0616  0.3155
  652TMC3    O2 9714   0.193   0.386  10.346  0.0313 -0.0528 -0.5022
  653MPD2     C 9715   3.344   0.108   0.245 -0.0111 -0.6160  0.1029
  653MPD2    C1 9716   3.308   0.213   0.157 -0.4880  1.1207  0.2391
  653MPD2    C2 9717   3.221   0.190   0.053 -0.3239  0.7514  0.2149
  653MPD2    C3 9718   3.168   0.071   0.034 -0.5474 -0.0439  0.7941
  653MPD2    C4 9719   3.217   4.706   0.117  0.5826 -0.2752  0.4331
  653MPD2    C5 9720   3.292   4.725   0.225 -1.0253 -0.8092  0.4417
  653MPD2     H 9721   3.191   0.269  17.738  0.7167 -1.4800 -2.8366
  653MPD2    H1 9722   3.192   4.602   0.097  0.5022 -0.2969  0.6360
  653MPD2    H2 9723   3.411   0.125   0.329 -1.8801  0.5316  1.3502
  653MPD2    H3 9724   3.337   4.639   0.275  1.3944  0.0507 -0.2765
  653MPD2     N 9725   3.074   0.045  17.680 -0.1413 -0.4186 -0.0429
  653MPD2    H5 9726   3.048   0.126  17.624 -1.3307  0.2264  1.4396
  653MPD2    N1 9727   3.354   0.347   0.179  0.3920  0.4912  0.4066
  653MPD2    H7 9728   3.320   0.425   0.124 -2.0725  0.0119  1.2356
  654TMC3    C1 9729   2.919   4.664  17.555 -0.4704  0.3204 -0.4994
  654TMC3    C2 9730   2.839   0.034  17.532 -0.1228 -0.5927 -0.4132
  654TMC3    C3 9731   2.737   0.018  17.442  0.5640  0.0771  0.2819
  654TMC3    C4 9732   2.918   4.555  17.474  0.9457 -0.0762  0.6029
  654TMC3    C5 9733   2.825   4.550  17.368 -0.1864 -0.1815 -0.0686
  654TMC3    C6 9734   2.727   4.645  17.361  0.4003  0.0633 -0.2178
  654TMC3     C 9735   3.018   4.665  17.657  0.0074 -0.2631  0.6604
  654TMC3     O 9736   3.062   4.553  17.674 -0.4210  1.1663  0.1423
  654TMC3     H 9737   2.840   0.114  17.605 -0.9973  0.2851 -1.3657
  654TMC3    H1 9738   2.992   4.476  17.479  0.8456 -0.3565 -2.0784
  654TMC3    H2 9739   2.653   4.642  17.281  1.3277 -1.5075 -1.0163
  654TMC3    C7 9740   2.827   4.449  17.261 -0.1711  0.3926 -0.1849
  654TMC3    C8 9741   2.667   0.138  17.404  0.8079 -0.2413 -0.1317
  654TMC3    O1 9742   2.771   4.471  17.158  0.2218 -0.5399  0.0270
  654TMC3    O2 9743   2.562   0.114  17.346  0.4049 -0.8454 -0.0555
  655MPD2     C 9744   4.398   0.387  15.885 -0.2867  0.3225  0.8215
  655MPD2    C1 9745   4.340   0.495  15.820  0.4086  0.4287  0.8363
  655MPD2    C2 9746   4.317   0.485  15.681 -1.0077 -0.6242 -0.5562
  655MPD2    C3 9747   4.335   0.365  15.614  0.2469  0.0700 -0.3015
  655MPD2    C4 9748   4.401   0.265  15.679 -0.3058  0.3799  0.4321
  655MPD2    C5 9749   4.422   0.270  15.816  0.3503 -0.0670 -0.0277
  655MPD2     H 9750   4.281   0.571  15.626  1.2118 -1.4253 -3.2678
  655MPD2    H1 9751   4.426   0.174  15.624  0.7503  1.1500 -0.3670
  655MPD2    H2 9752   4.426   0.390  15.990  1.9965 -2.6961  0.2679
  655MPD2    H3 9753   4.459   0.179  15.861 -0.5036 -0.4490 -0.1012
  655MPD2     N 9754   4.295   0.351  15.484  0.8204  0.2258 -0.4804
  655MPD2    H5 9755   4.335   0.274  15.429  0.4436  1.2168 -2.1410
  655MPD2    N1 9756   4.321   0.621  15.883 -0.0448  0.6636  0.3581
  655MPD2    H7 9757   4.303   0.696  15.817  2.5429  2.5431  1.8117
  656TMC3    C1 9758   4.315   0.790  16.047 -0.0947  0.3303 -0.2958
  656TMC3    C2 9759   4.316   0.829  16.178 -0.0011 -0.4695  0.2773
  656TMC3    C3 9760   4.305   0.965  16.202 -0.5612  0.4532 -0.4608
  656TMC3    C4 9761   4.281   0.874  15.946 -0.1235 -0.3585 -0.2286
  656TMC3    C5 9762   4.266   1.008  15.977  0.0396  0.1456 -0.1387
  656TMC3    C6 9763   4.277   1.058  16.100 -0.3682 -0.3616  0.3194
  656TMC3     C 9764   4.334   0.649  16.017 -0.2057  0.5014  0.1427
  656TMC3     O 9765   4.318   0.565  16.101 -0.0761  0.1011 -0.6777
  656TMC3     H 9766   4.336   0.758  16.257  1.3403 -0.9790 -0.5307
  656TMC3    H1 9767   4.268   0.852  15.841 -1.3040 -1.3676  0.1284
  656TMC3    H2 9768   4.283   1.164  16.122 -1.9832 -0.0666 -0.6502
  656TMC3    C7 9769   4.232   1.106  15.875 -0.8199 -0.2693  0.6279
  656TMC3    C8 9770   4.267   0.997  16.335 -0.6630 -0.9091 -0.6219
  656TMC3    O1 9771   4.290   1.084  15.768 -1.1083 -0.0575  0.0956
  656TMC3    O2 9772   4.275   1.114  16.374 -0.3809  0.3515  0.0488
  657TMC3    C1 9773   3.066   4.650  15.290  0.2823  0.2944 -0.2630
  657TMC3    C2 9774   3.176   4.643  15.376  1.6158  0.2586  0.6774
  657TMC3    C3 9775   3.260   0.011  15.378  0.8813  0.2284  0.1300
  657TMC3    C4 9776   3.043   0.022  15.210  0.1621 -0.6123  0.0560
  657TMC3    C5 9777   3.136   0.129  15.215  0.0149 -0.1741 -0.5524
  657TMC3    C6 9778   3.244   0.118  15.304 -0.0136  0.2512  0.1756
  657TMC3     C 9779   3.066   4.520  15.224  0.3164  0.5060  0.0893
  657TMC3     O 9780   2.959   4.456  15.235 -0.8065  0.2832  0.0416
  657TMC3     H 9781   3.190   4.559  15.442 -1.2811 -1.4010 -0.8075
  657TMC3    H1 9782   2.966   0.004  15.136  1.1945 -0.5116 -1.0372
  657TMC3    H2 9783   3.306   0.207  15.310  0.7522 -0.2524 -0.4674
  657TMC3    C7 9784   3.127   0.246  15.133  0.1100 -0.2054  0.5639
  657TMC3    C8 9785   3.367   0.001  15.473 -0.1182 -0.5135  0.0859
  657TMC3    O1 9786   3.228   0.313  15.119 -0.3329  0.8532  0.3711
  657TMC3    O2 9787   3.405   4.629  15.505  0.2121  0.0893 -0.0523
  658MPD2     C 9788   4.545   0.069  14.790 -1.1437 -0.4221  0.7378
  658MPD2    C1 9789   4.475   0.190  14.804 -0.5239 -0.7775  0.5853
  658MPD2    C2 9790   4.459   0.289  14.705  0.5038  0.0290  0.0195
  658MPD2    C3 9791   4.517   0.265  14.581  0.0613  0.3617  0.9345
  658MPD2    C4 9792   4.602   0.161  14.573 -0.6672  1.1413 -0.0139
  658MPD2    C5 9793   4.611   0.063  14.672 -0.1101 -1.0373  0.3613
  658MPD2     H 9794   4.406   0.383  14.714  0.0969  0.0216 -2.2570
  658MPD2    H1 9795   4.661   0.137  14.485 -1.0548  1.3858 -0.3372
  658MPD2    H2 9796   4.556   4.730  14.864 -1.5186 -0.9116  0.2799
  658MPD2    H3 9797   4.681   4.720  14.658 -0.1613 -1.0893  0.4092
  658MPD2     N 9798   4.478   0.350  14.473  0.5510  0.0689  0.4413
  658MPD2    H5 9799   4.408   0.416  14.507  1.1741  0.7151  0.4730
  658MPD2    N1 9800   4.410   0.210  14.929  0.4427  0.2456  0.0165
  658MPD2    H7 9801   4.391   0.125  14.981  0.1201  0.7831  0.7676
  659TMC3    C1 9802   4.274   0.312  15.082  0.6851  0.6516 -0.0670
  659TMC3    C2 9803   4.297   0.337  15.213  0.1783 -0.4730  0.4709
  659TMC3    C3 9804   4.187   0.379  15.283  0.2717  0.9193  0.2369
  659TMC3    C4 9805   4.145   0.323  15.025 -0.6839  1.1299  0.3245
  659TMC3    C5 9806   4.048   0.380  15.096  0.1036 -0.3473  0.2586
  659TMC3    C6 9807   4.068   0.407  15.227 -1.2176 -0.5188 -0.5732
  659TMC3     C 9808   4.381   0.331  14.986 -0.6330  0.8539 -0.0200
  659TMC3     O 9809   4.435   0.443  14.962 -0.1919  0.0967 -0.1628
  659TMC3     H 9810   4.400   0.359  15.239 -0.3182  2.7400 -0.3461
  659TMC3    H1 9811   4.140   0.304  14.919 -0.4043  0.2684  0.4649
  659TMC3    H2 9812   3.999   0.447  15.300 -1.0846  0.5166 -1.0053
  659TMC3    C7 9813   3.917   0.426  15.044  0.6940  0.2507 -0.6096
  659TMC3    C8 9814   4.215   0.432  15.414  0.3499 -0.4621  0.8155
  659TMC3    O1 9815   3.844   0.491  15.122 -0.6661  0.1145  0.1654
  659TMC3    O2 9816   4.140   0.523  15.451  0.6575 -0.1234 -0.1981
  660MPD2     C 9817   2.634   4.337  12.636 -0.4982  0.2472 -0.1347
  660MPD2    C1 9818   2.500   4.366  12.645 -0.1560 -0.4438 -0.1825
  660MPD2    C2 9819   2.427   4.304  12.742  0.0840 -0.6887 -0.2790
  660MPD2    C3 9820   2.476   4.221  12.841 -0.0622 -0.2382  1.4285
  660MPD2    C4 9821   2.612   4.203  12.836  0.0106  0.6690  0.5342
  660MPD2    C5 9822   2.689   4.255  12.737 -0.1657  0.7027  0.1452
  660MPD2     H 9823   2.320   4.319  12.737 -0.1296 -1.4920  1.5904
  660MPD2    H1 9824   2.651   4.140  12.915 -0.7445 -3.2711 -2.2282
  660MPD2    H2 9825   2.701   4.378  12.561  0.8177 -2.9593 -0.7103
  660MPD2    H3 9826   2.794   4.227  12.737  0.3185  2.5021  0.5118
  660MPD2     N 9827   2.391   4.164  12.940  0.2440 -0.5902 -0.0849
  660MPD2    H5 9828   2.426   4.120  13.025 -0.5068 -2.0529 -0.5342
  660MPD2    N1 9829   2.443   4.451  12.553 -1.0242  0.0507 -0.6153
  660MPD2    H7 9830   2.495   4.477  12.469 -0.4214 -0.6138 -0.4444
  661TMC3    C1 9831   2.274   4.574  12.440 -0.0794 -0.3405  0.3072
  661TMC3    C2 9832   2.332   4.545  12.315  0.4282  0.2751 -0.0378
  661TMC3    C3 9833   2.264   4.585  12.204  0.3079 -0.2126 -0.0380
  661TMC3    C4 9834   2.147   4.626  12.446 -0.2877  0.4882 -0.3805
  661TMC3    C5 9835   2.084   4.662  12.331 -0.5573  0.0297 -0.8229
  661TMC3    C6 9836   2.141   4.655  12.210  0.0961  1.1669 -0.5346
  661TMC3     C 9837   2.317   4.510  12.562 -0.8746  0.0188  0.3597
  661TMC3     O 9838   2.244   4.514  12.656 -0.0028 -0.1108  0.2726
  661TMC3     H 9839   2.436   4.514  12.314  0.8211  1.5524  0.7702
  661TMC3    H1 9840   2.107   4.644  12.545 -0.2261  0.3332 -0.3282
  661TMC3    H2 9841   2.093   4.697  12.122  0.7039 -0.4911 -1.6602
  661TMC3    C7 9842   1.945   4.666  12.338  0.5907 -0.3055 -0.0530
  661TMC3    C8 9843   2.333   4.572  12.075 -0.6253 -0.2632  0.4503
  661TMC3    O1 9844   1.898   4.700  12.448  0.4244 -0.1652  0.7105
  661TMC3    O2 9845   2.285   4.638  11.983 -0.2564  0.2607 -0.1750
  662MPD2     C 9846   2.916   3.746  17.638 -0.1824 -0.7639 -0.0913
  662MPD2    C1 9847   2.847   3.707  17.528  0.4803 -1.0698 -0.0028
  662MPD2    C2 9848   2.767   3.801  17.463  0.3105  0.3070  0.3302
  662MPD2    C3 9849   2.755   3.931  17.512  0.1178  0.8576  0.2165
  662MPD2    C4 9850   2.815   3.965  17.634  0.4182 -0.3346  0.1786
  662MPD2    C5 9851   2.908   3.880  17.686  0.0232  0.2635 -0.3173
  662MPD2     H 9852   2.717   3.775  17.370  0.0259  1.9834  0.0143
  662MPD2    H1 9853   2.800   4.063  17.677 -2.8940 -1.4050  1.4777
  662MPD2    H2 9854   2.976   3.672  17.689 -1.6942 -1.7686  0.2463
  662MPD2    H3 9855   2.976   3.914   0.010 -1.4092  0.5684  0.8146
  662MPD2     N 9856   2.677   4.034  17.451 -0.5453 -0.6098  0.4209
  662MPD2    H5 9857   2.657   4.121  17.500 -1.1993 -1.1161  1.0588
  662MPD2    N1 9858   2.847   3.576  17.481  0.9891  0.1568 -0.5310
  662MPD2    H7 9859   2.773   3.552  17.415 -0.1759 -0.9360  1.2046
  663TMC3    C1 9860   2.899   3.355  17.434 -0.8480  0.3542 -0.4356
  663TMC3    C2 9861   2.782   3.339  17.363 -0.2576  0.2009 -0.3994
  663TMC3    C3 9862   2.763   3.222  17.291 -0.0837 -0.6691 -0.0099
  663TMC3    C4 9863   3.004   3.264  17.427  0.1240 -0.5057 -0.7541
  663TMC3    C5 9864   2.985   3.144  17.360 -0.0359 -0.1013  0.1793
  663TMC3    C6 9865   2.869   3.135  17.279  0.0802  0.2298 -0.3905
  663TMC3     C 9866   2.930   3.473  17.514  0.1311  0.3463  0.0777
  663TMC3     O 9867   3.032   3.474  17.581  0.2195 -0.0853 -0.2690
  663TMC3     H 9868   2.695   3.392  17.399  0.5520  0.4612  1.1394
  663TMC3    H1 9869   3.092   3.273  17.490 -0.8544  2.0974  0.2608
  663TMC3    H2 9870   2.863   3.042  17.222  0.8072  0.6446 -1.1452
  663TMC3    C7 9871   3.061   3.023  17.381 -1.0561 -0.2124  0.8630
  663TMC3    C8 9872   2.654   3.137  17.336  0.3262 -1.1511  0.0381
  663TMC3    O1 9873   3.177   3.042  17.416  0.4215 -0.2258 -0.5518
  663TMC3    O2 9874   2.691   3.026  17.374  0.1735 -0.6372  0.3042
  664MPD2     C 9875   1.002   2.253  17.284  0.0335 -0.5949  0.0707
  664MPD2    C1 9876   1.101   2.260  17.381 -0.2614  0.3223 -0.3664
  664MPD2    C2 9877   1.084   2.202  17.505  0.4882  0.0693 -0.0425
  664MPD2    C3 9878   0.964   2.132  17.531  0.4044  0.4196  0.2186
  664MPD2    C4 9879   0.864   2.125  17.434  1.0383 -0.0003  0.3746
  664MPD2    C5 9880   0.888   2.180  17.311  0.1091  0.2787 -0.4853
  664MPD2     H 9881   1.161   2.221  17.579  0.0031  1.2425  0.1519
  664MPD2    H1 9882   0.769   2.075  17.450  0.1903  2.1013  1.9139
  664MPD2    H2 9883   1.023   2.285  17.182 -1.4443 -0.9698 -0.3505
  664MPD2    H3 9884   0.815   2.160  17.233 -1.8474 -0.0694  1.4283
  664MPD2     N 9885   0.950   2.090  17.664 -0.0190 -0.1706  0.4577
  664MPD2    H5 9886   1.025   2.111  17.729 -0.9475  1.2563  1.0848
  664MPD2    N1 9887   1.233   2.309  17.370  0.6003 -0.2694 -0.6375
  664MPD2    H7 9888   1.297   2.313  17.449 -1.6310  1.1980  1.0804
  665TMC3    C1 9889   0.843   1.996   0.095 -0.5496  0.1201 -1.0299
  665TMC3    C2 9890   0.768   1.893   0.138 -0.7039  0.3368  0.7709
  665TMC3    C3 9891   0.730   1.889   0.266  0.0662 -0.5186 -0.0183
  665TMC3    C4 9892   0.886   2.098   0.176 -0.1227  0.2996  0.0084
  665TMC3    C5 9893   0.850   2.086   0.302  0.5094 -0.0112 -0.6697
  665TMC3    C6 9894   0.778   1.979   0.354 -0.2666 -0.3335  0.2875
  665TMC3     C 9895   0.842   2.020  17.711  0.4569 -0.1651  0.0304
  665TMC3     O 9896   0.770   1.948  17.646  0.1406  0.2277 -0.4572
  665TMC3     H 9897   0.730   1.817   0.072  2.1338 -0.7967  0.4097
  665TMC3    H1 9898   0.946   2.182   0.141 -0.4448  0.6247  0.2302
  665TMC3    H2 9899   0.764   1.979   0.462  3.2002 -1.8233  0.7546
  665TMC3    C7 9900   0.835   2.216   0.376 -0.3866 -0.9655  0.6933
  665TMC3    C8 9901   0.655   1.789   0.325 -0.4266 -0.0398 -0.1415
  665TMC3    O1 9902   0.819   2.311   0.302 -0.1914  0.9097 -0.2625
  665TMC3    O2 9903   0.598   1.823   0.429  0.1772  0.1125  0.4192
  666TMC3    C1 9904   0.424   2.649   9.426  0.4171 -0.2711  0.2804
  666TMC3    C2 9905   0.364   2.554   9.506  0.7176  0.5081  0.1751
  666TMC3    C3 9906   0.268   2.598   9.592  0.1736 -0.5321  0.3743
  666TMC3    C4 9907   0.385   2.780   9.425  0.4913  0.2873 -0.9351
  666TMC3    C5 9908   0.290   2.814   9.511  0.2701 -0.2829  0.3174
  666TMC3    C6 9909   0.222   2.729   9.592 -0.0636 -0.5722  0.7202
  666TMC3     C 9910   0.499   2.610   9.311  0.3097 -1.0124  1.1579
  666TMC3     O 9911   0.523   2.692   9.223  0.2449  0.2012 -0.4928
  666TMC3     H 9912   0.390   2.449   9.509 -0.8705  0.1322  0.9766
  666TMC3    H1 9913   0.422   2.846   9.348  2.0991 -2.2039 -2.2919
  666TMC3    H2 9914   0.165   2.763   9.677  2.8405  2.3761  1.4933
  666TMC3    C7 9915   0.267   2.956   9.519 -0.8245 -0.5270 -0.7001
  666TMC3    C8 9916   0.203   2.497   9.670 -0.2204 -0.5141  0.1405
  666TMC3    O1 9917   0.338   3.032   9.452  0.3849 -0.0911  0.0290
  666TMC3    O2 9918   0.266   2.390   9.684  0.2514  0.0558  0.2961
  667MPD2     C 9919   1.708   2.107  14.460  0.3098  0.8214 -0.3849
  667MPD2    C1 9920   1.640   2.095  14.580 -0.6141 -0.4539  0.2383
  667MPD2    C2 9921   1.518   2.031  14.576  0.8075  0.3848  0.2747
  667MPD2    C3 9922   1.477   1.974  14.457 -0.4921 -0.1072 -0.6224
  667MPD2    C4 9923   1.547   1.984  14.334 -0.2823  0.4646  0.2175
  667MPD2    C5 9924   1.660   2.056  14.341  0.5575  0.7568  0.0416
  667MPD2     H 9925   1.469   2.022  14.673  0.0806 -1.3654 -0.2582
  667MPD2    H1 9926   1.509   1.937  14.244 -1.2704 -0.3608  1.0597
  667MPD2    H2 9927   1.798   2.167  14.456  2.4558 -2.4693 -1.9297
  667MPD2    H3 9928   1.720   2.077  14.253  0.8800 -0.9655 -0.1522
  667MPD2     N 9929   1.350   1.902  14.443  0.1205 -0.0516 -0.1104
  667MPD2    H5 9930   1.332   1.860  14.352  0.9869  2.1098 -1.2943
  667MPD2    N1 9931   1.684   2.156  14.703 -0.3043  0.7031  0.1352
  667MPD2    H7 9932   1.633   2.155  14.790 -1.4037  0.7762 -0.5116
  668TMC3    C1 9933   1.795   2.276  14.862  0.3808  0.2852 -0.5710
  668TMC3    C2 9934   1.844   2.400  14.882  0.1597  0.3848  0.6825
  668TMC3    C3 9935   1.889   2.434  15.005 -1.2715 -0.0535 -0.5466
  668TMC3    C4 9936   1.782   2.188  14.964 -0.2548  0.4479  0.3076
  668TMC3    C5 9937   1.825   2.225  15.090  0.1803 -0.2495 -0.4162
  668TMC3    C6 9938   1.872   2.349  15.108  0.0104 -0.3465  0.6876
  668TMC3     C 9939   1.796   2.230  14.725  0.6215 -0.6493 -0.7059
  668TMC3     O 9940   1.873   2.284  14.644 -0.2369 -0.4644 -0.0875
  668TMC3     H 9941   1.867   2.467  14.800  0.0499 -0.3361  0.0519
  668TMC3    H1 9942   1.760   2.083  14.947 -1.0535  1.1130 -2.6839
  668TMC3    H2 9943   1.903   2.374  15.208 -0.8040 -0.2132  0.9055
  668TMC3    C7 9944   1.769   2.153  15.200  0.2772 -0.0062  0.0394
  668TMC3    C8 9945   1.970   2.554  15.033 -1.1735 -0.0042 -0.4894
  668TMC3    O1 9946   1.803   2.196  15.312 -0.2255 -0.0858 -0.4774
  668TMC3    O2 9947   1.994   2.581  15.154  0.0766 -0.0659  0.6664
  669TMC3    C1 9948   4.716   2.022  14.452  0.4247  0.1883  0.4043
  669TMC3    C2 9949   4.594   2.083  14.414  0.5708 -0.1999  0.1455
  669TMC3    C3 9950   4.589   2.172  14.309  0.2581 -0.6029  0.9676
  669TMC3    C4 9951   0.092   2.058  14.386  0.7926  0.2598  0.3257
  669TMC3    C5 9952   0.089   2.156  14.287  0.4810 -0.3940 -0.9865
  669TMC3    C6 9953   4.710   2.201  14.244  0.2273 -0.1434  1.0581
  669TMC3     C 9954   4.705   1.908  14.538 -0.3514  0.4945  0.3961
  669TMC3     O 9955   4.595   1.885  14.587  0.6366  0.6501  0.4151
  669TMC3     H 9956   4.506   2.055  14.471  0.3980 -0.0217 -0.0363
  669TMC3    H1 9957   0.186   2.032  14.433  0.6446  0.7362  0.8864
  669TMC3    H2 9958   4.700   2.254  14.150 -1.7872  0.0252  1.3818
  669TMC3    C7 9959   0.204   2.227  14.250  0.8254 -0.1462 -0.2973
  669TMC3    C8 9960   4.467   2.193  14.236 -0.1712  0.3903 -0.0581
  669TMC3    O1 9961   0.182   2.321  14.173  0.3869 -0.3754  0.2597
  669TMC3    O2 9962   4.469   2.189  14.116  0.2189 -0.6334  0.7236
  670MPD2     C 9963   2.495   4.474  13.532  0.1003 -0.0516  0.6766
  670MPD2    C1 9964   2.619   4.458  13.596 -0.4033  0.1884 -0.4806
  670MPD2    C2 9965   2.626   4.469  13.733  0.0131 -0.8285  0.5275
  670MPD2    C3 9966   2.510   4.496  13.810  0.3157  0.2427  0.5145
  670MPD2    C4 9967   2.394   4.524  13.747 -0.0469 -0.2642  0.1324
  670MPD2    C5 9968   2.387   4.514  13.608  0.3057  0.3728 -0.8063
  670MPD2     H 9969   2.718   4.451  13.786 -0.8156  0.8136  2.5221
  670MPD2    H1 9970   2.305   4.558  13.799 -0.7246 -0.5161 -0.8616
  670MPD2    H2 9971   2.483   4.475  13.424  1.8778 -2.7715  0.4460
  670MPD2    H3 9972   2.304   4.548  13.548 -0.8169 -3.1130 -1.2476
  670MPD2     N 9973   2.521   4.487  13.951 -0.3776  0.1390 -0.6939
  670MPD2    H5 9974   2.618   4.477  13.979 -0.4304  1.6231  0.0312
  670MPD2    N1 9975   2.740   4.433  13.521  0.6265 -0.2769  0.0584
  670MPD2    H7 9976   2.828   4.432  13.571 -0.0020  1.3873  1.1851
  671TMC3    C1 9977   2.459   4.462  14.172 -0.2495  0.6434 -0.4781
  671TMC3    C2 9978   2.594   4.449  14.188 -1.2203 -0.6851 -0.0879
  671TMC3    C3 9979   2.639   4.344  14.259 -0.1592  0.2850  0.0834
  671TMC3    C4 9980   2.371   4.369  14.227  0.7144 -0.2422  0.2527
  671TMC3    C5 9981   2.422   4.251  14.279  0.4538  0.2333  0.9762
  671TMC3    C6 9982   2.558   4.238  14.292  0.1291 -0.8413 -0.3125
  671TMC3     C 9983   2.417   4.502  14.042  0.2039  0.8243 -0.6619
  671TMC3     O 9984   2.294   4.503  14.024  0.1288 -0.2112  0.5388
  671TMC3     H 9985   2.671   4.510  14.142 -1.3364  0.6600  1.4781
  671TMC3    H1 9986   2.265   4.386  14.210  0.3937 -1.9194  0.5854
  671TMC3    H2 9987   2.592   4.147  14.340  3.0680 -0.5567 -1.8836
  671TMC3    C7 9988   2.377   4.138  14.207  0.4753 -0.8014  0.5477
  671TMC3    C8 9989   2.776   4.307  14.251 -0.1439 -0.3942 -0.1081
  671TMC3    O1 9990   2.463   4.066  14.162  0.3496  0.0530  0.3151
  671TMC3    O2 9991   2.835   4.336  14.151  0.0916  0.4559  0.4386
  672MPD2     C 9992   3.399   0.019   0.853 -0.2899 -0.5610  0.6776
  672MPD2    C1 9993   3.455   4.664   0.938 -0.5820  1.1139 -0.0947
  672MPD2    C2 9994   3.572   4.695   1.017  0.5437  0.1898  0.4501
  672MPD2    C3 9995   3.627   0.087   1.004 -0.3466  0.3160  0.0060
  672MPD2    C4 9996   3.576   0.172   0.903  0.3819  0.2857  0.0486
  672MPD2    C5 9997   3.464   0.142   0.833  0.3456 -0.2408 -0.3622
  672MPD2     H 9998   3.602   4.630   1.098  1.1118  0.2738  0.3073
  672MPD2    H1 9999   3.624   0.267   0.882 -1.8818  1.4429  0.0730
  672MPD2    H210000   3.308   0.008   0.795  0.1951 -0.4373 -0.1162
  672MPD2    H310001   3.425   0.204   0.753 -0.5446  0.8037  0.8912
  672MPD2     N10002   3.734   0.135   1.079 -0.1419  0.1550 -0.1708
  672MPD2    H510003   3.768   0.228   1.056 -0.4410  1.1679  3.4017
  672MPD2    N110004   3.390   4.537   0.966  0.2329 -0.4734 -0.0924
  672MPD2    H710005   3.445   4.473   1.023  2.9828  2.2123  0.2976
  673TMC3    C110006   3.262   4.345   0.913 -0.7390  0.3478  0.2972
  673TMC3    C210007   3.358   4.265   0.863 -0.1050  1.1963  0.4253
  673TMC3    C310008   3.317   4.162   0.787 -0.1807  0.2586 -0.2316
  673TMC3    C410009   3.133   4.318   0.883  0.0672 -0.1899 -0.0390
  673TMC3    C510010   3.099   4.205   0.816 -0.1183 -0.3940  0.2085
  673TMC3    C610011   3.188   4.131   0.753 -0.2112  0.3152 -0.7293
  673TMC3     C10012   3.283   4.486   0.894  0.0097  0.2096  0.1485
  673TMC3     O10013   3.188   4.545   0.844 -0.2928 -0.0304  0.6000
  673TMC3     H10014   3.460   4.285   0.894  0.0365  0.3847  0.4821
  673TMC3    H110015   3.063   4.381   0.938  0.2578 -0.7030  0.7813
  673TMC3    H210016   3.160   4.068   0.669  1.1161 -0.9374 -0.2260
  673TMC3    C710017   2.983   4.237   0.738 -0.5617  0.0344  0.0505
  673TMC3    C810018   3.421   4.085   0.724  0.0313  0.3396 -0.4583
  673TMC3    O110019   2.922   4.149   0.677  0.1514  0.0048  0.4460
  673TMC3    O210020   3.386   4.014   0.636  0.2171 -0.0814  1.0004
  674MPD2     C10021   2.959   0.221   0.244 -1.1349 -0.1352 -0.4549
  674MPD2    C110022   2.869   0.122   0.201  0.5131 -0.3696  0.2122
  674MPD2    C210023   2.753   0.151   0.127 -0.5245  0.5981  0.4175
  674MPD2    C310024   2.725   0.283   0.103  0.2462 -0.2845 -0.1134
  674MPD2    C410025   2.802   0.384   0.148 -0.2678 -0.4007 -0.3145
  674MPD2    C510026   2.926   0.349   0.209  0.4255 -0.4854  0.0664
  674MPD2     H10027   2.680   0.074   0.104 -0.7639  0.8825  0.2165
  674MPD2    H110028   2.783   0.491   0.139 -0.8871 -0.5240 -0.4931
  674MPD2    H210029   3.043   0.193   0.306 -1.2008  1.2847  0.2759
  674MPD2    H310030   2.988   0.429   0.248  1.9671 -0.8825 -1.5595
  674MPD2     N10031   2.604   0.319   0.037  0.4264  0.0035  0.1603
  674MPD2    H510032   2.534   0.246   0.044  1.2391 -0.8476 -0.6527
  674MPD2    N110033   2.892   4.731   0.249  0.2536 -0.2140 -0.3152
  674MPD2    H710034   2.982   4.720   0.295  0.0241 -0.1261  0.1591
  675TMC3    C110035   2.850   4.500   0.304 -0.3645 -0.4118  1.3087
  675TMC3    C210036   2.759   4.400   0.301 -0.3336 -0.2858 -0.0542
  675TMC3    C310037   2.800   4.275   0.336  0.8278  0.4314  0.2270
  675TMC3    C410038   2.977   4.486   0.353  0.4733 -0.2163  0.2973
  675TMC3    C510039   3.010   4.358   0.395  0.4856  0.1975  0.4581
  675TMC3    C610040   2.925   4.250   0.384  0.2228  0.6281  0.6273
  675TMC3     C10041   2.809   4.620   0.227  0.4355 -0.5006  0.0170
  675TMC3     O10042   2.703   4.609   0.168 -0.4357  0.2110  0.2163
  675TMC3     H10043   2.653   4.409   0.277 -0.6155  1.2829  1.7696
  675TMC3    H110044   3.063   4.552   0.339 -1.5860  2.0422 -1.7576
  675TMC3    H210045   2.957   4.159   0.434 -2.5828 -0.3753  0.5992
  675TMC3    C710046   3.150   4.320   0.428 -0.3783  0.7727  0.1443
  675TMC3    C810047   2.692   4.178   0.344  0.8201 -0.4783 -0.5848
  675TMC3    O110048   3.175   4.200   0.423  0.3435 -0.1873  0.0652
  675TMC3    O210049   2.611   4.166   0.253  0.7308 -0.0444  0.0281
  676MPD2     C10050   0.736   3.284  11.302  0.3439  0.1564  0.1339
  676MPD2    C110051   0.621   3.215  11.339 -0.6507 -0.2466  0.0396
  676MPD2    C210052   0.561   3.127  11.253  0.6337 -0.0658 -0.0949
  676MPD2    C310053   0.609   3.115  11.121  0.3775  0.1809 -0.2938
  676MPD2    C410054   0.717   3.193  11.087 -0.2903  0.1849  0.6464
  676MPD2    C510055   0.781   3.276  11.177 -0.5075  0.7097  0.6158
  676MPD2     H10056   0.470   3.077  11.282 -0.2090  1.7913  0.4329
  676MPD2    H110057   0.755   3.191  10.985  0.9357 -0.2977  1.1133
  676MPD2    H210058   0.798   3.352  11.359 -1.5519  3.0344 -1.2345
  676MPD2    H310059   0.875   3.321  11.149 -0.3293  0.3700  0.6645
  676MPD2     N10060   0.560   3.021  11.031 -0.0410 -0.4922 -0.0005
  676MPD2    H510061   0.599   3.022  10.937 -0.1932 -2.8201 -0.0799
  676MPD2    N110062   0.559   3.235  11.466 -0.2725  0.2831  0.5025
  676MPD2    H710063   0.471   3.187  11.483  0.9823 -1.6895  1.3764
  677TMC3    C110064   0.526   3.329  11.675  0.2874  0.5027 -0.5851
  677TMC3    C210065   0.391   3.296  11.667  0.4957  0.6982  1.1419
  677TMC3    C310066   0.329   3.286  11.797  0.0920 -0.4246  0.1237
  677TMC3    C410067   0.588   3.375  11.788  0.1330 -0.3060  0.6142
  677TMC3    C510068   0.522   3.369  11.912  0.2611 -0.0520 -0.8126
  677TMC3    C610069   0.393   3.315  11.915 -0.1800 -0.3486  0.3508
  677TMC3     C10070   0.609   3.321  11.558  0.0379 -0.5785  0.3606
  677TMC3     O10071   0.707   3.398  11.560  0.2130 -0.0805 -0.2659
  677TMC3     H10072   0.341   3.273  11.573  1.5653 -0.2727  0.8115
  677TMC3    H110073   0.696   3.384  11.791  0.1039  0.4533 -0.9686
  677TMC3    H210074   0.338   3.326  12.008 -1.7715 -0.6553 -0.5541
  677TMC3    C710075   0.589   3.409  12.035 -0.9263  0.6782  0.7076
  677TMC3    C810076   0.210   3.206  11.804  0.4489 -0.3260  0.8292
  677TMC3    O110077   0.545   3.357  12.138 -0.1532 -0.3739 -0.2120
  677TMC3    O210078   0.121   3.250  11.730 -0.1545 -0.5016  0.7276
  678MPD2     C10079   2.187   2.867   1.348  0.3013  0.2945 -0.9091
  678MPD2    C110080   2.105   2.872   1.239  0.1628 -0.5762  0.3099
  678MPD2    C210081   1.970   2.883   1.247 -0.0089 -0.4281 -0.4932
  678MPD2    C310082   1.904   2.901   1.366  0.1430 -0.5727 -0.1226
  678MPD2    C410083   1.985   2.891   1.479 -0.4738  0.0435  0.4663
  678MPD2    C510084   2.127   2.868   1.471  0.1964  0.5647 -0.4294
  678MPD2     H10085   1.915   2.895   1.154 -2.9677 -1.3968  1.1142
  678MPD2    H110086   1.950   2.914   1.579 -1.0844  1.8034 -0.1568
  678MPD2    H210087   2.294   2.853   1.333  0.2049 -1.0599 -0.3142
  678MPD2    H310088   2.185   2.866   1.563 -1.1056 -1.1916  0.3523
  678MPD2     N10089   1.761   2.922   1.364 -0.2692 -0.2696 -0.3708
  678MPD2    H510090   1.718   2.902   1.275 -1.2106  0.6534 -0.1256
  678MPD2    N110091   2.165   2.868   1.109 -0.5668  0.2720 -0.7152
  678MPD2    H710092   2.098   2.878   1.033 -0.5086  2.8233 -0.4158
  679TMC3    C110093   2.452   2.802   0.739 -0.1565  0.1727  0.3107
  679TMC3    C210094   2.424   2.788   0.875  0.1328  0.1133 -0.0916
  679TMC3    C310095   2.320   2.859   0.927  0.7311  0.0610 -0.4412
  679TMC3    C410096   2.377   2.891   0.666  0.4201  0.3406  0.2999
  679TMC3    C510097   2.265   2.946   0.728  0.8507 -0.0122 -0.2549
  679TMC3    C610098   2.237   2.944   0.859 -0.1711 -0.3312 -0.5791
  679TMC3     C10099   2.556   2.720   0.685 -0.4365 -0.2373  0.1668
  679TMC3     O10100   2.610   2.641   0.759 -0.0817 -0.2915  0.1917
  679TMC3     H10101   2.479   2.726   0.945  1.9200  2.0070  0.1824
  679TMC3    H110102   2.396   2.919   0.563 -0.3014 -0.2490  0.0052
  679TMC3    H210103   2.140   2.975   0.895 -0.8506 -0.7937 -2.0377
  679TMC3    C710104   2.195   3.046   0.654  0.2290  0.5794  0.2421
  679TMC3    C810105   2.294   2.832   1.075  0.4249  0.7164 -0.1540
  679TMC3    O110106   2.206   3.041   0.529  0.1039 -0.1077  0.2238
  679TMC3    O210107   2.385   2.785   1.135  0.0637 -0.2408 -0.2910
  680MPD2     C10108   2.286   2.062  13.839  0.2693 -0.5010  0.1657
  680MPD2    C110109   2.321   1.971  13.933  0.5744 -0.3641 -0.0815
  680MPD2    C210110   2.366   2.019  14.055  0.0645  0.3404 -0.5184
  680MPD2    C310111   2.395   2.150  14.081 -0.1196 -0.1116 -0.6155
  680MPD2    C410112   2.354   2.242  13.986  0.2737  0.0308 -0.3383
  680MPD2    C510113   2.296   2.198  13.867  0.2363  0.0194 -0.3620
  680MPD2     H10114   2.398   1.948  14.130 -0.8077 -0.2689 -0.7255
  680MPD2    H110115   2.374   2.347  13.998  1.5096 -0.0401 -1.8478
  680MPD2    H210116   2.242   2.032  13.744 -2.4049  1.6860  0.7179
  680MPD2    H310117   2.275   2.269  13.788 -2.5403 -0.8718 -0.4352
  680MPD2     N10118   2.455   2.202  14.201  0.0546 -0.0308 -0.1874
  680MPD2    H510119   2.462   2.302  14.210 -0.4657 -0.0863  0.8012
  680MPD2    N110120   2.317   1.830  13.909 -0.5066  0.1420  0.7974
  680MPD2    H710121   2.348   1.776  13.989  1.4808  1.2240  0.7753
  681TMC3    C110122   2.337   1.639  13.809  0.5823  0.5145 -0.2488
  681TMC3    C210123   2.305   1.588  13.936 -0.4046 -0.3516 -0.1997
  681TMC3    C310124   2.375   1.501  14.010 -0.4145  0.3836 -0.3038
  681TMC3    C410125   2.454   1.605  13.763 -0.6204  0.0353 -0.1399
  681TMC3    C510126   2.531   1.516  13.829 -0.2736  0.4928 -0.3145
  681TMC3    C610127   2.486   1.454  13.949 -0.2437 -0.2540 -0.6227
  681TMC3     C10128   2.306   1.774  13.789 -0.6372 -0.2266  0.0498
  681TMC3     O10129   2.312   1.824  13.678 -0.2876 -0.3063  0.1727
  681TMC3     H10130   2.212   1.625  13.979 -0.5321 -0.4493 -0.3935
  681TMC3    H110131   2.486   1.655  13.672  0.6530  3.2344  2.0598
  681TMC3    H210132   2.542   1.372  13.994  0.4906  1.0606  0.8419
  681TMC3    C710133   2.662   1.477  13.785 -0.8265 -0.1147  0.2726
  681TMC3    C810134   2.318   1.437  14.130 -0.1375  0.8008 -0.5995
  681TMC3    O110135   2.742   1.440  13.868  0.9319 -0.2701 -0.2613
  681TMC3    O210136   2.206   1.470  14.157  0.3283 -0.3233  0.4882
  682MPD2     C10137   4.137   3.518  10.473  0.2235 -0.0589  0.4330
  682MPD2    C110138   4.212   3.409  10.448  0.1629  0.4303 -0.0903
  682MPD2    C210139   4.242   3.327  10.551 -0.4390 -0.5136  0.1480
  682MPD2    C310140   4.179   3.340  10.669 -0.3098  0.7349 -0.3270
  682MPD2    C410141   4.113   3.454  10.705  0.3277 -0.7396 -0.2741
  682MPD2    C510142   4.084   3.544  10.596  0.3412  0.6665 -1.1904
  682MPD2     H10143   4.308   3.243  10.531  1.0387  1.1220 -1.9092
  682MPD2    H110144   4.065   3.463  10.802  0.0427 -0.7261 -0.4183
  682MPD2    H210145   4.106   3.591  10.399  0.2516 -3.1381 -2.6170
  682MPD2    H310146   4.017   3.628  10.607  0.4834  0.4209  1.4155
  682MPD2     N10147   4.190   3.240  10.771  0.5590 -0.3197  0.1826
  682MPD2    H510148   4.144   3.265  10.858  1.4771 -1.1393  0.9056
  682MPD2    N110149   4.241   3.362  10.319  0.5679  0.0470  0.2153
  682MPD2    H710150   4.290   3.273  10.307  0.4719 -0.0750  0.7481
  683TMC3    C110151   4.183   2.989  11.090  0.4271  0.0241  0.0209
  683TMC3    C210152   4.146   2.857  11.068 -0.0602 -0.9787 -0.4714
  683TMC3    C310153   4.140   2.810  10.946  0.1484  1.0236 -0.4171
  683TMC3    C410154   4.220   3.076  10.987 -0.1068  0.1724 -0.0261
  683TMC3    C510155   4.214   3.017  10.863 -0.1255  0.4809 -0.6421
  683TMC3    C610156   4.169   2.892  10.844 -0.4758  0.2927 -0.2472
  683TMC3     C10157   4.215   3.025  11.221  0.3692  0.4403 -0.2012
  683TMC3     O10158   4.138   2.988  11.307 -0.9522  0.2402 -0.0556
  683TMC3     H10159   4.117   2.803  11.158  0.1256 -1.5681 -0.7619
  683TMC3    H110160   4.262   3.174  11.004 -1.4127  0.9126 -1.1366
  683TMC3    H210161   4.165   2.851  10.743 -1.6618  0.6598 -0.3421
  683TMC3    C710162   4.221   3.106  10.746 -0.2372 -0.0869 -0.0253
  683TMC3    C810163   4.099   2.671  10.927  0.1007 -0.0231  0.3145
  683TMC3    O110164   4.236   3.051  10.639 -0.2429 -0.3635  0.0218
  683TMC3    O210165   4.097   2.604  11.029 -0.1162 -0.1904  0.4547
  684MPD2     C10166   3.064   2.618  16.967  0.0503  0.2427  0.0351
  684MPD2    C110167   3.028   2.590  16.838  0.4641 -0.3644  0.1141
  684MPD2    C210168   2.919   2.637  16.771  0.1148 -0.0748 -0.4157
  684MPD2    C310169   2.865   2.748  16.830 -0.5414 -0.0261 -0.0888
  684MPD2    C410170   2.903   2.796  16.964 -0.6367  0.6279 -0.6768
  684MPD2    C510171   3.006   2.726  17.024  0.3531 -0.2867  0.1528
  684MPD2     H10172   2.893   2.600  16.673 -1.0321 -1.3478  0.3696
  684MPD2    H110173   2.861   2.886  17.006 -0.0364 -0.4152  2.1038
  684MPD2    H210174   3.150   2.566  17.007  0.7971 -0.2712 -2.1952
  684MPD2    H310175   3.042   2.767  17.118  1.0630 -2.0356  0.6310
  684MPD2     N10176   2.766   2.820  16.765 -0.2423 -0.2186 -0.0853
  684MPD2    H510177   2.760   2.919  16.785  1.5213 -0.1344  0.0374
  684MPD2    N110178   3.107   2.509  16.752 -0.6279  0.0900  0.0816
  684MPD2    H710179   3.081   2.500  16.655 -1.7950 -1.0916  0.4873
  685TMC3    C110180   3.310   2.433  16.644  0.0023 -0.0961 -0.3058
  685TMC3    C210181   3.252   2.427  16.523  0.8007  0.0593  0.2163
  685TMC3    C310182   3.337   2.378  16.426 -0.1270 -0.1162  1.2623
  685TMC3    C410183   3.447   2.411  16.660  0.6082 -0.6325 -0.0508
  685TMC3    C510184   3.525   2.362  16.559  0.1617  0.3492  0.0536
  685TMC3    C610185   3.469   2.346  16.437  0.8375 -0.0346  0.4772
  685TMC3     C10186   3.234   2.460  16.768  0.6162 -0.4001 -0.2508
  685TMC3     O10187   3.299   2.465  16.869  0.2070 -0.2040  0.4802
  685TMC3     H10188   3.150   2.462  16.522  0.2334 -1.6264 -1.7659
  685TMC3    H110189   3.487   2.436  16.758  2.3789  1.4016 -1.3023
  685TMC3    H210190   3.527   2.313  16.352 -3.2450 -0.7857 -1.9953
  685TMC3    C710191   3.665   2.331  16.598  0.2499  0.5269 -0.4626
  685TMC3    C810192   3.274   2.348  16.294  0.8968 -0.1574  0.2315
  685TMC3    O110193   3.692   2.351  16.715 -0.0278 -0.5221  0.7072
  685TMC3    O210194   3.358   2.351  16.202 -0.0428 -0.3170 -0.6958
  686MPD2     C10195   4.610   2.087  15.727  0.3941 -0.2172  0.3269
  686MPD2    C110196   4.618   1.978  15.805  0.9887 -0.3222  0.0989
  686MPD2    C210197   4.579   1.861  15.738  0.2610 -0.6379 -0.1433
  686MPD2    C310198   4.522   1.856  15.613  0.8036 -0.7955  0.2170
  686MPD2    C410199   4.503   1.973  15.550  0.1136 -0.6512 -0.5803
  686MPD2    C510200   4.552   2.086  15.604 -0.2550  0.3354  0.6889
  686MPD2     H10201   4.597   1.765  15.784  0.0272 -0.9162 -0.6404
  686MPD2    H110202   4.461   1.986  15.451  1.9283  0.8961 -1.1392
  686MPD2    H210203   4.662   2.176  15.761 -0.3449  0.7299 -1.0430
  686MPD2    H310204   4.549   2.180  15.550 -1.7617 -0.1583 -0.0804
  686MPD2     N10205   4.476   1.734  15.558  0.6761 -0.4538 -0.5043
  686MPD2    H510206   4.463   1.728  15.457 -2.0517  2.5146 -0.3298
  686MPD2    N110207   4.665   1.978  15.941  0.3113  0.1523  0.2453
  686MPD2    H710208   4.681   2.070  15.982 -0.7613  0.4873 -0.1003
  687TMC3    C110209   4.386   1.628  15.757  0.3845 -0.9125 -0.1672
  687TMC3    C210210   4.291   1.722  15.776 -0.6951 -0.0872 -0.0379
  687TMC3    C310211   4.218   1.708  15.892  0.9164  0.2838  0.8971
  687TMC3    C410212   4.420   1.535  15.853 -0.5997 -0.2279  0.2147
  687TMC3    C510213   4.348   1.540  15.973 -0.0480 -0.4305 -0.2042
  687TMC3    C610214   4.241   1.624  15.992 -0.4280 -0.1276 -0.1572
  687TMC3     C10215   4.460   1.617  15.630 -0.2255 -0.4695 -0.1361
  687TMC3     O10216   4.458   1.501  15.587  0.1383 -0.3764  0.4548
  687TMC3     H10217   4.267   1.806  15.712  0.8517  0.8466  0.6092
  687TMC3    H110218   4.498   1.461  15.838  0.9660  1.3807  0.5807
  687TMC3    H210219   4.183   1.636  16.083 -1.3511 -0.2291 -0.7336
  687TMC3    C710220   4.376   1.455  16.090 -0.2533  0.1270  0.4161
  687TMC3    C810221   4.161   1.827  15.939  0.9677 -0.0637 -0.2479
  687TMC3    O110222   4.276   1.412  16.148  0.1980  0.2354 -0.0821
  687TMC3    O210223   4.180   1.849  16.057  0.5395 -0.4364  0.3650
  688MPD2     C10224   3.567   0.898  17.467  0.1201 -0.4149 -0.9859
  688MPD2    C110225   3.606   0.774  17.515  0.5334  0.2199 -0.2438
  688MPD2    C210226   3.706   0.711  17.445 -0.2220  0.5685 -0.3760
  688MPD2    C310227   3.758   0.768  17.331  0.6011 -0.6140 -0.0948
  688MPD2    C410228   3.701   0.886  17.283 -0.5900 -0.5819 -0.2538
  688MPD2    C510229   3.606   0.955  17.353 -0.3909  0.0109 -0.2419
  688MPD2     H10230   3.751   0.619  17.480 -2.5571 -0.1544  0.7806
  688MPD2    H110231   3.735   0.928  17.189 -1.2092  0.2915 -0.0918
  688MPD2    H210232   3.485   0.946  17.518 -0.6428 -0.5945 -2.0268
  688MPD2    H310233   3.566   1.051  17.324 -0.1323  0.2727  0.2526
  688MPD2     N10234   3.868   0.714  17.259 -0.1492  0.0497  0.3763
  688MPD2    H510235   3.909   0.766  17.181 -2.5913  0.7250 -0.4490
  688MPD2    N110236   3.566   0.727  17.639  0.3224 -0.4834  0.6678
  688MPD2    H710237   3.598   0.632  17.652  0.0356 -0.4629  1.4814
  689TMC3    C110238   3.479   0.737   0.116 -0.4136  0.0563 -0.0215
  689TMC3    C210239   3.507   0.815   0.227 -0.0362  0.1818  0.1554
  689TMC3    C310240   3.514   0.749   0.344 -0.6812 -1.0229 -0.0697
  689TMC3    C410241   3.461   0.604   0.126 -0.0255 -0.2016 -0.0048
  689TMC3    C510242   3.470   0.540   0.250  0.2272  0.5740  0.3903
  689TMC3    C610243   3.490   0.617   0.362  0.0624 -0.1406 -0.6592
  689TMC3     C10244   3.499   0.802  17.736 -0.3253  0.8435  0.1977
  689TMC3     O10245   3.499   0.924  17.740 -0.2131 -0.5722 -0.1580
  689TMC3     H10246   3.534   0.918   0.212  0.4352 -0.0659 -0.6898
  689TMC3    H110247   3.460   0.541   0.038 -1.1762  0.4825 -0.4766
  689TMC3    H210248   3.513   0.577   0.460 -3.7258  3.1112  1.5501
  689TMC3    C710249   3.437   0.399   0.275 -0.2506  0.5855  0.1898
  689TMC3    C810250   3.524   0.821   0.468 -0.5508 -0.0398  0.2905
  689TMC3    O110251   3.489   0.336   0.367 -0.9187  0.7077 -0.3403
  689TMC3    O210252   3.544   0.767   0.570 -0.1500 -0.3167  0.1186
  690MPD2     C10253   1.433   2.858  15.517 -0.4631  0.3111  0.0513
  690MPD2    C110254   1.339   2.915  15.428  0.3061  0.5961  0.3079
  690MPD2    C210255   1.398   2.974  15.315  0.6145 -0.0725 -0.1788
  690MPD2    C310256   1.536   3.004  15.315  0.8044 -0.6837 -0.3691
  690MPD2    C410257   1.618   2.975  15.416 -0.4399 -0.0904  0.0378
  690MPD2    C510258   1.563   2.894  15.513 -0.2805 -0.2860  0.2736
  690MPD2     H10259   1.337   3.004  15.230  0.5618  0.0783 -0.0875
  690MPD2    H110260   1.725   2.993  15.416 -0.3820 -0.3925 -2.7055
  690MPD2    H210261   1.409   2.787  15.596  0.0087 -0.6486 -0.6794
  690MPD2    H310262   1.630   2.849  15.585 -0.3809  0.2809  0.7156
  690MPD2     N10263   1.586   3.079  15.202  0.3528  0.1346 -0.4595
  690MPD2    H510264   1.528   3.074  15.119  2.0233 -0.0397 -1.6217
  690MPD2    N110265   1.201   2.891  15.448  1.0239 -0.1051 -0.0772
  690MPD2    H710266   1.146   2.943  15.380  0.7776  1.9019  1.6507
  691TMC3    C110267   0.997   2.780  15.525 -0.3348  0.1476  1.0382
  691TMC3    C210268   0.926   2.809  15.407 -0.1468 -0.0252  0.3716
  691TMC3    C310269   0.792   2.771  15.406  0.8492  0.7307  0.3710
  691TMC3    C410270   0.935   2.713  15.634  0.7026  0.1434 -0.2312
  691TMC3    C510271   0.812   2.665  15.621 -0.8105 -0.4214  0.1652
  691TMC3    C610272   0.736   2.699  15.507  0.6169  0.3695  0.1694
  691TMC3     C10273   1.139   2.817  15.548  0.6381  0.1994 -0.3174
  691TMC3     O10274   1.184   2.760  15.649 -0.2830  0.6905  0.6417
  691TMC3     H10275   0.962   2.858  15.318 -0.5788 -0.2716  0.0601
  691TMC3    H110276   0.994   2.690  15.721 -0.3055  0.6031  0.5674
  691TMC3    H210277   0.637   2.661  15.487  1.0091 -0.5599  0.0132
  691TMC3    C710278   0.746   2.604  15.734  0.2672  0.2708  0.6994
  691TMC3    C810279   0.692   2.819  15.307 -0.2029  1.0040 -0.3330
  691TMC3    O110280   0.797   2.603  15.849  0.0530  0.0526  0.2655
  691TMC3    O210281   0.723   2.840  15.192 -0.4807 -0.5018  0.0354
  692TMC3    C110282   2.392   3.868  15.756  0.7296  0.6054  0.1887
  692TMC3    C210283   2.508   3.898  15.818 -0.0234 -0.2901  0.1873
  692TMC3    C310284   2.592   3.800  15.869  0.1416  0.0585 -0.2994
  692TMC3    C410285   2.345   3.744  15.753 -0.9967 -0.3689  0.1068
  692TMC3    C510286   2.421   3.647  15.809 -0.0446  0.3965  0.2071
  692TMC3    C610287   2.543   3.673  15.875 -0.2654  0.3856 -0.0350
  692TMC3     C10288   2.276   3.956  15.762  0.5285 -0.1439 -0.4856
  692TMC3     O10289   2.167   3.918  15.719 -0.0837  0.7225 -0.1501
  692TMC3     H10290   2.554   3.985  15.772  0.6093 -0.2644  0.8677
  692TMC3    H110291   2.250   3.717  15.709 -1.8296  3.0146 -0.1517
  692TMC3    H210292   2.614   3.595  15.900 -1.2034 -0.6949 -0.7688
  692TMC3    C710293   2.385   3.506  15.788 -0.3548 -0.1836  0.6986
  692TMC3    C810294   2.671   3.839  15.984 -0.8853  0.3258 -0.1433
  692TMC3    O110295   2.296   3.482  15.707  0.3944 -0.3776  0.8568
  692TMC3    O210296   2.688   3.752  16.065 -0.0092 -0.0777 -0.3258
  693MPD2     C10297   1.762   2.264  10.683 -0.5557 -0.9169 -0.1521
  693MPD2    C110298   1.678   2.156  10.719  0.8525 -0.4919 -0.3772
  693MPD2    C210299   1.719   2.079  10.827 -0.1155  0.1320  0.1881
  693MPD2    C310300   1.822   2.120  10.899 -0.1415  0.1270  0.4163
  693MPD2    C410301   1.902   2.222  10.865  0.3677  0.6677 -0.7142
  693MPD2    C510302   1.878   2.287  10.746 -0.9353 -0.0497 -0.1399
  693MPD2     H10303   1.668   1.988  10.857  1.1817 -0.7253 -0.1785
  693MPD2    H110304   1.981   2.248  10.935 -0.0665 -1.6591  0.6301
  693MPD2    H210305   1.725   2.319  10.598  1.4792  2.9179  1.4618
  693MPD2    H310306   1.931   2.380  10.730 -0.2927 -0.5410 -0.8851
  693MPD2     N10307   1.866   2.053  11.014  0.5006 -0.8711 -0.5210
  693MPD2    H510308   1.953   2.085  11.055  0.9105 -3.4364  0.5976
  693MPD2    N110309   1.567   2.126  10.643  0.1774  0.0099 -0.5597
  693MPD2    H710310   1.509   2.204  10.612 -1.2763 -1.1698 -0.8441
  694TMC3    C110311   1.363   2.011  10.620 -0.9451 -0.5099  0.5188
  694TMC3    C210312   1.296   1.894  10.580  0.5430 -0.3373  0.3586
  694TMC3    C310313   1.161   1.913  10.599 -0.0571  0.8154 -0.4823
  694TMC3    C410314   1.301   2.108  10.694  0.7736  0.6387 -0.4008
  694TMC3    C510315   1.165   2.106  10.718  0.4131  0.0671  0.2746
  694TMC3    C610316   1.085   2.009  10.664 -0.3993  0.2840 -0.3601
  694TMC3     C10317   1.506   2.006  10.641 -0.2463  0.3040 -0.0408
  694TMC3     O10318   1.558   1.899  10.664  0.2751  1.0648  0.1753
  694TMC3     H10319   1.335   1.809  10.525  0.0670 -0.6685  0.5280
  694TMC3    H110320   1.364   2.181  10.743  1.4038 -0.2716  0.1501
  694TMC3    H210321   0.977   2.002  10.675 -0.3644  0.2978  0.0142
  694TMC3    C710322   1.121   2.161  10.847  0.7650 -0.9542  0.5594
  694TMC3    C810323   1.078   1.807  10.538  0.7872  0.0281 -0.2475
  694TMC3    O110324   1.152   2.276  10.879 -0.8613 -0.0403  0.1022
  694TMC3    O210325   0.970   1.775  10.589  0.3502  0.2409 -0.1370
  695MPD2     C10326   3.017   3.946  13.349  0.3062  0.6971  0.5352
  695MPD2    C110327   2.971   3.958  13.481  0.3635  0.0901  0.0833
  695MPD2    C210328   2.835   4.005  13.499  0.7498 -0.1878  0.9728
  695MPD2    C310329   2.751   4.036  13.390  0.2533  0.0065 -0.1880
  695MPD2    C410330   2.802   4.019  13.262  0.4445 -0.4343 -0.0069
  695MPD2    C510331   2.934   3.975  13.243  0.9138  0.0652 -0.1738
  695MPD2     H10332   2.802   4.022  13.601 -0.6768  2.6250  0.0486
  695MPD2    H110333   2.742   4.038  13.174 -1.2377 -2.6966  0.6572
  695MPD2    H210334   3.119   3.914  13.330  0.2137 -1.0421  2.9206
  695MPD2    H310335   2.973   3.956  13.144 -0.8639 -0.1642 -0.8435
  695MPD2     N10336   2.623   4.082  13.419 -0.0846  0.1186  0.0215
  695MPD2    H510337   2.601   4.086  13.518  0.6207  0.0550  0.1764
  695MPD2    N110338   3.052   3.912  13.590  0.3854 -0.1056 -0.0870
  695MPD2    H710339   3.004   3.923  13.679  0.0242  1.3774 -0.4574
  696TMC3    C110340   2.397   4.110  13.401  0.4774  0.2964 -0.2558
  696TMC3    C210341   2.389   4.040  13.516 -0.7673 -0.6378  0.2286
  696TMC3    C310342   2.263   4.043  13.576 -0.3935  0.0164  0.2336
  696TMC3    C410343   2.300   4.191  13.358  0.2361 -0.6757  0.9011
  696TMC3    C510344   2.188   4.209  13.432  0.3549  0.9406 -0.1473
  696TMC3    C610345   2.162   4.136  13.545 -0.6325  0.1366 -0.0970
  696TMC3     C10346   2.520   4.096  13.328  0.2225  0.1657 -0.1459
  696TMC3     O10347   2.521   4.095  13.205  0.2022 -0.3826 -0.4703
  696TMC3     H10348   2.462   3.963  13.537  0.6893  0.0899 -2.1384
  696TMC3    H110349   2.319   4.243  13.265 -1.8262  1.8918  1.8833
  696TMC3    H210350   2.068   4.137  13.598 -0.0492 -0.6220  0.9496
  696TMC3    C710351   2.101   4.323  13.398  0.1931 -0.8730  0.4196
  696TMC3    C810352   2.265   3.998  13.715  0.5792 -0.1821  0.2516
  696TMC3    O110353   2.084   4.341  13.279  0.4314  0.5827  0.0128
  696TMC3    O210354   2.372   3.994  13.770 -0.0737  0.2404 -0.4369
  697MPD2     C10355   2.414   0.720  15.673  0.3007  0.2795  0.0310
  697MPD2    C110356   2.309   0.698  15.590  0.2607  0.2940  0.0379
  697MPD2    C210357   2.288   0.785  15.480  0.0477 -0.2363 -0.7927
  697MPD2    C310358   2.373   0.884  15.449  0.1479 -0.1061  0.5386
  697MPD2    C410359   2.482   0.900  15.524 -0.6295 -0.2418  0.7129
  697MPD2    C510360   2.502   0.825  15.640 -0.4584 -0.3075  0.3298
  697MPD2     H10361   2.200   0.778  15.417  0.1687 -0.4974 -0.9348
  697MPD2    H110362   2.544   0.988  15.515 -1.7536  0.3564 -1.0561
  697MPD2    H210363   2.440   0.661  15.760 -1.2403  0.2565  0.4804
  697MPD2    H310364   2.576   0.855  15.713 -0.6783  0.0619  0.3980
  697MPD2     N10365   2.349   0.970  15.339 -0.0899 -0.5892  0.0659
  697MPD2    H510366   2.257   0.948  15.303  0.1125  0.8549 -1.3129
  697MPD2    N110367   2.222   0.584  15.608 -0.5113 -0.1285  0.1071
  697MPD2    H710368   2.139   0.591  15.549 -0.1089 -0.4713 -0.4986
  698TMC3    C110369   2.403   1.120  15.163  0.7744 -0.1864 -0.2448
  698TMC3    C210370   2.388   1.258  15.171 -0.4624 -0.2956  0.8593
  698TMC3    C310371   2.297   1.309  15.077 -0.0397 -0.2699  0.8280
  698TMC3    C410372   2.339   1.044  15.066  0.3469 -0.1895  0.6139
  698TMC3    C510373   2.260   1.106  14.974 -0.2022 -0.2662 -0.1975
  698TMC3    C610374   2.239   1.242  14.973  0.1990  0.0283  0.0426
  698TMC3     C10375   2.441   1.055  15.282  0.0431  0.3109  0.2458
  698TMC3     O10376   2.552   1.091  15.328 -0.3726  0.7134  0.3066
  698TMC3     H10377   2.442   1.305  15.253 -1.2979 -0.1635  1.3375
  698TMC3    H110378   2.341   0.936  15.075 -0.5603 -0.2935 -0.3857
  698TMC3    H210379   2.164   1.298  14.917  1.1313  0.2688 -0.9778
  698TMC3    C710380   2.228   1.042  14.849 -0.1768  0.4966 -0.5301
  698TMC3    C810381   2.279   1.453  15.073  0.7076  0.8296 -0.1212
  698TMC3    O110382   2.119   1.061  14.799 -0.2497 -0.5220 -0.5764
  698TMC3    O210383   2.182   1.495  15.010  0.2447  0.3537 -0.0693
  699TMC3    C110384   2.198   4.084  13.049 -0.1752  0.1686 -0.0830
  699TMC3    C210385   2.249   3.959  13.078 -0.7117  0.3161 -0.0619
  699TMC3    C310386   2.176   3.858  13.131  0.2337  0.5801 -0.8376
  699TMC3    C410387   2.064   4.105  13.070  0.1658 -0.2620 -0.2552
  699TMC3    C510388   1.992   3.996  13.114 -0.5526  0.3820 -0.1918
  699TMC3    C610389   2.040   3.874  13.139 -0.0745 -0.0862 -0.4522
  699TMC3     C10390   2.254   4.156  12.938 -0.9913  0.8834  0.3507
  699TMC3     O10391   2.170   4.219  12.869  0.3670  0.7124 -0.2673
  699TMC3     H10392   2.354   3.943  13.061 -0.9771 -0.7900 -0.7230
  699TMC3    H110393   2.029   4.204  13.043  0.9130 -0.6990 -2.8408
  699TMC3    H210394   1.979   3.795  13.184  1.2201  0.3900  2.1314
  699TMC3    C710395   1.855   4.028  13.157  0.4899 -0.4209  0.4783
  699TMC3    C810396   2.240   3.768  13.218  0.7909  0.8190  0.5395
  699TMC3    O110397   1.796   3.958  13.237  0.1119 -0.1811  0.0824
  699TMC3    O210398   2.159   3.731  13.297  0.8228  0.5831  0.0984
  700TMC3    C110399   1.310   1.220  17.254  0.2431 -0.6647  0.5256
  700TMC3    C210400   1.364   1.098  17.275  0.6994  0.0183  0.0293
  700TMC3    C310401   1.455   1.085  17.374  0.3863 -0.0829  0.2684
  700TMC3    C410402   1.336   1.325  17.342  0.5990  0.2613 -0.1843
  700TMC3    C510403   1.412   1.302  17.453 -0.2446  0.1086  0.4688
  700TMC3    C610404   1.489   1.190  17.457  0.2525  0.0415  0.4642
  700TMC3     C10405   1.313   1.252  17.110  0.1422 -0.1193 -0.5102
  700TMC3     O10406   1.266   1.166  17.036  0.3655 -0.8553  0.5508
  700TMC3     H10407   1.349   1.023  17.197  3.0853  1.6469 -1.9699
  700TMC3    H110408   1.287   1.420  17.322  1.8155  0.7077 -1.0602
  700TMC3    H210409   1.560   1.177  17.537  3.5306 -1.1556 -2.6401
  700TMC3    C710410   1.451   1.418  17.532  0.9325 -0.4965 -0.1714
  700TMC3    C810411   1.535   0.971  17.383 -0.4941 -0.4815  0.7045
  700TMC3    O110412   1.569   1.427  17.562 -0.3851  0.0634  0.6657
  700TMC3    O210413   1.645   0.973  17.430  0.4820 -0.3046  0.5299
  701TMC3    C110414   1.578   0.222  15.788 -1.0378  0.3141 -0.0354
  701TMC3    C210415   1.577   0.153  15.664 -0.7565  0.0897 -0.3777
  701TMC3    C310416   1.669   0.198  15.579 -0.6599 -0.4274  0.2104
  701TMC3    C410417   1.659   0.327  15.825 -0.0558 -0.8403 -0.6233
  701TMC3    C510418   1.744   0.371  15.734 -0.1683 -0.1452 -0.3256
  701TMC3    C610419   1.748   0.306  15.611 -0.4652 -0.1209 -0.5897
  701TMC3     C10420   1.466   0.194  15.876 -0.3536 -0.0325  0.7013
  701TMC3     O10421   1.460   0.251  15.984  0.0173 -0.1956  0.5538
  701TMC3     H10422   1.534   0.054  15.654  1.3235 -0.7257 -1.1259
  701TMC3    H110423   1.644   0.371  15.923  0.0213  1.1133 -1.4702
  701TMC3    H210424   1.819   0.322  15.531 -1.0475 -2.5662 -1.6144
  701TMC3    C710425   1.850   0.468  15.761  0.3588 -0.3989 -0.4693
  701TMC3    C810426   1.692   0.123  15.460  0.0379 -0.2314 -0.0339
  701TMC3    O110427   1.882   0.546  15.663 -0.3877  0.6463 -0.3857
  701TMC3    O210428   1.811   0.111  15.426  0.0341 -0.0803  0.0788
  702MPD2     C10429   0.833   2.681  10.481 -0.0960  0.4140  0.0082
  702MPD2    C110430   0.772   2.797  10.528  0.2481  0.4321 -0.3132
  702MPD2    C210431   0.817   2.922  10.488 -0.1091  0.2887  0.3020
  702MPD2    C310432   0.911   2.938  10.387  1.1265  0.2941  1.1073
  702MPD2    C410433   0.970   2.820  10.338  0.3355 -0.2773  0.0308
  702MPD2    C510434   0.935   2.694  10.386  0.1897  0.2321  0.1752
  702MPD2     H10435   0.777   3.008  10.541 -2.1140 -1.0920  1.0328
  702MPD2    H110436   1.035   2.824  10.252 -0.5143 -0.8046 -0.6313
  702MPD2    H210437   0.802   2.585  10.520  1.8012 -0.1596  0.0805
  702MPD2    H310438   0.974   2.605  10.338  1.2180  0.2233  1.0309
  702MPD2     N10439   0.962   3.059  10.335 -0.0153 -0.5617  0.1321
  702MPD2    H510440   1.022   3.054  10.254  0.3977  2.1461  0.2503
  702MPD2    N110441   0.668   2.794  10.624  0.3631 -0.1618 -0.5653
  702MPD2    H710442   0.638   2.880  10.669  2.8238 -0.4879  1.7618
  703TMC3    C110443   0.988   3.282  10.286 -0.7774  0.0282 -0.1851
  703TMC3    C210444   0.910   3.393  10.274  0.1136 -0.2325 -0.2630
  703TMC3    C310445   0.965   3.519  10.278 -0.8813  0.2209  0.4264
  703TMC3    C410446   1.125   3.296  10.308 -0.7473  0.0238  0.4903
  703TMC3    C510447   1.183   3.418  10.312  0.5637 -0.0201  0.0446
  703TMC3    C610448   1.102   3.532  10.292 -0.8809 -0.5369 -0.4317
  703TMC3     C10449   0.919   3.188  10.369 -0.0081 -0.1174  0.4058
  703TMC3     O10450   0.824   3.225  10.436  0.1955  0.1233  0.1795
  703TMC3     H10451   0.802   3.380  10.269  0.1971 -0.9433 -0.1547
  703TMC3    H110452   1.180   3.205  10.334  1.5212  0.9500 -1.0574
  703TMC3    H210453   1.152   3.626  10.313 -0.6818 -1.1491  1.8479
  703TMC3    C710454   1.326   3.436  10.335 -0.2534  0.2259 -0.4309
  703TMC3    C810455   0.883   3.604  10.352  0.7581  0.4749 -0.3624
  703TMC3    O110456   1.370   3.549  10.310  0.0735  0.6839 -0.5346
  703TMC3    O210457   0.917   3.722  10.348 -0.2894 -0.5851  0.2882
  704TMC3    C110458   3.379   1.303  12.390 -0.7588  0.1217  0.3373
  704TMC3    C210459   3.320   1.301  12.270 -0.1080  0.1253 -0.8653
  704TMC3    C310460   3.407   1.282  12.157 -0.8421  0.2176  0.2830
  704TMC3    C410461   3.513   1.312  12.406 -0.2437 -0.3117 -0.2036
  704TMC3    C510462   3.594   1.283  12.297 -0.1713 -0.4135  0.0812
  704TMC3    C610463   3.540   1.272  12.173 -0.3539 -0.8413  0.4761
  704TMC3     C10464   3.319   1.203  12.471 -0.3123  0.3890  0.2157
  704TMC3     O10465   3.197   1.204  12.466 -0.0859  0.2824  0.2090
  704TMC3     H10466   3.213   1.302  12.252 -0.4294 -1.3282  0.9581
  704TMC3    H110467   3.554   1.333  12.504 -0.0476 -2.4405  0.1758
  704TMC3    H210468   3.612   1.240  12.098 -0.5814  1.3899 -0.6944
  704TMC3    C710469   3.667   1.157  12.327  0.2480 -0.0438 -0.4288
  704TMC3    C810470   3.345   1.202  12.052  0.1942  0.0969  0.0375
  704TMC3    O110471   3.627   1.053  12.273  0.3753  0.6161  0.4995
  704TMC3    O210472   3.233   1.158  12.071  0.2176  0.0154 -0.0861
  705MPD2     C10473   2.612   3.334  16.446  0.0753  0.5374 -0.6805
  705MPD2    C110474   2.636   3.461  16.395  0.5023  0.2131 -0.4105
  705MPD2    C210475   2.547   3.569  16.424 -0.3746 -0.2087 -0.3190
  705MPD2    C310476   2.424   3.542  16.483  0.2518 -0.1896 -0.2583
  705MPD2    C410477   2.396   3.410  16.526 -0.9838 -0.5915  0.3397
  705MPD2    C510478   2.488   3.308  16.505 -0.6847  0.1233  0.1854
  705MPD2     H10479   2.568   3.665  16.379  2.2065  0.2197  1.8283
  705MPD2    H110480   2.306   3.394  16.585 -1.2501  2.9512  0.9127
  705MPD2    H210481   2.667   3.242  16.428  0.9382  1.0262 -0.5331
  705MPD2    H310482   2.472   3.212  16.554  1.8887 -0.4054  0.0003
  705MPD2     N10483   2.316   3.634  16.501 -0.0437  0.0769 -0.1138
  705MPD2    H510484   2.222   3.608  16.529 -0.8381  1.5679 -1.4092
  705MPD2    N110485   2.733   3.485  16.288  0.0886 -0.2858 -0.1786
  705MPD2    H710486   2.768   3.579  16.278 -0.2095 -0.4620 -2.7257
  706TMC3    C110487   3.021   3.353  15.938 -0.2783  0.3971 -0.1272
  706TMC3    C210488   3.076   3.476  15.923 -0.4035 -0.1863  0.2758
  706TMC3    C310489   3.042   3.565  16.020 -0.3386 -0.2552 -0.3844
  706TMC3    C410490   2.927   3.328  16.027 -0.2477 -0.3547 -0.4094
  706TMC3    C510491   2.898   3.422  16.125  0.1513 -0.9953  0.4793
  706TMC3    C610492   2.952   3.542  16.123  0.5355 -0.0649 -0.1438
  706TMC3     C10493   3.077   3.240  15.858 -0.2461  1.0087 -0.2843
  706TMC3     O10494   3.032   3.125  15.875 -0.0840 -0.1749 -0.2491
  706TMC3     H10495   3.154   3.497  15.851 -0.8213  3.6093  0.9451
  706TMC3    H110496   2.873   3.235  16.011  1.0181 -1.1999  0.1548
  706TMC3    H210497   2.934   3.618  16.198  1.0788 -1.3995  1.3252
  706TMC3    C710498   2.788   3.385  16.214 -0.2358  0.4410  0.1360
  706TMC3    C810499   3.112   3.688  16.015 -0.4539  1.2045 -0.1248
  706TMC3    O110500   2.761   3.268  16.213  0.0541  0.0017 -0.1505
  706TMC3    O210501   3.146   3.737  15.909 -0.2625  0.1355  0.7839
  707TMC3    C110502   4.234   1.910   1.230 -0.4422  0.1236 -0.3276
  707TMC3    C210503   4.303   1.821   1.309 -0.0045  0.4638 -0.3429
  707TMC3    C310504   4.231   1.748   1.394  0.0461  0.5768  0.7832
  707TMC3    C410505   4.094   1.928   1.236  0.5558 -0.0300 -0.1055
  707TMC3    C510506   4.033   1.839   1.322 -0.0106 -0.9832 -0.5782
  707TMC3    C610507   4.096   1.746   1.402  0.2816 -0.5440  0.3604
  707TMC3     C10508   4.311   1.938   1.112 -0.0040  0.1349  0.1137
  707TMC3     O10509   4.398   1.859   1.084  0.5087 -0.2058 -0.0407
  707TMC3     H10510   4.411   1.826   1.296  0.0317  0.3081 -0.1153
  707TMC3    H110511   4.042   2.009   1.185 -1.1674 -1.0769  0.0166
  707TMC3    H210512   4.049   1.673   1.467 -2.1402 -0.6020 -1.4356
  707TMC3    C710513   3.909   1.893   1.383 -0.0364  0.0100 -0.1546
  707TMC3    C810514   4.276   1.611   1.407  0.0767 -0.2318  0.0821
  707TMC3    O110515   3.874   2.006   1.353  0.5134  0.3564 -0.4194
  707TMC3    O210516   4.234   1.542   1.499  0.0716 -0.0090  0.0275
  708MPD2     C10517   1.019   2.028  14.206  0.2515  0.1785  0.4971
  708MPD2    C110518   1.107   1.986  14.108 -0.0565  0.1732  0.7681
  708MPD2    C210519   1.231   2.048  14.090 -0.7432  0.5881 -0.0399
  708MPD2    C310520   1.272   2.144  14.176 -0.2449  0.0273 -0.6136
  708MPD2    C410521   1.189   2.178  14.282 -1.3143 -0.4459  0.2015
  708MPD2    C510522   1.061   2.127  14.292 -0.6926 -0.0924 -0.1545
  708MPD2     H10523   1.297   2.000  14.020  1.1200  2.0419  0.7177
  708MPD2    H110524   1.213   2.247  14.362  2.9505  0.5765 -1.9563
  708MPD2    H210525   0.920   1.987  14.219 -0.1377  1.5708  1.9035
  708MPD2    H310526   0.998   2.161  14.373 -4.6789 -2.3053 -2.3351
  708MPD2     N10527   1.397   2.209  14.164 -0.5176  0.0379 -0.4153
  708MPD2    H510528   1.405   2.296  14.215  2.8151 -0.4956 -0.0461
  708MPD2    N110529   1.072   1.894  14.005  0.2248 -0.4434 -0.0666
  708MPD2    H710530   1.138   1.887  13.928 -0.7347 -2.1877 -0.7344
  709TMC3    C110531   0.936   1.784  13.844 -0.3222 -0.1451 -0.1553
  709TMC3    C210532   0.837   1.834  13.767  0.2851  0.5190 -0.7157
  709TMC3    C310533   0.853   1.862  13.633  0.6409  0.7511 -0.1708
  709TMC3    C410534   1.064   1.776  13.786 -0.1129  0.2177  0.4325
  709TMC3    C510535   1.086   1.837  13.665  0.2357 -0.1744 -0.3964
  709TMC3    C610536   0.978   1.877  13.583  0.2677 -0.1124 -0.1942
  709TMC3     C10537   0.942   1.850  13.978  0.3959  0.7531 -0.3925
  709TMC3     O10538   0.835   1.886  14.025 -0.1393  0.6597  0.1613
  709TMC3     H10539   0.737   1.837  13.808  0.3180  0.0721 -0.6053
  709TMC3    H110540   1.150   1.733  13.835  0.8828 -0.5148 -1.9491
  709TMC3    H210541   0.976   1.961  13.515  1.1884 -0.9044 -1.2138
  709TMC3    C710542   1.184   1.940  13.671  0.0128  0.2698  0.0339
  709TMC3    C810543   0.741   1.903  13.553  0.2431  0.4193 -0.1616
  709TMC3    O110544   1.236   1.960  13.776  0.4953  0.2711  0.3268
  709TMC3    O210545   0.650   1.962  13.607  0.7977  0.0465 -0.1431
  710TMC3    C110546   1.942   3.615   0.069 -0.3359 -0.0891  0.5655
  710TMC3    C210547   1.963   3.560  17.702 -0.1711 -0.2480  0.1184
  710TMC3    C310548   1.978   3.423  17.695 -0.0165  0.0608  0.1145
  710TMC3    C410549   1.915   3.539   0.183  0.1681 -0.2196 -0.2750
  710TMC3    C510550   1.904   3.400   0.161 -0.1152 -0.6773  0.3796
  710TMC3    C610551   1.939   3.339   0.044  0.1899  0.1459 -0.2471
  710TMC3     C10552   1.919   3.759   0.071  0.1783  1.0039 -0.4189
  710TMC3     O10553   1.925   3.829  17.723 -0.1886 -0.0751 -0.1637
  710TMC3     H10554   1.977   3.624  17.616 -0.4879 -0.2982  0.0298
  710TMC3    H110555   1.872   3.581   0.273 -1.1337 -0.9958 -0.5248
  710TMC3    H210556   1.943   3.230   0.049 -0.6814  0.1594  0.8152
  710TMC3    C710557   1.916   3.311   0.273  0.1982  0.0504 -0.5731
  710TMC3    C810558   2.087   3.374  17.606  0.5144  0.7289  0.4680
  710TMC3    O110559   1.965   3.201   0.259 -0.0618 -0.8527  0.1903
  710TMC3    O210560   2.155   3.461  17.554  0.1486 -0.1187  0.3244
  711TMC3    C110561   2.024   4.709  14.959  0.4214 -0.2450  0.6489
  711TMC3    C210562   2.031   4.721  15.093  0.4545  0.5773  0.6416
  711TMC3    C310563   2.153   4.686  15.154 -0.4766 -0.1629 -0.1326
  711TMC3    C410564   2.127   4.648  14.889 -0.5914 -0.2912 -0.2869
  711TMC3    C510565   2.250   4.617  14.948  0.0633  0.5387 -0.4378
  711TMC3    C610566   2.265   4.650  15.083 -0.5245  0.1579  0.0329
  711TMC3     C10567   1.897   4.680  14.898 -0.0415 -0.1724 -0.0323
  711TMC3     O10568   1.910   4.586  14.818 -0.3219  0.1322 -0.1807
  711TMC3     H10569   1.943   0.011  15.151  0.3868 -0.0722  0.8651
  711TMC3    H110570   2.115   4.643  14.781 -2.1003 -1.1878 -0.0736
  711TMC3    H210571   2.362   4.626  15.126  0.1856  1.3639 -0.8817
  711TMC3    C710572   2.272   4.476  14.942  0.9678 -0.6591  0.2028
  711TMC3    C810573   2.145   4.611  15.278 -0.2736 -0.6926 -0.5385
  711TMC3    O110574   2.375   4.438  14.991 -0.2351  0.3735  0.2135
  711TMC3    O210575   2.037   4.560  15.306 -0.6297  0.0163  0.2371
  712MPD2     C10576   2.646   0.895  13.776  0.1429  0.4049 -0.1021
  712MPD2    C110577   2.782   0.870  13.783 -0.4428  0.1858  0.3157
  712MPD2    C210578   2.865   0.970  13.836 -0.4867 -0.4751 -0.4905
  712MPD2    C310579   2.814   1.095  13.866  0.0995 -0.0821 -0.4006
  712MPD2    C410580   2.678   1.120  13.854  0.1288 -0.5235  0.0352
  712MPD2    C510581   2.598   1.020  13.802  0.2506 -0.0369  0.0279
  712MPD2     H10582   2.970   0.945  13.833 -0.4412 -0.2483 -0.9010
  712MPD2    H110583   2.643   1.216  13.890 -2.2547 -1.3140 -0.1992
  712MPD2    H210584   2.574   0.820  13.746  0.6627  0.2863 -1.0390
  712MPD2    H310585   2.494   1.042  13.780  0.2586  0.3026  0.3282
  712MPD2     N10586   2.904   1.204  13.905  0.3152  0.2012 -0.4970
  712MPD2    H510587   2.853   1.291  13.915  1.8808  0.8858  1.5247
  712MPD2    N110588   2.815   0.738  13.756  0.2631  0.1884 -0.1301
  712MPD2    H710589   2.745   0.673  13.722  0.8047 -0.8003  0.6288
  713TMC3    C110590   3.097   1.306  13.986  0.3070 -0.2681 -0.0949
  713TMC3    C210591   3.221   1.324  13.927  1.0963  1.1280 -0.6381
  713TMC3    C310592   3.253   1.444  13.869 -1.0429  0.6442 -0.2296
  713TMC3    C410593   3.014   1.414  13.998  0.1434  0.3854  0.6445
  713TMC3    C510594   3.055   1.531  13.942 -0.3175 -0.1142  0.5214
  713TMC3    C610595   3.173   1.551  13.876  0.2234  0.1043  0.0330
  713TMC3     C10596   3.031   1.185  13.951 -0.6786 -0.0512  0.9121
  713TMC3     O10597   3.103   1.086  13.954 -0.8028 -0.6466  0.4487
  713TMC3     H10598   3.286   1.240  13.946 -1.0897 -0.2711  0.7144
  713TMC3    H110599   2.930   1.401  14.065 -1.2870  0.3845 -1.1433
  713TMC3    H210600   3.209   1.642  13.830  1.1222  1.3029  3.0996
  713TMC3    C710601   2.977   1.643  13.973  0.2569  0.3045  0.4800
  713TMC3    C810602   3.365   1.451  13.782 -0.5424 -0.4186  0.0024
  713TMC3    O110603   3.003   1.699  14.078 -0.0577  0.1548  0.0665
  713TMC3    O210604   3.394   1.556  13.730  0.0294 -0.2310  0.2255
  714MPD2     C10605   0.786   4.130   1.333 -0.0501  0.1449 -0.8266
  714MPD2    C110606   0.829   4.035   1.247  0.3021  0.0251  0.0985
  714MPD2    C210607   0.750   4.009   1.133 -0.0539  0.4636 -0.5018
  714MPD2    C310608   0.640   4.088   1.104 -0.5999  0.2073  0.0035
  714MPD2    C410609   0.611   4.198   1.180  0.8080  0.4641  1.1238
  714MPD2    C510610   0.676   4.209   1.298  0.5996 -0.4010  0.3024
  714MPD2     H10611   0.781   3.933   1.062 -0.5701 -1.0928  0.9542
  714MPD2    H110612   0.540   4.276   1.157 -2.0945 -2.5506 -0.1768
  714MPD2    H210613   0.844   4.152   1.422  2.0161  0.9983 -2.3679
  714MPD2    H310614   0.642   4.296   1.354 -1.1685 -0.5861 -0.4689
  714MPD2     N10615   0.570   4.050   0.990  0.3642 -0.1941  0.7266
  714MPD2    H510616   0.598   3.964   0.945  2.7767  1.6790 -1.3176
  714MPD2    N110617   0.947   3.971   1.274 -0.1037 -0.0913  0.1985
  714MPD2    H710618   0.993   3.983   1.364  0.5981 -2.8840  0.2171
  715TMC3    C110619   1.122   3.820   1.260 -0.3631 -0.1225 -0.4651
  715TMC3    C210620   1.171   3.701   1.207  0.3413 -0.2897  0.3352
  715TMC3    C310621   1.282   3.647   1.270 -0.2739  0.0492  0.2366
  715TMC3    C410622   1.191   3.881   1.358 -0.4163  0.4232  0.5116
  715TMC3    C510623   1.306   3.826   1.409  0.1467  0.7502 -1.0363
  715TMC3    C610624   1.351   3.709   1.367  0.0609 -0.3419 -0.4062
  715TMC3     C10625   1.009   3.880   1.192 -0.4620 -0.4965  0.9400
  715TMC3     O10626   0.967   3.813   1.097 -0.0135 -0.2457 -0.1895
  715TMC3     H10627   1.116   3.645   1.132 -0.0741 -0.1716  0.5471
  715TMC3    H110628   1.162   3.983   1.383  0.3821  0.6375  0.5451
  715TMC3    H210629   1.426   3.662   1.430  1.0390  0.1466 -1.2105
  715TMC3    C710630   1.383   3.890   1.513  0.2291 -0.7400 -0.1638
  715TMC3    C810631   1.330   3.522   1.214 -0.0024 -0.1710 -0.0576
  715TMC3    O110632   1.494   3.842   1.535  0.2342 -0.1954 -0.4666
  715TMC3    O210633   1.243   3.454   1.160 -0.2791  0.2251  0.1940
  716MPD2     C10634   0.286   2.977   9.889  0.0803 -0.0712 -0.1882
  716MPD2    C110635   0.406   2.957   9.830 -0.2103  0.2341  0.4457
  716MPD2    C210636   0.458   2.832   9.838 -0.0549 -0.3992  0.2361
  716MPD2    C310637   0.392   2.730   9.907  0.6297 -0.7127  0.1203
  716MPD2    C410638   0.269   2.754   9.966 -0.0396 -0.0775 -0.0394
  716MPD2    C510639   0.226   2.886   9.966  0.0676  0.0462 -0.7432
  716MPD2     H10640   0.550   2.807   9.787  0.7789  2.4317  0.3929
  716MPD2    H110641   0.221   2.686  10.035  0.4783  0.4544  0.8455
  716MPD2    H210642   0.231   3.068   9.864  1.0376  0.3480 -0.7584
  716MPD2    H310643   0.133   2.903  10.019  1.3553 -1.7300  2.0893
  716MPD2     N10644   0.452   2.604   9.911 -0.1997 -0.1926  0.4931
  716MPD2    H510645   0.538   2.600   9.858  0.5239  0.8792  1.5851
  716MPD2    N110646   0.458   3.069   9.760 -0.3010  0.4421  0.4224
  716MPD2    H710647   0.396   3.150   9.758 -2.0277 -0.9179 -0.4817
  717TMC3    C110648   0.487   2.373   9.932  0.0175  0.5615  0.2156
  717TMC3    C210649   0.563   2.370   9.815  0.3205  0.3373  0.3884
  717TMC3    C310650   0.643   2.260   9.787 -0.0139  0.3362  0.3031
  717TMC3    C410651   0.478   2.259  10.015  0.2214 -0.1620 -0.6260
  717TMC3    C510652   0.560   2.149   9.978 -0.2191 -0.3604  0.7936
  717TMC3    C610653   0.640   2.154   9.870  0.1657 -0.4543  0.1444
  717TMC3     C10654   0.409   2.491   9.976 -0.1978 -0.7515 -0.1502
  717TMC3     O10655   0.323   2.480  10.066  0.2692  0.9280 -0.1484
  717TMC3     H10656   0.569   2.457   9.752 -1.2541  0.2426  0.0964
  717TMC3    H110657   0.425   2.266  10.110  0.5584  0.2932 -0.4732
  717TMC3    H210658   0.704   2.067   9.862  1.9297  0.7451  1.2543
  717TMC3    C710659   0.560   2.032  10.065  0.1135 -0.3762 -0.0668
  717TMC3    C810660   0.704   2.259   9.653  0.2012 -0.3719 -0.1534
  717TMC3    O110661   0.536   2.047  10.183 -0.6967  0.4115 -0.7621
  717TMC3    O210662   0.677   2.352   9.578 -0.0201  0.0669 -0.3183
  718MPD2     C10663   0.506   1.238  12.809 -0.3656 -0.1685  0.0450
  718MPD2    C110664   0.512   1.143  12.717  0.0563  1.1671  0.0538
  718MPD2    C210665   0.444   1.022  12.732 -0.5684 -0.0915 -0.2744
  718MPD2    C310666   0.366   0.995  12.840  0.7017  0.0276 -0.3820
  718MPD2    C410667   0.368   1.087  12.944 -0.1117 -0.1560 -1.1354
  718MPD2    C510668   0.438   1.207  12.924  0.3092  0.0514  0.4454
  718MPD2     H10669   0.439   0.953  12.648  1.3834  2.4620 -2.4853
  718MPD2    H110670   0.317   1.072  13.039 -0.3303  0.8427 -1.0978
  718MPD2    H210671   0.559   1.332  12.796  1.0600 -1.3694 -2.7893
  718MPD2    H310672   0.438   1.275  13.008 -1.8709 -0.1627  0.6192
  718MPD2     N10673   0.291   0.883  12.838 -0.0218 -0.2545 -0.1567
  718MPD2    H510674   0.278   0.843  12.746  1.2300 -4.6598  1.5458
  718MPD2    N110675   0.587   1.171  12.601 -0.5924 -0.6560 -0.3459
  718MPD2    H710676   0.621   1.266  12.602  0.0580 -0.8997  0.9601
  719TMC3    C110677   0.680   1.121  12.391 -0.1129 -0.0763  0.1970
  719TMC3    C210678   0.686   1.014  12.305 -0.4036 -0.1048 -0.0293
  719TMC3    C310679   0.628   1.019  12.185 -0.4317  0.4889 -0.3433
  719TMC3    C410680   0.626   1.242  12.354  0.1677 -0.1122  0.3922
  719TMC3    C510681   0.581   1.243  12.224  0.1941  0.0876 -0.3319
  719TMC3    C610682   0.578   1.135  12.135  0.3284 -0.9166 -0.2595
  719TMC3     C10683   0.635   1.073  12.521  0.7121  0.2563 -0.1028
  719TMC3     O10684   0.614   0.951  12.521 -0.0192  0.1879  0.0468
  719TMC3     H10685   0.739   0.926  12.339  0.6733  0.2357 -0.8301
  719TMC3    H110686   0.648   1.334  12.407  0.9943  0.1136 -0.3489
  719TMC3    H210687   0.533   1.129  12.036 -0.3414  1.2455 -0.0935
  719TMC3    C710688   0.496   1.355  12.180 -0.0716 -0.7069  0.0222
  719TMC3    C810689   0.539   0.918  12.157 -0.2294  0.6773  0.5096
  719TMC3    O110690   0.504   1.390  12.063 -0.0227 -0.3896 -0.2219
  719TMC3    O210691   0.505   0.906  12.039 -0.1743 -0.7722  0.4784
  720MPD2     C10692   3.312   2.420  13.965  0.1543 -0.6471  0.3436
  720MPD2    C110693   3.361   2.541  13.932  0.5175 -0.0419  1.1160
  720MPD2    C210694   3.454   2.594  14.015 -0.3514  0.5832  0.4277
  720MPD2    C310695   3.508   2.527  14.119 -0.4295  0.1658 -0.5100
  720MPD2    C410696   3.460   2.402  14.150  0.1442  0.2315  0.4910
  720MPD2    C510697   3.360   2.350  14.069 -0.5399 -0.7510  0.1088
  720MPD2     H10698   3.497   2.693  13.999 -0.4362  0.6389  0.5459
  720MPD2    H110699   3.504   2.342  14.229 -1.4389 -0.3006  0.9736
  720MPD2    H210700   3.226   2.379  13.913 -0.9061 -0.4317  1.9350
  720MPD2    H310701   3.324   2.248  14.078 -0.3517 -0.8725 -0.5434
  720MPD2     N10702   3.613   2.594  14.192 -0.1506 -0.1127  0.1481
  720MPD2    H510703   3.628   2.692  14.167 -2.1097 -0.0275 -0.7336
  720MPD2    N110704   3.317   2.614  13.817 -0.1447 -0.6527  0.0369
  720MPD2    H710705   3.318   2.715  13.816 -0.7473 -0.6265  1.6682
  721TMC3    C110706   3.790   2.638  14.342 -0.8261  0.6690  0.9246
  721TMC3    C210707   3.809   2.655  14.476  0.7243  0.0542  0.7698
  721TMC3    C310708   3.918   2.732  14.508 -0.6536  0.1088 -0.7824
  721TMC3    C410709   3.880   2.679  14.241  0.8952 -0.1976  0.1107
  721TMC3    C510710   3.994   2.744  14.283  0.4202 -0.3748  0.1947
  721TMC3    C610711   4.014   2.773  14.418  0.2480 -0.0930  0.0535
  721TMC3     C10712   3.678   2.548  14.304 -0.4154  0.1281  0.2910
  721TMC3     O10713   3.659   2.453  14.380 -0.1874  0.2450 -0.1109
  721TMC3     H10714   3.735   2.625  14.549  0.6699 -1.8606 -0.0637
  721TMC3    H110715   3.861   2.642  14.141 -0.7929 -2.6445  1.3265
  721TMC3    H210716   4.097   2.836  14.446  0.2428  0.2769 -0.7790
  721TMC3    C710717   4.116   2.739  14.200  0.3482  0.5134  0.5991
  721TMC3    C810718   3.938   2.776  14.647  0.3858 -0.3175  0.5507
  721TMC3    O110719   4.106   2.742  14.075  0.1004 -0.6311 -0.3539
  721TMC3    O210720   4.007   2.874  14.669  0.8849 -0.0184  0.0044
  722MPD2     C10721   2.171   1.631  13.073  0.0176  0.0518  0.5196
  722MPD2    C110722   2.125   1.761  13.094  0.3034  0.2210 -0.4082
  722MPD2    C210723   2.007   1.804  13.042  0.4810  0.2509 -0.9193
  722MPD2    C310724   1.920   1.717  12.986  0.5256 -0.1822  0.0671
  722MPD2    C410725   1.965   1.589  12.963 -0.2815 -0.5805 -0.4080
  722MPD2    C510726   2.088   1.543  13.009 -0.0080  0.0522 -0.2620
  722MPD2     H10727   1.978   1.908  13.058 -0.9543 -0.1287 -1.0387
  722MPD2    H110728   1.915   1.522  12.894  0.9391  0.9460 -2.7637
  722MPD2    H210729   2.272   1.604  13.102  1.7672  2.0367 -3.9341
  722MPD2    H310730   2.114   1.442  12.979  2.3030  0.9999 -1.4528
  722MPD2     N10731   1.785   1.761  12.953  0.4655 -0.1927 -0.2764
  722MPD2    H510732   1.761   1.855  12.981  1.9030  0.1647 -0.2257
  722MPD2    N110733   2.204   1.861  13.158 -0.0629 -0.1635  0.2107
  722MPD2    H710734   2.160   1.952  13.168  2.1332  1.2597 -2.8789
  723TMC3    C110735   1.573   1.762  12.860 -0.4512  0.1086  0.2534
  723TMC3    C210736   1.468   1.684  12.813  0.2298 -0.6529 -0.8483
  723TMC3    C310737   1.350   1.739  12.756  0.2223 -0.0947  0.2474
  723TMC3    C410738   1.565   1.897  12.836 -0.3324 -0.4461 -0.6422
  723TMC3    C510739   1.454   1.947  12.771 -0.5946 -0.5444 -0.0494
  723TMC3    C610740   1.345   1.871  12.732 -0.3815  0.0177  0.2826
  723TMC3     C10741   1.694   1.689  12.886 -1.3507 -0.0784  0.8950
  723TMC3     O10742   1.695   1.577  12.841  0.4926 -0.4613  0.4164
  723TMC3     H10743   1.464   1.578  12.834 -2.0662 -0.4204 -0.1332
  723TMC3    H110744   1.648   1.965  12.853  0.1114 -1.1096 -0.2085
  723TMC3    H210745   1.264   1.934  12.697  1.8823  1.9805 -1.4814
  723TMC3    C710746   1.439   2.087  12.736 -0.5110 -0.0314  0.0902
  723TMC3    C810747   1.255   1.652  12.695 -0.0034  0.0301 -0.7049
  723TMC3    O110748   1.396   2.132  12.632  0.2980  0.2924 -0.3571
  723TMC3    O210749   1.145   1.703  12.684  0.0890 -0.5387  0.2801
  724TMC3    C110750   3.144   4.471  10.171  0.1042  0.5218  0.2612
  724TMC3    C210751   3.113   4.434  10.040  0.1616  0.4763 -0.4009
  724TMC3    C310752   3.203   4.479   9.941 -0.2837 -0.4600  0.6992
  724TMC3    C410753   3.256   4.543  10.203 -0.0252 -0.1688 -0.1947
  724TMC3    C510754   3.342   4.588  10.102 -0.0494 -0.3440 -1.1199
  724TMC3    C610755   3.316   4.556   9.970 -0.0656  0.1597  0.1988
  724TMC3     C10756   3.057   4.430  10.278  0.3221  0.0480  0.1104
  724TMC3     O10757   3.101   4.452  10.394  0.0358 -0.1826 -0.3476
  724TMC3     H10758   3.009   4.432  10.008 -0.0506 -0.2529  0.3403
  724TMC3    H110759   3.268   4.560  10.309 -0.1022 -0.5484 -0.1231
  724TMC3    H210760   3.384   4.602   9.899  1.1806 -2.1850 -0.1151
  724TMC3    C710761   3.419   4.714  10.126 -0.3112  0.2706  0.1025
  724TMC3    C810762   3.158   4.475   9.800  0.4699 -0.3598 -0.7746
  724TMC3    O110763   3.483   0.017  10.036 -0.3269  0.2437  0.2972
  724TMC3    O210764   3.068   4.399   9.768 -0.3810  0.2523  0.1630
  725TMC3    C110765   4.020   3.214  12.980 -0.4404 -0.0651 -0.4133
  725TMC3    C210766   3.925   3.306  12.939 -0.6484  0.0238  0.0539
  725TMC3    C310767   3.872   3.308  12.815  0.0872 -0.4257  0.1512
  725TMC3    C410768   4.052   3.112  12.894  0.4537 -0.1732  0.7565
  725TMC3    C510769   3.984   3.106  12.774 -0.4599  0.3255  0.5724
  725TMC3    C610770   3.902   3.205  12.731  0.5828  0.3386 -1.0697
  725TMC3     C10771   4.122   3.268  13.065  0.0104  0.2075 -0.2690
  725TMC3     O10772   4.141   3.387  13.067  0.0965 -0.7812 -0.1884
  725TMC3     H10773   3.895   3.388  13.004  0.0594  0.8517 -0.6649
  725TMC3    H110774   4.144   3.057  12.908 -0.7795 -2.1335  1.2697
  725TMC3    H210775   3.855   3.212  12.634  1.2527  0.1653 -1.4055
  725TMC3    C710776   4.022   3.009  12.664  0.5243 -0.3467  0.3663
  725TMC3    C810777   3.774   3.409  12.781 -0.5314 -0.0339  0.1491
  725TMC3    O110778   3.962   3.015  12.558 -0.1167  0.4273 -0.6983
  725TMC3    O210779   3.723   3.468  12.872 -0.0338 -0.2161 -0.1640
  726MPD2     C10780   2.053   4.575  10.553  0.0848  0.2767 -0.3197
  726MPD2    C110781   1.999   4.681  10.624 -0.3098  0.1424 -0.2376
  726MPD2    C210782   1.887   4.663  10.699  0.6202  0.0350  0.4268
  726MPD2    C310783   1.825   4.538  10.701  0.5419  0.1303 -0.2051
  726MPD2    C410784   1.878   4.435  10.623 -0.0651  0.1853 -0.4705
  726MPD2    C510785   1.992   4.455  10.554  0.3782  0.2152  0.2956
  726MPD2     H10786   1.840   0.006  10.751 -0.9603  1.4742 -3.2666
  726MPD2    H110787   1.835   4.335  10.626  0.4273 -0.1023 -2.8907
  726MPD2    H210788   2.151   4.583  10.507  0.3422  1.1971  0.3928
  726MPD2    H310789   2.037   4.372  10.501  1.6806  0.0447  1.7129
  726MPD2     N10790   1.723   4.501  10.797  0.0429  0.1564  0.6478
  726MPD2    H510791   1.681   4.410  10.783 -0.2988  0.7726 -2.2329
  726MPD2    N110792   2.059   0.068  10.635 -0.0296  0.5490  0.0765
  726MPD2    H710793   2.009   0.137  10.690  1.1701  1.4910 -0.0189
  727TMC3    C110794   2.179   0.253  10.613  0.5717  0.3524 -0.9539
  727TMC3    C210795   2.306   0.308  10.602 -0.1502  0.0046 -0.1471
  727TMC3    C310796   2.323   0.442  10.581  0.5283  0.7410  0.0723
  727TMC3    C410797   2.078   0.334  10.560 -0.2928 -0.8447  0.2187
  727TMC3    C510798   2.095   0.472  10.532 -0.1359 -0.4738 -0.1219
  727TMC3    C610799   2.220   0.524  10.555  0.2383  0.1888  0.3501
  727TMC3     C10800   2.171   0.120  10.576  0.0111 -0.1705  0.6383
  727TMC3     O10801   2.256   0.061  10.517  0.0150 -0.2716  0.3368
  727TMC3     H10802   2.395   0.251  10.623  0.7057  1.5032  0.3001
  727TMC3    H110803   1.981   0.290  10.539 -0.4237 -0.2920 -0.3174
  727TMC3    H210804   2.248   0.625  10.530  0.5391  0.1588  0.5697
  727TMC3    C710805   1.979   0.552  10.489 -0.0949  0.0113  0.3671
  727TMC3    C810806   2.458   0.490  10.590  0.5392  0.4623 -0.2502
  727TMC3    O110807   1.986   0.670  10.512 -0.0523  0.0637  0.3168
  727TMC3    O210808   2.549   0.415  10.551 -0.1496 -0.0412  0.1176
  728TMC3    C110809   1.729   3.221  15.078 -0.3605 -0.6924  0.0895
  728TMC3    C210810   1.844   3.301  15.070  0.0770 -0.5347  0.2823
  728TMC3    C310811   1.838   3.421  15.015  0.4372 -0.1803 -0.4241
  728TMC3    C410812   1.622   3.258  15.013  0.0410 -0.2172  0.6671
  728TMC3    C510813   1.616   3.385  14.960 -0.1979 -0.2636 -0.0866
  728TMC3    C610814   1.727   3.472  14.957 -0.1125 -1.2739  0.1463
  728TMC3     C10815   1.715   3.130  15.192  0.2027 -0.1516 -0.2651
  728TMC3     O10816   1.808   3.144  15.267 -0.1726 -0.2313  0.7391
  728TMC3     H10817   1.936   3.261  15.111  0.6473 -0.1124 -0.5681
  728TMC3    H110818   1.538   3.190  15.005 -0.1628 -0.0285  1.2096
  728TMC3    H210819   1.739   3.549  14.883 -1.2298  0.0779  1.3559
  728TMC3    C710820   1.491   3.415  14.897  0.6485 -0.2711  0.0326
  728TMC3    C810821   1.968   3.474  14.971 -0.2981  0.4165  0.6584
  728TMC3    O110822   1.398   3.337  14.911  0.0820 -0.1740 -0.1845
  728TMC3    O210823   2.057   3.386  14.952  0.3372 -0.2934  0.5751
  729MPD2     C10824   3.281   4.356  16.529 -1.0919 -0.8988  0.6091
  729MPD2    C110825   3.376   4.268  16.573 -0.3386 -0.0803  0.0760
  729MPD2    C210826   3.380   4.241  16.703 -0.3043  0.1089  1.5472
  729MPD2    C310827   3.287   4.298  16.791  0.6330 -0.1894 -0.2040
  729MPD2    C410828   3.208   4.399  16.748 -0.1261  0.1017  0.5837
  729MPD2    C510829   3.203   4.425  16.613  0.3472 -0.2231  0.2442
  729MPD2     H10830   3.458   4.176  16.742  0.2759 -0.5608 -0.7707
  729MPD2    H110831   3.139   4.447  16.817 -0.1319  1.1077 -0.1297
  729MPD2    H210832   3.274   4.373  16.422  1.5786  0.3363  0.6197
  729MPD2    H310833   3.131   4.497  16.576 -2.4302 -1.1206  3.8968
  729MPD2     N10834   3.270   4.264  16.929 -0.2933  0.0158 -0.1930
  729MPD2    H510835   3.202   4.318  16.981  0.0968 -2.0272  2.3986
  729MPD2    N110836   3.478   4.223  16.483 -0.2871 -0.4947 -0.8072
  729MPD2    H710837   3.467   4.257  16.388 -1.0949 -0.2501 -0.6349
  730TMC3    C110838   3.304   4.153  17.136 -0.2169 -1.0094 -0.0668
  730TMC3    C210839   3.383   4.072  17.204 -0.4399 -0.4379 -0.1261
  730TMC3    C310840   3.459   4.117  17.311 -0.0742  0.7001  0.0002
  730TMC3    C410841   3.265   4.273  17.194  0.3317 -0.3916 -0.3310
  730TMC3    C510842   3.325   4.312  17.315 -0.1908 -0.8385 -0.4478
  730TMC3    C610843   3.431   4.242  17.359 -0.5666  0.0644  0.5105
  730TMC3     C10844   3.334   4.153  16.993 -0.3217  0.6508 -0.3783
  730TMC3     O10845   3.402   4.069  16.938 -0.5367  0.3396 -0.0779
  730TMC3     H10846   3.403   3.975  17.160 -0.8777  0.1403 -1.6330
  730TMC3    H110847   3.188   4.340  17.159  1.2079 -0.8559 -3.1595
  730TMC3    H210848   3.476   4.271  17.453 -0.2735 -0.9059  0.6724
  730TMC3    C710849   3.346   4.451  17.320  0.0837 -0.2041  0.6005
  730TMC3    C810850   3.593   4.104  17.270 -0.5534  0.1784  0.0500
  730TMC3    O110851   3.397   4.490  17.214 -0.0583  0.1596  0.1272
  730TMC3    O210852   3.625   3.990  17.233 -0.4173  0.2805 -0.1395
  731MPD2     C10853   3.434   3.218  11.926  0.5436 -0.1609  0.1218
  731MPD2    C110854   3.381   3.095  11.943  0.6688  0.0130  0.6646
  731MPD2    C210855   3.387   3.040  12.071  0.6824  0.6620 -0.3574
  731MPD2    C310856   3.441   3.111  12.185 -0.3257 -0.5507 -0.5346
  731MPD2    C410857   3.492   3.237  12.161 -0.6552 -0.2141 -0.0218
  731MPD2    C510858   3.480   3.289  12.037 -0.1337  0.3460 -0.7431
  731MPD2     H10859   3.355   2.937  12.083  1.6776  0.4818  0.7814
  731MPD2    H110860   3.530   3.300  12.241 -1.4700  0.0658  0.1459
  731MPD2    H210861   3.435   3.263  11.827 -2.2406  1.5789  0.8821
  731MPD2    H310862   3.518   3.389  12.023  0.0913  0.5652  1.4423
  731MPD2     N10863   3.451   3.043  12.310 -0.0901 -0.4265  0.2001
  731MPD2    H510864   3.399   2.956  12.311  0.0406 -0.4911  1.6663
  731MPD2    N110865   3.338   3.024  11.827  0.3835 -0.7706 -0.0728
  731MPD2    H710866   3.361   3.071  11.740 -0.4217 -1.5346 -0.6958
  732TMC3    C110867   3.233   2.854  11.702 -0.0386  0.1185  0.3252
  732TMC3    C210868   3.123   2.778  11.683 -0.4033 -0.0551  0.0294
  732TMC3    C310869   3.122   2.696  11.574  0.0366  0.3086  0.2814
  732TMC3    C410870   3.344   2.847  11.621 -0.0598 -0.8762  0.5577
  732TMC3    C510871   3.337   2.762  11.517 -0.3688  0.5196 -0.0623
  732TMC3    C610872   3.232   2.683  11.487  0.1065 -0.1538 -0.0838
  732TMC3     C10873   3.251   2.922  11.833  0.4204  0.2542  1.1152
  732TMC3     O10874   3.177   2.895  11.924  0.2473  0.5173 -0.4581
  732TMC3     H10875   3.035   2.808  11.738  1.0596  0.9884  1.7958
  732TMC3    H110876   3.436   2.895  11.652 -0.7774  2.6195 -2.6472
  732TMC3    H210877   3.230   2.621  11.398 -4.1304  0.2111 -0.2541
  732TMC3    C710878   3.460   2.755  11.430  0.4713  0.5323 -0.5826
  732TMC3    C810879   3.022   2.594  11.555  0.1620 -0.0073 -1.0526
  732TMC3    O110880   3.454   2.741  11.309 -0.0181  0.0333 -0.9065
  732TMC3    O210881   3.034   2.532  11.453  0.1505  0.2427  0.3221
  733TMC3    C110882   4.709   0.554  12.876  0.1609 -0.3171  0.3502
  733TMC3    C210883   0.027   0.666  12.929  0.3539  0.4865  0.0457
  733TMC3    C310884   0.150   0.699  12.890  0.5026  0.6012  0.1435
  733TMC3    C410885   0.032   0.473  12.784  0.1379 -0.0883 -0.0368
  733TMC3    C510886   0.154   0.513  12.740  0.4728 -0.5153  0.2203
  733TMC3    C610887   0.217   0.625  12.793  0.2610 -0.4765 -0.0342
  733TMC3     C10888   4.567   0.524  12.919 -0.0281  0.0069  0.1575
  733TMC3     O10889   4.527   0.585  13.021  0.6749  0.7242 -0.3876
  733TMC3     H10890   4.713   0.729  12.999 -0.2645  1.3541 -1.1977
  733TMC3    H110891   4.724   0.383  12.744  1.2601 -0.0171 -1.4899
  733TMC3    H210892   0.317   0.657  12.768 -0.4100  1.2164 -0.6058
  733TMC3    C710893   0.152   0.504  12.597 -0.1371  0.4585 -0.7729
  733TMC3    C810894   0.205   0.828  12.934 -0.0664 -0.3302 -0.1989
  733TMC3    O110895   0.050   0.467  12.536  0.0839 -0.1325 -0.4992
  733TMC3    O210896   0.156   0.879  13.031  0.5110 -0.3907 -0.1915
  734MPD2     C10897   1.549   3.440  12.692 -0.3732 -1.0070  0.7505
  734MPD2    C110898   1.462   3.398  12.594  0.1291 -0.7371  0.0228
  734MPD2    C210899   1.484   3.444  12.468 -0.0059 -0.3725  0.4142
  734MPD2    C310900   1.590   3.530  12.432  0.0989 -0.6856 -0.0425
  734MPD2    C410901   1.664   3.590  12.534 -0.6307  0.6678  0.2738
  734MPD2    C510902   1.640   3.541  12.664 -0.4113 -0.6124  0.1408
  734MPD2     H10903   1.412   3.415  12.393 -1.3972 -0.9316  1.9610
  734MPD2    H110904   1.744   3.660  12.509 -1.2106  0.1361 -2.9738
  734MPD2    H210905   1.542   3.404  12.795  1.8899  1.1319  1.6469
  734MPD2    H310906   1.696   3.580  12.748 -2.9454 -0.2627  1.6741
  734MPD2     N10907   1.606   3.549  12.290  0.2940 -0.0634  0.4799
  734MPD2    H510908   1.553   3.489  12.227  1.8091  0.4719 -1.3075
  734MPD2    N110909   1.375   3.288  12.617  0.0218 -0.0045  0.2160
  734MPD2    H710910   1.375   3.245  12.709 -1.2165 -1.2422 -0.3615
  735TMC3    C110911   1.217   3.111  12.564 -0.7151 -0.3241 -0.0085
  735TMC3    C210912   1.124   3.090  12.469  0.6209 -0.7032 -0.0287
  735TMC3    C310913   1.112   2.964  12.417  0.5565 -0.4833 -0.4845
  735TMC3    C410914   1.296   3.013  12.611  0.7214 -1.3892  0.1133
  735TMC3    C510915   1.262   2.885  12.577  0.3071 -0.0782 -0.3709
  735TMC3    C610916   1.160   2.853  12.487 -0.7078 -0.5862 -0.6906
  735TMC3     C10917   1.299   3.221  12.523  0.3744  0.2295  0.8691
  735TMC3     O10918   1.286   3.242  12.404 -0.6721 -0.2357 -0.1133
  735TMC3     H10919   1.072   3.176  12.427  0.0216 -0.4706  1.1914
  735TMC3    H110920   1.378   3.022  12.681  1.4611  0.2359 -0.9445
  735TMC3    H210921   1.146   2.750  12.458  1.0202 -1.5514  1.9520
  735TMC3    C710922   1.387   2.816  12.522  0.8587 -0.6443 -0.8985
  735TMC3    C810923   1.121   2.951  12.272 -0.0078 -0.4533 -0.2747
  735TMC3    O110924   1.491   2.878  12.540 -0.3283 -0.1454 -0.8361
  735TMC3    O210925   1.082   2.845  12.226 -0.4446  0.5155 -0.1230
  736MPD2     C10926   1.494   2.462  12.469  0.2751  0.3737 -0.0133
  736MPD2    C110927   1.502   2.597  12.462 -0.4076  0.6677 -0.3897
  736MPD2    C210928   1.614   2.660  12.403 -0.2024  0.2636 -0.0832
  736MPD2    C310929   1.724   2.590  12.374 -0.7188 -0.6475  0.1727
  736MPD2    C410930   1.716   2.451  12.381  0.7060 -0.3852 -0.0717
  736MPD2    C510931   1.603   2.392  12.420  0.3332  0.5907 -0.5419
  736MPD2     H10932   1.614   2.766  12.382 -0.5107  0.5853  1.5127
  736MPD2    H110933   1.796   2.391  12.340 -0.3695 -2.3105  0.6362
  736MPD2    H210934   1.401   2.411  12.495  0.3004  0.1584 -0.3427
  736MPD2    H310935   1.598   2.284  12.419 -2.4567  0.7002  1.1736
  736MPD2     N10936   1.846   2.644  12.326  0.1193  0.2026 -0.0884
  736MPD2    H510937   1.907   2.577  12.280 -0.4307 -2.0722  2.4960
  736MPD2    N110938   1.385   2.676  12.493 -0.0005  0.0328 -0.5518
  736MPD2    H710939   1.299   2.622  12.500 -0.0005  0.2605  1.0553
  737TMC3    C110940   1.981   2.798  12.231 -0.6611  0.2009  0.2788
  737TMC3    C210941   2.043   2.915  12.223 -0.0801  0.4258 -0.1037
  737TMC3    C310942   2.136   2.940  12.129 -0.3835 -0.3034 -0.2951
  737TMC3    C410943   2.023   2.691  12.151 -0.0701 -0.0249  0.0142
  737TMC3    C510944   2.136   2.714  12.073 -0.5505  0.5309 -0.2336
  737TMC3    C610945   2.191   2.840  12.050 -0.7602 -0.2074  0.5152
  737TMC3     C10946   1.875   2.779  12.322 -0.0002 -0.6326 -0.7177
  737TMC3     O10947   1.821   2.870  12.385 -0.4444 -0.0027  0.2166
  737TMC3     H10948   2.021   2.991  12.297 -0.1556 -1.4970  1.8469
  737TMC3    H110949   1.976   2.593  12.150 -0.8752  0.3682 -0.0612
  737TMC3    H210950   2.279   2.857  11.989 -0.1712  1.0727  1.7305
  737TMC3    C710951   2.184   2.588  12.018 -0.0670 -0.5295 -0.0778
  737TMC3    C810952   2.177   3.085  12.110  0.0243 -0.0218 -0.0980
  737TMC3    O110953   2.159   2.486  12.083  0.1543  0.1898 -0.2469
  737TMC3    O210954   2.131   3.165  12.192  0.1599  0.0390 -0.9828
  738MPD2     C10955   2.307   1.745  15.068 -0.1110  0.1556  0.2289
  738MPD2    C110956   2.393   1.659  15.127 -0.3847 -0.0410  0.1159
  738MPD2    C210957   2.499   1.707  15.209 -0.1525  0.4027 -0.1446
  738MPD2    C310958   2.524   1.841  15.226 -0.0993 -0.5632  0.5804
  738MPD2    C410959   2.448   1.925  15.148 -0.3405 -0.2022  0.2260
  738MPD2    C510960   2.340   1.874  15.086  0.5277 -0.6222  0.2104
  738MPD2     H10961   2.565   1.641  15.263  1.6162  1.3254 -1.2019
  738MPD2    H110962   2.453   2.033  15.155  0.9591 -0.4198  2.4573
  738MPD2    H210963   2.214   1.708  15.025 -0.3245 -0.9356  1.6059
  738MPD2    H310964   2.292   1.954  15.031  0.4319  0.2272  1.5266
  738MPD2     N10965   2.626   1.896  15.313 -0.0981  0.0530  0.4387
  738MPD2    H510966   2.654   1.994  15.305  2.1255 -0.6549 -0.5238
  738MPD2    N110967   2.377   1.517  15.138 -0.3369 -0.3033  0.0538
  738MPD2    H710968   2.447   1.457  15.180  1.9208  2.0654 -0.3168
  739TMC3    C110969   2.841   1.902  15.404  0.3612  0.2761 -0.7259
  739TMC3    C210970   2.879   1.961  15.290 -0.6478 -0.3350  0.8911
  739TMC3    C310971   3.003   1.938  15.242  0.0846 -0.1452 -0.1301
  739TMC3    C410972   2.936   1.831  15.474  0.4008  0.3026 -0.5645
  739TMC3    C510973   3.065   1.833  15.433  0.3007 -0.4061  0.3662
  739TMC3    C610974   3.108   1.891  15.313  0.1660  0.3778  0.5264
  739TMC3     C10975   2.715   1.829  15.385 -0.9584  0.6126  0.0950
  739TMC3     O10976   2.735   1.712  15.399  0.3454 -0.6362 -0.0529
  739TMC3     H10977   2.812   2.022  15.229 -1.4512 -2.0254  0.0951
  739TMC3    H110978   2.907   1.785  15.568 -0.5170  3.6822  0.8162
  739TMC3    H210979   3.206   1.888  15.268  0.5587 -2.3432  1.5434
  739TMC3    C710980   3.173   1.808  15.533 -0.3006 -0.2435  0.7523
  739TMC3    C810981   3.017   1.968  15.102  0.4763  0.2293 -0.0700
  739TMC3    O110982   3.289   1.789  15.505  1.1771  0.2241 -0.0291
  739TMC3    O210983   2.936   2.047  15.051 -0.1461 -0.3892 -0.1466
  740TMC3    C110984   3.182   3.255  14.409  0.3868  0.0004  0.3911
  740TMC3    C210985   3.239   3.198  14.515 -1.1643 -0.2102 -0.0008
  740TMC3    C310986   3.361   3.140  14.497  0.5142  0.3360  0.9710
  740TMC3    C410987   3.231   3.226  14.286  0.4532 -1.0023 -0.6279
  740TMC3    C510988   3.340   3.147  14.268  0.2263 -0.1806  0.0271
  740TMC3    C610989   3.412   3.108  14.376 -0.9738  0.0395 -0.0628
  740TMC3     C10990   3.058   3.319  14.427  0.1780  0.0161  0.1998
  740TMC3     O10991   3.030   3.409  14.347 -0.1820 -0.5962  0.0226
  740TMC3     H10992   3.199   3.203  14.616  1.9626 -0.4318  1.2500
  740TMC3    H110993   3.170   3.251  14.200  0.1160  0.0659 -0.0876
  740TMC3    H210994   3.512   3.067  14.367 -0.7684  0.5156  0.0449
  740TMC3    C710995   3.367   3.068  14.146 -0.6063 -0.3797 -0.1070
  740TMC3    C810996   3.412   3.066  14.608 -0.2011  0.5102  0.0681
  740TMC3    O110997   3.421   2.958  14.170 -0.2719  0.1722 -0.2551
  740TMC3    O210998   3.399   3.116  14.718 -0.2717 -0.6121  0.0518
  741TMC3    C110999   2.802   2.354  14.882  0.1133  0.3461  0.3842
  741TMC3    C211000   2.696   2.315  14.804  0.3305 -0.1404  1.2172
  741TMC3    C311001   2.583   2.269  14.859 -0.7645  0.4727 -0.6935
  741TMC3    C411002   2.798   2.345  15.016 -0.2614  0.2510  0.4356
  741TMC3    C511003   2.688   2.289  15.066  0.1353  0.0878  0.3012
  741TMC3    C611004   2.580   2.242  14.993  0.6469 -0.1075  0.9051
  741TMC3     C11005   2.933   2.343  14.821 -0.0347 -0.2316  0.3837
  741TMC3     O11006   3.026   2.306  14.894 -0.0571  0.0412 -0.1278
  741TMC3     H11007   2.704   2.314  14.696 -0.7940  0.1438  1.1305
  741TMC3    H111008   2.885   2.362  15.078  1.9353  1.1606 -2.8692
  741TMC3    H211009   2.491   2.195  15.033  1.3051  0.2499  2.8005
  741TMC3    C711010   2.683   2.252  15.202 -0.5328  0.5121 -0.0100
  741TMC3    C811011   2.493   2.195  14.771  0.2435 -0.2872  0.2705
  741TMC3    O111012   2.610   2.165  15.242  0.2125  0.8852  0.4120
  741TMC3    O211013   2.470   2.256  14.669 -0.2778 -0.0007  0.2410
  742TMC3    C111014   2.593   0.475  15.464 -0.1161  0.2089  0.0735
  742TMC3    C211015   2.503   0.514  15.364 -0.4759 -0.7746 -0.6225
  742TMC3    C311016   2.540   0.621  15.280 -0.3435  0.1898  0.3587
  742TMC3    C411017   2.700   0.560  15.501  0.7364  0.7597  0.1032
  742TMC3    C511018   2.732   0.666  15.421 -0.4321 -0.0091  0.5633
  742TMC3    C611019   2.659   0.686  15.305 -0.2671  0.0394  0.1262
  742TMC3     C11020   2.552   0.368  15.555  0.2587  0.4169  0.5108
  742TMC3     O11021   2.458   0.304  15.513  0.6425 -0.1779 -0.8588
  742TMC3     H11022   2.427   0.448  15.325 -2.5314  0.6991  0.8704
  742TMC3    H111023   2.763   0.540  15.587 -0.4256 -0.6026  0.6480
  742TMC3    H211024   2.687   0.767  15.238  1.4794 -0.3402  0.4100
  742TMC3    C711025   2.866   0.709  15.420  0.2204 -0.0375  0.3661
  742TMC3    C811026   2.463   0.659  15.169  0.4475 -0.6449  0.1985
  742TMC3    O111027   2.912   0.736  15.311  0.2083 -0.5561 -0.0175
  742TMC3    O211028   2.514   0.727  15.080  0.0551 -0.1529  0.3019
  743MPD2     C11029   0.532   1.058   1.376 -0.3996  0.5380 -1.1321
  743MPD2    C111030   0.559   1.166   1.295 -0.0741  0.1762  0.3580
  743MPD2    C211031   0.670   1.249   1.316  0.7548 -1.1518 -0.0254
  743MPD2    C311032   0.766   1.209   1.407 -1.1072  0.8744  0.6391
  743MPD2    C411033   0.752   1.086   1.470  0.6550 -0.2769 -0.6909
  743MPD2    C511034   0.636   1.013   1.457  0.0566  0.2796 -0.3441
  743MPD2     H11035   0.674   1.340   1.257  1.2599 -1.0906  0.1044
  743MPD2    H111036   0.831   1.040   1.528 -0.2564 -2.6036 -1.2571
  743MPD2    H211037   0.444   0.996   1.366 -0.9548  0.7062  2.5237
  743MPD2    H311038   0.624   0.918   1.507  2.6692  0.3778  0.4682
  743MPD2     N11039   0.881   1.288   1.411 -0.2234 -1.1835 -1.0697
  743MPD2    H511040   0.886   1.363   1.342  1.6166 -0.9299 -0.6631
  743MPD2    N111041   0.473   1.192   1.185  0.5579 -0.1035  0.0126
  743MPD2    H711042   0.386   1.140   1.181 -1.0303  2.4343  1.7588
  744TMC3    C111043   0.383   1.293   0.987  0.0604 -0.0889 -0.0282
  744TMC3    C211044   0.268   1.333   1.048  0.3417  0.6641  0.2750
  744TMC3    C311045   0.178   1.404   0.970 -0.4865  0.2310  0.0761
  744TMC3    C411046   0.413   1.321   0.856 -0.1988 -0.3039  0.1226
  744TMC3    C511047   0.322   1.397   0.783  0.4103  0.2205 -0.6805
  744TMC3    C611048   0.205   1.434   0.836 -0.0584  0.4998 -0.0926
  744TMC3     C11049   0.500   1.277   1.079 -0.9040 -0.2569  0.5073
  744TMC3     O11050   0.611   1.307   1.033 -0.3753 -0.2653 -0.0229
  744TMC3     H11051   0.267   1.335   1.156 -1.1859 -2.0938  0.3147
  744TMC3    H111052   0.515   1.310   0.821  0.5053  1.5817  1.5881
  744TMC3    H211053   0.128   1.490   0.785 -1.4342 -1.2701  0.0511
  744TMC3    C711054   0.374   1.455   0.662  0.1650  0.2661 -0.0807
  744TMC3    C811055   0.046   1.421   1.024  0.2497 -0.0831 -0.7869
  744TMC3    O111056   0.312   1.547   0.613  0.0877  0.4352  0.8619
  744TMC3    O211057   4.707   1.488   0.960 -0.0529  0.4085  0.1036
  745TMC3    C111058   2.941   0.569  13.655  0.0073  0.1519  0.2058
  745TMC3    C211059   2.841   0.493  13.704 -0.8058 -0.1498 -0.1498
  745TMC3    C311060   2.778   0.398  13.626  0.8849 -0.0328 -0.8600
  745TMC3    C411061   2.990   0.557  13.527 -0.2815  0.2520 -0.0126
  745TMC3    C511062   2.931   0.455  13.444  0.6398  0.4912  0.0336
  745TMC3    C611063   2.818   0.387  13.492  1.1929  0.5687  0.2235
  745TMC3     C11064   2.942   0.704  13.707  0.6422  0.3094 -0.0105
  745TMC3     O11065   3.034   0.777  13.678 -0.3859 -0.2638 -0.3841
  745TMC3     H11066   2.818   0.502  13.809 -0.2392  0.0172 -0.0360
  745TMC3    H111067   3.064   0.629  13.495  0.2668 -1.0111 -1.6049
  745TMC3    H211068   2.763   0.321  13.426  0.8314 -0.4208  1.5133
  745TMC3    C711069   2.997   0.405  13.324 -0.2058  0.4219 -0.1788
  745TMC3    C811070   2.633   0.422  13.628 -0.0156 -0.1686  0.0360
  745TMC3    O111071   2.958   0.295  13.284 -0.2375  0.3870  0.3936
  745TMC3    O211072   2.570   0.437  13.520  0.3720 -0.3743  0.3948
  746TMC3    C111073   0.439   2.830  10.950  0.0216  0.0744 -0.0152
  746TMC3    C211074   0.536   2.799  10.857  0.5103  0.6253 -0.5613
  746TMC3    C311075   0.503   2.696  10.767 -1.0696  0.4552  0.3699
  746TMC3    C411076   0.320   2.765  10.957  0.2893  0.2599 -0.7468
  746TMC3    C511077   0.297   2.670  10.855  0.0102 -0.1205  0.0002
  746TMC3    C611078   0.380   2.633  10.767  0.0183  0.1271  0.1203
  746TMC3     C11079   0.466   2.918  11.062  0.3310  0.4862 -1.0289
  746TMC3     O11080   0.412   2.894  11.169 -0.1493  0.8960  0.0188
  746TMC3     H11081   0.635   2.841  10.872  0.6277 -0.5184  1.9116
  746TMC3    H111082   0.249   2.808  11.027 -1.2988  1.0219 -2.8270
  746TMC3    H211083   0.362   2.555  10.694  2.1548 -1.3770  1.2068
  746TMC3    C711084   0.167   2.619  10.824 -0.2847 -0.1833 -0.1383
  746TMC3    C811085   0.594   2.682  10.652  0.0435 -0.0663 -0.3745
  746TMC3    O111086   0.122   2.636  10.711  0.4565  0.0221 -0.0396
  746TMC3    O211087   0.572   2.592  10.575 -0.2207  0.5615 -0.1045
  747TMC3    C111088   2.681   2.514  11.095 -0.5799 -0.1191  0.2845
  747TMC3    C211089   2.616   2.445  11.188  0.2297 -0.0172 -0.3671
  747TMC3    C311090   2.627   2.480  11.320 -0.1323  0.1206  0.0936
  747TMC3    C411091   2.763   2.623  11.135 -0.3614  0.5805 -0.3989
  747TMC3    C511092   2.772   2.649  11.266  0.7264 -0.0318  0.3990
  747TMC3    C611093   2.709   2.579  11.370 -0.2635  0.9931  0.3803
  747TMC3     C11094   2.645   2.519  10.957  0.7245 -0.7808  0.3372
  747TMC3     O11095   2.653   2.631  10.903 -0.1365 -0.1900  0.5724
  747TMC3     H11096   2.563   2.356  11.156  0.3072 -0.0805 -0.3233
  747TMC3    H111097   2.808   2.688  11.060 -0.1661 -1.1157 -1.7378
  747TMC3    H211098   2.718   2.614  11.473 -0.7567  3.7191 -0.4928
  747TMC3    C711099   2.847   2.764  11.301 -0.8200  0.0185 -0.0797
  747TMC3    C811100   2.536   2.415  11.405 -0.0377  0.1299 -0.8200
  747TMC3    O111101   2.829   2.820  11.406  0.1157 -0.1818  0.3701
  747TMC3    O211102   2.493   2.306  11.362 -0.1791  0.6266  0.4115
  748MPD2     C11103   0.355   2.555   0.610  0.6146 -0.4352  0.1305
  748MPD2    C111104   0.314   2.620   0.721 -0.3332  0.1050  0.9451
  748MPD2    C211105   0.374   2.743   0.751  0.2698 -0.1624 -0.3388
  748MPD2    C311106   0.486   2.784   0.679 -0.2595  0.1815 -0.0061
  748MPD2    C411107   0.522   2.718   0.570  0.5296 -0.1237 -0.3261
  748MPD2    C511108   0.453   2.606   0.531 -0.1852 -0.4630 -0.6695
  748MPD2     H11109   0.336   2.808   0.829  5.1526  1.4735  0.6559
  748MPD2    H111110   0.595   2.751   0.497 -0.4676 -1.9836 -2.1537
  748MPD2    H211111   0.316   2.461   0.573 -0.0062 -0.7245  1.5392
  748MPD2    H311112   0.484   2.555   0.440  0.4838  2.7220 -2.2092
  748MPD2     N11113   0.538   2.914   0.715  0.2930 -0.4750  0.4223
  748MPD2    H511114   0.510   2.955   0.804 -1.4123  1.2034 -0.8814
  748MPD2    N111115   0.207   2.559   0.796  0.0076  0.5266 -0.0409
  748MPD2    H711116   0.172   2.473   0.756  0.8207  1.6005 -3.0806
  749TMC3    C111117   0.672   3.084   0.748 -0.1569  0.4553  0.6986
  749TMC3    C211118   0.675   3.062   0.883 -0.4387 -0.5737  0.7357
  749TMC3    C311119   0.699   3.168   0.968  1.0868  0.0771  0.0833
  749TMC3    C411120   0.709   3.208   0.691 -0.2325 -0.1269 -0.5202
  749TMC3    C511121   0.732   3.312   0.787  0.2926 -0.1305 -0.6923
  749TMC3    C611122   0.726   3.289   0.919  0.2548 -0.6228  0.0107
  749TMC3     C11123   0.632   2.985   0.652 -0.6744 -0.3100  0.6288
  749TMC3     O11124   0.689   2.977   0.545 -0.2408  0.0534 -0.3235
  749TMC3     H11125   0.661   2.964   0.926  0.4434 -0.1064  2.0768
  749TMC3    H111126   0.693   3.220   0.585  0.8025 -0.2022 -0.6803
  749TMC3    H211127   0.757   3.363   0.991  0.4920 -0.0589 -0.6722
  749TMC3    C711128   0.741   3.448   0.743  0.3170 -0.1127 -0.1948
  749TMC3    C811129   0.741   3.140   1.107  0.2473 -0.1270 -0.6906
  749TMC3    O111130   0.768   3.532   0.828 -0.2581  0.0131  0.2934
  749TMC3    O211131   0.726   3.233   1.188  0.0799  0.0603  0.3957
  750MPD2     C11132   0.217   4.721  11.311 -0.0986 -0.0620  0.7198
  750MPD2    C111133   0.157   4.603  11.332  0.3168  0.6318  0.2372
  750MPD2    C211134   0.230   4.482  11.323 -0.6389 -0.5881  1.0593
  750MPD2    C311135   0.367   4.477  11.298  0.4478  0.5353  0.4086
  750MPD2    C411136   0.422   4.597  11.266  0.3064 -0.6174 -0.1383
  750MPD2    C511137   0.349   4.716  11.272  0.3469  0.0217 -0.3728
  750MPD2     H11138   0.179   4.387  11.331 -1.4682 -0.3611 -1.5806
  750MPD2    H111139   0.527   4.600  11.238  0.6449 -3.1572  0.9392
  750MPD2    H211140   0.164   0.077  11.319  0.0511  0.1338 -0.7013
  750MPD2    H311141   0.402   0.067  11.242  0.9852 -0.4502 -0.6634
  750MPD2     N11142   0.443   4.364  11.301  0.4915 -0.1264  0.3740
  750MPD2    H511143   0.543   4.373  11.286  0.9151  0.1585  3.3948
  750MPD2    N111144   0.025   4.617  11.368 -0.0798 -0.3648 -0.7093
  750MPD2    H711145   4.723   4.710  11.377 -1.2588 -1.0932  1.3806
  751TMC3    C111146   0.512   4.145  11.364  0.7891  0.2373  0.0375
  751TMC3    C211147   0.507   4.068  11.479  0.0655 -0.3144  1.0185
  751TMC3    C311148   0.566   3.948  11.476 -0.0376  0.2884 -0.4399
  751TMC3    C411149   0.571   4.112  11.249  0.3203 -0.2356  0.0222
  751TMC3    C511150   0.632   3.989  11.254 -0.3029 -0.1722 -0.1214
  751TMC3    C611151   0.629   3.905  11.360 -0.6969 -0.4450  0.2625
  751TMC3     C11152   0.402   4.244  11.349 -0.2550  0.2886  0.0816
  751TMC3     O11153   0.297   4.203  11.388 -0.7231 -0.1895  0.5840
  751TMC3     H11154   0.465   4.112  11.568 -1.1797  1.2887 -0.3574
  751TMC3    H111155   0.566   4.168  11.156 -0.0124 -1.1784 -0.5215
  751TMC3    H211156   0.703   3.826  11.369  1.0167  0.7859 -2.7886
  751TMC3    C711157   0.708   3.952  11.132 -0.2582  0.1010  0.1282
  751TMC3    C811158   0.466   3.852  11.515  0.3546  1.1161  0.0738
  751TMC3    O111159   0.746   4.035  11.053 -0.1124 -0.0803  0.0294
  751TMC3    O211160   0.505   3.737  11.524 -0.1098 -0.3191  0.3621
  752TMC3    C111161   4.167   3.756  17.343 -0.2084  0.1521 -0.0024
  752TMC3    C211162   4.223   3.662  17.422  0.0850 -0.9516  0.4942
  752TMC3    C311163   4.188   3.663  17.555 -0.5075 -0.0320  0.9450
  752TMC3    C411164   4.089   3.862  17.393  0.2013 -0.7293  0.1688
  752TMC3    C511165   4.059   3.854  17.527  0.0860 -0.2319 -0.2091
  752TMC3    C611166   4.103   3.759  17.607  0.1482 -0.2754 -0.0896
  752TMC3     C11167   4.232   3.777  17.210 -0.6215 -0.1422  0.0905
  752TMC3     O11168   4.337   3.717  17.182  0.2316  0.2112 -0.3347
  752TMC3     H11169   4.281   3.584  17.374  2.8649  0.4479  1.5751
  752TMC3    H111170   4.054   3.947  17.336 -0.4517 -0.3263  1.1768
  752TMC3    H211171   4.062   3.760  17.707 -0.2208 -0.5446 -0.2343
  752TMC3    C711172   3.926   3.902  17.551  0.4266 -1.1208 -0.2880
  752TMC3    C811173   4.202   3.545  17.643 -0.3220 -0.6762  0.5030
  752TMC3    O111174   3.851   3.813  17.596  0.4822  0.7861  0.1137
  752TMC3    O211175   4.162   3.562   0.005  0.0458  0.0835 -0.1156
  753TMC3    C111176   1.230   0.672  13.408  0.5371 -0.3293  0.7421
  753TMC3    C211177   1.258   0.666  13.541  0.0099  0.3681 -0.0047
  753TMC3    C311178   1.232   0.549  13.615 -0.3570 -0.5166 -0.5896
  753TMC3    C411179   1.189   0.563  13.339 -0.8582 -0.1616 -0.3818
  753TMC3    C511180   1.166   0.446  13.413 -0.1123  0.2816  0.6191
  753TMC3    C611181   1.181   0.441  13.555  0.2872 -0.0247 -0.1885
  753TMC3     C11182   1.255   0.796  13.335  0.7645  0.5628 -0.5234
  753TMC3     O11183   1.198   0.820  13.232 -0.3112 -0.9776 -0.1714
  753TMC3     H11184   1.282   0.761  13.588 -0.3846  1.2970 -1.6728
  753TMC3    H111185   1.165   0.581  13.235 -2.0067 -2.2606 -0.4919
  753TMC3    H211186   1.162   0.354  13.616  1.9011 -0.4978 -0.3818
  753TMC3    C711187   1.147   0.319  13.344 -0.0879  0.5319  0.0816
  753TMC3    C811188   1.270   0.536  13.755 -0.5438 -0.2058 -0.2432
  753TMC3    O111189   1.130   0.217  13.412  0.0891  0.9304  0.0513
  753TMC3    O211190   1.186   0.481  13.826  0.7433 -0.3830 -0.1373
  754MPD2     C11191   0.740   4.042  13.229  0.3655  0.1722  1.0880
  754MPD2    C111192   0.726   3.908  13.227 -0.4069  0.0429  0.6072
  754MPD2    C211193   0.602   3.850  13.206  0.2719  0.1389  0.7703
  754MPD2    C311194   0.486   3.925  13.197  0.6488  0.0151  0.1318
  754MPD2    C411195   0.511   4.059  13.187 -0.0274  0.5240  0.3699
  754MPD2    C511196   0.634   4.122  13.200  0.1362  0.4132 -0.5607
  754MPD2     H11197   0.594   3.743  13.188 -0.8133  0.5148 -1.0450
  754MPD2    H111198   0.425   4.123  13.175  0.5204  1.7315  2.8110
  754MPD2    H211199   0.835   4.095  13.232  0.8564 -0.7015  1.1186
  754MPD2    H311200   0.648   4.226  13.173 -0.9836  0.0993 -2.3374
  754MPD2     N11201   0.352   3.880  13.183  0.0078  0.4953 -0.2860
  754MPD2    H511202   0.278   3.949  13.187  0.1302  0.4318  2.5886
  754MPD2    N111203   0.841   3.829  13.262 -0.0389  0.1676  0.5454
  754MPD2    H711204   0.931   3.864  13.231  0.0332 -0.4843  0.0226
  755MPD2     C11205   4.368   4.334  13.321  0.5688 -0.0561 -0.1384
  755MPD2    C111206   4.399   4.261  13.433  0.1144  0.3523  0.6403
  755MPD2    C211207   4.476   4.148  13.406  0.7906 -0.5084 -0.0169
  755MPD2    C311208   4.527   4.119  13.278  0.7865  0.5292  0.2557
  755MPD2    C411209   4.501   4.204  13.178  0.2391 -0.5186  0.3953
  755MPD2    C511210   4.418   4.309  13.197 -0.3601  0.6171 -0.2651
  755MPD2     H11211   4.516   4.094  13.491 -0.6096  0.1980  1.1044
  755MPD2    H111212   4.544   4.188  13.080  0.1587  1.0797  0.0997
  755MPD2    H211213   4.299   4.418  13.325 -1.0312 -1.3934  0.0002
  755MPD2    H311214   4.410   4.369  13.107 -2.4016  2.1581  0.9604
  755MPD2     N11215   4.616   4.012  13.251 -0.1603 -0.0175 -0.0648
  755MPD2    H511216   4.664   4.015  13.161 -1.9209  0.3698 -1.0039
  755MPD2    N111217   4.354   4.300  13.561  0.1625 -0.8713 -0.0472
  755MPD2    H711218   4.288   4.376  13.570  0.8456 -0.1136 -1.3572
  756MPD2     C11219   0.783   0.476   9.335 -0.3991  0.8915  0.2158
  756MPD2    C111220   0.688   0.424   9.428 -0.3720 -0.0896  0.3589
  756MPD2    C211221   0.565   0.489   9.440 -0.4905 -0.6836 -1.4088
  756MPD2    C311222   0.549   0.615   9.377 -0.1178 -0.3057  0.1239
  756MPD2    C411223   0.650   0.669   9.301 -0.1567 -0.5963 -0.1211
  756MPD2    C511224   0.767   0.600   9.280 -0.4671 -0.0538  0.2935
  756MPD2     H11225   0.480   0.441   9.486  0.4477 -1.1789 -0.1929
  756MPD2    H111226   0.644   0.762   9.245  2.4149 -0.8664 -0.8294
  756MPD2    H211227   0.876   0.423   9.315 -0.3546  2.0859 -2.7754
  756MPD2    H311228   0.848   0.639   9.220  0.2049 -0.2496  1.0717
  756MPD2     N11229   0.430   0.682   9.407 -0.2035 -0.2133  0.4939
  756MPD2    H511230   0.359   0.635   9.461  0.1157 -0.2108  0.9157
  756MPD2    N111231   0.706   0.311   9.514  0.7047 -0.0319 -0.2907
  756MPD2    H711232   0.622   0.296   9.568 -0.2454  1.5583 -1.3404
  757MPD2     C11233   4.438   0.486   9.811  0.0238 -0.4995 -0.3387
  757MPD2    C111234   4.537   0.418   9.735 -1.0665 -0.8892  0.4822
  757MPD2    C211235   4.628   0.497   9.673  0.3031  0.3030  0.4111
  757MPD2    C311236   4.619   0.634   9.682  0.8109  0.1965 -0.2124
  757MPD2    C411237   4.531   0.694   9.770  0.3340 -0.0953 -0.5327
  757MPD2    C511238   4.433   0.622   9.826  0.3578 -0.0693  1.1371
  757MPD2     H11239   4.700   0.448   9.608 -0.2921 -1.0014  0.7153
  757MPD2    H111240   4.521   0.802   9.783  1.5260 -0.1859  1.1986
  757MPD2    H211241   4.354   0.429   9.849 -0.7695  0.0465 -1.2900
  757MPD2    H311242   4.353   0.673   9.878  1.9396  2.3131  1.2432
  757MPD2     N11243   4.700   0.712   9.597 -0.3187 -0.3572 -0.2188
  757MPD2    H511244   0.032   0.661   9.545 -0.7436  0.1487 -1.2898
  757MPD2    N111245   4.513   0.280   9.709  0.0079 -0.1780  0.2909
  757MPD2    H711246   4.423   0.244   9.740 -0.1298 -1.5321 -1.7130
  758MPD2     C11247   0.397   3.474  15.712  0.6343  0.3578  0.8218
  758MPD2    C111248   0.501   3.507  15.790  0.4081  0.6944 -0.6221
  758MPD2    C211249   0.469   3.569  15.914 -0.5644  0.3949  0.2950
  758MPD2    C311250   0.343   3.600  15.954  0.2474 -0.1907  0.5099
  758MPD2    C411251   0.244   3.571  15.864 -0.7969 -0.3905  0.4268
  758MPD2    C511252   0.270   3.506  15.749 -0.4401  0.4515  0.2473
  758MPD2     H11253   0.557   3.596  15.971  0.6428 -1.9267 -0.4274
  758MPD2    H111254   0.139   3.588  15.884 -1.5159 -0.4063 -3.3726
  758MPD2    H211255   0.416   3.429  15.615 -2.2079  0.0569  0.4106
  758MPD2    H311256   0.193   3.481  15.677 -1.0014  1.3619  0.5250
  758MPD2     N11257   0.313   3.639  16.086 -0.4751 -0.3627 -0.1922
  758MPD2    H511258   0.220   3.625  16.122 -0.6533  2.9156  0.6150
  758MPD2    N111259   0.633   3.494  15.738 -0.0779  0.0731 -0.0057
  758MPD2    H711260   0.638   3.464  15.641 -0.9077  1.8160 -0.5897
  759MPD2     C11261   4.421   2.542   9.427 -0.7039 -0.7268 -0.0297
  759MPD2    C111262   4.540   2.487   9.372 -0.2397 -0.3150  0.7170
  759MPD2    C211263   4.639   2.580   9.335  0.1613  0.0593 -0.2294
  759MPD2    C311264   4.620   2.716   9.332 -0.0065 -0.3875 -0.6916
  759MPD2    C411265   4.501   2.761   9.370  0.3712  0.9388  0.2823
  759MPD2    C511266   4.409   2.673   9.416  0.2186  0.0501 -0.3346
  759MPD2     H11267   4.734   2.541   9.299  0.4674 -1.5226  2.2875
  759MPD2    H111268   4.473   2.866   9.369  0.1295  0.8823  0.6875
  759MPD2    H211269   4.333   2.485   9.456 -1.0932  0.7587  1.6624
  759MPD2    H311270   4.312   2.707   9.451 -0.2592 -1.5908 -0.0451
  759MPD2     N11271   4.708   2.814   9.282  0.4248  0.7467  0.4199
  759MPD2    H511272   4.664   2.902   9.257  0.3665  1.0731  1.7026
  759MPD2    N111273   4.577   2.351   9.382  0.3490 -0.4272 -0.0661
  759MPD2    H711274   4.667   2.308   9.363 -0.2839 -2.0540  0.6189
  760MPD2     C11275   3.471   4.677  11.826  0.1776  0.0627  0.1599
  760MPD2    C111276   3.386   4.616  11.920 -0.3202 -0.0460  0.6598
  760MPD2    C211277   3.410   4.483  11.954 -0.0903  0.6541 -0.3016
  760MPD2    C311278   3.507   4.411  11.882  0.8604  0.2072  0.3270
  760MPD2    C411279   3.565   4.470  11.771 -1.2424 -0.6924  0.4187
  760MPD2    C511280   3.559   4.600  11.754  0.7489 -0.3082  0.1745
  760MPD2     H11281   3.366   4.440  12.043 -1.6802 -1.2029 -1.9790
  760MPD2    H111282   3.639   4.408  11.722  1.8783  2.2172  1.5226
  760MPD2    H211283   3.474   0.044  11.801  0.3411  0.2982  1.1902
  760MPD2    H311284   3.608   4.641  11.667 -1.6083 -0.2081 -1.0944
  760MPD2     N11285   3.546   4.287  11.921  0.1456  0.1162 -0.3517
  760MPD2    H511286   3.623   4.241  11.873 -0.2512  0.8676 -1.7127
  760MPD2    N111287   3.311   4.690  12.017 -0.4469  0.3253 -0.1861
  760MPD2    H711288   3.259   4.640  12.088 -1.3047  1.0618 -0.3016
  761MPD2     C11289   0.039   3.685  11.295  0.0408 -0.1977 -0.0828
  761MPD2    C111290   0.161   3.630  11.301 -0.0100  0.1650  0.0585
  761MPD2    C211291   0.256   3.699  11.369 -0.0843  0.0763  0.1860
  761MPD2    C311292   0.231   3.825  11.429  0.5268  0.2166  0.1165
  761MPD2    C411293   0.097   3.872  11.428  0.7694  0.5272  1.3254
  761MPD2    C511294   0.003   3.803  11.364  0.0126  0.4508 -0.3703
  761MPD2     H11295   0.360   3.668  11.380  0.1026  1.1356  1.3747
  761MPD2    H111296   0.074   3.965  11.479 -1.1001  1.1105 -0.5781
  761MPD2    H211297   4.705   3.646  11.225  1.3865 -0.6023 -1.2522
  761MPD2    H311298   4.641   3.842  11.358 -0.0325  0.2505 -0.8956
  761MPD2     N11299   0.336   3.898  11.491 -0.5429  0.1381  0.1980
  761MPD2    H511300   0.323   3.999  11.488  0.8756  0.4075  2.8855
  761MPD2    N111301   0.177   3.509  11.226 -0.0689  0.6344  0.0580
  761MPD2    H711302   0.100   3.483  11.165  0.2630  0.9887 -0.5040
  762MPD2     C11303   0.537   3.724  10.715 -0.3965 -0.6528  0.2554
  762MPD2    C111304   0.539   3.587  10.694 -0.1940  0.0528  0.0749
  762MPD2    C211305   0.616   3.533  10.593 -0.3894 -0.4044 -0.7458
  762MPD2    C311306   0.706   3.610  10.516  0.2346 -0.2552  0.4177
  762MPD2    C411307   0.699   3.749  10.530  0.0267 -0.2888  0.2637
  762MPD2    C511308   0.621   3.805  10.629 -0.0727  0.2347 -0.3546
  762MPD2     H11309   0.624   3.425  10.582 -2.1259 -0.6852  0.6930
  762MPD2    H111310   0.763   3.821  10.479 -1.5407 -0.4134 -1.8704
  762MPD2    H211311   0.463   3.761  10.785  0.0663 -0.2846  0.5496
  762MPD2    H311312   0.618   3.913  10.641  2.2716  0.3230 -0.5724
  762MPD2     N11313   0.793   3.542  10.429  0.5023 -0.6669  0.6399
  762MPD2    H511314   0.782   3.442  10.436  3.5635 -0.9103  1.8658
  762MPD2    N111315   0.460   3.503  10.778 -0.5232  0.0594 -0.1778
  762MPD2    H711316   0.397   3.546  10.845  0.1674  0.7105  0.0589
  763MPD2     C11317   2.301   3.845  16.113  0.4941  0.0545  0.6999
  763MPD2    C111318   2.171   3.899  16.104 -0.6327  0.4713  0.2570
  763MPD2    C211319   2.165   4.034  16.152  0.6273 -1.0469  0.6036
  763MPD2    C311320   2.278   4.093  16.210 -1.1298 -0.7484  0.9769
  763MPD2    C411321   2.401   4.032  16.215 -0.1159 -0.2098  0.5957
  763MPD2    C511322   2.410   3.907  16.169 -0.6187 -0.7026 -0.6474
  763MPD2     H11323   2.070   4.085  16.148  0.9511 -0.4644  0.2212
  763MPD2    H111324   2.480   4.075  16.275  1.4070 -2.2944  0.0812
  763MPD2    H211325   2.327   3.744  16.083  3.8748  1.6424 -1.7636
  763MPD2    H311326   2.496   3.847  16.194 -1.0425  0.0970  2.7322
  763MPD2     N11327   2.288   4.222  16.253  0.0175 -0.3020  0.0793
  763MPD2    H511328   2.384   4.256  16.258 -0.1363  0.1656 -0.1185
  763MPD2    N111329   2.063   3.831  16.041 -0.1704 -0.2836 -0.0428
  763MPD2    H711330   1.974   3.879  16.031 -0.3710 -0.9465 -1.4057
  764MPD2     C11331   0.748   0.580  17.252 -0.1146  0.4138 -0.0127
  764MPD2    C111332   0.697   0.504  17.151  0.8031  0.1838  0.6196
  764MPD2    C211333   0.642   0.379  17.180  0.5990  0.7345 -0.0077
  764MPD2    C311334   0.643   0.333  17.312  0.0361 -0.4590  0.1546
  764MPD2    C411335   0.682   0.411  17.415  0.9307 -0.4774 -0.1826
  764MPD2    C511336   0.735   0.536  17.381  0.1955 -0.0860  0.3444
  764MPD2     H11337   0.600   0.317  17.101  1.2139 -0.2525  0.4366
  764MPD2    H111338   0.670   0.380  17.518 -1.0499 -0.8077 -0.5159
  764MPD2    H211339   0.801   0.672  17.234  1.3057 -0.2986  0.4926
  764MPD2    H311340   0.774   0.602  17.457  1.7189  1.6077 -1.8876
  764MPD2     N11341   0.583   0.212  17.322 -0.0709  0.7808 -0.4827
  764MPD2    H511342   0.540   0.162  17.244  3.0802 -1.6358 -0.6734
  764MPD2    N111343   0.696   0.529  17.010  0.0648  0.1057 -0.2213
  764MPD2    H711344   0.661   0.452  16.954 -2.1230 -0.2502  1.5923
  765MPD2     C11345   0.185   2.866  15.209  0.1815 -0.2031 -0.4158
  765MPD2    C111346   0.207   2.892  15.342  0.1466  0.0430  0.3321
  765MPD2    C211347   0.337   2.891  15.384  0.1289 -0.0661  0.1506
  765MPD2    C311348   0.444   2.862  15.304  0.2137 -0.0093  0.2594
  765MPD2    C411349   0.420   2.850  15.173  0.0343 -0.1174  0.0542
  765MPD2    C511350   0.294   2.846  15.127 -0.2484 -0.0259  0.1993
  765MPD2     H11351   0.357   2.916  15.487  0.0285 -1.7618  0.5854
  765MPD2    H111352   0.496   2.825  15.099  1.0493  0.6363  0.8518
  765MPD2    H211353   0.087   2.871  15.164  0.0244  1.6898  0.1286
  765MPD2    H311354   0.270   2.834  15.022  2.2380 -0.8496 -0.2807
  765MPD2     N11355   0.568   2.846  15.363 -0.3633 -0.5933  0.2276
  765MPD2    H511356   0.564   2.828  15.463 -0.2721  0.5851  0.4372
  765MPD2    N111357   0.102   2.932  15.420  0.1290 -0.5450  0.1710
  765MPD2    H711358   0.012   2.926  15.373  2.1034 -2.6141 -3.3421
  766MPD2     C11359   4.254   2.933  15.268 -0.3734 -0.1318  0.3094
  766MPD2    C111360   4.308   3.054  15.268  0.3315 -0.0135  0.7327
  766MPD2    C211361   4.321   3.121  15.143 -0.0739  0.7052  0.0044
  766MPD2    C311362   4.298   3.050  15.027  0.6038  0.6647 -0.3186
  766MPD2    C411363   4.256   2.919  15.035 -0.3582 -0.2036  0.1384
  766MPD2    C511364   4.220   2.866  15.154  0.5232 -0.1485  1.0940
  766MPD2     H11365   4.365   3.221  15.141  1.2971  0.1306  1.0737
  766MPD2    H111366   4.268   2.848  14.954  0.0542  1.1646 -1.0097
  766MPD2    H211367   4.227   2.876  15.356 -0.7277 -1.2761 -0.5420
  766MPD2    H311368   4.187   2.762  15.146 -0.4431  0.2947 -0.7055
  766MPD2     N11369   4.337   3.096  14.896  0.2225 -0.1846 -0.2059
  766MPD2    H511370   4.336   3.036  14.814  2.5252 -0.1761 -0.2355
  766MPD2    N111371   4.364   3.112  15.386  0.2749 -0.2953  0.1321
  766MPD2    H711372   4.407   3.204  15.373  1.8991 -0.8938  1.2757
  767MPD2     C11373   3.860   3.237  15.054 -0.0838  0.4061 -0.0731
  767MPD2    C111374   3.955   3.321  15.007 -0.3482 -0.6313 -0.3448
  767MPD2    C211375   3.983   3.323  14.870 -0.3008  0.0803 -0.4651
  767MPD2    C311376   3.922   3.228  14.791 -1.0382  0.4492 -0.0355
  767MPD2    C411377   3.827   3.141  14.836 -0.1202  0.6717  0.3723
  767MPD2    C511378   3.800   3.146  14.972  0.5952  0.3775 -0.1561
  767MPD2     H11379   4.058   3.387  14.826 -0.8684  0.6519 -0.6095
  767MPD2    H111380   3.791   3.059  14.776  2.2095  0.4064 -0.6485
  767MPD2    H211381   3.842   3.225  15.161 -1.5094 -1.0930 -0.4810
  767MPD2    H311382   3.729   3.073  15.008  0.3569  1.0515  0.7605
  767MPD2     N11383   3.961   3.212  14.659  0.9039 -0.4134  0.0635
  767MPD2    H511384   4.048   3.259  14.635  1.7969 -1.3913  1.3543
  767MPD2    N111385   3.996   3.426  15.102 -0.2415  0.1769 -0.6420
  767MPD2    H711386   3.981   3.395  15.198 -0.0599 -1.2151 -1.0627
  768MPD2     C11387   4.479   1.730  10.325  0.1944 -0.4969  0.0714
  768MPD2    C111388   4.492   1.832  10.417 -0.1002 -0.0507  0.3339
  768MPD2    C211389   4.584   1.825  10.517 -0.3062  0.2456  0.3365
  768MPD2    C311390   4.656   1.717  10.538  0.3753  0.0231  0.1117
  768MPD2    C411391   4.643   1.604  10.453 -0.2937 -0.4563 -0.4940
  768MPD2    C511392   4.560   1.617  10.344  0.1443  0.1593 -0.0960
  768MPD2     H11393   4.583   1.904  10.590 -0.2208 -1.6984  2.4334
  768MPD2    H111394   4.685   1.505  10.461  0.9798  0.1692  0.8047
  768MPD2    H211395   4.417   1.745  10.236 -0.0041  0.0491  0.3069
  768MPD2    H311396   4.552   1.540  10.268  1.7153 -1.1471  1.0822
  768MPD2     N11397   0.014   1.698  10.641 -0.3939  0.3681 -0.3320
  768MPD2    H511398   0.047   1.602  10.643  0.7495  0.7228 -2.9335
  768MPD2    N111399   4.413   1.945  10.422  0.0052 -0.0797 -0.4942
  768MPD2    H711400   4.435   2.006  10.501 -1.0424 -2.8853  1.9947
  769MPD2     C11401   1.582   4.491  15.135 -0.4178 -0.5797 -0.4640
  769MPD2    C111402   1.458   4.528  15.185  0.3372 -0.1153  0.0402
  769MPD2    C211403   1.459   4.632  15.282  0.2290  0.1630 -0.0995
  769MPD2    C311404   1.577   4.680  15.331  0.6203  0.0496 -0.0760
  769MPD2    C411405   1.702   4.625  15.283  0.0724  0.0743  0.0961
  769MPD2    C511406   1.699   4.544  15.173  0.2784  0.1563  0.1494
  769MPD2     H11407   1.365   4.664  15.326 -0.5678 -0.9698 -0.9533
  769MPD2    H111408   1.800   4.647  15.322  0.3026 -1.9778  0.6727
  769MPD2    H211409   1.582   4.424  15.051 -1.9328  2.0171 -2.5356
  769MPD2    H311410   1.784   4.495  15.126  1.1102  1.0511  0.7239
  769MPD2     N11411   1.576   0.055  15.413 -0.6675 -0.0231  0.6391
  769MPD2    H511412   1.484   0.084  15.443 -0.1452  3.2801 -0.9287
  769MPD2    N111413   1.342   4.471  15.128  0.1586 -0.1714  0.5018
  769MPD2    H711414   1.354   4.386  15.073 -1.1628  0.2259 -0.3955
  770MPD2     C11415   0.345   4.063  15.081 -0.5465  0.0538 -0.0219
  770MPD2    C111416   0.451   3.983  15.037  0.4802  0.3561 -0.7877
  770MPD2    C211417   0.581   4.033  15.056 -0.3083  0.0016  0.3587
  770MPD2    C311418   0.610   4.148  15.124  0.0300  0.3108 -0.1723
  770MPD2    C411419   0.505   4.229  15.160 -0.5475  0.3977  0.3323
  770MPD2    C511420   0.374   4.191  15.136  0.2889 -0.0497 -0.0815
  770MPD2     H11421   0.662   3.976  15.012 -0.4200  1.0578 -1.2183
  770MPD2    H111422   0.526   4.323  15.210  0.1111  0.3753  0.0930
  770MPD2    H211423   0.249   4.017  15.059  0.2943 -0.7145 -2.0700
  770MPD2    H311424   0.296   4.260  15.166 -1.0298 -1.4256 -0.3429
  770MPD2     N11425   0.748   4.181  15.142 -0.1574  0.9321  0.2705
  770MPD2    H511426   0.813   4.122  15.092  0.1952 -0.2357  2.1067
  770MPD2    N111427   0.430   3.871  14.959  0.5746 -0.0363 -0.4842
  770MPD2    H711428   0.333   3.843  14.950  0.0012  1.9846 -0.4038
  771MPD2     C11429   2.270   2.921  13.744 -0.0514 -0.4800 -0.4965
  771MPD2    C111430   2.180   3.031  13.726 -0.3365  0.3609  0.0126
  771MPD2    C211431   2.063   3.008  13.660 -0.7385 -1.0487  0.4843
  771MPD2    C311432   2.027   2.887  13.608  0.2007 -0.2693  0.6788
  771MPD2    C411433   2.115   2.781  13.630 -0.0361  0.4480 -0.0215
  771MPD2    C511434   2.240   2.799  13.681  0.4398 -0.2249 -0.1697
  771MPD2     H11435   1.990   3.084  13.634  1.0784  0.2638 -0.7329
  771MPD2    H111436   2.090   2.678  13.606 -1.1901  0.2688  1.9994
  771MPD2    H211437   2.362   2.937  13.798  0.6494  0.5812 -2.0025
  771MPD2    H311438   2.306   2.714  13.697  0.7689 -0.0315 -0.5095
  771MPD2     N11439   1.901   2.869  13.545 -0.1148  0.6589  0.0189
  771MPD2    H511440   1.833   2.944  13.553 -0.9124  0.0818 -1.3135
  771MPD2    N111441   2.205   3.159  13.782  0.3981 -0.1057  0.1676
  771MPD2    H711442   2.142   3.230  13.746  1.4456  1.4938  1.4584
  772MPD2     C11443   1.782   3.605  13.626 -0.5916  0.0188 -0.3532
  772MPD2    C111444   1.788   3.560  13.758  0.5434  0.3130  0.6394
  772MPD2    C211445   1.664   3.533  13.820  0.1213  0.3389  0.1306
  772MPD2    C311446   1.553   3.528  13.738  0.1176  0.4209 -0.3250
  772MPD2    C411447   1.552   3.552  13.604 -0.0942 -0.5212  0.4045
  772MPD2    C511448   1.670   3.593  13.548 -0.7032  0.1678 -0.0922
  772MPD2     H11449   1.665   3.499  13.923  1.2967 -1.8095 -0.5877
  772MPD2    H111450   1.463   3.549  13.541 -0.1351 -3.6742  0.6131
  772MPD2    H211451   1.878   3.631  13.581 -0.2646  0.8798  0.8507
  772MPD2    H311452   1.673   3.615  13.442  0.4809 -1.4238 -0.3822
  772MPD2     N11453   1.428   3.484  13.792 -0.2084  0.2016 -0.0803
  772MPD2    H511454   1.356   3.465  13.724 -1.2398  0.2378  1.0082
  772MPD2    N111455   1.911   3.541  13.828 -0.0976 -0.4221 -0.2845
  772MPD2    H711456   1.900   3.504  13.922  0.2888 -0.1717 -0.1390
  773MPD2     C11457   1.006   3.766   0.310  0.3694  0.4261  0.7758
  773MPD2    C111458   1.023   3.691   0.197  0.5131  0.4521  1.4467
  773MPD2    C211459   1.098   3.578   0.198 -0.2441  0.0650 -0.6180
  773MPD2    C311460   1.174   3.544   0.309  0.2218 -0.3769 -0.5884
  773MPD2    C411461   1.174   3.629   0.419 -0.1824  0.4030  0.5949
  773MPD2    C511462   1.082   3.734   0.421  0.1717  0.0399  0.3081
  773MPD2     H11463   1.108   3.513   0.112  0.3084  1.4519 -1.6100
  773MPD2    H111464   1.238   3.618   0.506 -0.9492 -0.2383  1.0823
  773MPD2    H211465   0.949   3.858   0.315  0.9249  0.7795  0.6212
  773MPD2    H311466   1.073   3.791   0.512  0.2614  0.5273  0.0122
  773MPD2     N11467   1.266   3.434   0.305  0.2361 -0.2628  0.2729
  773MPD2    H511468   1.254   3.363   0.234 -0.9201  0.1079  0.1050
  773MPD2    N111469   0.956   3.724   0.077  0.4742 -0.3528 -0.2637
  773MPD2    H711470   0.967   3.657   0.001  1.3540  0.3820 -0.7804
  774MPD2     C11471   0.259   2.936  13.486  0.2785 -0.6119 -0.2214
  774MPD2    C111472   0.203   3.045  13.540 -0.1762 -0.8655  0.6596
  774MPD2    C211473   0.270   3.163  13.536  0.1209  0.7497  0.2098
  774MPD2    C311474   0.389   3.176  13.462 -0.6615  0.5105  0.7322
  774MPD2    C411475   0.444   3.064  13.409  0.2152 -0.1388  0.3397
  774MPD2    C511476   0.381   2.941  13.421  0.5837 -0.4253 -0.0074
  774MPD2     H11477   0.239   3.255  13.585  0.1789  1.2185 -0.6366
  774MPD2    H111478   0.541   3.064  13.359  0.8231  2.0601  1.4939
  774MPD2    H211479   0.203   2.843  13.488 -2.9776  1.3985  1.3347
  774MPD2    H311480   0.424   2.846  13.392 -2.0522 -1.9616  1.1572
  774MPD2     N11481   0.453   3.301  13.461 -0.2359  0.3268 -0.2608
  774MPD2    H511482   0.390   3.379  13.479 -0.4505 -0.0590  0.6755
  774MPD2    N111483   0.084   3.031  13.618 -0.1096  0.2024  0.4861
  774MPD2    H711484   0.050   2.939  13.642 -1.5647  1.3770  2.9720
  775MPD2     C11485   1.579   4.558  15.758  0.5127 -0.4721  0.8279
  775MPD2    C111486   1.653   4.605  15.866  0.2999 -0.1098 -0.4602
  775MPD2    C211487   1.775   4.657  15.845 -0.2041  0.0688 -0.8460
  775MPD2    C311488   1.826   4.658  15.720 -0.9164 -0.1181  0.4674
  775MPD2    C411489   1.764   4.587  15.621  0.7417  0.5944  0.3581
  775MPD2    C511490   1.640   4.550  15.643  0.1415  0.1966 -0.1025
  775MPD2     H11491   1.830   4.706  15.925 -0.2208 -0.3081 -0.6000
  775MPD2    H111492   1.807   4.564  15.524 -0.0776  1.7775 -0.2815
  775MPD2    H211493   1.485   4.508  15.778  0.2526  0.1699  1.1955
  775MPD2    H311494   1.588   4.506  15.558  1.8501  0.0567 -1.0735
  775MPD2     N11495   1.941   4.727  15.680  0.4511 -0.1988 -0.7376
  775MPD2    H511496   1.960   4.716  15.581 -0.1410  0.5308 -0.9305
  775MPD2    N111497   1.586   4.622  15.994  0.1074 -0.0866 -0.4698
  775MPD2    H711498   1.490   4.590  15.989  0.7145 -2.1674  1.1302
  776MPD2     C11499   4.474   0.006  12.109 -0.4966  0.2932 -0.4354
  776MPD2    C111500   4.480   0.071  11.987  0.3742  0.1456  0.2704
  776MPD2    C211501   4.495   0.211  11.980 -0.5193  0.2609 -0.1689
  776MPD2    C311502   4.520   0.281  12.094  0.5353  0.7779 -0.1766
  776MPD2    C411503   4.509   0.213  12.217 -0.5704  0.6045 -0.1902
  776MPD2    C511504   4.488   0.080  12.220  0.1197 -0.9379  0.5323
  776MPD2     H11505   4.500   0.272  11.890  0.5489 -0.9685 -0.9400
  776MPD2    H111506   4.519   0.267  12.311 -0.6439 -1.6104  1.1071
  776MPD2    H211507   4.459   4.637  12.114 -3.9167  0.8478  1.1775
  776MPD2    H311508   4.495   0.023  12.312  0.2269  2.5551  2.6809
  776MPD2     N11509   4.543   0.420  12.097 -0.5312 -0.1877  0.3594
  776MPD2    H511510   4.557   0.448  12.194  0.4081  1.0387 -0.1383
  776MPD2    N111511   4.472   4.731  11.865  0.1875 -0.1491  0.0905
  776MPD2    H711512   4.471   4.629  11.870  1.7063 -0.2779 -2.6284
  777MPD2     C11513   0.826   2.480   0.813 -0.0349  0.1482 -0.1843
  777MPD2    C111514   0.878   2.355   0.850  0.0166  0.3682  0.7900
  777MPD2    C211515   0.892   2.261   0.747  1.1691 -0.1943 -0.0869
  777MPD2    C311516   0.850   2.297   0.615  0.1827 -0.4073 -0.0638
  777MPD2    C411517   0.797   2.420   0.584  0.1883  0.7911  0.4797
  777MPD2    C511518   0.795   2.513   0.688  0.1457 -0.2038  0.3698
  777MPD2     H11519   0.937   2.163   0.760 -0.4897 -0.7990  1.0504
  777MPD2    H111520   0.767   2.458   0.487  3.3015  1.1835 -0.3221
  777MPD2    H211521   0.824   2.553   0.893 -0.5846  0.5281 -0.5409
  777MPD2    H311522   0.761   2.612   0.662 -0.1675  0.6003  3.9064
  777MPD2     N11523   0.863   2.201   0.513 -0.0166 -0.0627 -0.4296
  777MPD2    H511524   0.909   2.113   0.532 -0.5779 -0.0913  0.7545
  777MPD2    N111525   0.900   2.329   0.990 -0.0799 -0.1586 -0.0229
  777MPD2    H711526   0.879   2.405   1.054 -0.4636 -0.1971 -0.1077
  778MPD2     C11527   2.081   2.824  15.013 -0.5775 -0.2643 -0.2898
  778MPD2    C111528   2.094   2.725  14.915 -0.3555  0.1115  0.4459
  778MPD2    C211529   2.176   2.751  14.805 -0.3344 -0.0447 -0.5986
  778MPD2    C311530   2.230   2.878  14.796 -0.5794  0.0934  0.4154
  778MPD2    C411531   2.205   2.975  14.889  0.4495 -0.3737  0.3462
  778MPD2    C511532   2.134   2.950  15.004 -0.6442 -1.2263  0.6351
  778MPD2     H11533   2.198   2.683  14.723 -0.6183  1.4802 -1.9345
  778MPD2    H111534   2.248   3.072  14.868 -0.4860 -0.0019  0.1225
  778MPD2    H211535   2.013   2.809  15.096  0.3494  0.5032  0.6202
  778MPD2    H311536   2.114   3.027  15.077 -0.5567 -0.1465 -0.4659
  778MPD2     N11537   2.310   2.910  14.678  0.5677  0.5401 -0.1237
  778MPD2    H511538   2.330   2.831  14.617 -0.5497 -0.0858  0.3205
  778MPD2    N111539   2.026   2.600  14.919 -0.4650  0.4081 -0.0658
  778MPD2    H711540   2.034   2.539  14.839  2.0959  1.2108 -0.4265
  779MPD2     C11541   1.910   1.476  13.755  0.2208 -0.1737  0.5930
  779MPD2    C111542   1.953   1.459  13.883 -1.0686  0.2766 -0.8980
  779MPD2    C211543   1.971   1.574  13.955  0.2561  0.4727 -0.5134
  779MPD2    C311544   1.959   1.701  13.907  0.2059 -0.0040 -0.0676
  779MPD2    C411545   1.913   1.710  13.781  0.0484  0.3183 -0.6274
  779MPD2    C511546   1.883   1.597  13.706 -0.1309 -0.5006 -0.0120
  779MPD2     H11547   1.999   1.566  14.060  0.1948  1.1993 -0.4383
  779MPD2    H111548   1.891   1.807  13.738 -2.0113 -0.0449 -0.4010
  779MPD2    H211549   1.909   1.388  13.691  3.3536 -1.2555  2.0052
  779MPD2    H311550   1.851   1.606  13.603 -1.4225  0.5256  0.4823
  779MPD2     N11551   1.978   1.808  13.994 -0.0556  0.0466 -0.6563
  779MPD2    H511552   2.030   1.788  14.079 -1.0999 -0.5753 -0.1657
  779MPD2    N111553   1.978   1.337  13.945  0.0613 -0.7106 -0.0589
  779MPD2    H711554   2.019   1.335  14.038 -1.0300 -0.5333  0.4201
  780MPD2     C11555   0.724   1.510   0.793 -0.3832 -0.6924  0.0312
  780MPD2    C111556   0.826   1.419   0.780 -0.0912 -0.0695  0.2616
  780MPD2    C211557   0.909   1.433   0.672 -0.3552  0.0905 -0.8362
  780MPD2    C311558   0.909   1.543   0.591  0.0694  0.3578 -0.2052
  780MPD2    C411559   0.815   1.639   0.613  0.2632  0.5092  0.2903
  780MPD2    C511560   0.728   1.628   0.718  0.4730 -0.5689  0.3650
  780MPD2     H11561   0.972   1.351   0.641 -1.4187 -0.7532 -0.7838
  780MPD2    H111562   0.823   1.726   0.549  1.3753 -0.2551 -0.6239
  780MPD2    H211563   0.654   1.498   0.875 -1.3150 -2.6576 -1.0600
  780MPD2    H311564   0.657   1.706   0.741 -0.7758 -1.6447  0.1492
  780MPD2     N11565   1.006   1.546   0.490 -0.0994  0.1624  0.1286
  780MPD2    H511566   1.070   1.469   0.481 -1.5400 -0.9161 -0.8517
  780MPD2    N111567   0.814   1.299   0.861 -0.4322 -0.2677 -0.5261
  780MPD2    H711568   0.735   1.300   0.925 -0.8331  3.4029 -1.0901
  781MPD2     C11569   2.526   3.705  12.077  0.1892  0.6050  0.4064
  781MPD2    C111570   2.602   3.592  12.083  0.2653  0.6152 -0.0604
  781MPD2    C211571   2.691   3.555  11.982  0.7865 -0.0995 -0.4705
  781MPD2    C311572   2.706   3.636  11.866 -0.1603  0.5810 -0.2758
  781MPD2    C411573   2.645   3.759  11.866 -0.1300  1.1804 -0.2273
  781MPD2    C511574   2.555   3.795  11.966  0.3020  0.4783 -0.1068
  781MPD2     H11575   2.750   3.467  12.007 -0.5281 -1.1147 -0.9786
  781MPD2    H111576   2.662   3.830  11.785 -1.5384  1.9436  0.1557
  781MPD2    H211577   2.443   3.722  12.145  0.1737  1.5214  0.1667
  781MPD2    H311578   2.503   3.890  11.968 -0.0745  0.3131 -2.6661
  781MPD2     N11579   2.805   3.601  11.778  0.4034 -0.5830 -0.5010
  781MPD2    H511580   2.842   3.677  11.720  1.7981 -3.0214 -2.7928
  781MPD2    N111581   2.592   3.503  12.195 -0.2095  0.7343 -0.1332
  781MPD2    H711582   2.676   3.455  12.224 -0.2292 -0.6444 -2.4176
  782MPD2     C11583   1.034   4.281  10.418 -0.0047 -0.2767 -0.8186
  782MPD2    C111584   1.152   4.224  10.454 -0.6356 -0.4594  0.8484
  782MPD2    C211585   1.225   4.278  10.558  0.2502 -0.1248  0.3821
  782MPD2    C311586   1.180   4.390  10.624 -0.1797  0.9122  0.0054
  782MPD2    C411587   1.052   4.443  10.591 -0.1764 -0.2579  0.9518
  782MPD2    C511588   0.987   4.391  10.483  0.1656  0.0236 -0.1309
  782MPD2     H11589   1.314   4.228  10.594  0.6486  0.2426 -0.0964
  782MPD2    H111590   1.010   4.532  10.636 -1.0825 -0.3394  0.2519
  782MPD2    H211591   0.966   4.235  10.347  1.5779 -1.1525 -1.7550
  782MPD2    H311592   0.882   4.413  10.469  0.6709  1.1917 -2.1166
  782MPD2     N11593   1.258   4.436  10.731  0.0268 -0.0468 -0.1905
  782MPD2    H511594   1.350   4.394  10.742 -0.0665 -0.0416  0.6333
  782MPD2    N111595   1.175   4.096  10.404 -0.3047 -0.1276 -0.6087
  782MPD2    H711596   1.095   4.057  10.356 -2.6211  2.0412  1.4708
  783MPD2     C11597   0.731   3.600  11.008 -0.2411 -0.0106 -0.2896
  783MPD2    C111598   0.759   3.737  11.013  0.1180  0.3415  0.1461
  783MPD2    C211599   0.841   3.794  10.911  0.6584  0.2248  0.2480
  783MPD2    C311600   0.905   3.706  10.825 -0.0139  0.3146  0.2743
  783MPD2    C411601   0.865   3.575  10.815  0.6161  0.0402 -0.3493
  783MPD2    C511602   0.779   3.522  10.905 -0.1040 -0.0313  0.6410
  783MPD2     H11603   0.864   3.900  10.919  2.8761 -0.3092  0.9847
  783MPD2    H111604   0.899   3.515  10.731  3.0739  1.2706 -0.2352
  783MPD2    H211605   0.673   3.538  11.075 -0.1687 -0.2957 -0.4914
  783MPD2    H311606   0.751   3.417  10.902  0.9174 -0.2534 -1.0543
  783MPD2     N11607   1.007   3.758  10.743 -0.0644 -0.0171 -0.0264
  783MPD2    H511608   1.034   3.855  10.746  0.9843 -0.2616 -1.8386
  783MPD2    N111609   0.705   3.815  11.122 -0.3740 -0.5125 -0.0046
  783MPD2    H711610   0.660   3.758  11.193  0.6612 -0.1898  0.9015
  784MPD2     C11611   3.891   3.953   0.552  0.1785 -0.1821 -0.6663
  784MPD2    C111612   3.897   3.989   0.682  0.3951  0.5715  0.0015
  784MPD2    C211613   3.780   4.026   0.757  0.1517 -0.6610 -0.1074
  784MPD2    C311614   3.660   4.028   0.690  0.4469 -0.0053 -1.3269
  784MPD2    C411615   3.658   3.978   0.563  0.0682 -0.4208 -0.0838
  784MPD2    C511616   3.772   3.954   0.491  0.1549 -0.2150  0.0365
  784MPD2     H11617   3.803   4.063   0.856 -2.3721  0.5822  0.0014
  784MPD2    H111618   3.569   3.986   0.501  1.2862  0.5703 -1.7022
  784MPD2    H211619   3.976   3.906   0.503  0.3363  1.1653 -1.6664
  784MPD2    H311620   3.768   3.915   0.390 -0.8571 -1.2451  0.4726
  784MPD2     N11621   3.551   4.090   0.762 -0.3729 -0.0581  0.1656
  784MPD2    H511622   3.574   4.140   0.848 -4.5694  1.3229  0.5040
  784MPD2    N111623   4.017   3.999   0.751  0.4421  0.1945 -0.5407
  784MPD2    H711624   4.019   4.044   0.842 -2.4015 -2.0089  0.6307
  785MPD2     C11625   3.903   2.951  10.039  0.3309 -0.3147  0.4183
  785MPD2    C111626   3.802   3.009  10.119  0.2538  0.1955 -0.4311
  785MPD2    C211627   3.669   2.984  10.080 -0.2176 -0.5269 -0.0956
  785MPD2    C311628   3.637   2.914   9.965 -0.8052  0.1278 -0.1571
  785MPD2    C411629   3.738   2.861   9.890 -0.1896 -0.7840 -0.4148
  785MPD2    C511630   3.865   2.886   9.924 -0.1834  0.4913 -0.4094
  785MPD2     H11631   3.584   3.018  10.138 -0.6514  0.0616 -1.0802
  785MPD2    H111632   3.723   2.787   9.812  0.0265 -1.0278 -0.2255
  785MPD2    H211633   4.008   2.969  10.056 -0.2113  1.1794  2.1293
  785MPD2    H311634   3.942   2.840   9.863 -1.0025  0.3778 -1.3557
  785MPD2     N11635   3.499   2.899   9.939 -0.5105 -0.1963  0.3979
  785MPD2    H511636   3.430   2.932  10.005 -0.1886 -2.0830  1.6761
  785MPD2    N111637   3.834   3.094  10.227  0.4263 -0.0908 -0.5607
  785MPD2    H711638   3.930   3.111  10.256  0.8891 -1.9760 -0.9475
  786MPD2     C11639   2.034   0.657  14.883  0.2880 -0.2612 -0.8178
  786MPD2    C111640   2.166   0.651  14.846 -0.1426  0.3094 -0.5831
  786MPD2    C211641   2.270   0.639  14.940  0.2727 -0.5164  0.9445
  786MPD2    C311642   2.240   0.626  15.070 -0.1223  0.2977 -0.0757
  786MPD2    C411643   2.106   0.615  15.107  0.2794 -0.2272  0.2891
  786MPD2    C511644   2.009   0.636  15.016 -0.4046 -0.0604  0.1458
  786MPD2     H11645   2.374   0.629  14.912  0.4828 -1.4357  2.0458
  786MPD2    H111646   2.071   0.595  15.207  2.8673 -4.1889  0.3953
  786MPD2    H211647   1.951   0.688  14.821 -0.6291  0.0873  0.5970
  786MPD2    H311648   1.905   0.637  15.046  0.0148  1.3746  1.5448
  786MPD2     N11649   2.333   0.621  15.177 -0.4259  0.3701  0.0202
  786MPD2    H511650   2.301   0.596  15.270 -1.0799 -2.6651 -1.0171
  786MPD2    N111651   2.208   0.662  14.713 -0.5155 -0.2044  0.2555
  786MPD2    H711652   2.309   0.661  14.702 -0.5823  2.0986 -0.5617
  787MPD2     C11653   2.722   0.392  14.624  0.5528  0.5063  0.6799
  787MPD2    C111654   2.658   0.346  14.510  0.0978 -0.8299 -0.0659
  787MPD2    C211655   2.692   0.225  14.447  0.6208  0.2604 -0.1795
  787MPD2    C311656   2.804   0.156  14.494 -0.2355  0.0686  1.0931
  787MPD2    C411657   2.873   0.213  14.605 -0.0917  0.6629  0.3836
  787MPD2    C511658   2.830   0.324  14.666  0.2709  0.3449 -0.2547
  787MPD2     H11659   2.641   0.181  14.363 -0.0129  2.9080 -1.1751
  787MPD2    H111660   2.967   0.173  14.642 -1.6435 -1.3492  2.0995
  787MPD2    H211661   2.698   0.483  14.677  3.1714  0.7643  1.4608
  787MPD2    H311662   2.891   0.360  14.747  0.9135 -0.0543 -0.5658
  787MPD2     N11663   2.850   0.037  14.440  0.1865  0.0637 -0.5973
  787MPD2    H511664   2.818   0.021  14.345 -0.3300  3.7490 -1.0601
  787MPD2    N111665   2.552   0.428  14.466  0.2089  0.0361 -0.1404
  787MPD2    H711666   2.535   0.507  14.527 -0.5667 -1.5661  1.7370
  788MPD2     C11667   0.056   3.765   0.889  0.0567  0.2320 -0.1910
  788MPD2    C111668   0.026   3.700   0.776  0.5320 -0.3219 -0.2945
  788MPD2    C211669   4.738   3.772   0.660 -0.0124  0.7308  0.4007
  788MPD2    C311670   4.734   3.907   0.665  0.4172 -0.3362  0.7630
  788MPD2    C411671   0.034   3.968   0.781 -0.5230  0.4964 -0.0386
  788MPD2    C511672   0.065   3.900   0.894 -0.1676  0.2773  0.3663
  788MPD2     H11673   4.709   3.714   0.573  0.9603 -0.7541  1.0696
  788MPD2    H111674   0.030   4.076   0.794  0.4158  0.5165  0.0693
  788MPD2    H211675   0.080   3.720   0.984  4.4613 -0.6549 -1.7125
  788MPD2    H311676   0.074   3.956   0.986 -0.9694  0.2989  0.4330
  788MPD2     N11677   4.703   3.992   0.554  0.6317  0.1719  0.3551
  788MPD2    H511678   4.695   4.090   0.579  1.6750  0.6091 -1.0131
  788MPD2    N111679   4.738   3.562   0.770  0.2169 -0.2933  0.4879
  788MPD2    H711680   4.698   3.529   0.683  1.0662  0.3777 -0.1601
  789MPD2     C11681   0.208   3.332  16.587  0.1302  0.5645 -0.3780
  789MPD2    C111682   0.120   3.372  16.488  0.4556 -0.2018  0.2751
  789MPD2    C211683   0.007   3.453  16.520 -1.1997 -0.0583  0.2852
  789MPD2    C311684   4.708   3.468  16.648  0.1000 -0.0395  0.3811
  789MPD2    C411685   0.055   3.428  16.754 -0.5125 -0.2385  0.0061
  789MPD2    C511686   0.170   3.362  16.718  0.2097  0.5644 -0.0056
  789MPD2     H11687   4.678   3.488  16.443  0.1857  0.7492 -0.5533
  789MPD2    H111688   0.021   3.432  16.857  0.8257  1.6531  0.3829
  789MPD2    H211689   0.285   3.260  16.563 -0.8030 -0.0190 -1.6099
  789MPD2    H311690   0.226   3.320  16.801  1.6449  0.0239 -1.2553
  789MPD2     N11691   4.587   3.524  16.684  0.2362  0.3108 -0.1105
  789MPD2    H511692   4.563   3.514  16.782 -0.7634  1.0083 -0.2802
  789MPD2    N111693   0.135   3.343  16.352  0.4666 -0.9811  0.1099
  789MPD2    H711694   0.060   3.368  16.288  1.3884  2.4568  0.4021
  790MPD2     C11695   0.849   0.543  13.507  0.5739 -0.3563  0.1899
  790MPD2    C111696   0.832   0.410  13.501  0.7084 -0.1864 -1.0271
  790MPD2    C211697   0.798   0.355  13.380 -0.6726 -1.2868  0.6319
  790MPD2    C311698   0.809   0.422  13.259 -0.4277 -0.2316 -0.4597
  790MPD2    C411699   0.837   0.558  13.268  1.0783  0.6116 -0.0595
  790MPD2    C511700   0.853   0.615  13.388  0.5598 -0.4442 -0.9545
  790MPD2     H11701   0.782   0.248  13.372 -2.0423 -0.9810 -0.7205
  790MPD2    H111702   0.839   0.621  13.179 -0.1898  1.7554  0.7169
  790MPD2    H211703   0.867   0.600  13.598  0.4846  1.2583 -0.8013
  790MPD2    H311704   0.868   0.722  13.397  0.0672 -0.5409  1.1635
  790MPD2     N11705   0.787   0.356  13.131  0.5032  0.3521 -0.1804
  790MPD2    H511706   0.735   0.269  13.132  2.3271 -0.7174  2.0213
  790MPD2    N111707   0.841   0.341  13.624  0.1622 -0.3812  0.5934
  790MPD2    H711708   0.873   0.394  13.705 -0.7028 -1.4202  1.6238
  791MPD2     C11709   0.325   0.218  12.454 -0.1081 -0.5362  0.0253
  791MPD2    C111710   0.346   0.162  12.577  0.2530  0.1821 -0.6612
  791MPD2    C211711   0.243   0.090  12.636  1.3354 -0.3775  0.0732
  791MPD2    C311712   0.117   0.082  12.577  0.1280 -0.4123  0.9479
  791MPD2    C411713   0.098   0.136  12.454 -0.0695 -0.2025 -0.7829
  791MPD2    C511714   0.204   0.204  12.395 -0.6190  0.1453  0.1755
  791MPD2     H11715   0.253   0.036  12.730 -0.2155 -1.3130 -0.2935
  791MPD2    H111716   0.004   0.121  12.401 -0.6710  0.3936  0.1216
  791MPD2    H211717   0.392   0.282  12.399  2.0000 -2.4334  0.3882
  791MPD2    H311718   0.190   0.240  12.294  0.2236  2.0636  0.7448
  791MPD2     N11719   0.008   0.018  12.642  0.1339 -0.0542 -0.6215
  791MPD2    H511720   0.029   4.698  12.722 -2.4802  1.0130  0.8497
  791MPD2    N111721   0.468   0.190  12.636  0.1665  0.0238  0.8574
  791MPD2    H711722   0.539   0.237  12.581  0.0718 -0.6551  0.1485
  792MPD2     C11723   0.286   0.407  11.122  0.7532 -0.2386 -0.1811
  792MPD2    C111724   0.405   0.379  11.061  0.7182  0.0694 -0.9387
  792MPD2    C211725   0.420   0.261  10.992  0.0053 -0.5499 -0.5632
  792MPD2    C311726   0.316   0.172  10.978 -0.6297 -0.0070 -0.6840
  792MPD2    C411727   0.189   0.207  11.033  0.5779  0.4828 -0.1494
  792MPD2    C511728   0.181   0.319  11.112 -0.5155  0.2841  0.1099
  792MPD2     H11729   0.515   0.259  10.940 -0.6726  0.6580 -1.8591
  792MPD2    H111730   0.096   0.153  11.021  0.6524 -0.5330  3.8427
  792MPD2    H211731   0.265   0.497  11.178  0.3163 -0.3736 -0.1286
  792MPD2    H311732   0.094   0.339  11.173 -1.4906 -3.0635 -0.1532
  792MPD2     N11733   0.326   0.053  10.900 -0.0392  0.2379 -0.4330
  792MPD2    H511734   0.245   4.730  10.906  0.3605 -0.3386 -1.0063
  792MPD2    N111735   0.517   0.468  11.075  0.4701 -0.1753 -0.8634
  792MPD2    H711736   0.602   0.452  11.020 -1.3115 -1.7194 -3.1786
  793MPD2     C11737   0.321   4.644   9.973  0.1374 -0.3596  0.3322
  793MPD2    C111738   0.439   4.677  10.036  0.0414 -0.1302  0.6218
  793MPD2    C211739   0.452   4.666  10.172 -0.6931 -0.0818  0.7606
  793MPD2    C311740   0.354   4.597  10.242 -1.4778 -0.1139  0.2533
  793MPD2    C411741   0.236   4.560  10.179 -0.1365 -0.1550 -0.0676
  793MPD2    C511742   0.217   4.599  10.049 -0.1713  0.6506  0.3864
  793MPD2     H11743   0.537   4.713  10.221  0.9708 -0.5984 -1.6099
  793MPD2    H111744   0.154   4.516  10.235  0.4062  0.0410  0.8971
  793MPD2    H211745   0.298   4.658   9.868 -0.1549  0.9383  0.5712
  793MPD2    H311746   0.119   4.577  10.009  0.6278 -1.8962 -0.2043
  793MPD2     N11747   0.379   4.586  10.378 -0.3392  0.1461 -0.1923
  793MPD2    H511748   0.469   4.623  10.405 -0.7974  2.5346 -1.9370
  793MPD2    N111749   0.545   4.732   9.974 -0.0672  0.3309 -0.3183
  793MPD2    H711750   0.626   0.015  10.031  0.2168 -0.7321 -0.3128
  794MPD2     C11751   0.673   4.377  17.341  0.3677  0.3051 -0.0530
  794MPD2    C111752   0.637   4.249  17.288  0.3815 -0.4574 -0.5032
  794MPD2    C211753   0.591   4.244  17.156  0.0325  0.6239 -0.1878
  794MPD2    C311754   0.588   4.357  17.088  0.1769 -0.3863 -0.1605
  794MPD2    C411755   0.625   4.482  17.143  0.5346  0.4238 -0.4203
  794MPD2    C511756   0.660   4.492  17.272 -0.0666  0.7326 -0.1381
  794MPD2     H11757   0.562   4.148  17.114 -2.4085  1.0234  0.6079
  794MPD2    H111758   0.641   4.571  17.083  4.5391  0.7020  1.0845
  794MPD2    H211759   0.718   4.390  17.438  1.1610  1.2473 -0.5492
  794MPD2    H311760   0.693   4.581  17.324  0.0494 -0.2119  1.3814
  794MPD2     N11761   0.558   4.358  16.953  0.6230  0.4854  0.9942
  794MPD2    H511762   0.536   4.449  16.915  1.2690  0.0779 -0.3603
  794MPD2    N111763   0.653   4.135  17.364 -0.3669  0.1063  0.3994
  794MPD2    H711764   0.620   4.049  17.320  3.4595 -0.3933 -1.5085
  795MPD2     C11765   2.670   2.029  13.828 -0.0670  0.1546 -0.5503
  795MPD2    C111766   2.681   1.948  13.713  0.3867 -0.1926  0.2480
  795MPD2    C211767   2.764   1.839  13.728  0.2019  0.1985  1.1972
  795MPD2    C311768   2.834   1.805  13.844  0.8672 -0.8359  0.1462
  795MPD2    C411769   2.809   1.887  13.954  0.5489 -0.5228  1.0431
  795MPD2    C511770   2.731   1.998  13.948  0.0085  0.4875  0.5808
  795MPD2     H11771   2.782   1.780  13.639 -1.2358 -1.1475  1.7947
  795MPD2    H111772   2.838   1.871  14.057 -2.4002  1.5282  2.1973
  795MPD2    H211773   2.617   2.123  13.827 -1.4411 -0.6299 -1.6019
  795MPD2    H311774   2.712   2.056  14.038  1.7677  1.2849  0.4197
  795MPD2     N11775   2.915   1.689  13.857  0.2228  0.3345  0.2803
  795MPD2    H511776   2.924   1.625  13.778  0.7803  0.7557  0.0014
  795MPD2    N111777   2.626   1.982  13.590 -0.6743  0.8094 -0.1284
  795MPD2    H711778   2.634   1.911  13.518  4.2597  0.2630  0.9653
  796MPD2     C11779   2.376   3.035  15.987  0.4690 -0.4788  0.1572
  796MPD2    C111780   2.463   3.112  16.052 -0.4260  0.3008 -0.6205
  796MPD2    C211781   2.487   3.236  16.011 -0.3073  0.5219  0.0754
  796MPD2    C311782   2.416   3.292  15.910  0.0607  0.2430 -0.0505
  796MPD2    C411783   2.324   3.221  15.847  0.2813  0.0174  0.9948
  796MPD2    C511784   2.309   3.093  15.881 -0.0154  0.2884  0.6032
  796MPD2     H11785   2.556   3.299  16.065 -0.8535  2.0415 -0.9878
  796MPD2    H111786   2.278   3.258  15.756  1.2992 -1.0645  0.0393
  796MPD2    H211787   2.366   2.931  16.015 -1.2394 -0.9202 -2.0665
  796MPD2    H311788   2.235   3.037  15.825  0.8072 -0.8133  0.6265
  796MPD2     N11789   2.456   3.424  15.869 -0.2864 -0.2005 -0.2967
  796MPD2    H511790   2.529   3.463  15.928 -0.5879 -0.9485  0.5679
  796MPD2    N111791   2.537   3.065  16.167  0.0116  0.0052 -0.4736
  796MPD2    H711792   2.603   3.135  16.202  0.7070  0.2750 -2.2999
  797MPD2     C11793   3.983   3.034  17.201 -0.4370  0.2718  0.2167
  797MPD2    C111794   4.052   3.110  17.109  0.2565  0.2483  0.4807
  797MPD2    C211795   3.988   3.174  17.002 -0.2266 -0.2352  0.0163
  797MPD2    C311796   3.856   3.156  16.989  0.4210  0.1249 -0.3954
  797MPD2    C411797   3.781   3.081  17.079 -0.8554  0.4039 -0.8915
  797MPD2    C511798   3.844   3.027  17.187  0.3439 -0.0928  0.0432
  797MPD2     H11799   4.044   3.239  16.936  1.5804 -2.0234 -0.2171
  797MPD2    H111800   3.673   3.081  17.066 -1.0882  1.6258  1.0353
  797MPD2    H211801   4.036   3.005  17.292  1.5936  0.2517 -0.9663
  797MPD2    H311802   3.783   2.978  17.262  1.3549 -1.2069  0.1236
  797MPD2     N11803   3.803   3.212  16.870 -0.1318 -0.0787 -0.1088
  797MPD2    H511804   3.872   3.268  16.822 -2.0910  1.8979 -0.6275
  797MPD2    N111805   4.194   3.147  17.123  0.4984 -0.2692 -0.2295
  797MPD2    H711806   4.227   3.219  17.060  0.6599 -2.0538 -2.1843
  798MPD2     C11807   4.281   3.282  16.405  0.5387 -0.9027 -0.7565
  798MPD2    C111808   4.198   3.288  16.512  0.3927  0.8240  0.2011
  798MPD2    C211809   4.258   3.273  16.637 -0.0680  0.0500  0.2849
  798MPD2    C311810   4.396   3.256  16.655 -0.3260  0.3561  0.6293
  798MPD2    C411811   4.474   3.252  16.543  0.1676  0.0778 -0.0058
  798MPD2    C511812   4.418   3.271  16.421  0.5758  0.0338  0.3840
  798MPD2     H11813   4.200   3.272  16.729 -1.9839 -0.0132 -0.9313
  798MPD2    H111814   4.578   3.224  16.551 -0.3267 -2.2344 -1.7639
  798MPD2    H211815   4.236   3.306  16.309 -0.1390 -0.6838 -0.3767
  798MPD2    H311816   4.476   3.280  16.330  0.8924 -1.3079  0.4636
  798MPD2     N11817   4.442   3.252  16.784  0.0062  0.0187  0.3763
  798MPD2    H511818   4.373   3.262  16.857 -2.2033  1.2221 -1.8817
  798MPD2    N111819   4.061   3.304  16.489  0.0716 -0.2629 -0.2437
  798MPD2    H711820   4.022   3.306  16.396  0.2280  4.0334 -0.1869
  799MPD2     C11821   2.496   4.610  14.697 -0.0985  0.3397 -0.0249
  799MPD2    C111822   2.422   4.531  14.614 -0.5808 -0.5133 -0.1981
  799MPD2    C211823   2.357   4.596  14.511  0.7845 -0.2184 -0.3798
  799MPD2    C311824   2.361   4.734  14.491 -0.5141 -0.6890  0.3023
  799MPD2    C411825   2.443   0.071  14.569 -0.3263  0.5345  0.3691
  799MPD2    C511826   2.508   0.001  14.669 -0.1623 -0.4118 -0.0557
  799MPD2     H11827   2.299   4.536  14.442  0.1497 -0.0065 -0.0264
  799MPD2    H111828   2.455   0.178  14.559 -0.8459  0.5265 -0.2618
  799MPD2    H211829   2.555   4.566  14.777 -1.2202  0.2396  0.7554
  799MPD2    H311830   2.566   0.064  14.736 -0.3117 -0.3665  0.0303
  799MPD2     N11831   2.304   0.062  14.378 -0.2779 -0.6028 -0.4299
  799MPD2    H511832   2.342   0.153  14.354  1.6857 -1.6220 -1.1333
  799MPD2    N111833   2.394   4.391  14.631  0.5238  0.7225  0.1705
  799MPD2    H711834   2.319   4.341  14.585  0.5655  1.4926 -0.7339
  800MPD2     C11835   2.353   0.766  13.884 -0.4162 -0.4289  0.4654
  800MPD2    C111836   2.460   0.721  13.967 -0.7068  0.3186  0.0776
  800MPD2    C211837   2.533   0.605  13.927 -0.4415  0.1188  0.5495
  800MPD2    C311838   2.512   0.552  13.798  0.3668  0.3575  0.5614
  800MPD2    C411839   2.407   0.605  13.721 -0.2477  0.8712 -0.1583
  800MPD2    C511840   2.324   0.704  13.772  0.3180  0.9716  0.0843
  800MPD2     H11841   2.625   0.572  13.974  0.1931 -0.1240 -0.8705
  800MPD2    H111842   2.397   0.570  13.619 -0.6886  0.0895  0.1448
  800MPD2    H211843   2.301   0.858  13.907 -1.4649 -0.6764 -0.9323
  800MPD2    H311844   2.250   0.737  13.700  1.0250 -2.7722 -2.3354
  800MPD2     N11845   2.600   0.456  13.754 -0.2870  0.4215 -0.1544
  800MPD2    H511846   2.663   0.423  13.826 -0.6307 -0.4836 -0.2715
  800MPD2    N111847   2.523   0.803  14.071 -0.7194 -0.1623  0.3522
  800MPD2    H711848   2.493   0.900  14.077 -1.9278 -0.4460 -1.1852
  801MPD2     C11849   2.732   1.523  14.209  0.1110  0.1418 -0.2418
  801MPD2    C111850   2.807   1.451  14.311  0.0192  0.0256  0.0466
  801MPD2    C211851   2.849   1.518  14.419 -0.2142 -0.5422  0.1769
  801MPD2    C311852   2.821   1.652  14.441  0.6530 -0.1702  0.2581
  801MPD2    C411853   2.751   1.722  14.341  0.3414  0.0802  0.2636
  801MPD2    C511854   2.709   1.654  14.224  0.1376  0.1253  0.0609
  801MPD2     H11855   2.910   1.467  14.493 -0.6357 -0.1290  0.8197
  801MPD2    H111856   2.723   1.826  14.337  0.1086 -0.0804 -2.1821
  801MPD2    H211857   2.698   1.488  14.112 -0.5193  0.2175 -0.0461
  801MPD2    H311858   2.661   1.705  14.141  0.8241  0.1577 -0.3176
  801MPD2     N11859   2.852   1.708  14.573  0.0537  0.0689  0.1262
  801MPD2    H511860   2.821   1.804  14.582  2.9012  1.0969 -1.1711
  801MPD2    N111861   2.835   1.307  14.299 -0.2146 -0.0767 -1.0601
  801MPD2    H711862   2.883   1.261  14.376  0.2241 -0.4626 -1.5715
  802MPD2     C11863   2.398   1.283   0.226  0.5724  0.0134 -0.7967
  802MPD2    C111864   2.426   1.401   0.152  0.3856  0.2411 -0.4075
  802MPD2    C211865   2.503   1.388   0.035  0.2650  0.8116  0.7620
  802MPD2    C311866   2.543   1.264  17.737  0.0157 -0.1167 -0.6955
  802MPD2    C411867   2.505   1.148   0.051  0.4280 -0.2409  0.9168
  802MPD2    C511868   2.434   1.159   0.170 -0.2395 -0.1732 -0.5481
  802MPD2     H11869   2.542   1.471  17.730  1.6624 -0.9669 -0.8380
  802MPD2    H111870   2.535   1.051   0.014 -1.2723 -0.4194  0.0398
  802MPD2    H211871   2.324   1.281   0.306  0.2207 -1.5008 -1.1572
  802MPD2    H311872   2.397   1.075   0.227 -0.3565 -0.0206 -0.3978
  802MPD2     N11873   2.634   1.249  17.626  0.1039  0.6299 -0.2798
  802MPD2    H511874   2.654   1.335  17.576  0.0935 -1.0048 -3.1083
  802MPD2    N111875   2.391   1.526   0.212  0.4377 -0.3389  0.4239
  802MPD2    H711876   2.342   1.514   0.300 -2.5494  0.1295 -1.1950
  803MPD2     C11877   2.845   0.325  12.242 -0.0724  0.3249  0.7118
  803MPD2    C111878   2.942   0.408  12.191 -0.0931  0.1349 -0.1298
  803MPD2    C211879   3.052   0.430  12.282 -0.4672  0.0204  0.0450
  803MPD2    C311880   3.073   0.354  12.397 -0.2096 -0.0490 -0.1370
  803MPD2    C411881   2.982   0.258  12.429  0.8996  0.4237 -0.1689
  803MPD2    C511882   2.869   0.249  12.355  0.3415 -0.0033  0.5244
  803MPD2     H11883   3.138   0.491  12.256 -0.9558  1.7394  2.4597
  803MPD2    H111884   3.008   0.185  12.504  1.2112  1.1520  0.4333
  803MPD2    H211885   2.757   0.296  12.186  0.2251  0.3833  0.2042
  803MPD2    H311886   2.793   0.178  12.384  0.4817 -0.6423 -0.6524
  803MPD2     N11887   3.188   0.347  12.481 -0.8740 -0.2658  0.1795
  803MPD2    H511888   3.197   0.260  12.534 -0.4186 -0.3083  0.0364
  803MPD2    N111889   2.935   0.484  12.074  0.1746  0.3530  0.2431
  803MPD2    H711890   3.010   0.549  12.055  0.3047  0.5241  1.3607
  804MPD2     C11891   3.109   1.467  17.630  0.8146 -0.6278  0.1874
  804MPD2    C111892   3.198   1.370  17.583 -0.2039  0.0625  0.0466
  804MPD2    C211893   3.328   1.408  17.545 -0.4166  0.3038  0.6903
  804MPD2    C311894   3.361   1.543  17.547  0.0033  0.3260 -0.4173
  804MPD2    C411895   3.269   1.635  17.604 -0.2476  0.4684 -0.1240
  804MPD2    C511896   3.146   1.598  17.638  0.1649 -0.1907 -0.1684
  804MPD2     H11897   3.399   1.333  17.512  0.6537  0.5989  2.3300
  804MPD2    H111898   3.288   1.739  17.627 -1.8648  0.3995  1.5401
  804MPD2    H211899   3.007   1.435  17.648  0.1120  0.7474 -1.3061
  804MPD2    H311900   3.078   1.673  17.675 -2.3029 -0.9560 -3.1433
  804MPD2     N11901   3.493   1.573  17.522  0.1715  0.0444  0.0759
  804MPD2    H511902   3.559   1.496  17.514 -0.6866 -0.7559  0.7454
  804MPD2    N111903   3.150   1.232  17.587  0.7321 -0.2248 -0.1268
  804MPD2    H711904   3.067   1.210  17.640  1.5943  0.1913  1.4051
  805MPD2     C11905   2.256   4.370  15.423  0.0246 -0.3953 -0.4059
  805MPD2    C111906   2.321   4.491  15.416 -0.0858  0.6723 -0.3167
  805MPD2    C211907   2.440   4.501  15.480 -0.2918 -0.0123 -0.4797
  805MPD2    C311908   2.491   4.394  15.557 -0.0847  0.5389  0.2968
  805MPD2    C411909   2.424   4.272  15.560  0.2604  0.2972 -0.1083
  805MPD2    C511910   2.308   4.269  15.496  0.3569 -0.0453 -0.6935
  805MPD2     H11911   2.502   4.590  15.472  0.7397 -0.6323  0.6890
  805MPD2    H111912   2.457   4.181  15.609  1.8446 -0.1539 -2.0268
  805MPD2    H211913   2.167   4.351  15.365  0.1659 -0.3039 -0.6555
  805MPD2    H311914   2.251   4.177  15.488 -2.3205  1.6498 -1.1403
  805MPD2     N11915   2.626   4.411  15.614 -0.4439  0.3412  0.1982
  805MPD2    H511916   2.679   4.492  15.583 -0.7295  0.5589  0.2792
  805MPD2    N111917   2.269   4.604  15.336  0.5726  0.1372  0.2927
  805MPD2    H711918   2.331   4.683  15.320 -0.8771  1.0579 -0.7652
  806MPD2     C11919   2.544   3.787   0.641  0.8641 -0.0210 -0.2779
  806MPD2    C111920   2.611   3.879   0.724  0.3373 -1.0554  0.6878
  806MPD2    C211921   2.661   3.989   0.654 -0.5048  0.0577 -0.3595
  806MPD2    C311922   2.636   4.011   0.519  0.8726  0.5198 -0.4458
  806MPD2    C411923   2.558   3.918   0.450 -0.9024  0.1782 -0.2536
  806MPD2    C511924   2.512   3.803   0.510 -0.3457  0.2345  0.8137
  806MPD2     H11925   2.717   4.061   0.713 -2.5484 -0.4627  2.2399
  806MPD2    H111926   2.537   3.926   0.343  1.8528 -0.3478 -0.8124
  806MPD2    H211927   2.506   3.697   0.688 -1.0897 -1.2810 -4.3178
  806MPD2    H311928   2.457   3.733   0.448 -0.1032  0.4693  0.3286
  806MPD2     N11929   2.702   4.122   0.468  0.0959 -0.3652  0.5333
  806MPD2    H511930   2.763   4.175   0.529 -0.1409 -0.1618  0.5901
  806MPD2    N111931   2.630   3.859   0.863 -0.3923  0.1346 -0.2788
  806MPD2    H711932   2.603   3.764   0.883  0.4435 -0.1189 -0.3674
  807MPD2     C11933   2.637   3.235   1.000  0.2899 -0.3926  0.2620
  807MPD2    C111934   2.662   3.288   1.126 -0.0946 -0.2839 -0.3491
  807MPD2    C211935   2.681   3.208   1.234 -0.0375  0.3032  0.0267
  807MPD2    C311936   2.667   3.067   1.222 -0.9397  0.6246  0.5144
  807MPD2    C411937   2.629   3.018   1.102 -0.4768  0.3272 -0.1542
  807MPD2    C511938   2.617   3.098   0.993  0.2836  1.0099  0.3912
  807MPD2     H11939   2.733   3.258   1.315  0.4986 -1.0754  0.5293
  807MPD2    H111940   2.624   2.911   1.083 -0.1451  0.7128 -2.4728
  807MPD2    H211941   2.623   3.297   0.912 -1.3976  3.0002  2.8958
  807MPD2    H311942   2.582   3.064   0.896 -1.1654 -2.3410  2.0608
  807MPD2     N11943   2.709   2.996   1.339  0.2920 -0.2869 -0.8608
  807MPD2    H511944   2.748   3.044   1.419 -1.8114  0.1559 -0.0996
  807MPD2    N111945   2.681   3.426   1.151 -0.1352 -0.1394  0.0209
  807MPD2    H711946   2.697   3.457   1.246  0.3840  2.7913 -1.0177
  808MPD2     C11947   3.507   0.888   9.449 -0.1269 -0.8859  0.5636
  808MPD2    C111948   3.575   0.818   9.352 -0.2093  0.2778  0.2818
  808MPD2    C211949   3.705   0.858   9.326  0.1960  0.0816 -0.0954
  808MPD2    C311950   3.769   0.950   9.404 -0.7044 -0.3253 -0.2654
  808MPD2    C411951   3.698   1.031   9.488  0.5640  0.1077  0.0800
  808MPD2    C511952   3.566   1.003   9.504  0.4973  0.1230 -0.0727
  808MPD2     H11953   3.757   0.803   9.248  0.3215 -0.0970  0.1146
  808MPD2    H111954   3.744   1.118   9.533  0.7675 -1.0004  2.0213
  808MPD2    H211955   3.401   0.886   9.468 -0.1111 -0.3232  0.7243
  808MPD2    H311956   3.509   1.082   9.551  1.5020  1.7314 -1.5453
  808MPD2     N11957   3.908   0.975   9.389 -0.6860  0.0953  0.5543
  808MPD2    H511958   3.935   1.060   9.436 -0.4498 -1.4115  3.1600
  808MPD2    N111959   3.514   0.720   9.272 -0.2347  0.1719  0.2587
  808MPD2    H711960   3.579   0.676   9.208 -0.3268  2.1847 -1.2342
  809MPD2     C11961   0.049   0.462   9.262  0.0099 -0.1371  0.1270
  809MPD2    C111962   0.063   0.584   9.191  0.1825  0.5343 -0.1145
  809MPD2    C211963   4.700   0.673   9.196  0.1399  0.5979 -0.1533
  809MPD2    C311964   4.598   0.656   9.281 -0.9984  0.4130  0.3277
  809MPD2    C411965   4.593   0.545   9.360 -0.3271 -0.1395  0.1508
  809MPD2    C511966   4.685   0.449   9.342 -0.1043 -0.1903 -0.1616
  809MPD2     H11967   4.713   0.753   9.123 -0.0520  1.0323  0.2909
  809MPD2    H111968   4.519   0.523   9.436  1.0320  0.2883  1.5839
  809MPD2    H211969   0.110   0.378   9.234 -0.3918 -0.2121 -0.5146
  809MPD2    H311970   4.680   0.360   9.405 -0.8595 -0.3636 -0.4684
  809MPD2     N11971   4.488   0.747   9.295  0.0980 -0.2520  0.4294
  809MPD2    H511972   4.415   0.715   9.358  1.7078  1.4504  3.1600
  809MPD2    N111973   0.176   0.604   9.104  0.4137  0.2337  0.0919
  809MPD2    H711974   0.159   0.680   9.039 -0.9662 -1.6767 -1.7860
  810MPD2     C11975   2.960   0.042   9.913 -0.4364 -0.0049 -0.3713
  810MPD2    C111976   2.930   0.029  10.049  0.6713  0.3141  0.6661
  810MPD2    C211977   3.000   0.108  10.143  0.2809 -1.0168  0.2659
  810MPD2    C311978   3.111   0.182  10.107  0.0007  0.4304  0.4873
  810MPD2    C411979   3.146   0.173   9.977 -0.1542 -0.3509  0.3206
  810MPD2    C511980   3.076   0.099   9.881  0.3761  0.1832  0.0426
  810MPD2     H11981   2.971   0.104  10.247 -0.5072  0.8891  0.1143
  810MPD2    H111982   3.230   0.233   9.944 -0.2729 -0.3191  0.0772
  810MPD2    H211983   2.918   4.728   9.828 -1.2819  1.6554 -0.9769
  810MPD2    H311984   3.107   0.091   9.778 -0.3543  2.2785 -0.3338
  810MPD2     N11985   3.177   0.278  10.188  0.1643  0.5664 -0.3358
  810MPD2    H511986   3.242   0.346  10.148 -1.1518  0.7099 -2.2136
  810MPD2    N111987   2.810   4.699  10.085  0.2105 -0.5617 -0.5825
  810MPD2    H711988   2.750   4.669  10.009 -0.7772  0.1363 -0.0756
  811MPD2     C11989   1.993   4.671   9.949 -0.9702 -0.1233 -0.0205
  811MPD2    C111990   2.108   4.737   9.993  0.0813  0.7484 -0.0833
  811MPD2    C211991   2.115   0.134   9.960  0.1281  0.1542  0.2474
  811MPD2    C311992   2.021   0.196   9.889 -0.0309  0.1649  0.2263
  811MPD2    C411993   1.908   0.131   9.844 -0.3716 -0.4613  0.5076
  811MPD2    C511994   1.898   0.002   9.884 -0.1338 -0.0185 -0.2177
  811MPD2     H11995   2.204   0.192   9.984  0.5582 -0.4215  0.0521
  811MPD2    H111996   1.827   0.183   9.794  0.0036  0.8176  1.2326
  811MPD2    H211997   1.973   4.567   9.971 -0.8256 -0.1451  0.0065
  811MPD2    H311998   1.809   4.692   9.845  0.3378 -0.2277 -1.0318
  811MPD2     N11999   2.035   0.337   9.887 -0.9892 -0.8054  0.1072
  811MPD2    H512000   2.122   0.374   9.924 -0.6974  0.1186 -1.5230
  811MPD2    N112001   2.213   4.663  10.053 -0.1020 -0.1362  0.6970
  811MPD2    H712002   2.198   4.563  10.061 -2.6026  0.1838 -0.2559
  812MPD2     C12003   0.859   0.113  12.126  0.2960  0.1502 -0.2028
  812MPD2    C112004   0.942   0.193  12.053  0.3912  0.7488  0.2334
  812MPD2    C212005   1.080   0.178  12.082 -0.3283 -0.7594 -0.3005
  812MPD2    C312006   1.128   0.108  12.190  0.6388 -0.0123 -0.2847
  812MPD2    C412007   1.044   0.019  12.244 -0.2449  0.0764 -0.3122
  812MPD2    C512008   0.912   0.019  12.210 -0.2562  0.2175  0.5489
  812MPD2     H12009   1.154   0.233  12.024 -0.3866  1.1201  1.4304
  812MPD2    H112010   1.064   4.702  12.335  1.0337 -0.3389 -0.8469
  812MPD2    H212011   0.757   0.107  12.090 -0.1411  2.1517  0.7627
  812MPD2    H312012   0.852   4.689  12.269 -0.1746 -0.2850  0.0501
  812MPD2     N12013   1.254   0.133  12.248  0.4759 -0.0456 -0.0931
  812MPD2    H512014   1.307   0.211  12.212  0.4928  0.9080  1.9582
  812MPD2    N112015   0.884   0.282  11.964  1.2005 -0.2324 -0.0107
  812MPD2    H712016   0.783   0.289  11.972  1.2664  0.7404 -0.0461
  813MPD2     C12017   0.426   1.678  12.706  0.1460 -0.1044  0.9623
  813MPD2    C112018   0.420   1.810  12.699 -0.0799 -0.1112  0.1280
  813MPD2    C212019   0.313   1.877  12.762 -0.3495 -1.2238  0.1550
  813MPD2    C312020   0.239   1.811  12.853  0.6785  0.0690  0.1723
  813MPD2    C412021   0.237   1.676  12.858  0.2857  0.2693 -0.0182
  813MPD2    C512022   0.331   1.613  12.785 -0.0030  0.2396  0.4498
  813MPD2     H12023   0.305   1.985  12.762 -1.0965 -1.2770  1.6648
  813MPD2    H112024   0.164   1.623  12.918 -2.8470  2.3507 -1.9651
  813MPD2    H212025   0.507   1.622  12.659 -1.3912 -0.6861 -0.9900
  813MPD2    H312026   0.341   1.506  12.799  0.8570  0.6920  3.2585
  813MPD2     N12027   0.163   1.884  12.948  0.2402 -0.1412 -0.1059
  813MPD2    H512028   0.167   1.982  12.923  0.2193 -0.5445 -1.6592
  813MPD2    N112029   0.517   1.875  12.628  0.0916  0.2546  0.2505
  813MPD2    H712030   0.594   1.820  12.593  0.5089 -0.5024  2.3998
  814MPD2     C12031   0.986   3.415  12.395 -0.7492  0.6667  0.3366
  814MPD2    C112032   1.049   3.458  12.284  0.5313 -0.5018 -0.1156
  814MPD2    C212033   1.131   3.572  12.289 -0.1567 -0.1007 -0.7409
  814MPD2    C312034   1.142   3.653  12.403  0.1531 -0.5524  0.5092
  814MPD2    C412035   1.074   3.606  12.517 -0.0957 -0.4515 -0.0552
  814MPD2    C512036   1.000   3.488  12.513  0.2437 -0.0658  0.5496
  814MPD2     H12037   1.180   3.589  12.194  1.2334  2.0437  0.3344
  814MPD2    H112038   1.090   3.649  12.615 -1.9386  2.4078 -1.0196
  814MPD2    H212039   0.919   3.329  12.391  1.1767 -0.7144 -2.0423
  814MPD2    H312040   0.955   3.449  12.603  0.6660 -0.2227  0.6923
  814MPD2     N12041   1.223   3.766  12.402 -0.5248 -0.2030  0.2143
  814MPD2    H512042   1.249   3.811  12.489 -1.4660  0.5915  0.0747
  814MPD2    N112043   1.038   3.393  12.158  0.7027 -0.3723 -0.0227
  814MPD2    H712044   1.068   3.444  12.076 -1.4816 -0.2313 -0.7528
  815MPD2     C12045   0.766   2.403  11.660 -0.3299  0.8241  0.1964
  815MPD2    C112046   0.777   2.269  11.682 -0.3295 -0.5842 -0.1019
  815MPD2    C212047   0.658   2.209  11.726 -1.0770 -0.0113 -0.3718
  815MPD2    C312048   0.537   2.271  11.723 -0.0295 -0.6724  0.4434
  815MPD2    C412049   0.531   2.408  11.703 -0.4338  0.1732  0.2431
  815MPD2    C512050   0.651   2.479  11.676 -0.1567  0.8232 -0.6611
  815MPD2     H12051   0.667   2.104  11.750  0.7272  0.0043 -1.0177
  815MPD2    H112052   0.440   2.461  11.728 -0.7028 -0.0334 -0.3133
  815MPD2    H212053   0.857   2.456  11.633  0.4001 -0.0393  0.9970
  815MPD2    H312054   0.637   2.587  11.678 -0.7025  0.7248  0.7119
  815MPD2     N12055   0.420   2.196  11.745 -0.3744 -0.2792  0.2005
  815MPD2    H512056   0.437   2.096  11.753 -0.2226 -0.2899 -0.2794
  815MPD2    N112057   0.901   2.205  11.666 -0.5078 -0.4082 -0.0857
  815MPD2    H712058   0.965   2.258  11.607 -0.6527  0.8518  0.8856
  816MPD2     C12059   1.446   0.619  17.345  0.2019 -0.1610  0.4008
  816MPD2    C112060   1.521   0.733  17.337  0.4665  0.4359 -0.6634
  816MPD2    C212061   1.655   0.712  17.303 -0.1819  0.0686  0.7089
  816MPD2    C312062   1.712   0.592  17.274  0.7779 -0.5897  0.0421
  816MPD2    C412063   1.634   0.483  17.290  0.3727  0.3342  0.2710
  816MPD2    C512064   1.505   0.494  17.337 -0.3560 -0.0233 -0.5612
  816MPD2     H12065   1.726   0.793  17.290  0.1346 -0.0101  1.9026
  816MPD2    H112066   1.676   0.385  17.275  2.5332  0.9399  2.4904
  816MPD2    H212067   1.340   0.632  17.360  0.3025  0.6879  0.4204
  816MPD2    H312068   1.455   0.400  17.358 -0.3558 -0.1446 -1.1036
  816MPD2     N12069   1.844   0.583  17.225  0.1740  0.3793  0.2709
  816MPD2    H512070   1.879   0.672  17.190  2.7217 -0.0766  1.6838
  816MPD2    N112071   1.464   0.857  17.351 -0.1747 -0.4162 -0.5498
  816MPD2    H712072   1.363   0.867  17.349 -0.1126  0.4071  0.6260
  817MPD2     C12073   1.762   2.849   9.892 -0.9075 -0.1977 -0.2053
  817MPD2    C112074   1.624   2.827   9.914 -0.0789  0.4282  0.3231
  817MPD2    C212075   1.544   2.933   9.952 -0.0481 -0.6721  0.1789
  817MPD2    C312076   1.590   3.064   9.937 -0.4528  0.4385  0.0394
  817MPD2    C412077   1.721   3.082   9.897  0.5100  0.5846  0.2907
  817MPD2    C512078   1.806   2.977   9.880  0.6319 -0.3538  0.5608
  817MPD2     H12079   1.451   2.903   9.998 -0.6232 -1.1185 -1.2708
  817MPD2    H112080   1.768   3.178   9.883 -0.8669  1.1005 -0.8406
  817MPD2    H212081   1.830   2.766   9.878 -1.1687 -0.5056  0.3532
  817MPD2    H312082   1.912   2.997   9.871  0.8607 -1.7522  0.1011
  817MPD2     N12083   1.499   3.164   9.969  0.4663  0.3196  0.1929
  817MPD2    H512084   1.417   3.133  10.019  0.6563  0.9489  0.8956
  817MPD2    N112085   1.567   2.693   9.917 -0.6615  0.1982 -0.2017
  817MPD2    H712086   1.467   2.694   9.934 -0.8538  0.0777 -1.3030
  818MPD2     C12087   4.727   3.358   9.666 -0.3675 -0.5964 -0.2006
  818MPD2    C112088   4.679   3.239   9.720 -0.0929  0.2632 -1.4128
  818MPD2    C212089   4.734   3.117   9.689  0.0518  0.0912 -0.1670
  818MPD2    C312090   0.105   3.114   9.609 -0.1148 -0.8318 -0.1751
  818MPD2    C412091   0.158   3.228   9.547  0.3456  0.1882 -0.4401
  818MPD2    C512092   0.099   3.345   9.577  0.3828  0.7017 -0.5600
  818MPD2     H12093   4.705   3.024   9.737 -1.7789  0.0086 -1.4271
  818MPD2    H112094   0.251   3.230   9.491 -0.7805  2.3682 -2.2046
  818MPD2    H212095   4.683   3.453   9.693  0.0022  0.1545 -2.2544
  818MPD2    H312096   0.137   3.438   9.537  0.2774  1.5844  1.3860
  818MPD2     N12097   0.155   2.989   9.583  0.1630  0.0998  0.0634
  818MPD2    H512098   0.093   2.917   9.618  3.0690 -2.9903 -1.1335
  818MPD2    N112099   4.578   3.231   9.814  0.1738  0.3143 -0.1710
  818MPD2    H712100   4.562   3.138   9.850 -0.6507  0.4063 -0.2857
  819MPD2     C12101   2.975   4.201  15.514  0.1802 -0.2536  0.3710
  819MPD2    C112102   2.930   4.072  15.548 -0.3267  0.2492  0.2469
  819MPD2    C212103   3.013   4.004  15.630  0.2709 -0.0566  0.7537
  819MPD2    C312104   3.132   4.057  15.672  0.2577  0.2821 -0.3187
  819MPD2    C412105   3.165   4.186  15.641  0.2560 -0.1936 -0.0476
  819MPD2    C512106   3.082   4.256  15.566 -0.0176  0.9080  0.0737
  819MPD2     H12107   2.981   3.905  15.662  2.4212 -0.8866  0.3695
  819MPD2    H112108   3.254   4.232  15.684 -2.0310  3.1339  1.1080
  819MPD2    H212109   2.916   4.257  15.442  1.2695  1.5047  0.8463
  819MPD2    H312110   3.116   4.352  15.530 -1.2070  1.7416  1.1539
  819MPD2     N12111   3.223   3.976  15.754 -0.4356  0.2351 -0.0646
  819MPD2    H512112   3.205   3.876  15.755  1.2592 -0.0364  2.2590
  819MPD2    N112113   2.803   4.032  15.500  0.0245  0.0450  0.1797
  819MPD2    H712114   2.754   4.097  15.438 -0.7095 -1.1178 -0.4771
  820MPD2     C12115   1.985   4.253  15.008  0.2011  0.4489 -0.2605
  820MPD2    C112116   2.115   4.290  15.011 -0.1284  0.3665  0.0480
  820MPD2    C212117   2.205   4.215  15.085  0.4041  0.4132  0.1415
  820MPD2    C312118   2.169   4.094  15.143 -0.5103  0.6502 -0.0151
  820MPD2    C412119   2.037   4.061  15.153 -0.0176 -0.6467 -0.5545
  820MPD2    C512120   1.952   4.137  15.078  0.4173  0.9551 -0.0616
  820MPD2     H12121   2.310   4.243  15.081  1.1475 -2.4245 -0.3262
  820MPD2    H112122   2.003   3.973  15.207  0.2439  0.2403  1.0465
  820MPD2    H212123   1.907   4.317  14.968 -0.6790 -0.7792 -0.5050
  820MPD2    H312124   1.848   4.106  15.086  1.4697 -2.5029 -0.0466
  820MPD2     N12125   2.264   4.009  15.208 -0.0279  0.1084  0.3813
  820MPD2    H512126   2.233   3.930  15.265 -2.3416 -0.1767 -1.2754
  820MPD2    N112127   2.152   4.414  14.948  0.1048  0.7281 -0.3638
  820MPD2    H712128   2.070   4.469  14.922  0.1662  0.7522 -0.5069
  821MPD2     C12129   3.222   0.303  13.149  0.3323  0.2217  0.0879
  821MPD2    C112130   3.216   0.428  13.201 -0.1794 -0.2886  0.1629
  821MPD2    C212131   3.327   0.516  13.176 -0.0693 -0.4123 -0.3761
  821MPD2    C312132   3.438   0.478  13.096 -0.2336  0.4576  0.5438
  821MPD2    C412133   3.437   0.348  13.042 -0.0741 -0.0458 -0.2246
  821MPD2    C512134   3.332   0.262  13.081  0.3292  0.2026  0.5572
  821MPD2     H12135   3.328   0.604  13.240  0.1113  0.3077 -1.3626
  821MPD2    H112136   3.516   0.303  12.983  0.5536  0.4116  0.2777
  821MPD2    H212137   3.149   0.225  13.168 -0.5725  1.4359  1.6196
  821MPD2    H312138   3.331   0.155  13.062  3.1463 -0.1497  2.4404
  821MPD2     N12139   3.551   0.558  13.064 -0.1232 -0.4193 -0.2622
  821MPD2    H512140   3.625   0.521  13.005  0.4817  0.6172 -0.1550
  821MPD2    N112141   3.104   0.471  13.287 -0.6058 -0.3729 -0.0312
  821MPD2    H712142   3.117   0.561  13.333  2.4411 -0.3277 -1.0233
  822MPD2     C12143   3.965   0.773  15.887  0.9589  1.0418  0.5831
  822MPD2    C112144   3.938   0.710  16.006 -0.8145  0.1383  0.7754
  822MPD2    C212145   3.913   0.788  16.112  0.0693  0.0036  0.2908
  822MPD2    C312146   3.897   0.922  16.106  0.0078 -0.1695 -0.8516
  822MPD2    C412147   3.913   0.991  15.976 -0.1871  0.0862  0.0909
  822MPD2    C512148   3.940   0.909  15.872  0.2459  0.9212  0.2454
  822MPD2     H12149   3.892   0.752  16.212 -1.5797 -1.2694 -0.5113
  822MPD2    H112150   3.889   1.095  15.964  1.2561  0.2037 -1.7511
  822MPD2    H212151   3.990   0.720  15.797 -0.9068  0.6959  0.2691
  822MPD2    H312152   3.950   0.945  15.770 -1.1183  0.0080 -0.2125
  822MPD2     N12153   3.869   0.997  16.222  0.9252 -0.0566 -0.7232
  822MPD2    H512154   3.829   0.944  16.298  0.7460  0.8154 -0.2001
  822MPD2    N112155   3.970   0.574  16.033  0.6229 -0.6345 -0.0702
  822MPD2    H712156   3.971   0.551  16.131 -1.0758  0.3816  0.1803
  823MPD2     C12157   3.527   1.142  16.981  0.3952  0.4351 -0.7396
  823MPD2    C112158   3.589   1.080  16.874 -0.4819 -0.0228 -0.1315
  823MPD2    C212159   3.593   0.947  16.884  0.5256 -0.7352 -0.9446
  823MPD2    C312160   3.542   0.876  16.990 -0.2861 -0.0772  0.5906
  823MPD2    C412161   3.456   0.946  17.071 -0.4017  0.4966 -0.2543
  823MPD2    C512162   3.452   1.080  17.073 -0.3321 -0.4256 -0.4726
  823MPD2     H12163   3.648   0.895  16.807  0.9775  1.9134 -2.4382
  823MPD2    H112164   3.398   0.896  17.148  0.3465 -0.7844 -0.5377
  823MPD2    H212165   3.524   1.250  16.974 -1.9709  0.4887  1.1620
  823MPD2    H312166   3.387   1.139  17.138  2.4861  2.1788 -0.0165
  823MPD2     N12167   3.566   0.741  17.026  0.1855  0.0505  0.2092
  823MPD2    H512168   3.527   0.713  17.115  0.1876 -0.2606  0.1133
  823MPD2    N112169   3.653   1.155  16.774  0.4224  0.4636  0.6679
  823MPD2    H712170   3.663   1.256  16.781  2.8445  0.2993 -0.3712
  824MPD2     C12171   4.012   4.390  15.901  0.6312 -0.6318  0.0535
  824MPD2    C112172   4.081   4.498  15.862 -0.2339 -0.1444 -1.0815
  824MPD2    C212173   4.169   4.488  15.751 -0.3633 -0.2097  0.0078
  824MPD2    C312174   4.184   4.366  15.682 -0.8203 -0.4277  0.0356
  824MPD2    C412175   4.098   4.260  15.723  0.4904 -0.0104  0.5614
  824MPD2    C512176   4.016   4.277  15.828 -0.4993 -0.1840 -0.4836
  824MPD2     H12177   4.237   4.568  15.729  1.8246 -1.7124  1.3105
  824MPD2    H112178   4.091   4.170  15.663 -1.4004  0.6835 -0.2448
  824MPD2    H212179   3.939   4.402  15.981 -0.2321 -1.6054 -0.6027
  824MPD2    H312180   3.945   4.200  15.858 -0.2098 -0.1149  0.3797
  824MPD2     N12181   4.281   4.349  15.589 -0.1030  0.2231 -0.0598
  824MPD2    H512182   4.329   4.432  15.557 -2.1117 -0.0516 -3.8322
  824MPD2    N112183   4.058   4.615  15.937 -0.3246 -0.0224 -0.6918
  824MPD2    H712184   3.977   4.616  15.999  0.4202 -2.2453  0.3133
  825MPD2     C12185   0.110   4.519  14.978  0.4783 -0.2255  0.3801
  825MPD2    C112186   0.025   4.569  15.078  0.1472 -0.1779  0.5483
  825MPD2    C212187   4.736   4.708  15.081  0.0749  0.5371  0.1092
  825MPD2    C312188   0.055   0.053  14.989  0.2150 -0.0761 -0.0310
  825MPD2    C412189   0.134   4.735  14.889  0.1776 -0.6582  0.3687
  825MPD2    C512190   0.154   4.599  14.886  0.5150  0.5453 -0.4951
  825MPD2     H12191   4.687   0.008  15.170  0.6315 -1.3201  1.2115
  825MPD2    H112192   0.193   0.055  14.819  0.6024  1.5409  2.5865
  825MPD2    H212193   0.137   4.414  14.972 -0.0800 -0.2822 -1.1737
  825MPD2    H312194   0.213   4.554  14.807  0.9765  0.9927 -0.4044
  825MPD2     N12195   0.055   0.193  14.997  0.0072 -0.0182  0.4639
  825MPD2    H512196   0.122   0.237  14.936 -1.7686  0.8286 -0.8451
  825MPD2    N112197   4.704   4.470  15.168 -0.6850 -0.1233  0.0978
  825MPD2    H712198   4.735   4.374  15.155 -0.0576 -0.0152  0.8211
  826MPD2     C12199   4.532   4.562  13.723 -0.5479  0.1976 -0.1119
  826MPD2    C112200   4.495   4.599  13.594 -0.2427  1.0597 -0.3411
  826MPD2    C212201   4.374   4.668  13.582  0.5166  0.0492  0.1066
  826MPD2    C312202   4.291   4.683  13.686 -0.5373 -0.5062  0.2613
  826MPD2    C412203   4.333   4.663  13.816 -0.3672  0.5770  0.4385
  826MPD2    C512204   4.453   4.595  13.833 -0.7353 -0.3156 -0.3429
  826MPD2     H12205   4.337   4.692  13.482  0.5693  0.9436  0.2984
  826MPD2    H112206   4.279   4.688  13.906  0.2880  1.5520  0.5519
  826MPD2    H212207   4.622   4.503  13.737 -0.6897  0.0773  0.2996
  826MPD2    H312208   4.482   4.572  13.935  0.7216 -1.5295 -1.0344
  826MPD2     N12209   4.154   4.724  13.670  0.1707 -0.6094 -0.6804
  826MPD2    H512210   4.111   0.017  13.757  1.9488 -1.0155  0.3605
  826MPD2    N112211   4.579   4.566  13.483 -0.3838  0.0222 -0.2994
  826MPD2    H712212   4.663   4.517  13.513  1.1923  2.0656 -1.4369
  827MPD2     C12213   0.557   1.044   9.928  0.0824 -0.5908  0.0698
  827MPD2    C112214   0.459   1.113  10.001 -0.2394  0.4981 -0.1847
  827MPD2    C212215   0.339   1.152   9.944  0.2297 -0.0788  0.4464
  827MPD2    C312216   0.310   1.126   9.810 -0.3219  0.0191  0.0396
  827MPD2    C412217   0.408   1.060   9.736  0.0810 -0.5115 -0.0759
  827MPD2    C512218   0.525   1.023   9.793  0.5049  0.0603  0.0285
  827MPD2     H12219   0.264   1.200  10.006 -0.9856 -1.9222  0.3993
  827MPD2    H112220   0.400   1.035   9.631  0.6919 -3.4130  0.5932
  827MPD2    H212221   0.647   1.006   9.972 -0.3948  0.4985  1.9867
  827MPD2    H312222   0.592   0.959   9.737  0.4365 -0.4510  0.5282
  827MPD2     N12223   0.184   1.174   9.758  0.5029  0.1188 -0.7234
  827MPD2    H512224   0.123   1.225   9.820  1.7762  0.8762 -0.0924
  827MPD2    N112225   0.495   1.126  10.134 -0.9313  0.4691 -0.1564
  827MPD2    H712226   0.595   1.118  10.150 -1.4252 -0.3030  2.5525
  828MPD2     C12227   3.599   1.678  12.247  0.3518 -0.4430  0.0526
  828MPD2    C112228   3.460   1.677  12.250  0.6158  0.1551 -0.1236
  828MPD2    C212229   3.399   1.639  12.133  0.8123 -0.5021  0.1436
  828MPD2    C312230   3.470   1.618  12.021  0.4063 -0.1968 -0.8614
  828MPD2    C412231   3.604   1.635  12.015 -0.0033 -0.3837 -0.4088
  828MPD2    C512232   3.667   1.667  12.130 -0.7095 -0.1968  0.7232
  828MPD2     H12233   3.292   1.623  12.134  0.8140 -0.4965  1.4555
  828MPD2    H112234   3.653   1.626  11.919 -2.7010  0.3244 -1.8754
  828MPD2    H212235   3.653   1.687  12.340 -0.3396  0.8892  0.3170
  828MPD2    H312236   3.775   1.665  12.129 -0.6574  2.5983 -1.1513
  828MPD2     N12237   3.409   1.565  11.906 -0.0939 -0.0156  0.4315
  828MPD2    H512238   3.466   1.525  11.833 -0.4005 -2.5134  1.5580
  828MPD2    N112239   3.382   1.682  12.361 -0.3971  0.0516  0.1989
  828MPD2    H712240   3.282   1.683  12.343  0.1545 -1.5347 -2.9748
  829MPD2     C12241   2.582   1.727  12.181  0.5649 -0.1184  0.3729
  829MPD2    C112242   2.588   1.606  12.250 -0.3707  0.1694  0.3913
  829MPD2    C212243   2.698   1.570  12.328 -0.0002 -0.0214  0.9995
  829MPD2    C312244   2.798   1.666  12.340 -0.0489 -0.1666  0.0854
  829MPD2    C412245   2.784   1.792  12.284 -0.5374  0.0394 -0.0840
  829MPD2    C512246   2.680   1.821  12.197 -0.4059 -0.3498  0.1603
  829MPD2     H12247   2.701   1.474  12.378  1.4987  0.0122  0.9595
  829MPD2    H112248   2.862   1.867  12.296  0.3734 -1.0434  0.7152
  829MPD2    H212249   2.495   1.747  12.119  0.6931 -2.5242 -0.5792
  829MPD2    H312250   2.664   1.916  12.147 -2.0376  0.2826  1.9045
  829MPD2     N12251   2.920   1.650  12.417 -0.0996  0.4086 -0.0659
  829MPD2    H512252   2.989   1.724  12.406  1.2982 -1.0840 -1.4233
  829MPD2    N112253   2.475   1.521  12.229 -0.2735 -0.2514 -0.1109
  829MPD2    H712254   2.405   1.563  12.168 -0.8905  0.6594  1.2297
  830MPD2     C12255   3.997   3.747  15.788 -0.1382 -0.5033  0.3849
  830MPD2    C112256   3.875   3.749  15.722 -0.0951 -0.0543  0.1158
  830MPD2    C212257   3.875   3.805  15.598  0.6178 -0.4322  0.4319
  830MPD2    C312258   3.993   3.868  15.543 -0.1294  0.1652 -0.4114
  830MPD2    C412259   4.111   3.860  15.615 -0.2700  0.1185 -0.4880
  830MPD2    C512260   4.111   3.791  15.730  0.8064  0.3443  0.8148
  830MPD2     H12261   3.781   3.823  15.548  1.9561  2.1179 -1.1691
  830MPD2    H112262   4.202   3.911  15.586  0.4163 -0.7108  0.1775
  830MPD2    H212263   3.999   3.706  15.888  2.6170 -2.5331 -0.5155
  830MPD2    H312264   4.204   3.780  15.784  0.1351 -1.1703  1.6745
  830MPD2     N12265   3.986   3.955  15.434 -0.5404  0.3157  0.7827
  830MPD2    H512266   4.077   3.976  15.396 -0.4874 -0.7321  0.3179
  830MPD2    N112267   3.761   3.712  15.789  0.0368  0.2046 -0.7477
  830MPD2    H712268   3.766   3.671  15.882 -2.1290  3.2916  0.7458
  831MPD2     C12269   4.135   0.990  16.617  0.4917  0.1028 -0.0020
  831MPD2    C112270   4.104   0.910  16.505 -0.1742  0.2684 -0.7347
  831MPD2    C212271   3.988   0.828  16.505 -0.0816 -0.4854  0.2212
  831MPD2    C312272   3.907   0.826  16.619  0.5208 -0.6083  0.2331
  831MPD2    C412273   3.944   0.905  16.731  0.0067 -0.1305  0.2008
  831MPD2    C512274   4.051   0.988  16.728  0.6953  0.7114 -0.2767
  831MPD2     H12275   3.953   0.763  16.426  1.8274 -2.0057  0.6157
  831MPD2    H112276   3.887   0.901  16.823 -1.7626  0.2260 -0.8822
  831MPD2    H212277   4.225   1.050  16.616  0.1526  0.5946 -0.6798
  831MPD2    H312278   4.074   1.048  16.816 -0.9446  0.0236  0.6110
  831MPD2     N12279   3.782   0.776  16.619  0.2182 -0.2937 -0.0405
  831MPD2    H512280   3.739   0.768  16.710  0.0430  1.1990  0.0054
  831MPD2    N112281   4.182   0.905  16.382 -0.2501 -0.0536 -0.1454
  831MPD2    H712282   4.153   0.841  16.309 -0.1786 -0.4178  0.1454
  832MPD2     C12283   2.245   1.803  17.401 -0.2109  0.0028  0.1897
  832MPD2    C112284   2.268   1.919  17.324  0.2414  0.3446 -0.0717
  832MPD2    C212285   2.193   1.965  17.214 -0.5636  0.0001  0.4331
  832MPD2    C312286   2.082   1.891  17.195 -0.8241  0.2617 -0.1902
  832MPD2    C412287   2.044   1.782  17.266 -0.1864  0.8538  0.4495
  832MPD2    C512288   2.125   1.735  17.369  0.4856 -0.0204  0.3323
  832MPD2     H12289   2.218   2.059  17.166 -1.3505  1.1688  2.3485
  832MPD2    H112290   1.954   1.722  17.256 -1.3931  2.3452  2.6000
  832MPD2    H212291   2.311   1.762  17.476  1.5962  2.1001 -0.2502
  832MPD2    H312292   2.096   1.652  17.431  0.0326  0.7266  1.1116
  832MPD2     N12293   1.988   1.932  17.097 -0.6199  0.0811 -0.2187
  832MPD2    H512294   1.904   1.877  17.087  0.0305 -0.4453 -2.7465
  832MPD2    N112295   2.389   1.981  17.349 -0.7242  0.0816  0.1859
  832MPD2    H712296   2.455   1.932  17.409 -0.1319  0.3845 -0.2235
  833MPD2     C12297   4.215   3.399  12.719 -0.1144  0.7490  0.4568
  833MPD2    C112298   4.129   3.460  12.630  0.0103 -0.0442 -0.2565
  833MPD2    C212299   4.112   3.402  12.507 -0.4232  0.2071  0.7653
  833MPD2    C312300   4.181   3.286  12.474  0.2345  0.2904 -0.9353
  833MPD2    C412301   4.261   3.223  12.561 -0.3247 -0.5104  0.0445
  833MPD2    C512302   4.272   3.277  12.684 -0.0086 -0.5690  0.6262
  833MPD2     H12303   4.039   3.440  12.436  1.7622  0.3727 -1.4060
  833MPD2    H112304   4.300   3.124  12.540 -0.6442 -1.1238  2.3250
  833MPD2    H212305   4.237   3.440  12.817  1.6264  0.5552  0.1355
  833MPD2    H312306   4.345   3.225  12.745 -0.7519 -2.4484 -0.0805
  833MPD2     N12307   4.157   3.241  12.340  0.3013  0.6463 -0.0747
  833MPD2    H512308   4.083   3.280  12.283  0.1100 -1.5453 -1.3184
  833MPD2    N112309   4.063   3.581  12.659  0.0565  0.0586  0.7287
  833MPD2    H712310   4.072   3.616  12.754 -1.4550  2.1342  0.1015
  834MPD2     C12311   4.537   3.180  11.334 -0.1071  0.1435  0.5509
  834MPD2    C112312   4.405   3.151  11.334  0.3071 -0.6331 -0.2760
  834MPD2    C212313   4.344   3.166  11.455  0.6412  0.5302 -0.5990
  834MPD2    C312314   4.409   3.209  11.573 -0.8346  0.0202  0.6757
  834MPD2    C412315   4.543   3.236  11.566 -0.3639  0.1405 -0.0331
  834MPD2    C512316   4.607   3.224  11.447  0.5711  0.4062 -0.0424
  834MPD2     H12317   4.241   3.132  11.461  0.9984 -0.4018  0.4279
  834MPD2    H112318   4.594   3.275  11.653  1.0477 -0.5672 -0.5576
  834MPD2    H212319   4.600   3.172  11.245  0.0031 -3.0960  0.9183
  834MPD2    H312320   4.712   3.245  11.433  0.6345 -0.0682 -0.2855
  834MPD2     N12321   4.334   3.224  11.693  0.1224 -0.1076  0.4232
  834MPD2    H512322   4.234   3.207  11.686  0.0767 -0.8605  2.7142
  834MPD2    N112323   4.335   3.095  11.222 -1.0073  0.3431  0.0360
  834MPD2    H712324   4.386   3.104  11.135 -0.8644 -1.1677 -0.0513
  835MPD2     C12325   4.640   0.927  11.358 -0.1365  0.0782  0.1184
  835MPD2    C112326   4.578   1.027  11.435  0.0534  0.0714  0.5830
  835MPD2    C212327   4.490   0.987  11.535 -0.8227 -0.4960  0.1399
  835MPD2    C312328   4.456   0.854  11.557 -0.0218 -0.5925 -0.8002
  835MPD2    C412329   4.510   0.764  11.463 -0.2644  0.5414 -0.1246
  835MPD2    C512330   4.597   0.796  11.359 -0.4487  0.1308 -0.1185
  835MPD2     H12331   4.447   1.067  11.595 -3.0572 -1.9867  0.5355
  835MPD2    H112332   4.494   0.657  11.469 -0.7518  0.5928 -0.4725
  835MPD2    H212333   4.706   0.945  11.274 -0.7369 -1.7913 -0.7544
  835MPD2    H312334   4.645   0.722  11.297  1.8885  0.3244  1.4417
  835MPD2     N12335   4.375   0.815  11.668 -0.6958 -0.6311  0.2184
  835MPD2    H512336   4.353   0.889  11.733  0.5124 -1.3196  1.4145
  835MPD2    N112337   4.586   1.166  11.408 -0.1098  0.5486  0.5921
  835MPD2    H712338   4.535   1.227  11.471 -0.9309 -0.1496  0.5954
  836MPD2     C12339   3.938   1.259  11.714 -0.0795 -0.0011  0.2659
  836MPD2    C112340   3.960   1.192  11.829  0.1402  0.0474  0.3645
  836MPD2    C212341   3.947   1.260  11.949 -1.0439  0.0737  0.3858
  836MPD2    C312342   3.943   1.396  11.956 -0.4968  0.6755  0.2947
  836MPD2    C412343   3.928   1.463  11.843  0.3524 -0.4400 -0.1261
  836MPD2    C512344   3.923   1.394  11.721 -0.4206 -0.1985 -0.0908
  836MPD2     H12345   3.980   1.209  12.039 -0.2011  0.4043  0.2610
  836MPD2    H112346   3.902   1.569  11.840 -0.4405 -0.5940  1.2794
  836MPD2    H212347   3.923   1.201  11.623 -2.0026  2.8483 -1.2183
  836MPD2    H312348   3.906   1.448  11.628  0.1160  0.5172  0.2296
  836MPD2     N12349   3.953   1.468  12.072  0.2164  0.3977 -0.2687
  836MPD2    H512350   3.958   1.570  12.068 -4.3120  0.5717 -1.1075
  836MPD2    N112351   3.978   1.048  11.814 -0.4156  0.3683  0.5177
  836MPD2    H712352   3.979   1.016  11.718 -1.6759  2.1420 -0.0977
  837MPD2     C12353   2.381   0.831  10.355  0.2383 -0.0781  0.4593
  837MPD2    C112354   2.249   0.865  10.331  0.4820 -0.4726 -0.4883
  837MPD2    C212355   2.191   0.980  10.387  0.5196  0.5897 -0.4245
  837MPD2    C312356   2.270   1.073  10.449  0.3050  0.4002 -0.0125
  837MPD2    C412357   2.403   1.038  10.468  0.1099  0.2315 -0.6025
  837MPD2    C512358   2.458   0.915  10.426 -0.8574  0.5918  0.1576
  837MPD2     H12359   2.088   1.006  10.364  0.1813  1.7217  2.3358
  837MPD2    H112360   2.486   1.097  10.506  1.1168 -1.5127 -0.0950
  837MPD2    H212361   2.424   0.741  10.311 -1.6188 -0.2833 -0.9543
  837MPD2    H312362   2.563   0.888  10.434 -0.9355  0.3384  0.3543
  837MPD2     N12363   2.206   1.199  10.478 -0.5488  0.6974  0.3545
  837MPD2    H512364   2.108   1.205  10.452 -1.2817  2.2187  3.4433
  837MPD2    N112365   2.162   0.797  10.244 -0.4748 -0.1953  0.1887
  837MPD2    H712366   2.065   0.823  10.234  0.1077  1.4160 -1.2018
  838MPD2     C12367   0.435   4.286  11.842  0.0649 -0.2462  0.2902
  838MPD2    C112368   0.512   4.176  11.872 -0.0604 -0.1414 -0.1923
  838MPD2    C212369   0.447   4.060  11.874 -0.0069 -0.4710  0.1681
  838MPD2    C312370   0.312   4.045  11.842  0.3988 -0.0285 -0.4048
  838MPD2    C412371   0.233   4.155  11.814  0.0464 -0.9281 -1.0437
  838MPD2    C512372   0.297   4.274  11.809 -0.6318  0.0695 -0.9091
  838MPD2     H12373   0.506   3.975  11.904  1.3670  0.7951  1.0458
  838MPD2    H112374   0.125   4.150  11.803 -0.0202  0.3014 -0.8554
  838MPD2    H212375   0.478   4.385  11.833 -1.4007  0.3410 -0.2194
  838MPD2    H312376   0.245   4.363  11.776  1.0794  1.5282  0.3803
  838MPD2     N12377   0.255   3.916  11.838  0.1922 -0.2145 -0.0800
  838MPD2    H512378   0.304   3.837  11.879  0.1954 -0.9176 -1.4540
  838MPD2    N112379   0.648   4.190  11.903 -0.3929  0.3860  0.2294
  838MPD2    H712380   0.695   4.104  11.930 -0.4969  0.1990 -0.1791
  839MPD2     C12381   0.710   3.591  12.242  0.9429  0.4545 -0.9455
  839MPD2    C112382   0.736   3.602  12.109 -0.4181  0.1602 -0.4828
  839MPD2    C212383   0.816   3.703  12.063 -0.1606  0.0580  0.2908
  839MPD2    C312384   0.877   3.799  12.144 -0.0473  0.3670 -0.8416
  839MPD2    C412385   0.856   3.786  12.277 -0.4959 -0.8213 -0.2829
  839MPD2    C512386   0.777   3.683  12.325  0.8042 -0.4455 -0.1262
  839MPD2     H12387   0.822   3.716  11.955  0.2483  4.1563  0.7887
  839MPD2    H112388   0.907   3.850  12.348  0.4151 -0.3705 -1.3615
  839MPD2    H212389   0.648   3.515  12.288  0.0624  2.1672  0.7070
  839MPD2    H312390   0.760   3.676  12.432 -2.3231 -1.9774 -0.7295
  839MPD2     N12391   0.958   3.903  12.097  0.2876 -0.2741 -0.6073
  839MPD2    H512392   0.968   3.983  12.159 -0.0771 -0.4236 -0.3517
  839MPD2    N112393   0.682   3.512  12.017  0.6259  0.6779  1.3172
  839MPD2    H712394   0.694   3.532  11.919 -1.5390  1.4095  1.2157
  840MPD2     C12395   0.965   1.476  10.168  0.3844 -0.1700  0.1285
  840MPD2    C112396   0.932   1.476  10.309  0.3656 -0.2323 -0.0017
  840MPD2    C212397   0.987   1.573  10.395  0.3600  0.4964 -0.1653
  840MPD2    C312398   1.074   1.662  10.340 -0.0422 -0.2567 -0.4051
  840MPD2    C412399   1.107   1.659  10.206  0.2441 -0.4984  0.5264
  840MPD2    C512400   1.047   1.571  10.117 -0.6979  0.4501 -0.0507
  840MPD2     H12401   0.960   1.564  10.500 -1.4827 -1.0762 -0.7846
  840MPD2    H112402   1.167   1.743  10.176  1.5363 -1.4331  0.4931
  840MPD2    H212403   0.915   1.412  10.096 -0.5832  0.1904  0.4800
  840MPD2    H312404   1.071   1.576  10.011 -0.6867  0.0699 -0.0680
  840MPD2     N12405   1.116   1.771  10.410 -0.6957  0.0200 -0.6109
  840MPD2    H512406   1.190   1.826  10.368 -0.7380  0.7162  0.2318
  840MPD2    N112407   0.839   1.372  10.343 -0.4311  0.1988 -0.0610
  840MPD2    H712408   0.817   1.311  10.265 -2.5765 -0.2109  0.8582
  841MPD2     C12409   0.997   1.377  13.785  0.7744  0.0411  0.4950
  841MPD2    C112410   0.874   1.381  13.844  0.3386 -0.3803 -0.1419
  841MPD2    C212411   0.861   1.434  13.971 -0.0596 -0.3255  0.5867
  841MPD2    C312412   0.974   1.478  14.043  0.8037 -0.2978 -0.0589
  841MPD2    C412413   1.095   1.482  13.977  0.6176  0.0364 -0.0960
  841MPD2    C512414   1.099   1.446  13.842 -0.7996  0.1406 -0.2391
  841MPD2     H12415   0.762   1.426  14.014 -1.0309 -0.7886 -1.7559
  841MPD2    H112416   1.187   1.513  14.025  0.2648 -2.4910  2.1854
  841MPD2    H212417   1.016   1.357  13.680  1.3895  0.7906  0.4621
  841MPD2    H312418   1.194   1.447  13.790 -0.5591  1.0938  0.2258
  841MPD2     N12419   0.960   1.534  14.177 -0.0844 -0.7091  0.5125
  841MPD2    H512420   0.867   1.571  14.196 -1.1870 -2.4264 -1.4047
  841MPD2    N112421   0.762   1.329  13.785 -0.4314 -0.1696 -0.1269
  841MPD2    H712422   0.668   1.333  13.824 -0.9273 -2.0074 -1.1622
  842MPD2     C12423   1.861   2.339  16.586  0.3104  0.1807  0.2378
  842MPD2    C112424   1.734   2.285  16.619 -0.0425 -0.1882  0.5889
  842MPD2    C212425   1.714   2.281  16.759  0.8835 -0.1713  0.1076
  842MPD2    C312426   1.804   2.328  16.854 -0.8076 -0.0374 -0.8192
  842MPD2    C412427   1.916   2.401  16.811  0.0352 -0.0640 -0.6059
  842MPD2    C512428   1.940   2.395  16.681 -0.4669  0.2243  0.1476
  842MPD2     H12429   1.626   2.235  16.802  0.3333 -0.5322 -1.3923
  842MPD2    H112430   1.997   2.438  16.874  1.9192 -2.6502 -1.5247
  842MPD2    H212431   1.900   2.328  16.485  1.3734 -2.6485  0.9636
  842MPD2    H312432   2.041   2.423  16.653 -1.2613  1.8203 -1.1404
  842MPD2     N12433   1.773   2.335  16.996 -0.5499  0.0109 -0.2384
  842MPD2    H512434   1.836   2.394  17.049  0.4323 -2.0161  0.8598
  842MPD2    N112435   1.655   2.233  16.516 -0.2807 -0.0564 -0.2679
  842MPD2    H712436   1.695   2.252  16.425 -3.3785  1.1792 -1.3654
  843MPD2     C12437   3.507   3.067  17.391  0.0162 -0.1273 -0.2379
  843MPD2    C112438   3.566   3.000  17.496 -0.1367  0.0560 -0.1997
  843MPD2    C212439   3.634   3.077  17.593 -0.1847  0.7440 -0.3102
  843MPD2    C312440   3.650   3.211  17.581 -0.2501 -0.1462  0.1186
  843MPD2    C412441   3.583   3.278  17.477  0.2130  0.0163 -0.0320
  843MPD2    C512442   3.521   3.200  17.384  0.6191 -0.3430 -0.1646
  843MPD2     H12443   3.681   3.020  17.672  0.8010 -0.7843 -2.0009
  843MPD2    H112444   3.589   3.384  17.453 -1.2497  0.5422  1.8585
  843MPD2    H212445   3.439   3.013  17.326 -1.8254  0.4743  1.2152
  843MPD2    H312446   3.465   3.255  17.309 -3.2832 -2.3199  1.3424
  843MPD2     N12447   3.720   3.293  17.668  0.3381  0.1411 -0.4695
  843MPD2    H512448   3.706   3.393  17.655  2.0445  0.6325  1.4948
  843MPD2    N112449   3.554   2.864  17.504 -0.5486  0.2068 -0.4490
  843MPD2    H712450   3.518   2.822  17.419 -1.3393  0.0548 -0.0358
  844MPD2     C12451   1.771   1.335  16.741 -1.0511  0.3266 -0.1288
  844MPD2    C112452   1.865   1.359  16.637 -0.0712 -1.1105 -0.4277
  844MPD2    C212453   1.966   1.456  16.664  0.1085  0.1471 -0.1447
  844MPD2    C312454   1.979   1.508  16.789 -0.3345  0.0730 -0.1394
  844MPD2    C412455   1.884   1.498  16.887  0.1472 -0.4351  0.0093
  844MPD2    C512456   1.783   1.404  16.860  0.1846 -0.1006  0.1003
  844MPD2     H12457   2.040   1.488  16.592  0.2777  0.1043  0.0073
  844MPD2    H112458   1.887   1.552  16.980  0.2558  0.4380 -0.5005
  844MPD2    H212459   1.680   1.278  16.722 -0.9669  0.1033  0.1510
  844MPD2    H312460   1.712   1.381  16.939  1.8915 -1.1088  1.3474
  844MPD2     N12461   2.099   1.587  16.811  0.3843 -0.0832  0.4032
  844MPD2    H512462   2.163   1.606  16.734  0.9996  0.3285  1.0117
  844MPD2    N112463   1.859   1.294  16.511  1.1319 -0.0363 -0.1559
  844MPD2    H712464   1.927   1.326  16.442  2.4953 -0.7293  0.8595
  845MPD2     C12465   2.391   2.520  16.688  0.3477  0.6676  0.8595
  845MPD2    C112466   2.431   2.493  16.817  0.7216 -0.3098 -0.6697
  845MPD2    C212467   2.433   2.363  16.862  0.1746  0.3590  0.3965
  845MPD2    C312468   2.379   2.268  16.775  0.5898  0.2513 -0.1638
  845MPD2    C412469   2.338   2.295  16.646 -0.3648  0.1268 -0.3900
  845MPD2    C512470   2.341   2.426  16.607 -0.1100 -0.8321  0.2563
  845MPD2     H12471   2.451   2.331  16.964 -1.0967 -2.4497 -0.2581
  845MPD2    H112472   2.300   2.228  16.570 -0.1706 -1.1558  0.6371
  845MPD2    H212473   2.392   2.622  16.651 -0.5198  0.2491 -0.2977
  845MPD2    H312474   2.310   2.442  16.504  0.1696 -0.2215  0.2657
  845MPD2     N12475   2.388   2.140  16.830 -0.1304 -0.4154 -0.2374
  845MPD2    H512476   2.404   2.137  16.930 -1.6818 -0.1287  0.0212
  845MPD2    N112477   2.461   2.602  16.899 -0.9081  0.3063 -0.5140
  845MPD2    H712478   2.451   2.687  16.843 -1.4912  1.5918  1.5435
  846MPD2     C12479   3.394   2.978  13.637  0.0390  0.1488  0.2502
  846MPD2    C112480   3.320   3.092  13.662 -0.4677 -0.3140 -0.0828
  846MPD2    C212481   3.302   3.131  13.788 -0.0893  0.0156  0.0815
  846MPD2    C312482   3.353   3.065  13.898  0.4577  0.6613  0.1792
  846MPD2    C412483   3.420   2.952  13.871  0.2491 -0.8577 -0.7019
  846MPD2    C512484   3.442   2.912  13.744  0.0957 -0.7785  0.5977
  846MPD2     H12485   3.247   3.223  13.806  0.7046  0.4141  0.5063
  846MPD2    H112486   3.464   2.892  13.950 -3.4787 -1.6547  0.7815
  846MPD2    H212487   3.425   2.943  13.539 -2.0583 -0.5756 -0.1688
  846MPD2    H312488   3.511   2.835  13.710 -0.7397  0.0415 -2.9645
  846MPD2     N12489   3.330   3.125  14.025 -1.0271  0.0562  0.3638
  846MPD2    H512490   3.273   3.209  14.024  1.8233  2.0721  2.5824
  846MPD2    N112491   3.268   3.170  13.559 -0.3378  0.8341  0.0400
  846MPD2    H712492   3.212   3.250  13.587 -1.7953 -0.0727 -0.2770
  847MPD2     C12493   2.896   4.299  14.930 -0.3904 -0.3589  0.1441
  847MPD2    C112494   3.024   4.312  14.886 -0.4432 -0.1180  0.0329
  847MPD2    C212495   3.099   4.200  14.849  0.3004 -0.3048  0.4215
  847MPD2    C312496   3.046   4.077  14.879 -0.3243  0.7397  0.9724
  847MPD2    C412497   2.919   4.063  14.918  0.0701  0.1409  0.0886
  847MPD2    C512498   2.839   4.174  14.932 -0.0801 -0.7213 -0.0742
  847MPD2     H12499   3.203   4.210  14.819  0.5498 -0.5509  1.2220
  847MPD2    H112500   2.874   3.968  14.948 -2.1947  0.8030 -1.2423
  847MPD2    H212501   2.824   4.376  14.958 -0.2534 -0.9967  2.2841
  847MPD2    H312502   2.740   4.168  14.976 -0.4081 -0.9375 -0.8340
  847MPD2     N12503   3.134   3.965  14.867  0.6203  0.2806  0.5299
  847MPD2    H512504   3.225   3.979  14.825  0.4251  0.5603  0.2052
  847MPD2    N112505   3.092   4.436  14.868 -0.1785 -0.9229 -1.2181
  847MPD2    H712506   3.176   4.427  14.812  1.7584  1.6900  1.2158
  848MPD2     C12507   2.046   1.974  16.264 -0.2612  0.2933 -0.9843
  848MPD2    C112508   2.055   2.075  16.362 -0.5986 -0.2538 -0.2935
  848MPD2    C212509   2.090   2.210  16.330  0.6521  0.2206 -0.1187
  848MPD2    C312510   2.095   2.243  16.192 -0.0089 -0.2765 -1.0814
  848MPD2    C412511   2.089   2.144  16.097  0.4433 -0.0586 -0.4245
  848MPD2    C512512   2.074   2.013  16.135  0.2880 -0.3368 -0.2760
  848MPD2     H12513   2.095   2.290  16.403  0.7431 -0.2012  0.3363
  848MPD2    H112514   2.107   2.161  15.991  1.9143 -0.0153 -0.1751
  848MPD2    H212515   2.044   1.866  16.277  0.4979  0.3789 -0.1741
  848MPD2    H312516   2.074   1.935  16.060 -1.7838 -0.1707 -0.4484
  848MPD2     N12517   2.104   2.375  16.145 -0.5363 -0.5373  0.6311
  848MPD2    H512518   2.143   2.379  16.051  0.2166 -1.1976  0.9237
  848MPD2    N112519   2.023   2.052  16.492 -0.3337  0.4346  0.4815
  848MPD2    H712520   2.043   2.127  16.556 -1.0197  1.2388 -0.2410
  849MPD2     C12521   1.318   2.166  13.405  0.4253 -0.2252  0.0130
  849MPD2    C112522   1.307   2.111  13.530 -0.2544 -0.4967 -0.2187
  849MPD2    C212523   1.384   2.162  13.639 -0.4988  0.2543 -0.2301
  849MPD2    C312524   1.465   2.269  13.611  0.0717 -0.0132 -0.1571
  849MPD2    C412525   1.478   2.327  13.487  0.3539  1.2094 -0.4847
  849MPD2    C512526   1.409   2.271  13.384  0.0861 -0.2259  0.3023
  849MPD2     H12527   1.366   2.125  13.739 -1.1930  0.0545 -0.4279
  849MPD2    H112528   1.550   2.403  13.460  0.8082  0.3332 -1.7404
  849MPD2    H212529   1.250   2.124  13.331 -1.3501  1.6405  0.5738
  849MPD2    H312530   1.422   2.319  13.288 -0.5084  0.8830  0.7773
  849MPD2     N12531   1.537   2.316  13.719  0.0329  0.0186 -0.6239
  849MPD2    H512532   1.510   2.278  13.809  1.3357 -1.9298 -1.0568
  849MPD2    N112533   1.214   2.005  13.550 -1.3946  0.7522 -0.0320
  849MPD2    H712534   1.166   1.987  13.462  0.4944 -0.0742 -0.8963
  850MPD2     C12535   3.527   0.415  14.709  0.0725  1.2049  0.6406
  850MPD2    C112536   3.538   0.472  14.837 -0.2027  0.3855  0.0420
  850MPD2    C212537   3.666   0.479  14.890  0.1799 -0.1300  0.2437
  850MPD2    C312538   3.772   0.402  14.843  0.1904  1.2633 -0.3245
  850MPD2    C412539   3.756   0.328  14.722 -0.4112 -0.2364 -0.3672
  850MPD2    C512540   3.632   0.338  14.661 -0.4838  1.0030 -0.2639
  850MPD2     H12541   3.670   0.525  14.988 -1.2421  2.3076 -0.8317
  850MPD2    H112542   3.834   0.261  14.687  1.8077  1.6901  0.8520
  850MPD2    H212543   3.438   0.434  14.651 -0.5913  1.8798  1.8684
  850MPD2    H312544   3.625   0.294  14.562 -0.5122  1.2298 -0.3627
  850MPD2     N12545   3.890   0.381  14.914 -0.1277 -0.1742 -0.5497
  850MPD2    H512546   3.961   0.333  14.859  0.7219  1.6200 -1.0173
  850MPD2    N112547   3.425   0.538  14.894  0.3644 -0.3406 -0.7893
  850MPD2    H712548   3.343   0.550  14.835  0.2309  1.1126 -0.3104
  851MPD2     C12549   3.959   0.178  15.433 -0.8728 -0.1137  0.4342
  851MPD2    C112550   3.843   0.139  15.365 -0.3737 -0.3466  0.0283
  851MPD2    C212551   3.831   0.009  15.309  0.2356 -0.0675 -0.1759
  851MPD2    C312552   3.942   4.658  15.313 -0.0576 -0.9902  0.6999
  851MPD2    C412553   4.058   4.702  15.377 -0.1988 -0.1649  0.0387
  851MPD2    C512554   4.066   0.096  15.434 -0.5347 -0.6745  0.2238
  851MPD2     H12555   3.740   4.718  15.259 -1.3218  2.2361  1.3303
  851MPD2    H112556   4.142   4.633  15.383  0.6841  0.8674 -0.4689
  851MPD2    H212557   3.971   0.270  15.488  1.3542  0.9744 -1.8920
  851MPD2    H312558   4.149   0.129  15.495 -0.2998 -2.3248  0.7939
  851MPD2     N12559   3.933   4.524  15.262  0.2077 -0.2051  0.0428
  851MPD2    H512560   3.843   4.505  15.219 -0.4989  0.8459  1.0379
  851MPD2    N112561   3.738   0.234  15.356 -0.5220 -0.6930  0.4477
  851MPD2    H712562   3.758   0.318  15.409 -0.3505 -0.1191 -0.5294
  852MPD2     C12563   3.082   3.404   9.574  0.8430  0.2304 -0.1080
  852MPD2    C112564   3.191   3.359   9.635 -0.4716 -0.4518 -0.4399
  852MPD2    C212565   3.309   3.430   9.621 -0.0191 -0.5911  0.5227
  852MPD2    C312566   3.307   3.556   9.558  0.9098 -0.2799 -0.1989
  852MPD2    C412567   3.197   3.593   9.489  0.5077 -0.2795  0.3491
  852MPD2    C512568   3.081   3.515   9.503  0.3474  0.2149  0.4223
  852MPD2     H12569   3.397   3.389   9.670  0.7188 -0.4942 -0.7186
  852MPD2    H112570   3.195   3.679   9.423 -0.2061 -0.8365 -0.3526
  852MPD2    H212571   2.995   3.342   9.556  0.6295  0.4146  0.2892
  852MPD2    H312572   2.995   3.554   9.449  1.0200  1.5103  0.2827
  852MPD2     N12573   3.430   3.631   9.555  0.3262  0.6649 -0.2409
  852MPD2    H512574   3.510   3.583   9.595  0.4062  0.6118 -0.4646
  852MPD2    N112575   3.200   3.237   9.698 -0.0705 -0.1603 -0.3364
  852MPD2    H712576   3.287   3.213   9.745  0.1928  0.7953 -0.3428
  853MPD2     C12577   0.148   2.522  12.260 -0.2792 -0.1732  0.1658
  853MPD2    C112578   0.039   2.602  12.233 -0.3857 -0.8273  0.5549
  853MPD2    C212579   0.004   2.609  12.094  0.4864  0.3371  0.0416
  853MPD2    C312580   0.076   2.543  12.005 -0.3154 -0.1045 -0.4896
  853MPD2    C412581   0.194   2.472  12.035  0.4530  0.7986  0.1085
  853MPD2    C512582   0.227   2.457  12.166  0.1104  0.4325  0.3740
  853MPD2     H12583   4.648   2.659  12.072 -0.9586 -2.6550 -0.5118
  853MPD2    H112584   0.264   2.434  11.962  0.1205  0.3659  0.0167
  853MPD2    H212585   0.184   2.518  12.362  0.9217  0.9073 -0.2231
  853MPD2    H312586   0.313   2.401  12.200  0.3141  1.9016  2.2771
  853MPD2     N12587   0.053   2.535  11.868 -0.4145 -0.9921 -0.3917
  853MPD2    H512588   0.124   2.484  11.816  0.6461  1.6045 -1.5108
  853MPD2    N112589   4.699   2.653  12.340 -0.4214 -0.5289  0.4134
  853MPD2    H712590   4.733   2.635  12.434 -0.5391 -1.1253  0.3422
  854MPD2     C12591   2.628   3.076  12.982  0.2608 -0.0435 -0.0798
  854MPD2    C112592   2.581   3.060  13.113  0.0457  0.7952 -0.6688
  854MPD2    C212593   2.622   2.945  13.180  0.1327 -0.3319  1.0134
  854MPD2    C312594   2.716   2.857  13.125 -0.0974  0.3366  0.0620
  854MPD2    C412595   2.758   2.876  12.995 -0.4288 -0.0070 -0.1325
  854MPD2    C512596   2.719   2.993  12.929  0.1849 -0.6047  0.3893
  854MPD2     H12597   2.585   2.941  13.282 -0.9485  1.4150  0.6962
  854MPD2    H112598   2.818   2.802  12.943 -1.2260 -0.2378 -0.7118
  854MPD2    H212599   2.594   3.163  12.926  1.3985  0.0231 -0.6804
  854MPD2    H312600   2.747   3.008  12.825 -0.9611  1.3719  0.3739
  854MPD2     N12601   2.744   2.736  13.184 -0.4102  0.4269 -0.2842
  854MPD2    H512602   2.790   2.660  13.134 -0.5175 -0.3403  0.7850
  854MPD2    N112603   2.485   3.160  13.158  0.1840 -0.6452  0.7628
  854MPD2    H712604   2.469   3.234  13.090  0.0776 -2.0278 -0.7324
  855MPD2     C12605   3.093   2.057  13.958 -0.6226 -0.2970 -0.7451
  855MPD2    C112606   3.026   2.177  13.977  0.2581 -0.3705 -0.1473
  855MPD2    C212607   2.982   2.250  13.864  0.0709  0.3299 -0.0292
  855MPD2    C312608   2.996   2.191  13.733  0.2088 -0.0053 -0.5719
  855MPD2    C412609   3.065   2.074  13.719  0.4279  0.4801 -0.2622
  855MPD2    C512610   3.121   2.014  13.828 -0.7052  0.8796 -0.1210
  855MPD2     H12611   2.929   2.342  13.885  1.7273  0.5224  3.2185
  855MPD2    H112612   3.083   2.039  13.618 -0.6412  1.6169 -0.8510
  855MPD2    H212613   3.147   2.005  14.036 -0.8309  2.2278  1.0586
  855MPD2    H312614   3.178   1.921  13.825 -1.2868  0.5701 -1.7082
  855MPD2     N12615   2.945   2.241  13.612  0.6933  0.4632 -0.0972
  855MPD2    H512616   2.950   2.186  13.527 -0.4313  0.8421 -0.4099
  855MPD2    N112617   2.987   2.200  14.111 -0.8383  0.0882  0.0101
  855MPD2    H712618   3.014   2.135  14.184  0.6012 -0.6154 -1.1474
  856MPD2     C12619   4.514   3.411  14.073 -0.8047 -0.0878  0.6563
  856MPD2    C112620   4.510   3.541  14.108 -0.0039  0.6912  0.1666
  856MPD2    C212621   4.411   3.623  14.074 -0.7295 -0.1033 -0.6661
  856MPD2    C312622   4.301   3.567  14.008  0.8308  0.1396  0.1139
  856MPD2    C412623   4.309   3.440  13.966  0.1200  0.2765  0.6150
  856MPD2    C512624   4.411   3.357  14.007  0.4526  0.0269 -0.2874
  856MPD2     H12625   4.425   3.720  14.121 -1.2312  0.6702 -2.1355
  856MPD2    H112626   4.214   3.407  13.926  0.4422 -0.6610  0.6249
  856MPD2    H212627   4.600   3.346  14.085 -0.1055  0.8075  0.4637
  856MPD2    H312628   4.413   3.254  13.974 -0.8904 -0.4098  1.0201
  856MPD2     N12629   4.189   3.648  13.971  0.2456 -0.0087 -0.2507
  856MPD2    H512630   4.111   3.594  13.935  1.1797 -1.2069 -0.4771
  856MPD2    N112631   4.616   3.607  14.173 -0.1292  0.1989 -0.0024
  856MPD2    H712632   4.594   3.697  14.215  0.2386  0.8025 -1.1044
  857MPD2     C12633   1.108   1.245  12.416  0.0561 -0.5470 -0.3981
  857MPD2    C112634   1.244   1.258  12.427 -0.6815  0.1103 -0.3509
  857MPD2    C212635   1.301   1.356  12.504  0.5069  0.7043  0.4694
  857MPD2    C312636   1.229   1.449  12.564 -0.3388 -0.5471 -0.1880
  857MPD2    C412637   1.089   1.439  12.562  0.5107 -0.1915 -0.2915
  857MPD2    C512638   1.031   1.338  12.485  0.0051  0.0999 -0.1290
  857MPD2     H12639   1.409   1.354  12.514  0.5542 -2.0316 -0.5030
  857MPD2    H112640   1.021   1.504  12.615  0.9136  0.5257 -0.6368
  857MPD2    H212641   1.063   1.162  12.364  0.2596 -1.9753  1.7114
  857MPD2    H312642   0.923   1.337  12.475  0.1746 -3.3129 -1.8724
  857MPD2     N12643   1.306   1.544  12.642 -0.6060  0.0754  0.4802
  857MPD2    H512644   1.406   1.529  12.655 -0.1759  1.2712 -1.5486
  857MPD2    N112645   1.328   1.158  12.374 -0.2724  0.0232 -0.0046
  857MPD2    H712646   1.287   1.074  12.335 -1.1929  0.2923  0.3655
  858MPD2     C12647   2.672   0.007  16.772  0.4397 -0.4613  0.4161
  858MPD2    C112648   2.552   4.677  16.760  1.0144 -0.4680  0.2682
  858MPD2    C212649   2.467   4.658  16.870  0.5250 -0.2392  0.0213
  858MPD2    C312650   2.492   4.714  16.990  0.4254  0.2280  0.6202
  858MPD2    C412651   2.598   0.062  16.993 -0.1434 -0.7631  0.0560
  858MPD2    C512652   2.686   0.073  16.893  0.4546 -0.3884 -0.0051
  858MPD2     H12653   2.379   4.596  16.863 -0.8363  1.7723 -0.7275
  858MPD2    H112654   2.626   0.118  17.081 -1.6115  2.4353 -1.5304
  858MPD2    H212655   2.752   0.021  16.700 -0.9526 -0.5764 -1.1656
  858MPD2    H312656   2.773   0.136  16.905  0.5813 -0.4276 -0.6786
  858MPD2     N12657   2.415   4.683  17.108 -0.0695  0.6885  0.5122
  858MPD2    H512658   2.440   0.001  17.189  1.2713  0.5610  0.1950
  858MPD2    N112659   2.526   4.627  16.623 -0.8411  0.4624  0.1225
  858MPD2    H712660   2.606   4.633  16.562  1.0104 -2.5713  2.2187
  859MPD2     C12661   0.897   2.273  15.504 -0.0274  0.3328  1.1097
  859MPD2    C112662   0.854   2.229  15.384  1.0107  0.1741  0.1617
  859MPD2    C212663   0.739   2.146  15.374  0.4973 -0.1420 -0.1043
  859MPD2    C312664   0.681   2.094  15.490 -0.1423 -0.6348 -0.2628
  859MPD2    C412665   0.733   2.131  15.611 -0.1514 -0.7986 -0.1752
  859MPD2    C512666   0.839   2.218  15.618  0.0774  0.6225 -0.1788
  859MPD2     H12667   0.713   2.110  15.275 -0.3005 -0.6196  0.2847
  859MPD2    H112668   0.683   2.103  15.703  0.5839  2.5677  1.2655
  859MPD2    H212669   0.974   2.349  15.509  0.7432 -0.4249  0.7756
  859MPD2    H312670   0.856   2.254  15.719 -1.0107 -0.4381  0.3808
  859MPD2     N12671   0.583   1.996  15.479 -0.1634  0.6286  0.2993
  859MPD2    H512672   0.576   1.957  15.572  1.2253 -0.4791 -0.0601
  859MPD2    N112673   0.940   2.254  15.274  0.4926  0.5927 -0.5194
  859MPD2    H712674   1.014   2.321  15.289  0.8482 -0.1701  1.1335
  860MPD2     C12675   2.858   2.349  11.608  0.2594 -0.3701 -0.4109
  860MPD2    C112676   2.869   2.460  11.689 -0.0530  0.4299 -0.5810
  860MPD2    C212677   2.792   2.465  11.803  0.0195  0.3497 -0.2145
  860MPD2    C312678   2.703   2.360  11.840 -0.1506  0.6002 -1.1745
  860MPD2    C412679   2.699   2.248  11.760 -0.4064 -0.5712 -0.1926
  860MPD2    C512680   2.774   2.244  11.645  0.1907  0.0093 -0.4744
  860MPD2     H12681   2.790   2.559  11.857 -2.6402  1.5356 -2.4008
  860MPD2    H112682   2.637   2.164  11.790 -1.4731  0.9512  1.9018
  860MPD2    H212683   2.914   2.345  11.516 -2.3681 -0.2287 -2.0200
  860MPD2    H312684   2.769   2.155  11.584  1.4041 -1.7489  1.9984
  860MPD2     N12685   2.631   2.376  11.956  0.6581 -0.0118  0.0001
  860MPD2    H512686   2.661   2.452  12.016  0.2575 -1.2902  1.8480
  860MPD2    N112687   2.942   2.577  11.663  0.1638  0.4999 -0.6650
  860MPD2    H712688   2.951   2.646  11.737  0.3407  0.4349 -0.6236
  861MPD2     C12689   1.196   0.741  11.305  0.2873  0.0940 -0.1137
  861MPD2    C112690   1.266   0.869  11.306  0.4908  0.7229  0.4431
  861MPD2    C212691   1.225   0.970  11.213  0.0690 -0.4975  0.5309
  861MPD2    C312692   1.130   0.942  11.119  0.9265 -0.2543  0.9158
  861MPD2    C412693   1.069   0.815  11.121  0.5283 -0.2002 -0.8625
  861MPD2    C512694   1.099   0.720  11.214  0.1405 -0.1528  0.6735
  861MPD2     H12695   1.264   1.071  11.213  3.1500 -1.6560  2.2649
  861MPD2    H112696   1.006   0.786  11.038  0.0751 -1.6890  0.0122
  861MPD2    H212697   1.211   0.654  11.368 -1.4139  0.8290  1.3122
  861MPD2    H312698   1.059   0.620  11.214 -2.4196  0.8691 -1.2426
  861MPD2     N12699   1.077   1.047  11.036  0.2172  0.3415 -0.1322
  861MPD2    H512700   1.005   1.022  10.969  0.2719  0.7157 -0.3350
  861MPD2    N112701   1.366   0.904  11.403 -0.6816 -0.3729 -0.4433
  861MPD2    H712702   1.410   0.995  11.390  0.1308 -0.8733 -1.1324
  862MPD2     C12703   1.197   0.995  10.331 -0.2415 -0.2041  0.3409
  862MPD2    C112704   1.208   0.964  10.460  0.3085  0.2546  0.0911
  862MPD2    C212705   1.250   0.840  10.491 -0.6587 -0.1692  0.2648
  862MPD2    C312706   1.298   0.752  10.399 -0.5918 -0.0989 -0.3063
  862MPD2    C412707   1.285   0.785  10.262  0.4897 -0.1373  0.1373
  862MPD2    C512708   1.220   0.901  10.236  0.3069  0.5834 -0.6536
  862MPD2     H12709   1.262   0.830  10.599  0.7246 -2.2933 -0.0823
  862MPD2    H112710   1.318   0.728  10.176 -0.2641 -1.0814  0.4596
  862MPD2    H212711   1.159   1.087  10.290  0.5772 -0.4472 -0.9631
  862MPD2    H312712   1.206   0.935  10.135  0.8722  2.0938 -0.2268
  862MPD2     N12713   1.345   0.625  10.422  0.3476  0.2922  0.4102
  862MPD2    H512714   1.365   0.574  10.337 -0.7488  1.5081 -0.5766
  862MPD2    N112715   1.159   1.045  10.570 -0.8703  0.0422 -0.6893
  862MPD2    H712716   1.172   0.999  10.660 -1.5444  2.3429  0.6096
  863MPD2     C12717   0.626   3.178  16.457 -0.1253  0.0992 -0.2810
  863MPD2    C112718   0.628   3.294  16.537  0.3252 -0.2666  0.0633
  863MPD2    C212719   0.726   3.307  16.629  0.1339  0.1254 -0.5419
  863MPD2    C312720   0.825   3.211  16.638 -0.5131  0.0105 -0.0700
  863MPD2    C412721   0.826   3.095  16.555 -0.0620 -0.2082  0.5853
  863MPD2    C512722   0.726   3.083  16.467  0.0357 -0.0651 -0.7133
  863MPD2     H12723   0.726   3.398  16.688  0.6490 -1.4332  1.8423
  863MPD2    H112724   0.907   3.023  16.560  0.6777  0.7210  2.0591
  863MPD2    H212725   0.554   3.161  16.377  2.5887 -0.5940 -2.5894
  863MPD2    H312726   0.741   3.011  16.388  1.4700 -1.5608  0.9404
  863MPD2     N12727   0.930   3.221  16.731  0.5230 -0.3095  0.2500
  863MPD2    H512728   0.991   3.141  16.742 -2.3457 -2.3051  1.5597
  863MPD2    N112729   0.525   3.392  16.519  0.3745 -0.2788  0.0125
  863MPD2    H712730   0.475   3.388  16.431 -2.9359 -1.1777  1.9428
  864MPD2     C12731   0.976   4.526  17.432  0.3496  0.1077 -1.0269
  864MPD2    C112732   1.045   4.463  17.327  0.1451 -0.3875  0.1551
  864MPD2    C212733   1.144   4.530  17.254  0.0460 -0.2585 -0.0480
  864MPD2    C312734   1.170   4.661  17.282 -0.5151 -0.4643 -0.2103
  864MPD2    C412735   1.096   4.717  17.383 -0.3007 -0.0680  0.0609
  864MPD2    C512736   0.997   4.655  17.455 -0.2321 -0.0992  0.0871
  864MPD2     H12737   1.207   4.482  17.180 -0.7087 -0.6352 -0.4497
  864MPD2    H112738   1.108   0.081  17.415 -1.4048 -0.4040  1.5592
  864MPD2    H212739   0.916   4.461  17.496 -1.8918  0.7109 -2.5026
  864MPD2    H312740   0.951   4.704  17.540 -2.1236 -0.2341 -0.8824
  864MPD2     N12741   1.261   4.738  17.201 -0.5315  0.3992 -1.1453
  864MPD2    H512742   1.257   0.101  17.209  1.0147  0.4180 -0.5658
  864MPD2    N112743   1.001   4.332  17.300  0.2623  0.7066  0.1761
  864MPD2    H712744   0.938   4.286  17.365 -1.1384  1.9819 -0.2750
  865MPD2     C12745   1.522   0.462  16.488  0.1559 -0.0006  0.1406
  865MPD2    C112746   1.478   0.350  16.556 -0.0194  0.1996 -0.4328
  865MPD2    C212747   1.440   0.368  16.688  0.9865  0.0051  0.5111
  865MPD2    C312748   1.444   0.486  16.755  0.5750  0.3571  0.3346
  865MPD2    C412749   1.490   0.595  16.681  0.2359 -0.7843  0.0280
  865MPD2    C512750   1.514   0.582  16.550  0.4539 -0.1076 -0.1920
  865MPD2     H12751   1.390   0.282  16.733  0.1946  0.0358 -0.3017
  865MPD2    H112752   1.497   0.695  16.724 -2.9526 -1.0476  1.1112
  865MPD2    H212753   1.544   0.464  16.381 -0.0158 -2.2243  0.0580
  865MPD2    H312754   1.548   0.667  16.491 -1.8325 -0.5380 -2.1030
  865MPD2     N12755   1.408   0.507  16.890  0.0215 -0.9399 -0.1211
  865MPD2    H512756   1.404   0.604  16.918 -1.5194 -0.2730 -2.6296
  865MPD2    N112757   1.485   0.224  16.490  0.5476 -0.5711  0.4534
  865MPD2    H712758   1.530   0.215  16.399  0.8378  0.0981  0.5271
  866MPD2     C12759   2.111   1.409  10.950 -0.4947 -0.2306 -0.5977
  866MPD2    C112760   2.093   1.373  11.081 -0.6383 -0.7504 -0.2309
  866MPD2    C212761   1.988   1.428  11.162 -0.1897 -0.5083  0.7425
  866MPD2    C312762   1.908   1.531  11.112  0.2390 -0.6740 -0.1614
  866MPD2    C412763   1.936   1.568  10.983  0.0946  0.0677  0.2147
  866MPD2    C512764   2.031   1.512  10.900 -0.1195  0.2998  0.5668
  866MPD2     H12765   1.975   1.392  11.263 -0.8065  1.7094  1.4423
  866MPD2    H112766   1.877   1.645  10.934  2.1141  3.3045  2.8774
  866MPD2    H212767   2.192   1.376  10.887 -0.1350  0.9012 -0.7334
  866MPD2    H312768   2.046   1.548  10.799 -1.6177  2.6289  1.1910
  866MPD2     N12769   1.791   1.581  11.176 -0.2414 -0.0535  0.6486
  866MPD2    H512770   1.730   1.628  11.110  1.7118 -1.6521 -2.2770
  866MPD2    N112771   2.172   1.264  11.122  0.0946  0.5274  0.2428
  866MPD2    H712772   2.230   1.231  11.046 -1.0240 -0.3130 -0.2564
  867MPD2     C12773   0.730   4.730  16.227 -0.0362 -0.2023  0.1016
  867MPD2    C112774   0.675   0.002  16.353  0.4787 -0.0295  0.6596
  867MPD2    C212775   0.689   0.117  16.423 -0.2895 -0.2209  0.8405
  867MPD2    C312776   0.747   0.229  16.371  0.5277  0.0841  0.2057
  867MPD2    C412777   0.787   0.223  16.242 -0.5361 -0.3245  0.9400
  867MPD2    C512778   0.787   0.104  16.175 -0.2378  0.1787 -0.9356
  867MPD2     H12779   0.638   0.128  16.518 -1.8437  0.0092 -0.0230
  867MPD2    H112780   0.827   0.313  16.198 -3.0310  0.1552 -0.3496
  867MPD2    H212781   0.737   4.636  16.173  1.8045 -0.0436  0.0641
  867MPD2    H312782   0.831   0.102  16.076  0.8760 -0.2758 -0.4367
  867MPD2     N12783   0.759   0.355  16.436  0.0394  0.0061 -0.2881
  867MPD2    H512784   0.805   0.430  16.386  0.2849  0.0166 -0.0464
  867MPD2    N112785   0.616   4.622  16.410 -0.5719 -0.7854 -0.7756
  867MPD2    H712786   0.614   4.537  16.355  0.6505  0.1026 -2.1681
  868MPD2     C12787   1.684   4.363  13.130  0.6006  0.3152  0.2638
  868MPD2    C112788   1.693   4.225  13.144  0.1274  0.0724 -0.2660
  868MPD2    C212789   1.580   4.157  13.195  0.5499  0.0725  0.5825
  868MPD2    C312790   1.466   4.230  13.222  0.4208  0.2205 -1.1760
  868MPD2    C412791   1.465   4.366  13.218  0.7628  0.1785 -0.4539
  868MPD2    C512792   1.579   4.435  13.168 -0.0274 -0.0521 -0.5650
  868MPD2     H12793   1.574   4.049  13.206 -1.0073  0.0502 -0.3532
  868MPD2    H112794   1.376   4.424  13.238  0.7199 -0.0740  0.0727
  868MPD2    H212795   1.760   4.418  13.076  1.5123 -1.4083 -0.2465
  868MPD2    H312796   1.590   4.539  13.138 -1.9534  0.0683 -0.8537
  868MPD2     N12797   1.361   4.153  13.278  0.0864  0.3073  0.5392
  868MPD2    H512798   1.376   4.052  13.280 -0.0399  0.2431 -1.6197
  868MPD2    N112799   1.811   4.157  13.114 -0.1405  0.2091  0.4633
  868MPD2    H712800   1.879   4.212  13.063 -0.6974  0.8325  0.3843
  869MPD2     C12801   2.792   1.447   0.874 -0.2090 -0.0503  0.0361
  869MPD2    C112802   2.852   1.451   0.752  0.4147 -1.0615 -0.2247
  869MPD2    C212803   2.879   1.575   0.694 -0.6726  0.3103  0.1554
  869MPD2    C312804   2.861   1.701   0.758  0.1850  1.2030  0.4429
  869MPD2    C412805   2.808   1.689   0.882  0.5238  0.1008 -0.1954
  869MPD2    C512806   2.771   1.567   0.941  0.4115  0.2587 -0.0197
  869MPD2     H12807   2.901   1.576   0.588  0.7939 -1.9242  0.4303
  869MPD2    H112808   2.795   1.783   0.935 -1.1794  0.0339 -0.4833
  869MPD2    H212809   2.762   1.360   0.931  0.0851 -1.0871 -1.3862
  869MPD2    H312810   2.712   1.563   1.032  3.4306  0.7068  1.9853
  869MPD2     N12811   2.900   1.830   0.708  0.2377  0.0775 -0.6130
  869MPD2    H512812   2.884   1.912   0.767 -2.3329 -0.6397 -0.3120
  869MPD2    N112813   2.887   1.328   0.684  0.4540  0.2898  0.3398
  869MPD2    H712814   2.851   1.241   0.722  0.8737 -1.5385 -3.4485
  870MPD2     C12815   3.222   0.476   1.823 -0.4791  0.7851 -0.0879
  870MPD2    C112816   3.161   0.429   1.711  0.2127  1.1786 -0.9427
  870MPD2    C212817   3.040   0.483   1.668  0.5089 -1.0855 -0.1223
  870MPD2    C312818   2.980   0.575   1.751  0.4802  0.4842 -0.9524
  870MPD2    C412819   3.047   0.635   1.859  0.8941 -0.1614  0.6173
  870MPD2    C512820   3.172   0.583   1.886 -0.0708 -0.1240  0.7443
  870MPD2     H12821   2.981   0.443   1.586 -3.1958  2.0570  1.0275
  870MPD2    H112822   3.015   0.721   1.917  1.0325 -1.0326  1.9822
  870MPD2    H212823   3.326   0.457   1.846 -0.2433  2.5415  0.3012
  870MPD2    H312824   3.236   0.631   1.959  0.6780 -1.3369  0.8811
  870MPD2     N12825   2.852   0.615   1.711 -0.5655 -0.6131 -0.3828
  870MPD2    H512826   2.812   0.564   1.632 -0.6075 -0.3183 -0.5501
  870MPD2    N112827   3.227   0.321   1.646  0.2650 -0.1177  0.2802
  870MPD2    H712828   3.321   0.298   1.678  0.9039  0.0364 -1.5211
  871MPD2     C12829   3.631   0.234  16.504  0.6167 -0.1497 -0.4711
  871MPD2    C112830   3.706   0.178  16.607 -0.2809 -0.0890 -0.1563
  871MPD2    C212831   3.756   0.051  16.592  0.0331  0.4555  0.2383
  871MPD2    C312832   3.749   4.730  16.472  0.7184  0.8838  0.3503
  871MPD2    C412833   3.697   0.052  16.359 -0.6393  0.0826 -0.1360
  871MPD2    C512834   3.639   0.176  16.384 -0.2460 -1.1069 -0.5611
  871MPD2     H12835   3.805   4.738  16.674 -0.1017  0.6918  0.4653
  871MPD2    H112836   3.708   0.019  16.256  1.0160 -0.3177  0.1690
  871MPD2    H212837   3.580   0.330  16.514  0.2143 -0.6646  2.4624
  871MPD2    H312838   3.595   0.232  16.302 -1.5334 -0.4557  0.5598
  871MPD2     N12839   3.801   4.598  16.470  0.2959 -0.0835 -0.6146
  871MPD2    H512840   3.835   4.566  16.560  1.3223  1.3971 -0.4698
  871MPD2    N112841   3.709   0.251  16.727  0.1507 -0.3260 -0.4889
  871MPD2    H712842   3.651   0.334  16.730  1.2096  0.4233 -0.9757
  872MPD2     C12843   4.613   2.610  14.185  0.9714 -0.1685  0.2516
  872MPD2    C112844   4.551   2.701  14.106  0.3141  1.0411 -0.0892
  872MPD2    C212845   4.413   2.726  14.128 -0.2295 -0.7546 -0.7104
  872MPD2    C312846   4.356   2.679  14.243 -0.5248 -0.2122  0.3566
  872MPD2    C412847   4.425   2.593  14.325  0.4243 -0.3245 -0.2803
  872MPD2    C512848   4.555   2.560  14.294 -0.9415 -0.6655 -0.4176
  872MPD2     H12849   4.356   2.790  14.062 -0.4704 -0.4753 -0.2303
  872MPD2    H112850   4.383   2.543  14.411  0.7153  0.7465  0.4884
  872MPD2    H212851   4.720   2.602  14.175  0.9144 -1.2545  0.4515
  872MPD2    H312852   4.609   2.492  14.359  1.4775 -0.2519 -1.9518
  872MPD2     N12853   4.218   2.702  14.282  0.1942 -0.6954 -0.9674
  872MPD2    H512854   4.202   2.674  14.378  2.8808  2.6759  0.4562
  872MPD2    N112855   4.620   2.778  14.011 -0.0875  0.0055 -0.1998
  872MPD2    H712856   4.568   2.850  13.962 -0.9212 -1.7621 -1.9377
  873MPD2     C12857   1.086   2.937   0.980 -0.1127 -0.0429  0.9183
  873MPD2    C112858   1.170   2.857   1.048 -0.3130  0.0100 -0.2438
  873MPD2    C212859   1.194   2.725   1.003  0.1838 -0.5493  0.6617
  873MPD2    C312860   1.140   2.681   0.879 -0.1760  0.7327 -0.4004
  873MPD2    C412861   1.046   2.765   0.819  0.2287  0.5759  0.2953
  873MPD2    C512862   1.021   2.894   0.868  0.0806 -0.8886  0.1008
  873MPD2     H12863   1.268   2.662   1.050 -0.3727 -2.5995 -1.1991
  873MPD2    H112864   1.000   2.737   0.725  2.3522  0.7109 -0.7744
  873MPD2    H212865   1.042   3.026   1.023  0.7671  0.6188  0.4475
  873MPD2    H312866   0.945   2.949   0.815  0.0245 -0.3401  0.7462
  873MPD2     N12867   1.174   2.558   0.814 -0.1954  0.3464 -0.7341
  873MPD2    H512868   1.135   2.547   0.721  0.0274  3.6149 -1.1996
  873MPD2    N112869   1.231   2.913   1.158  0.0967  0.0567 -0.1025
  873MPD2    H712870   1.218   3.012   1.176 -0.4634  0.4356 -2.7148
  874MPD2     C12871   1.411   2.509  15.880 -0.1145  0.4613  0.7096
  874MPD2    C112872   1.497   2.415  15.938 -0.1992  0.2029 -0.1924
  874MPD2    C212873   1.636   2.439  15.915 -0.7179  0.2622 -0.1992
  874MPD2    C312874   1.678   2.562  15.868 -0.3389  0.1737 -1.0737
  874MPD2    C412875   1.591   2.644  15.805 -0.1590 -0.2342  0.0012
  874MPD2    C512876   1.458   2.611  15.801 -0.3964  1.3950 -0.0527
  874MPD2     H12877   1.711   2.377  15.962  0.7772  1.9909 -0.2722
  874MPD2    H112878   1.620   2.744  15.776  0.1149 -0.5164 -0.6917
  874MPD2    H212879   1.303   2.514  15.876 -0.0488 -0.3160 -1.6739
  874MPD2    H312880   1.379   2.681  15.775 -2.3960 -0.8525 -0.0428
  874MPD2     N12881   1.816   2.583  15.893 -0.2892 -0.6766 -0.0025
  874MPD2    H512882   1.872   2.507  15.932  1.8285  1.2728  0.7293
  874MPD2    N112883   1.444   2.316  16.018  0.1734  0.2278 -0.0384
  874MPD2    H712884   1.348   2.318  16.051 -0.4064  0.0048 -1.7150
  875MPD2     C12885   2.455   0.963  14.402 -0.3025  0.0682  0.7673
  875MPD2    C112886   2.323   0.976  14.433 -0.4279  0.7950 -0.1649
  875MPD2    C212887   2.286   0.986  14.566  0.2682  0.2059  0.4676
  875MPD2    C312888   2.382   0.990  14.659  0.3997  0.7039 -0.4787
  875MPD2    C412889   2.512   0.972  14.627  0.1238  0.4166 -0.2487
  875MPD2    C512890   2.545   0.953  14.503  0.0136  0.5117 -0.5774
  875MPD2     H12891   2.183   1.004  14.593 -0.4245  1.2909 -2.8803
  875MPD2    H112892   2.582   0.956  14.708  0.8277 -0.6598 -1.0717
  875MPD2    H212893   2.498   0.985  14.305  1.7900 -0.0582  1.6778
  875MPD2    H312894   2.648   0.938  14.474  1.3591  2.6735  3.0159
  875MPD2     N12895   2.353   1.006  14.797 -0.6006 -0.1890  0.0379
  875MPD2    H512896   2.424   1.015  14.869  1.0221  2.1225 -1.8998
  875MPD2    N112897   2.224   0.989  14.332 -0.2931 -1.0178 -0.2967
  875MPD2    H712898   2.129   1.002  14.365  0.1542  2.4328 -0.3696
  876MPD2     C12899   1.118   2.073  15.841  0.4785 -0.7629  0.0453
  876MPD2    C112900   1.257   2.072  15.816  0.2858  0.2369 -0.4162
  876MPD2    C212901   1.340   1.985  15.880  0.8868  0.4130  0.2641
  876MPD2    C312902   1.288   1.895  15.972  0.0719  0.0200  0.6161
  876MPD2    C412903   1.154   1.904  16.008  0.6781  0.2734 -0.3322
  876MPD2    C512904   1.071   1.994  15.944  0.4705  0.6342 -0.3140
  876MPD2     H12905   1.443   1.966  15.853  0.4697  0.2206 -1.1703
  876MPD2    H112906   1.106   1.844  16.085  0.0455  0.2670 -0.7318
  876MPD2    H212907   1.056   2.147  15.793 -0.8913 -1.6051  0.4950
  876MPD2    H312908   0.968   1.999  15.978 -0.0237 -2.0469 -1.3763
  876MPD2     N12909   1.369   1.787  16.012 -0.9898  0.2243 -0.8602
  876MPD2    H512910   1.466   1.781  15.984 -1.1697  1.4415 -1.7274
  876MPD2    N112911   1.296   2.166  15.717  0.7458 -0.2634  0.0914
  876MPD2    H712912   1.223   2.226  15.679 -0.7567 -1.5034  1.0343
  877MPD2     C12913   1.051   2.636  15.150 -0.6510 -0.3216 -0.5298
  877MPD2    C112914   1.184   2.671  15.177  0.8451 -0.3335  0.0890
  877MPD2    C212915   1.246   2.754  15.085 -0.0684 -0.6983  0.0607
  877MPD2    C312916   1.177   2.804  14.971 -0.6521 -0.3870 -0.2329
  877MPD2    C412917   1.045   2.773  14.951 -0.0302 -0.1729 -0.3540
  877MPD2    C512918   0.987   2.687  15.039 -0.0521 -0.5542 -0.0813
  877MPD2     H12919   1.349   2.778  15.108 -1.2217  2.2190  2.2055
  877MPD2    H112920   0.990   2.805  14.863  1.4301 -0.6288 -1.4418
  877MPD2    H212921   0.996   2.562  15.208 -0.4452 -0.3907 -0.4254
  877MPD2    H312922   0.886   2.652  15.026 -0.5236  0.6687  0.2873
  877MPD2     N12923   1.231   2.891  14.867 -0.4242  0.5969  0.8224
  877MPD2    H512924   1.185   2.891  14.777 -0.1970 -1.6642  0.7272
  877MPD2    N112925   1.266   2.621  15.277  0.0979  0.2274  0.3256
  877MPD2    H712926   1.363   2.651  15.271 -0.3009  1.3760 -0.2756
  878MPD2     C12927   0.510   2.040  13.130  0.4318 -0.1742  0.1426
  878MPD2    C112928   0.642   2.002  13.100 -0.7332 -0.6593  0.1003
  878MPD2    C212929   0.731   1.949  13.199  0.1211  0.3144 -0.1138
  878MPD2    C312930   0.682   1.926  13.320  0.4384  0.1120  0.1448
  878MPD2    C412931   0.548   1.958  13.347  0.0024  0.2148  0.8668
  878MPD2    C512932   0.463   2.008  13.254  0.5106  0.2438  0.2643
  878MPD2     H12933   0.830   1.914  13.176 -0.1843  0.9428 -2.3639
  878MPD2    H112934   0.507   1.922  13.441 -4.3465  0.6467 -0.8931
  878MPD2    H212935   0.447   2.083  13.053 -1.4389 -1.7350  0.8054
  878MPD2    H312936   0.357   2.003  13.279 -0.3446  2.7348 -2.8246
  878MPD2     N12937   0.765   1.868  13.421  0.5863  0.8431 -0.1739
  878MPD2    H512938   0.855   1.827  13.396 -0.5310 -0.5361 -2.0225
  878MPD2    N112939   0.681   2.024  12.965  0.3084  0.2974  0.4877
  878MPD2    H712940   0.620   2.082  12.910  0.0888 -1.1706 -0.8185
  879MPD2     C12941   2.037   2.810  16.834  0.3199  0.1279  0.4702
  879MPD2    C112942   1.934   2.890  16.791  0.4660  0.0298 -0.3930
  879MPD2    C212943   1.883   2.866  16.662 -0.2542 -0.2003 -0.3738
  879MPD2    C312944   1.938   2.768  16.580  0.4973 -0.1085  0.3082
  879MPD2    C412945   2.037   2.691  16.626 -0.1465 -0.8568 -0.2090
  879MPD2    C512946   2.084   2.711  16.754  0.2494  1.0292  0.3985
  879MPD2     H12947   1.787   2.903  16.629 -0.6635 -0.7004  0.2800
  879MPD2    H112948   2.083   2.611  16.569  1.3092 -0.4318  0.3692
  879MPD2    H212949   2.065   2.805  16.939 -0.5441 -2.3211  0.5954
  879MPD2    H312950   2.165   2.648  16.788  1.2421  1.4781 -1.1364
  879MPD2     N12951   1.883   2.737  16.451 -0.0167 -0.4870  0.6085
  879MPD2    H512952   1.907   2.646  16.412 -0.8627  1.5173 -4.6437
  879MPD2    N112953   1.891   2.994  16.881  0.4744  0.6104  0.6364
  879MPD2    H712954   1.938   2.997  16.971 -1.1626 -0.4008  1.5003
  880MPD2     C12955   2.616   4.583   0.612  0.7270  0.0253  0.4544
  880MPD2    C112956   2.736   4.649   0.638 -0.1462  0.0987 -0.5249
  880MPD2    C212957   2.849   4.579   0.663 -0.3005 -0.2919  0.0462
  880MPD2    C312958   2.841   4.442   0.688  0.2521 -0.0751  0.0365
  880MPD2    C412959   2.725   4.374   0.663  0.4402 -1.0817  0.8469
  880MPD2    C512960   2.612   4.441   0.628  0.3286  0.1071 -0.4254
  880MPD2     H12961   2.944   4.630   0.674  0.0974 -1.2255  0.9934
  880MPD2    H112962   2.721   4.271   0.696 -1.5785 -1.2312  0.1457
  880MPD2    H212963   2.527   4.639   0.587  0.8798  0.1460  0.1796
  880MPD2    H312964   2.513   4.395   0.623  0.7589 -0.8522 -0.0619
  880MPD2     N12965   2.951   4.373   0.740  0.0446  0.0437  0.3048
  880MPD2    H512966   3.031   4.427   0.770  0.7052  0.0967 -1.5216
  880MPD2    N112967   2.736   0.054   0.629 -0.0314 -0.7092  0.0393
  880MPD2    H712968   2.654   0.112   0.616 -0.4873 -1.1949  0.6906
  881MPD2     C12969   2.752   1.049   0.251  0.0238 -0.0435 -0.0832
  881MPD2    C112970   2.796   0.927   0.207 -0.2543 -0.0080  0.3555
  881MPD2    C212971   2.808   0.824   0.299  0.4125  0.4687 -0.3209
  881MPD2    C312972   2.741   0.839   0.419 -0.9598 -1.1761  0.4365
  881MPD2    C412973   2.682   0.959   0.454  0.8580  0.4462  0.4335
  881MPD2    C512974   2.693   1.063   0.374 -0.3422 -0.1667 -0.4852
  881MPD2     H12975   2.843   0.728   0.262 -4.5185 -0.9439 -1.2846
  881MPD2    H112976   2.633   0.979   0.549  0.5743  1.6413  0.0361
  881MPD2    H212977   2.762   1.137   0.188 -2.0464  1.1350  1.2154
  881MPD2    H312978   2.654   1.157   0.411 -0.8887  0.4717 -2.6810
  881MPD2     N12979   2.725   0.729   0.506  0.6879  0.5273 -0.5118
  881MPD2    H512980   2.659   0.738   0.582 -0.4015  1.7923 -1.6191
  881MPD2    N112981   2.874   0.931   0.087 -0.4434 -0.1040 -0.6606
  881MPD2    H712982   2.875   1.020   0.039 -0.6842  1.0352  1.4130
  882MPD2     C12983   1.393   3.091  14.117  0.1147 -0.1538  0.3202
  882MPD2    C112984   1.300   3.107  14.217  0.2490  0.6232  0.1552
  882MPD2    C212985   1.172   3.078  14.185 -1.4646  0.0646 -0.2427
  882MPD2    C312986   1.135   3.024  14.063  0.2006 -0.8024  0.1416
  882MPD2    C412987   1.235   3.006  13.965  0.3142  0.7173 -0.2260
  882MPD2    C512988   1.360   3.046  13.988  0.2175  0.7491  0.5615
  882MPD2     H12989   1.102   3.100  14.265 -2.6845 -2.6131 -0.5865
  882MPD2    H112990   1.212   2.973  13.864  1.0345  1.6611 -0.6950
  882MPD2    H212991   1.498   3.103  14.139  0.0943  1.8079 -0.5779
  882MPD2    H312992   1.426   3.034  13.902 -2.2752 -0.5983 -1.1376
  882MPD2     N12993   1.011   2.971  14.046  0.3409 -0.2313 -0.3103
  882MPD2    H512994   0.986   2.912  13.967 -0.5129 -0.7815  0.3710
  882MPD2    N112995   1.339   3.147  14.343  0.7634  0.2115 -0.4343
  882MPD2    H712996   1.440   3.154  14.349  1.0228 -1.5391 -2.7888
  883MPD2     C12997   3.219   2.799  16.633  0.6283  0.6992  0.2597
  883MPD2    C112998   3.277   2.763  16.510 -0.2470  0.2859 -0.0659
  883MPD2    C212999   3.417   2.772  16.487  0.1828  0.7263  0.6992
  883MPD2    C313000   3.497   2.802  16.599  0.6969 -0.2382  0.3313
  883MPD2    C413001   3.445   2.825  16.721  0.1979  0.0654  0.0564
  883MPD2    C513002   3.309   2.818  16.737 -0.6018  0.4037  0.5942
  883MPD2     H13003   3.452   2.747  16.387 -0.7565 -1.3169  0.8887
  883MPD2    H113004   3.507   2.844  16.807  0.5522 -1.1435  0.0553
  883MPD2    H213005   3.113   2.790  16.656  0.8471  0.3456  1.1262
  883MPD2    H313006   3.268   2.828  16.837  1.0979  1.1090  1.2230
  883MPD2     N13007   3.641   2.801  16.581  0.3635 -0.1353 -0.1329
  883MPD2    H513008   3.665   2.805  16.482 -0.2953 -2.4455 -0.3891
  883MPD2    N113009   3.197   2.723  16.397  0.2689 -0.4630  0.2420
  883MPD2    H713010   3.240   2.703  16.308 -0.1594 -1.4177  0.2539
  884MPD2     C13011   0.105   3.281  15.072 -0.1217  0.5895 -0.0956
  884MPD2    C113012   0.089   3.404  15.013 -0.4503  0.2444  0.9979
  884MPD2    C213013   4.720   3.477  15.049 -0.3810 -0.3814  0.2532
  884MPD2    C313014   4.632   3.422  15.145 -0.7049 -0.0514 -0.0831
  884MPD2    C413015   4.639   3.289  15.191 -0.0712 -0.9807 -0.5023
  884MPD2    C513016   0.007   3.218  15.148  0.0614  0.6252  0.0176
  884MPD2     H13017   4.709   3.581  15.023  1.7860 -0.0111  0.8716
  884MPD2    H113018   4.581   3.233  15.264 -2.5324  0.4289 -1.3595
  884MPD2    H213019   0.181   3.211  15.038  1.0032 -0.2010  4.0813
  884MPD2    H313020   0.005   3.111  15.160 -0.2195  0.3364 -2.5470
  884MPD2     N13021   4.529   3.509  15.197 -0.1424  0.2951 -0.4365
  884MPD2    H513022   4.506   3.598  15.153 -1.7405 -0.0117 -0.2156
  884MPD2    N113023   0.182   3.461  14.921  0.2732 -0.4378 -0.5057
  884MPD2    H713024   0.151   3.543  14.869 -1.2959 -0.5241  0.2969
  885MPD2     C13025   3.322   3.885   0.306  1.1033 -0.2390 -0.1847
  885MPD2    C113026   3.379   3.762   0.285  0.3175 -0.4894  0.9071
  885MPD2    C213027   3.375   3.713   0.156  0.0172  0.0206 -0.0252
  885MPD2    C313028   3.331   3.783   0.044 -0.0232 -0.3918  0.7609
  885MPD2    C413029   3.275   3.909   0.071  0.2253  0.1594 -0.2601
  885MPD2    C513030   3.271   3.961   0.203  0.1354  0.1149  0.5402
  885MPD2     H13031   3.412   3.613   0.137 -0.6819 -0.1055 -0.7541
  885MPD2    H113032   3.240   3.975  17.746 -2.1664 -1.7863 -0.8467
  885MPD2    H213033   3.311   3.926   0.405  0.4251  1.2182 -0.8689
  885MPD2    H313034   3.224   4.056   0.227 -0.6705 -0.0239 -0.5127
  885MPD2     N13035   3.340   3.718  17.673 -0.1179  0.4553  0.2169
  885MPD2    H513036   3.377   3.623  17.661 -0.4258  0.1628  1.6421
  885MPD2    N113037   3.441   3.696   0.395  0.4259 -0.0542  0.6306
  885MPD2    H713038   3.427   3.745   0.483 -0.2905 -1.0659  1.0795
  886MPD2     C13039   4.604   2.027  15.178  0.0207  0.3532 -0.8715
  886MPD2    C113040   4.709   2.099  15.236 -0.0113  0.6953  0.5148
  886MPD2    C213041   0.011   2.222  15.174 -0.0386  0.4533  0.1142
  886MPD2    C313042   4.676   2.272  15.069 -0.1276  0.5464 -0.1056
  886MPD2    C413043   4.576   2.201  15.013  0.3637 -0.6640  0.0445
  886MPD2    C513044   4.538   2.077  15.074  0.2994 -0.2947  0.6669
  886MPD2     H13045   0.112   2.257  15.194  0.5239 -1.4355  0.6328
  886MPD2    H113046   4.513   2.246  14.937 -0.2469  0.6453  1.3110
  886MPD2    H213047   4.548   1.959  15.241 -0.4653  1.0826 -0.5144
  886MPD2    H313048   4.452   2.026  15.032 -0.0666  0.3196  0.6663
  886MPD2     N13049   4.713   2.392  15.004  0.1450  0.6541 -0.1826
  886MPD2    H513050   4.655   2.429  14.929 -2.1993 -1.5603  0.5402
  886MPD2    N113051   0.048   2.041  15.339  0.0702 -0.3364  0.0752
  886MPD2    H713052   0.126   2.093  15.379  0.2541 -0.4688 -0.1106
  887MPD2     C13053   0.410   2.254  15.931 -0.0218 -0.1980  0.0695
  887MPD2    C113054   0.422   2.238  15.792  0.0168 -1.0098  0.6271
  887MPD2    C213055   0.478   2.346  15.722 -0.7848 -0.7403 -0.4523
  887MPD2    C313056   0.564   2.441  15.780 -0.4185 -0.5621 -0.4158
  887MPD2    C413057   0.558   2.446  15.920  0.0384 -0.4057  0.1109
  887MPD2    C513058   0.473   2.360  15.986 -0.9092  0.3850 -0.9557
  887MPD2     H13059   0.465   2.359  15.615 -0.4988 -0.7898 -0.4940
  887MPD2    H113060   0.610   2.519  15.981 -0.2321  0.6018 -0.8716
  887MPD2    H213061   0.347   2.202  16.003 -1.8655  0.4035 -1.0939
  887MPD2    H313062   0.465   2.374  16.093 -0.8768 -2.5039 -0.5849
  887MPD2     N13063   0.641   2.524  15.696 -0.3586  0.2637 -0.1342
  887MPD2    H513064   0.627   2.505  15.598  3.3488  0.5240 -0.7142
  887MPD2    N113065   0.349   2.138  15.729  0.4900 -0.3680 -0.0427
  887MPD2    H713066   0.360   2.140  15.628 -0.3030  1.3856 -0.0823
  888MPD2     C13067   2.173   2.190  15.001  0.1722 -0.1788 -0.1565
  888MPD2    C113068   2.204   2.229  15.131 -0.5399 -0.0905  0.5038
  888MPD2    C213069   2.271   2.338  15.155  0.3586 -0.2021 -0.1274
  888MPD2    C313070   2.310   2.427  15.054  0.2954 -0.7869 -0.4419
  888MPD2    C413071   2.272   2.393  14.923 -0.7942  0.1395  0.0849
  888MPD2    C513072   2.205   2.277  14.897  0.3850  0.0293  0.4430
  888MPD2     H13073   2.303   2.350  15.258  1.6388  3.6664 -0.9631
  888MPD2    H113074   2.275   2.469  14.846  1.1424 -0.0397 -0.0323
  888MPD2    H213075   2.129   2.093  14.978 -0.1348  0.2381 -1.3130
  888MPD2    H313076   2.160   2.260  14.800  2.3675  0.0432 -0.4835
  888MPD2     N13077   2.381   2.545  15.087  0.4278 -0.4568 -0.0844
  888MPD2    H513078   2.388   2.574  15.184  0.2341  0.0917 -0.2343
  888MPD2    N113079   2.167   2.159  15.250  0.1682  0.1318  0.0311
  888MPD2    H713080   2.204   2.196  15.336 -2.0056  0.0691  0.9837
  889MPD2     C13081   1.402   2.378  12.769 -0.3220 -0.0064 -0.1606
  889MPD2    C113082   1.473   2.297  12.857  0.7790 -0.4618  0.1459
  889MPD2    C213083   1.529   2.358  12.969  0.0751 -1.0760 -0.0381
  889MPD2    C313084   1.504   2.493  12.998 -0.1507  0.2346 -0.1670
  889MPD2    C413085   1.425   2.565  12.916  0.0879  1.0334  0.0456
  889MPD2    C513086   1.380   2.512  12.800 -0.2827 -0.7098 -0.0013
  889MPD2     H13087   1.566   2.290  13.044 -0.5170  0.1560  1.3920
  889MPD2    H113088   1.398   2.670  12.927  2.2667  1.6633 -0.5684
  889MPD2    H213089   1.339   2.335  12.692 -0.2833 -1.5964  0.6905
  889MPD2    H313090   1.324   2.572  12.729  2.8336 -0.3429 -2.1263
  889MPD2     N13091   1.548   2.540  13.124 -0.4268 -0.4437 -0.1598
  889MPD2    H513092   1.628   2.492  13.165 -1.0363  0.0366  1.6298
  889MPD2    N113093   1.482   2.157  12.849  0.2090  1.3452 -0.7273
  889MPD2    H713094   1.513   2.107  12.932 -1.0119 -1.5664 -2.0521
  890MPD2     C13095   1.206   3.695  14.568  0.5052 -0.5969  0.1992
  890MPD2    C113096   1.318   3.765  14.604 -0.3451  0.2056  0.4688
  890MPD2    C213097   1.406   3.709  14.686 -0.1947 -0.4400  0.5111
  890MPD2    C313098   1.394   3.582  14.737  0.5102 -0.4380  0.2089
  890MPD2    C413099   1.280   3.512  14.701 -0.2063 -0.6661  0.6910
  890MPD2    C513100   1.183   3.569  14.622 -0.0685 -0.4684  0.3770
  890MPD2     H13101   1.495   3.766  14.712  0.7702 -1.1288 -1.3040
  890MPD2    H113102   1.277   3.408  14.732 -0.5895 -1.2337 -1.2780
  890MPD2    H213103   1.125   3.735  14.509  0.2907 -0.2487  0.7270
  890MPD2    H313104   1.099   3.508  14.593 -1.7305  1.8039  0.3579
  890MPD2     N13105   1.491   3.533  14.829 -0.6615  0.0831  0.3588
  890MPD2    H513106   1.568   3.594  14.857  0.2166 -1.4538  1.2866
  890MPD2    N113107   1.332   3.900  14.563  0.0916  0.9149  0.1063
  890MPD2    H713108   1.260   3.927  14.497 -1.1785 -0.0634  1.0873
  891MPD2     C13109   4.693   1.644  17.033  0.3623 -0.2377 -0.0203
  891MPD2    C113110   4.577   1.603  17.085 -0.0772 -0.7590 -0.0859
  891MPD2    C213111   4.567   1.482  17.151 -0.1060 -0.0461 -0.0522
  891MPD2    C313112   4.677   1.405  17.168 -0.0593  0.5182  0.2586
  891MPD2    C413113   0.063   1.442  17.113 -0.4710  0.0959  0.1681
  891MPD2    C513114   0.064   1.562  17.048 -0.3850 -0.0991  0.5901
  891MPD2     H13115   4.474   1.445  17.193 -0.9289  0.8431 -1.1225
  891MPD2    H113116   0.155   1.385  17.125 -0.6531 -0.4693 -1.1597
  891MPD2    H213117   4.695   1.737  16.977 -1.4405  0.1516  0.5685
  891MPD2    H313118   0.161   1.596  17.013 -0.9645 -0.1758 -1.0841
  891MPD2     N13119   4.662   1.287  17.245 -0.7339 -0.4002  0.0400
  891MPD2    H513120   4.582   1.286  17.306 -1.6361  2.6955 -1.1070
  891MPD2    N113121   4.467   1.690  17.061  0.3906  0.2702 -0.5180
  891MPD2    H713122   4.488   1.776  17.012 -0.0385  1.8799  2.1597
  892MPD2     C13123   0.355   3.052  14.709 -0.6299 -0.3174 -0.4931
  892MPD2    C113124   0.272   3.061  14.597 -0.3020  0.1716 -0.9477
  892MPD2    C213125   0.333   3.045  14.475 -0.2933 -0.1875 -0.2756
  892MPD2    C313126   0.470   3.012  14.457 -0.0752  0.1197 -0.1675
  892MPD2    C413127   0.555   3.011  14.570  0.2270 -0.0606  0.1949
  892MPD2    C513128   0.491   3.027  14.697 -0.4490  0.3378  0.0598
  892MPD2     H13129   0.272   3.062  14.387  0.9900 -0.8215 -1.2928
  892MPD2    H113130   0.662   3.002  14.556 -0.1010 -0.0616 -2.3222
  892MPD2    H213131   0.309   3.069  14.806  0.3177  2.6466 -0.5848
  892MPD2    H313132   0.556   3.028  14.784 -0.8639  1.2626  0.3585
  892MPD2     N13133   0.527   2.987  14.333 -0.4455  0.1945 -1.2409
  892MPD2    H513134   0.629   2.991  14.341 -0.6654  0.7612  1.3396
  892MPD2    N113135   0.135   3.099  14.604 -0.1243  0.2464  0.5153
  892MPD2    H713136   0.098   3.133  14.516  0.4462 -0.1207  0.1304
  893MPD2     C13137   2.021   1.268   1.573  0.2667 -0.1180 -0.4324
  893MPD2    C113138   2.045   1.194   1.452 -0.2578  0.2841 -0.3594
  893MPD2    C213139   1.963   1.226   1.341 -0.4882 -0.2063 -0.4904
  893MPD2    C313140   1.856   1.318   1.349 -0.0631 -0.3164  0.3955
  893MPD2    C413141   1.837   1.376   1.474  0.5927 -0.2504  0.0809
  893MPD2    C513142   1.911   1.346   1.587  0.3505  0.1904 -0.3483
  893MPD2     H13143   1.979   1.191   1.240  1.2584  2.0062 -0.9741
  893MPD2    H113144   1.757   1.447   1.488 -0.5657 -1.3041 -1.2251
  893MPD2    H213145   2.079   1.247   1.662 -0.6547  0.1591  0.2372
  893MPD2    H313146   1.880   1.398   1.677  2.0480  0.9415 -0.1981
  893MPD2     N13147   1.783   1.373   1.239 -0.8779 -0.7912 -0.8491
  893MPD2    H513148   1.728   1.458   1.247  0.0506 -0.2283 -0.5141
  893MPD2    N113149   2.156   1.105   1.452  0.5531 -0.1263  0.6775
  893MPD2    H713150   2.218   1.096   1.532  0.8913  1.3449  0.5947
  894MPD2     C13151   0.367   3.271   0.720 -0.7574  0.3449 -0.0790
  894MPD2    C113152   0.360   3.343   0.834  0.3471  0.2680 -0.1123
  894MPD2    C213153   0.362   3.476   0.838  0.5775 -0.2981 -0.6618
  894MPD2    C313154   0.371   3.546   0.720  0.2536  0.3830  0.3511
  894MPD2    C413155   0.381   3.477   0.604  0.8089  0.1328 -0.6055
  894MPD2    C513156   0.382   3.340   0.603  0.2901 -0.3998 -0.1799
  894MPD2     H13157   0.372   3.542   0.924  1.4128  0.6085 -1.4516
  894MPD2    H113158   0.384   3.518   0.503 -2.7488 -0.0198 -0.7923
  894MPD2    H213159   0.344   3.165   0.719  1.9028 -0.2415  0.8869
  894MPD2    H313160   0.388   3.288   0.508  0.1102  1.6845 -1.3414
  894MPD2     N13161   0.370   3.690   0.726 -0.1699  0.0371 -0.2340
  894MPD2    H513162   0.360   3.730   0.819  0.3532  2.8658 -1.3972
  894MPD2    N113163   0.352   3.283   0.965 -0.2482  0.1714  0.1165
  894MPD2    H713164   0.365   3.346   1.044  1.7151 -0.1506  0.0600
  895MPD2     C13165   4.079   2.224  13.563 -0.0320 -0.3320  0.0921
  895MPD2    C113166   4.002   2.246  13.451 -0.9616 -0.7338  0.1538
  895MPD2    C213167   3.994   2.139  13.358  0.2034  0.1119  0.3266
  895MPD2    C313168   4.056   2.016  13.385  0.1733 -0.0660 -0.0229
  895MPD2    C413169   4.136   1.996  13.494 -0.2039 -0.2550  0.2785
  895MPD2    C513170   4.142   2.101  13.586  0.2586 -0.5700 -0.1018
  895MPD2     H13171   3.916   2.146  13.283 -1.9507  1.2441  2.6285
  895MPD2    H113172   4.189   1.905  13.520  0.9370 -0.0235 -1.1896
  895MPD2    H213173   4.094   2.300  13.639 -0.1569 -0.8862  0.6729
  895MPD2    H313174   4.196   2.089  13.680 -0.5347 -2.1282  0.1549
  895MPD2     N13175   4.019   1.899  13.316  0.1174 -0.2945  0.6558
  895MPD2    H513176   4.056   1.813  13.354  0.0472  0.1832  1.8269
  895MPD2    N113177   3.927   2.361  13.427  0.0259  0.1476 -0.0529
  895MPD2    H713178   3.870   2.359  13.343  1.6990 -3.1611 -1.0852
  896MPD2     C13179   2.307   4.588   1.552  0.2064 -0.3532  0.2260
  896MPD2    C113180   2.245   4.555   1.436 -0.3325  0.2344  0.4033
  896MPD2    C213181   2.109   4.508   1.451 -0.5496  0.3413  0.4176
  896MPD2    C313182   2.047   4.483   1.573  0.6214 -0.8009 -0.3454
  896MPD2    C413183   2.113   4.525   1.689  0.3500  0.2813 -0.1188
  896MPD2    C513184   2.239   4.570   1.669  0.0457 -0.4278 -0.1911
  896MPD2     H13185   2.064   4.471   1.360  1.7967  0.4957 -0.8110
  896MPD2    H113186   2.074   4.503   1.787 -2.2991  1.9635 -0.7723
  896MPD2    H213187   2.402   4.639   1.549 -0.4909  0.9429 -0.0752
  896MPD2    H313188   2.286   4.601   1.761 -0.2098 -0.7037  0.0305
  896MPD2     N13189   1.926   4.415   1.568 -0.1482  0.2800 -0.3350
  896MPD2    H513190   1.891   4.398   1.475  1.3030 -3.0808 -0.2787
  896MPD2    N113191   2.301   4.587   1.313 -0.5959  0.3690  1.0040
  896MPD2    H713192   2.390   4.636   1.313  1.0571 -2.6104  1.9530
  897MPD2     C13193   2.518   1.502  10.957 -0.4643  0.3690  0.5039
  897MPD2    C113194   2.463   1.613  10.895 -0.1172  0.0913 -0.3113
  897MPD2    C213195   2.384   1.697  10.965 -0.3112 -0.2804  0.4988
  897MPD2    C313196   2.343   1.664  11.100 -0.5761  0.9177 -0.5584
  897MPD2    C413197   2.402   1.547  11.160 -0.0914 -0.2912 -0.0765
  897MPD2    C513198   2.487   1.475  11.084 -0.3368  0.0614 -0.8559
  897MPD2     H13199   2.350   1.790  10.921 -2.7842 -1.2766  0.2430
  897MPD2    H113200   2.378   1.511  11.260  1.5749 -0.6034  0.2005
  897MPD2    H213201   2.587   1.441  10.900 -2.6796 -0.9815 -0.7245
  897MPD2    H313202   2.526   1.387  11.133 -1.7495  0.4999  1.0154
  897MPD2     N13203   2.241   1.751  11.158  0.4446  0.1760 -0.3433
  897MPD2    H513204   2.204   1.826  11.100 -1.6460 -1.3285 -0.9620
  897MPD2    N113205   2.490   1.647  10.764  0.2475  0.4828  0.0817
  897MPD2    H713206   2.440   1.727  10.729  0.5870  0.4957 -0.3787
  898MPD2     C13207   0.576   2.407  17.241  0.1722  0.2865  0.1093
  898MPD2    C113208   0.506   2.324  17.330 -0.0355 -0.2330  0.3317
  898MPD2    C213209   0.434   2.390  17.428 -0.1852 -0.2857 -0.0782
  898MPD2    C313210   0.413   2.530  17.419  0.0487  0.0269  0.4274
  898MPD2    C413211   0.494   2.605  17.334  0.3696 -0.1553  0.2258
  898MPD2    C513212   0.576   2.547  17.244 -0.0901  0.1365 -0.0728
  898MPD2     H13213   0.366   2.336  17.493 -2.1506 -1.1189 -2.8047
  898MPD2    H113214   0.475   2.711  17.332 -1.1164 -0.4844 -2.9678
  898MPD2    H213215   0.628   2.368  17.154  0.2038  0.3232  0.1116
  898MPD2    H313216   0.627   2.606  17.168 -1.6772  0.6324 -0.7612
  898MPD2     N13217   0.316   2.578  17.509  0.4541  0.0387  0.0017
  898MPD2    H513218   0.271   2.511  17.570 -0.3084 -0.1068 -0.7181
  898MPD2    N113219   0.513   2.184  17.325 -0.2775  0.6621 -0.5995
  898MPD2    H713220   0.465   2.125  17.392  1.8965 -0.2051  0.1826
  899MPD2     C13221   1.029   2.742  17.061 -0.1699  0.6865  0.0489
  899MPD2    C113222   1.059   2.839  17.155 -0.4169  0.2489 -1.4459
  899MPD2    C213223   1.037   2.819  17.290 -0.0848 -0.1899  0.4601
  899MPD2    C313224   0.975   2.703  17.343 -0.4655 -0.0075 -0.4508
  899MPD2    C413225   0.943   2.609  17.247 -1.1490 -0.5405  0.5016
  899MPD2    C513226   0.961   2.636  17.111  0.2394  0.2996  0.7841
  899MPD2     H13227   1.047   2.903  17.359  0.3115  1.8070 -2.0435
  899MPD2    H113228   0.881   2.523  17.272 -1.4093 -0.8147 -1.0439
  899MPD2    H213229   1.026   2.760  16.954  1.3681 -1.7167 -0.3978
  899MPD2    H313230   0.919   2.567  17.039 -0.7785  1.2032  0.5102
  899MPD2     N13231   0.942   2.679  17.481 -0.2245 -0.2471  0.5126
  899MPD2    H513232   0.887   2.598  17.507  0.2972 -0.9462 -0.5290
  899MPD2    N113233   1.111   2.959  17.105  0.3071  0.1515  0.5726
  899MPD2    H713234   1.117   2.975  17.005  0.0519  1.1839  0.7195
  900MPD2     C13235   0.009   4.480  12.416 -0.4144 -0.2332  0.1731
  900MPD2    C113236   0.013   4.357  12.458  0.4207  0.0457 -0.1811
  900MPD2    C213237   4.635   4.279  12.465 -0.0224 -0.2034 -0.1732
  900MPD2    C313238   4.513   4.329  12.422  0.7322  0.1213 -0.7250
  900MPD2    C413239   4.516   4.460  12.371 -0.8540  0.0158 -1.3102
  900MPD2    C513240   4.633   4.520  12.363 -0.2528 -0.2488  0.3067
  900MPD2     H13241   4.643   4.180  12.510  0.7671 -0.0352  0.0579
  900MPD2    H113242   4.420   4.506  12.347 -1.1522 -0.3020 -0.7099
  900MPD2    H213243   0.099   4.540  12.403  1.0932 -2.6724 -0.6860
  900MPD2    H313244   4.631   4.621  12.322  1.8993 -0.7591 -1.0749
  900MPD2     N13245   4.395   4.256  12.454  0.1466  0.5597  0.4009
  900MPD2    H513246   4.416   4.158  12.474  0.3171 -0.3117 -4.0820
  900MPD2    N113247   0.131   4.307  12.526 -0.2334  0.4791  0.4127
  900MPD2    H713248   0.121   4.213  12.561  1.2262  0.3865  0.5858
  901MPD2     C13249   0.198   3.530  12.854  0.2485 -0.5167 -0.5294
  901MPD2    C113250   0.327   3.549  12.827 -0.2456 -0.6622  0.0184
  901MPD2    C213251   0.376   3.679  12.820  0.2757  0.5095 -0.2696
  901MPD2    C313252   0.300   3.789  12.838 -0.5572 -0.3117 -0.1858
  901MPD2    C413253   0.164   3.763  12.871  0.1583 -0.0834 -0.1190
  901MPD2    C513254   0.119   3.637  12.869 -0.3534  0.2065  0.0071
  901MPD2     H13255   0.477   3.703  12.788 -0.2266 -0.0421 -2.3139
  901MPD2    H113256   0.095   3.845  12.889 -1.6182 -1.4666 -0.6381
  901MPD2    H213257   0.156   3.432  12.870 -1.2263  0.2145  0.1644
  901MPD2    H313258   0.014   3.615  12.886  0.3445 -3.3707 -0.2793
  901MPD2     N13259   0.349   3.915  12.820 -0.2528  0.0003  0.1870
  901MPD2    H513260   0.442   3.931  12.783  0.8818  1.6610  3.7913
  901MPD2    N113261   0.395   3.431  12.799 -0.2339  0.1563 -0.1301
  901MPD2    H713262   0.350   3.341  12.810  2.3274 -1.1616 -0.2634
  902MPD2     C13263   4.209   2.707  12.729 -0.0882  0.1245  0.8163
  902MPD2    C113264   4.157   2.800  12.646  0.1946  0.2928 -0.0050
  902MPD2    C213265   4.141   2.783  12.514  0.3027 -0.1134 -0.1785
  902MPD2    C313266   4.199   2.675  12.449 -0.3937 -0.1611  0.0154
  902MPD2    C413267   4.252   2.572  12.530 -0.1149 -0.3765  0.1491
  902MPD2    C513268   4.265   2.595  12.669  0.4351 -0.4186 -0.4333
  902MPD2     H13269   4.091   2.861  12.458  3.5523  2.7584  0.8929
  902MPD2    H113270   4.290   2.480  12.488  1.9651  0.0409  1.1531
  902MPD2    H213271   4.216   2.712  12.837  0.4681  1.9517  0.7027
  902MPD2    H313272   4.318   2.526  12.734 -0.5611 -1.9179 -1.1917
  902MPD2     N13273   4.214   2.668  12.308 -0.2736  0.8080  0.6684
  902MPD2    H513274   4.249   2.578  12.279  0.0305  0.7163  1.3068
  902MPD2    N113275   4.109   2.910  12.711 -0.9336 -0.4242 -0.5540
  902MPD2    H713276   4.129   2.908  12.811  3.6803  0.1698 -1.4729
  903MPD2     C13277   3.973   2.715  11.398  0.7441  0.4341 -0.6373
  903MPD2    C113278   3.938   2.742  11.526  0.5111 -0.1459  0.0455
  903MPD2    C213279   3.803   2.747  11.559  0.0937  0.0934 -0.0504
  903MPD2    C313280   3.703   2.740  11.465 -0.3005 -0.6788 -0.6666
  903MPD2    C413281   3.741   2.706  11.334 -0.2879  0.1686  0.7570
  903MPD2    C513282   3.872   2.698  11.299  0.1534 -0.2240  0.1398
  903MPD2     H13283   3.777   2.762  11.663  0.0379 -0.8090  0.0611
  903MPD2    H113284   3.670   2.694  11.253 -0.3563  0.2502  0.8034
  903MPD2    H213285   4.077   2.715  11.367  0.5837  0.1817 -1.1853
  903MPD2    H313286   3.904   2.681  11.197  0.2717 -0.1650  0.1666
  903MPD2     N13287   3.572   2.761  11.505  0.4989  0.5470  0.4224
  903MPD2    H513288   3.561   2.757  11.606  1.0140  1.6144  0.5238
  903MPD2    N113289   4.039   2.761  11.627  0.2041 -0.9972  0.0217
  903MPD2    H713290   4.134   2.761  11.593 -0.0761 -1.1099 -0.7519
  904MPD2     C13291   4.318   1.472  13.850 -0.4192 -0.3319 -0.3921
  904MPD2    C113292   4.338   1.611  13.866 -0.1192  0.1224 -0.0669
  904MPD2    C213293   4.442   1.661  13.941 -0.2379 -0.5890 -0.8014
  904MPD2    C313294   4.519   1.571  14.011 -0.2784 -0.3627 -0.3270
  904MPD2    C413295   4.486   1.438  14.010  0.3971  0.2812 -0.4178
  904MPD2    C513296   4.384   1.391  13.928  0.5940 -0.6435 -0.7632
  904MPD2     H13297   4.465   1.766  13.929 -0.3641 -0.6191 -1.3036
  904MPD2    H113298   4.536   1.363  14.071 -0.8281  0.2656  0.5611
  904MPD2    H213299   4.255   1.420  13.778 -0.8765 -1.2571  0.6790
  904MPD2    H313300   4.362   1.285  13.928 -1.6881 -0.1676 -1.5151
  904MPD2     N13301   4.622   1.623  14.096 -0.9277 -0.6494  0.7790
  904MPD2    H513302   4.647   1.721  14.081 -0.7483 -1.0458 -1.5456
  904MPD2    N113303   4.250   1.701  13.814  0.5591  0.3491 -0.3096
  904MPD2    H713304   4.254   1.791  13.860  0.4430 -0.0841  0.5315
  905MPD2     C13305   3.533   2.093  13.333  0.4639  0.3619  0.5649
  905MPD2    C113306   3.591   1.969  13.362 -0.4550  0.1554  0.2622
  905MPD2    C213307   3.578   1.865  13.269 -0.7170 -0.1742  0.1056
  905MPD2    C313308   3.519   1.893  13.147 -0.5304  0.1948 -0.4552
  905MPD2    C413309   3.456   2.012  13.126 -0.5770 -1.1603 -0.2368
  905MPD2    C513310   3.454   2.109  13.222  0.0912 -0.2533 -0.3918
  905MPD2     H13311   3.609   1.763  13.292  1.0146  0.1706 -0.6579
  905MPD2    H113312   3.405   2.034  13.033  2.5051  0.4089 -1.5888
  905MPD2    H213313   3.536   2.172  13.408  0.2907  0.7507  0.1635
  905MPD2    H313314   3.400   2.202  13.202 -1.9339 -0.8945  2.0689
  905MPD2     N13315   3.510   1.797  13.040  0.0216  0.4846 -0.1180
  905MPD2    H513316   3.437   1.807  12.971 -0.1533  1.1140  0.1597
  905MPD2    N113317   3.664   1.957  13.488  0.3209  0.1958 -0.3391
  905MPD2    H713318   3.661   2.042  13.542  4.1283  1.2364 -1.7553
  906MPD2     C13319   0.945   2.219  11.090 -0.5687 -0.2055 -0.2670
  906MPD2    C113320   0.965   2.095  11.036  0.2395 -0.1122 -0.5497
  906MPD2    C213321   0.903   1.988  11.096  0.2096  0.5578 -0.0398
  906MPD2    C313322   0.835   2.010  11.219 -0.2622  0.3974 -0.1730
  906MPD2    C413323   0.832   2.142  11.271  0.1099 -0.2887 -0.0150
  906MPD2    C513324   0.880   2.248  11.202 -0.4720  0.0230 -0.1284
  906MPD2     H13325   0.917   1.891  11.049 -0.8495  0.3672  0.0541
  906MPD2    H113326   0.782   2.167  11.364 -1.7111 -1.4834 -0.6631
  906MPD2    H213327   0.989   2.308  11.046 -0.7017  0.6327  1.2891
  906MPD2    H313328   0.868   2.351  11.234  1.7139  0.4137 -0.5823
  906MPD2     N13329   0.781   1.890  11.282 -0.0180 -0.3356 -0.6028
  906MPD2    H513330   0.792   1.802  11.234  1.6299 -0.0388 -0.7724
  906MPD2    N113331   1.042   2.072  10.915  0.3207  0.0165 -0.2968
  906MPD2    H713332   1.036   1.978  10.878  1.9578  0.6839 -2.2260
  907MPD2     C13333   0.245   0.801  15.509  0.0176 -0.2197  0.3229
  907MPD2    C113334   0.244   0.665  15.478  0.0043  0.9305  0.1973
  907MPD2    C213335   0.278   0.577  15.574  0.8689 -0.0826  0.3507
  907MPD2    C313336   0.297   0.617  15.705 -0.4108  0.3525 -0.6218
  907MPD2    C413337   0.281   0.754  15.738 -0.5692  0.4063  0.4358
  907MPD2    C513338   0.266   0.848  15.636 -0.5299 -0.2218  0.0864
  907MPD2     H13339   0.270   0.470  15.554 -4.6644  1.0155 -3.3964
  907MPD2    H113340   0.308   0.785  15.838  0.6099  1.0993 -0.0887
  907MPD2    H213341   0.237   0.878  15.433 -0.9022  1.4879  2.1527
  907MPD2    H313342   0.271   0.953  15.662  2.0598 -0.1971 -0.5097
  907MPD2     N13343   0.333   0.521  15.798 -0.6995  0.1219 -0.0627
  907MPD2    H513344   0.342   0.424  15.770  0.6855  0.2820 -0.1598
  907MPD2    N113345   0.210   0.612  15.354 -0.4595 -0.2012  0.3704
  907MPD2    H713346   0.207   0.511  15.357  0.4341 -0.2133  0.9385
  908MPD2     C13347   2.340   1.179   9.960 -0.3352  0.0387  0.0986
  908MPD2    C113348   2.440   1.151  10.044  0.1211 -0.3030 -0.3841
  908MPD2    C213349   2.487   1.250  10.130  0.2951 -0.6269 -0.1153
  908MPD2    C313350   2.424   1.375  10.123  0.2286 -0.6001  0.0385
  908MPD2    C413351   2.327   1.404  10.032  0.9654 -0.6704 -0.1427
  908MPD2    C513352   2.280   1.300   9.956 -0.1073  0.2747  0.0655
  908MPD2     H13353   2.557   1.231  10.210  0.7243  1.2117 -0.0366
  908MPD2    H113354   2.277   1.499  10.016 -0.8929 -1.9255 -1.7876
  908MPD2    H213355   2.297   1.103   9.896  3.3546 -0.4844 -1.7201
  908MPD2    H313356   2.202   1.315   9.883 -0.9308 -0.7336  0.7338
  908MPD2     N13357   2.467   1.476  10.215  0.2209  0.2546  0.3459
  908MPD2    H513358   2.536   1.451  10.284  1.3259  1.0886 -0.4606
  908MPD2    N113359   2.486   1.021  10.047  0.1416  0.3111 -0.4997
  908MPD2    H713360   2.457   0.958   9.973 -0.1437  0.9020 -0.8863
  909MPD2     C13361   2.955   4.578  11.849  0.3904  0.1476  0.4300
  909MPD2    C113362   2.958   4.704  11.790  0.6917 -0.2937  0.2468
  909MPD2    C213363   2.868   0.053  11.852 -0.3116 -0.0008 -0.4255
  909MPD2    C313364   2.779   0.011  11.950  0.0836  0.0413  0.3930
  909MPD2    C413365   2.775   4.619  11.996  0.1885 -0.5330  0.2924
  909MPD2    C513366   2.869   4.534  11.947 -0.0995  0.3016  0.0439
  909MPD2     H13367   2.880   0.159  11.831  1.0223  0.3304  2.0047
  909MPD2    H113368   2.715   4.591  12.082 -1.6303  1.7550 -0.2640
  909MPD2    H213369   3.032   4.507  11.821 -0.9697 -0.2432 -2.3058
  909MPD2    H313370   2.885   4.433  11.983  1.0026  0.2033 -0.7336
  909MPD2     N13371   2.686   0.106  11.994  0.2950  0.1133 -0.1886
  909MPD2    H513372   2.686   0.200  11.954 -0.1257 -0.3208 -1.1864
  909MPD2    N113373   3.057   0.014  11.700  0.3899  0.5378 -0.3323
  909MPD2    H713374   3.071   0.113  11.684  1.0267  0.5303  0.1722
  910MPD2     C13375   4.506   0.742  15.146  0.3718  0.2588 -1.2345
  910MPD2    C113376   4.528   0.810  15.267 -0.2481  0.2070 -0.1225
  910MPD2    C213377   4.535   0.943  15.261 -0.0557  0.0708  0.9050
  910MPD2    C313378   4.512   1.007  15.133  0.4341 -0.1096 -0.1903
  910MPD2    C413379   4.498   0.940  15.018  0.1166  0.1231 -0.3006
  910MPD2    C513380   4.493   0.807  15.027  0.0531 -0.6552 -0.0244
  910MPD2     H13381   4.544   1.007  15.348 -0.1057  0.7762  0.3924
  910MPD2    H113382   4.477   0.984  14.921  1.2967  2.1935  0.3971
  910MPD2    H213383   4.506   0.634  15.145  1.7582  0.2337 -0.0833
  910MPD2    H313384   4.458   0.758  14.937  2.3468  0.5795 -1.5481
  910MPD2     N13385   4.499   1.148  15.122 -0.6022 -0.1121  0.2585
  910MPD2    H513386   4.495   1.188  15.029  0.8839  2.2880  1.2137
  910MPD2    N113387   4.559   0.742  15.390  0.2187 -0.2943  0.1757
  910MPD2    H713388   4.593   0.800  15.466  0.7818  1.0530 -1.1100
  911MPD2     C13389   2.751   1.594  16.867 -0.4249 -0.0086 -0.5077
  911MPD2    C113390   2.799   1.721  16.837 -0.4261  0.0937  0.8163
  911MPD2    C213391   2.732   1.791  16.733  0.1328  0.2363 -0.2973
  911MPD2    C313392   2.614   1.745  16.682  0.8944  0.2615  0.0063
  911MPD2    C413393   2.564   1.618  16.727  0.2999 -0.4620  0.1281
  911MPD2    C513394   2.639   1.540  16.812  1.0748  0.2467 -0.5177
  911MPD2     H13395   2.769   1.890  16.710  1.6156 -0.2552 -0.0811
  911MPD2    H113396   2.476   1.571  16.684  1.0327 -0.4883 -1.3283
  911MPD2    H213397   2.814   1.535  16.933  0.0465 -1.0485 -1.8835
  911MPD2    H313398   2.595   1.446  16.843  0.5894  1.0414  1.1789
  911MPD2     N13399   2.538   1.817  16.584 -0.6850 -0.2723 -0.8963
  911MPD2    H513400   2.467   1.763  16.536 -1.3374  0.1250 -0.3852
  911MPD2    N113401   2.923   1.765  16.897  0.6609  0.1846 -0.0601
  911MPD2    H713402   2.989   1.700  16.939 -1.7512 -2.4857 -0.3943
  912MPD2     C13403   2.336   1.562  15.910 -0.4248 -0.4284  0.5141
  912MPD2    C113404   2.304   1.576  16.046  0.1626  0.2627 -0.3900
  912MPD2    C213405   2.227   1.478  16.109  0.2564  0.5367  0.4107
  912MPD2    C313406   2.167   1.382  16.030  0.1444 -0.1172  0.0418
  912MPD2    C413407   2.191   1.377  15.895  0.2808  0.1352 -0.3265
  912MPD2    C513408   2.280   1.461  15.838  0.6052  0.1385 -0.3187
  912MPD2     H13409   2.202   1.484  16.215 -1.6830 -1.4462  0.0649
  912MPD2    H113410   2.140   1.311  15.825  2.5923  1.2610 -3.0702
  912MPD2    H213411   2.402   1.630  15.860 -0.5509 -0.8675 -0.2505
  912MPD2    H313412   2.297   1.448  15.731 -1.6164 -1.0128 -0.5400
  912MPD2     N13413   2.082   1.291  16.102  0.4325 -0.1475 -0.4550
  912MPD2    H513414   2.092   1.292  16.203 -2.8250  0.5206 -0.1186
  912MPD2    N113415   2.349   1.700  16.106  0.2903 -0.3378  0.5827
  912MPD2    H713416   2.412   1.755  16.049  1.0259 -2.0742 -0.3029
  913MPD2     C13417   2.870   4.150  11.084 -0.0820 -0.1855 -0.0731
  913MPD2    C113418   2.862   4.017  11.040 -0.7690  0.4959  0.4643
  913MPD2    C213419   2.897   3.996  10.909 -0.2843 -0.2905 -0.2879
  913MPD2    C313420   2.938   4.100  10.821  0.1916 -0.7173 -0.8411
  913MPD2    C413421   2.959   4.225  10.873  0.2866 -0.3157 -0.5554
  913MPD2    C513422   2.915   4.249  10.996  0.7921 -0.7531 -0.8491
  913MPD2     H13423   2.897   3.891  10.882  0.4876 -0.6936  1.2635
  913MPD2    H113424   2.994   4.307  10.812 -1.2222  1.5218  1.0715
  913MPD2    H213425   2.843   4.183  11.183  2.3409 -2.1857  1.2628
  913MPD2    H313426   2.914   4.349  11.037 -0.0487 -0.8996 -0.5084
  913MPD2     N13427   2.970   4.072  10.681 -0.3430 -0.2472  0.5197
  913MPD2    H513428   3.027   4.140  10.633  0.2555 -0.8987  0.3183
  913MPD2    N113429   2.827   3.916  11.139  0.4836 -0.1339  0.0570
  913MPD2    H713430   2.801   3.952  11.230  1.3132  0.1528  0.1827
  914MPD2     C13431   0.001   3.120  12.131 -0.1160 -0.3707 -0.6769
  914MPD2    C113432   0.067   3.240  12.148  0.3138  0.1079 -1.1567
  914MPD2    C213433   0.165   3.246  12.240  0.6563 -0.3604  0.4955
  914MPD2    C313434   0.201   3.132  12.313 -0.6129  0.0944  0.7061
  914MPD2    C413435   0.143   3.011  12.285  0.4164  0.5081  0.1114
  914MPD2    C513436   0.037   3.006  12.198 -1.1574  0.8345 -0.4085
  914MPD2     H13437   0.210   3.341  12.267 -2.8296  1.0003  1.4537
  914MPD2    H113438   0.171   2.920  12.337 -0.4337  0.8405  1.1600
  914MPD2    H213439   4.656   3.121  12.063 -0.7435  0.6310  0.1076
  914MPD2    H313440   4.728   2.913  12.169  0.8313 -0.1491 -0.4932
  914MPD2     N13441   0.299   3.152  12.418  0.1456 -0.3758 -0.2757
  914MPD2    H513442   0.331   3.248  12.431  0.3992 -0.7090  1.5982
  914MPD2    N113443   0.029   3.356  12.074  0.3308  0.9543 -0.4104
  914MPD2    H713444   4.682   3.354  12.019 -0.6429 -3.5572  1.2825
  915MPD2     C13445   3.329   3.027  15.457  0.7580 -0.1938 -0.1175
  915MPD2    C113446   3.265   3.145  15.416 -0.3008 -0.2789 -0.2503
  915MPD2    C213447   3.213   3.234  15.513  0.1555 -0.4486 -0.5033
  915MPD2    C313448   3.200   3.201  15.647  0.1470 -0.3655  0.1131
  915MPD2    C413449   3.257   3.078  15.686 -0.2122 -0.7699 -0.1269
  915MPD2    C513450   3.312   2.996  15.592 -0.6839 -0.0268 -0.7606
  915MPD2     H13451   3.146   3.314  15.482 -1.5193 -1.1326  1.3496
  915MPD2    H113452   3.266   3.046  15.789  1.5925  2.7021  0.7821
  915MPD2    H213453   3.375   2.967  15.380 -1.5167 -1.9439 -0.1250
  915MPD2    H313454   3.355   2.903  15.629 -2.1556 -0.2753  0.3180
  915MPD2     N13455   3.146   3.288  15.747 -0.4385  0.0008 -0.0034
  915MPD2    H513456   3.139   3.387  15.725 -1.0699 -0.3384 -1.3665
  915MPD2    N113457   3.249   3.164  15.273 -0.4871  0.2391  0.0450
  915MPD2    H713458   3.288   3.088  15.218 -0.5985 -0.3955  0.8409
  916MPD2     C13459   1.745   1.538  15.616  0.6893  1.1798  0.4978
  916MPD2    C113460   1.749   1.445  15.718 -0.1010  0.0753  0.1401
  916MPD2    C213461   1.847   1.347  15.713 -0.1762 -0.0764  0.3324
  916MPD2    C313462   1.943   1.341  15.614  0.2190 -0.9181  0.3138
  916MPD2    C413463   1.938   1.441  15.519  0.0317 -0.2156  0.6099
  916MPD2    C513464   1.839   1.532  15.511 -0.1282  0.2528 -0.4525
  916MPD2     H13465   1.852   1.272  15.790  0.6901 -0.3248  0.0414
  916MPD2    H113466   2.015   1.453  15.444 -0.5697  3.3822  0.5439
  916MPD2    H213467   1.671   1.618  15.613  0.7694  1.1938 -1.4365
  916MPD2    H313468   1.844   1.614  15.440  1.1568 -0.7891 -1.5690
  916MPD2     N13469   2.042   1.241  15.618 -0.4509  0.1749 -0.2608
  916MPD2    H513470   2.027   1.163  15.681  2.8469 -0.5704 -0.4331
  916MPD2    N113471   1.653   1.455  15.826 -0.1005  0.4247  0.3143
  916MPD2    H713472   1.585   1.530  15.816 -0.9855 -0.4324 -0.0443
  917MPD2     C13473   1.602   4.136  11.124 -0.6023 -0.9620  0.4771
  917MPD2    C113474   1.664   4.180  11.235  0.7752  0.4516 -0.2957
  917MPD2    C213475   1.787   4.232  11.231  0.3595 -0.3462  0.0188
  917MPD2    C313476   1.844   4.265  11.107  0.4374  0.0936  0.8791
  917MPD2    C413477   1.779   4.215  10.996 -0.6803  0.4312 -0.1862
  917MPD2    C513478   1.658   4.157  11.004  0.2874  0.1563 -0.3197
  917MPD2     H13479   1.831   4.263  11.326  0.9433  2.4839 -1.1565
  917MPD2    H113480   1.828   4.234  10.901  1.1603  0.9542  0.8600
  917MPD2    H213481   1.500   4.100  11.130 -1.1538  0.8258  1.7246
  917MPD2    H313482   1.608   4.128  10.913  0.6274  2.2005 -1.1549
  917MPD2     N13483   1.965   4.334  11.092  0.4784  0.3563  0.4350
  917MPD2    H513484   1.998   4.362  11.000  0.8442  1.2699  0.8359
  917MPD2    N113485   1.588   4.170  11.355  0.0056  0.0171  0.2802
  917MPD2    H713486   1.504   4.114  11.359 -0.8910  1.1699 -2.7072
  918MPD2     C13487   1.659   4.598  12.298  0.0401  0.3709  0.0209
  918MPD2    C113488   1.759   4.573  12.207  0.1129 -0.5606 -0.1886
  918MPD2    C213489   1.725   4.505  12.089 -0.9605 -0.0690 -0.0204
  918MPD2    C313490   1.597   4.452  12.064  0.5562  0.6560  0.8384
  918MPD2    C413491   1.497   4.476  12.159 -0.0984 -0.5300  0.1173
  918MPD2    C513492   1.527   4.553  12.271  0.1308 -0.2446 -0.5145
  918MPD2     H13493   1.810   4.482  12.025 -0.2136  1.7509  0.3079
  918MPD2    H113494   1.393   4.459  12.135 -0.5210  0.4246  1.2109
  918MPD2    H213495   1.670   4.651  12.392  0.7052 -0.8722  0.6310
  918MPD2    H313496   1.439   4.570  12.332  0.4707  0.4607 -0.2294
  918MPD2     N13497   1.586   4.373  11.953  0.2665  0.3002 -0.8592
  918MPD2    H513498   1.656   4.382  11.880 -3.2520  0.0575 -4.2490
  918MPD2    N113499   1.893   4.604  12.229  0.2116  0.1027  0.2551
  918MPD2    H713500   1.953   4.563  12.157  0.3567  1.7506 -0.5495
  919MPD2     C13501   2.255   3.331  11.981 -0.4514  0.3463 -0.0158
  919MPD2    C113502   2.254   3.213  11.910 -0.4129 -0.2871  0.2539
  919MPD2    C213503   2.281   3.203  11.779  0.6126 -0.1057 -0.3139
  919MPD2    C313504   2.344   3.308  11.705 -0.3522 -0.3861  0.2254
  919MPD2    C413505   2.354   3.428  11.782 -0.5124  0.5999 -0.2449
  919MPD2    C513506   2.306   3.435  11.916 -0.2946 -0.6679  0.0340
  919MPD2     H13507   2.264   3.108  11.730  0.1169  0.4331 -1.1977
  919MPD2    H113508   2.398   3.518  11.739  2.0725 -0.4613  0.1957
  919MPD2    H213509   2.250   3.334  12.089  0.1088 -2.6700  0.1093
  919MPD2    H313510   2.330   3.524  11.973  1.4693 -1.4786  0.5771
  919MPD2     N13511   2.372   3.314  11.561  0.5513  0.1731  0.6517
  919MPD2    H513512   2.394   3.404  11.520  2.0907 -0.1720  0.7145
  919MPD2    N113513   2.227   3.095  11.987 -0.5430 -0.1267 -0.2037
  919MPD2    H713514   2.236   3.011  11.932  1.2726 -0.2378  0.2571
  920MPD2     C13515   2.399   3.895  10.755  0.2673 -0.2949  0.2976
  920MPD2    C113516   2.314   3.791  10.723 -0.7304  0.6851 -0.5045
  920MPD2    C213517   2.317   3.676  10.800 -0.3026  0.4115  0.4332
  920MPD2    C313518   2.405   3.667  10.907  0.3493  0.5855  0.1973
  920MPD2    C413519   2.495   3.768  10.936 -0.0938  0.0365  0.1366
  920MPD2    C513520   2.494   3.880  10.855  0.7786  0.1536 -0.0411
  920MPD2     H13521   2.240   3.601  10.786 -1.0888  1.2419  0.3240
  920MPD2    H113522   2.574   3.754  11.009 -0.0038 -0.8969 -0.1480
  920MPD2    H213523   2.410   3.986  10.697 -0.3564 -1.0621 -1.0339
  920MPD2    H313524   2.567   3.959  10.867  1.4185 -0.6054  1.0206
  920MPD2     N13525   2.392   3.551  10.980  0.1705 -0.2691 -0.2316
  920MPD2    H513526   2.315   3.495  10.944 -0.3358  1.2133 -1.4440
  920MPD2    N113527   2.221   3.782  10.614  0.3779  0.0905 -0.7260
  920MPD2    H713528   2.184   3.693  10.585  0.1097  0.1870 -0.6759
  921MPD2     C13529   3.709   1.478  17.161 -0.0550  1.2742  0.5276
  921MPD2    C113530   3.729   1.612  17.135 -0.4444 -0.2271 -0.3063
  921MPD2    C213531   3.615   1.687  17.123  0.4895 -0.4685 -0.0559
  921MPD2    C313532   3.486   1.630  17.139 -0.4538  0.0434  0.7960
  921MPD2    C413533   3.465   1.495  17.165  0.6155  0.3783 -1.0488
  921MPD2    C513534   3.580   1.423  17.176 -0.7639 -1.1673  0.0653
  921MPD2     H13535   3.623   1.791  17.094  0.2213  0.0714  1.8071
  921MPD2    H113536   3.364   1.456  17.178  1.2146 -1.2049 -1.1675
  921MPD2    H213537   3.798   1.417  17.168  1.1923  2.7252 -2.8709
  921MPD2    H313538   3.568   1.317  17.195 -2.6106 -0.8444  0.6222
  921MPD2     N13539   3.372   1.706  17.113  0.2123  0.3632  0.0527
  921MPD2    H513540   3.289   1.658  17.080  0.2808 -0.7634  1.5028
  921MPD2    N113541   3.857   1.670  17.125  0.5022  0.3276  0.4764
  921MPD2    H713542   3.929   1.609  17.087  0.7748  1.6726 -1.1666
  922MPD2     C13543   4.058   4.326  17.223 -0.0809  0.3660  0.0598
  922MPD2    C113544   3.969   4.427  17.259  0.4178  0.2778 -0.5534
  922MPD2    C213545   3.832   4.391  17.258  0.5299  0.0385 -0.7426
  922MPD2    C313546   3.792   4.260  17.238 -0.5092 -0.0895 -0.4444
  922MPD2    C413547   3.890   4.166  17.194 -0.0542 -0.4356 -0.3749
  922MPD2    C513548   4.019   4.207  17.179  0.3987  0.9789 -0.0688
  922MPD2     H13549   3.753   4.456  17.293  1.8621  1.7887 -0.9514
  922MPD2    H113550   3.860   4.067  17.162  0.5122 -0.8347  0.3199
  922MPD2    H213551   4.165   4.345  17.228  0.0076  0.7174 -2.9731
  922MPD2    H313552   4.087   4.134  17.137  2.3332  1.7134  1.7988
  922MPD2     N13553   3.657   4.225  17.267  0.3699 -0.3932  0.2618
  922MPD2    H513554   3.602   4.308  17.287  1.1501 -0.0611  1.0076
  922MPD2    N113555   4.026   4.557  17.290  0.1611  0.5486 -0.5236
  922MPD2    H713556   4.125   4.578  17.277  0.3994 -0.4190 -0.2617
  923MPD2     C13557   1.020   2.001   9.308  0.0825  0.0647  0.1996
  923MPD2    C113558   0.973   2.135   9.311 -0.1608  0.1225 -0.2448
  923MPD2    C213559   0.879   2.178   9.404  0.2566  0.0944 -0.3634
  923MPD2    C313560   0.848   2.095   9.513  1.3006 -0.3928 -0.1001
  923MPD2    C413561   0.900   1.969   9.512  0.2539 -0.0855  0.0342
  923MPD2    C513562   0.975   1.922   9.410 -0.3024  0.0575  0.8100
  923MPD2     H13563   0.854   2.282   9.393  2.4640  0.5589 -1.0556
  923MPD2    H113564   0.871   1.887   9.577  0.4789 -0.3395 -0.1908
  923MPD2    H213565   1.091   1.961   9.236 -1.3191 -0.4620 -0.8704
  923MPD2    H313566   1.007   1.819   9.396  1.1527  0.6381 -0.0713
  923MPD2     N13567   0.770   2.140   9.624  0.2087  0.1590  0.1908
  923MPD2    H513568   0.754   2.067   9.693 -0.3904  0.1008 -0.0081
  923MPD2    N113569   1.008   2.227   9.218  0.4952  0.6064 -0.1126
  923MPD2    H713570   0.957   2.314   9.211 -1.7342 -0.8375 -1.8377
  924MPD2     C13571   0.265   4.401  15.819  0.5555 -0.1729 -0.4331
  924MPD2    C113572   0.205   4.449  15.937  0.2003 -0.1529  0.5531
  924MPD2    C213573   0.257   4.561  15.991  0.2794  0.0612 -0.1193
  924MPD2    C313574   0.354   4.628  15.925 -1.0717  0.7053  0.9497
  924MPD2    C413575   0.405   4.590  15.806 -0.3192  0.4012  0.3533
  924MPD2    C513576   0.353   4.478  15.749 -0.2573  0.0385  0.2791
  924MPD2     H13577   0.218   4.597  16.086 -0.9070  1.2787 -1.0731
  924MPD2    H113578   0.482   4.648  15.756  0.4585 -0.8301  0.1112
  924MPD2    H213579   0.230   4.306  15.779  0.6780  0.3841 -1.8485
  924MPD2    H313580   0.398   4.439  15.659  0.1229 -0.2275  0.5787
  924MPD2     N13581   0.393   0.011  15.989  0.2406  0.3925  0.2391
  924MPD2    H513582   0.348   0.030  16.078  0.3450  2.6236 -0.1952
  924MPD2    N113583   0.101   4.364  15.985  0.4358 -0.7303 -0.0843
  924MPD2    H713584   0.066   4.284  15.933  2.7292 -0.4128 -2.0950
  925MPD2     C13585   3.906   2.837  14.933  0.0962 -0.0015 -0.2802
  925MPD2    C113586   3.863   2.717  14.875  0.2646  0.0130 -0.3218
  925MPD2    C213587   3.819   2.615  14.961 -0.4811 -0.0947 -0.2833
  925MPD2    C313588   3.799   2.644  15.102 -0.0164  0.5794 -0.9481
  925MPD2    C413589   3.841   2.763  15.149 -0.3364  1.1896 -0.1865
  925MPD2    C513590   3.902   2.853  15.071  0.5302  0.2606 -0.0117
  925MPD2     H13591   3.817   2.517  14.915 -0.2785 -0.8396  1.2976
  925MPD2    H113592   3.829   2.783  15.255 -2.2161 -3.0724  0.3995
  925MPD2    H213593   3.939   2.920  14.871 -1.0564  1.4668  1.0750
  925MPD2    H313594   3.943   2.946  15.111  1.6891 -0.6058  0.8147
  925MPD2     N13595   3.733   2.552  15.185  0.4153  0.2628 -0.2856
  925MPD2    H513596   3.730   2.579  15.282  1.6561  1.1526 -0.4908
  925MPD2    N113597   3.876   2.687  14.739 -0.3556  0.4872 -0.4170
  925MPD2    H713598   3.825   2.606  14.706  0.0680 -0.5621  1.4451
  926MPD2     C13599   2.915   1.444  13.614  0.2050 -0.5784 -0.1928
  926MPD2    C113600   2.798   1.493  13.567  0.0950 -0.2924  0.3735
  926MPD2    C213601   2.790   1.552  13.442 -0.3229  0.0905 -0.4749
  926MPD2    C313602   2.896   1.545  13.353 -0.6939 -0.3331 -0.1475
  926MPD2    C413603   3.013   1.500  13.410  0.0786 -0.0977 -0.1062
  926MPD2    C513604   3.026   1.453  13.536 -0.6473 -0.0344  1.0671
  926MPD2     H13605   2.698   1.602  13.412 -0.0694 -0.0257 -1.4429
  926MPD2    H113606   3.097   1.498  13.342  1.2052 -0.2689  1.3044
  926MPD2    H213607   2.924   1.393  13.709 -0.7087 -0.5454 -0.0872
  926MPD2    H313608   3.117   1.411  13.578 -0.2301  0.3217  0.5319
  926MPD2     N13609   2.897   1.578  13.217 -0.1992  0.2096 -0.0913
  926MPD2    H513610   2.991   1.576  13.179  0.6706 -0.3236  2.1216
  926MPD2    N113611   2.681   1.507  13.646  0.1168 -0.2963  0.4275
  926MPD2    H713612   2.601   1.532  13.589  2.5299 -1.1625 -3.3834
  927MPD2     C13613   2.207   3.039  17.571 -0.1046  0.2532  1.0527
  927MPD2    C113614   2.215   3.173  17.551 -0.8956  0.4143 -0.3171
  927MPD2    C213615   2.323   3.221  17.485  0.3376 -0.3459  0.2598
  927MPD2    C313616   2.419   3.136  17.431 -0.3367  0.0152  0.6494
  927MPD2    C413617   2.414   2.994  17.453  0.4258  0.4707 -0.0273
  927MPD2    C513618   2.303   2.955  17.520  0.4532  0.5035  0.1386
  927MPD2     H13619   2.332   3.327  17.463  1.5075 -0.4267  0.3539
  927MPD2    H113620   2.495   2.929  17.421  1.9668  2.9585 -1.1909
  927MPD2    H213621   2.125   2.995  17.627  0.1053 -1.2736  0.1488
  927MPD2    H313622   2.292   2.852  17.549 -0.5527  0.6324  0.2157
  927MPD2     N13623   2.532   3.195  17.365 -0.2287 -0.4960 -0.3919
  927MPD2    H513624   2.514   3.289  17.330  2.3788  1.4200  3.3797
  927MPD2    N113625   2.112   3.241  17.617 -0.4479 -0.4716 -0.1728
  927MPD2    H713626   2.034   3.190  17.659 -0.8836  0.9102  0.7116
  928MPD2     C13627   0.618   1.292   0.447 -0.1401 -0.0928  0.0893
  928MPD2    C113628   0.547   1.397   0.491 -0.4902  0.6811  0.3766
  928MPD2    C213629   0.570   1.522   0.439  0.3096  0.7233  0.0541
  928MPD2    C313630   0.647   1.540   0.323  0.4625  0.3829 -0.0856
  928MPD2    C413631   0.708   1.426   0.278 -0.0983  1.1879 -0.2707
  928MPD2    C513632   0.692   1.306   0.341 -0.2203  0.0254  0.7980
  928MPD2     H13633   0.512   1.598   0.490 -0.1266  1.9162 -2.2246
  928MPD2    H113634   0.774   1.427   0.192 -1.4748  1.3807 -1.3102
  928MPD2    H213635   0.603   1.198   0.498 -0.2037  0.1071  0.4329
  928MPD2    H313636   0.749   1.223   0.300 -1.3504 -0.8223  0.9277
  928MPD2     N13637   0.680   1.667   0.269 -0.0422 -0.2676 -0.0517
  928MPD2    H513638   0.753   1.658   0.199  0.4730 -0.2227  0.4873
  928MPD2    N113639   0.464   1.367   0.603 -0.1855  0.1135  0.3328
  928MPD2    H713640   0.462   1.271   0.634  2.8476  0.4208  1.5232
  929MPD2     C13641   4.520   2.250   9.815 -0.1064  0.5372 -0.5302
  929MPD2    C113642   4.648   2.227   9.847  0.2839 -0.0496 -0.0046
  929MPD2    C213643   0.006   2.316   9.805 -0.5855 -0.3861 -0.4373
  929MPD2    C313644   4.714   2.432   9.740 -0.0929 -0.1878 -0.2178
  929MPD2    C413645   4.578   2.465   9.722 -0.0243 -0.3828 -0.4123
  929MPD2    C513646   4.485   2.371   9.749  0.8554 -0.5273 -0.3978
  929MPD2     H13647   0.112   2.290   9.810 -0.2392  1.4146  1.7188
  929MPD2    H113648   4.543   2.549   9.663 -2.1398 -1.8399 -1.2651
  929MPD2    H213649   4.440   2.179   9.829  0.6814 -0.1636  0.4488
  929MPD2    H313650   4.379   2.377   9.730  0.9078  1.7208  0.0946
  929MPD2     N13651   0.069   2.521   9.684 -0.2944  0.1921  1.0579
  929MPD2    H513652   0.024   2.603   9.644 -0.8390  0.0101  1.2928
  929MPD2    N113653   4.676   2.103   9.910  0.3869 -0.1798  0.2006
  929MPD2    H713654   4.601   2.035   9.919  0.1859  0.2577  1.9523
  930MPD2     C13655   2.031   4.033  14.153  0.1497 -0.6752  0.2741
  930MPD2    C113656   2.159   4.072  14.120 -0.0795 -0.5587 -0.5575
  930MPD2    C213657   2.204   4.044  13.994 -0.9227 -0.1137  0.2795
  930MPD2    C313658   2.111   3.998  13.898 -0.6782  0.0870 -0.5089
  930MPD2    C413659   1.980   3.978  13.932  0.5496 -0.4199  0.6275
  930MPD2    C513660   1.946   3.978  14.064 -0.1328  0.2857 -0.2863
  930MPD2     H13661   2.302   4.079  13.962 -1.3154  1.5865  0.9851
  930MPD2    H113662   1.907   3.944  13.859  0.1726 -1.7392  1.6227
  930MPD2    H213663   1.996   4.043  14.255  0.7390  2.2029  0.1836
  930MPD2    H313664   1.848   3.952  14.101 -0.0067  2.6533  1.6919
  930MPD2     N13665   2.143   3.977  13.764  0.1824  0.2999 -1.2392
  930MPD2    H513666   2.066   3.955  13.701 -0.3503 -1.7036  0.0865
  930MPD2    N113667   2.243   4.130  14.213  0.0243  0.2188  0.3618
  930MPD2    H713668   2.203   4.188  14.285  1.9160 -0.8148  2.2562
  931MPD2     C13669   1.830   3.407   0.614 -0.4415 -0.5375  0.4993
  931MPD2    C113670   1.896   3.333   0.518 -0.2414 -0.0620  0.7231
  931MPD2    C213671   1.997   3.248   0.549  0.7755  0.2318  0.0849
  931MPD2    C313672   2.018   3.224   0.680 -0.3942 -0.6652  0.7739
  931MPD2    C413673   1.952   3.292   0.778 -0.7617 -0.2117 -0.2093
  931MPD2    C513674   1.859   3.382   0.747  0.1598 -0.7138  0.3775
  931MPD2     H13675   2.044   3.187   0.472 -1.2993  0.9196 -1.7205
  931MPD2    H113676   1.971   3.276   0.883  3.2804 -0.0333 -0.8986
  931MPD2    H213677   1.732   3.449   0.595  0.2035  0.4182 -0.6781
  931MPD2    H313678   1.804   3.429   0.828 -0.6300  1.1338 -1.2073
  931MPD2     N13679   2.119   3.138   0.729  0.7169  0.2808 -0.3335
  931MPD2    H513680   2.125   3.129   0.830 -2.0601  1.7464 -0.0350
  931MPD2    N113681   1.871   3.377   0.382 -0.7301  0.4731  0.1227
  931MPD2    H713682   1.810   3.457   0.376 -1.5959 -0.3215 -1.6303
  932MPD2     C13683   3.990   2.498  10.616 -0.0150 -0.5055  0.1287
  932MPD2    C113684   4.042   2.514  10.745 -0.0495  0.1163 -0.3204
  932MPD2    C213685   4.068   2.396  10.817 -0.0088 -0.0560  0.8822
  932MPD2    C313686   4.041   2.264  10.764 -0.1461 -0.0095 -0.0941
  932MPD2    C413687   3.997   2.258  10.630 -0.2308  0.4197  0.1685
  932MPD2    C513688   3.972   2.372  10.561 -0.0314 -0.3838  0.1363
  932MPD2     H13689   4.107   2.405  10.918  1.8298  0.6276  0.1013
  932MPD2    H113690   3.995   2.167  10.571  2.0007 -0.5534  1.5659
  932MPD2    H213691   3.970   2.574  10.541  0.1849 -1.3104 -0.7406
  932MPD2    H313692   3.918   2.357  10.468  0.1290 -1.4084  0.2134
  932MPD2     N13693   4.058   2.145  10.838 -0.1972 -0.0312  0.4878
  932MPD2    H513694   4.050   2.055  10.791 -0.5241  1.5857 -2.5420
  932MPD2    N113695   4.058   2.645  10.797  0.4598 -0.2176 -0.0757
  932MPD2    H713696   4.040   2.722  10.734 -0.3899 -0.7263 -0.4522
  933MPD2     C13697   4.643   1.265   1.344  0.5764 -0.4900 -0.4361
  933MPD2    C113698   4.662   1.358   1.241  0.4037 -0.0087 -0.1315
  933MPD2    C213699   4.569   1.462   1.233  0.5431 -0.1680  0.2595
  933MPD2    C313700   4.474   1.473   1.334  0.6670 -0.2614 -0.8173
  933MPD2    C413701   4.461   1.376   1.429 -0.0809 -0.5529 -1.0559
  933MPD2    C513702   4.547   1.271   1.437  0.3945 -0.3482 -0.7451
  933MPD2     H13703   4.584   1.541   1.161  0.9068 -0.8502 -0.4144
  933MPD2    H113704   4.385   1.383   1.507  1.6243 -0.5171  0.6021
  933MPD2    H213705   4.720   1.188   1.348  1.4572  0.3368 -1.4826
  933MPD2    H313706   4.556   1.210   1.526  0.7761  1.0934  0.2098
  933MPD2     N13707   4.388   1.586   1.335  0.0166 -0.4360 -0.0490
  933MPD2    H513708   4.412   1.658   1.268 -1.0424  0.0712  0.1172
  933MPD2    N113709   0.031   1.345   1.139 -0.2256 -0.2153  0.0273
  933MPD2    H713710   0.095   1.270   1.165  0.5143 -1.4626 -5.5146
  934MPD2     C13711   1.445   4.239   1.882  0.2168  0.1589  0.1643
  934MPD2    C113712   1.531   4.137   1.837 -0.2990 -0.0778 -0.0793
  934MPD2    C213713   1.493   4.065   1.730 -0.0239 -0.4622  0.1524
  934MPD2    C313714   1.364   4.075   1.674  0.1536  0.2535 -0.1246
  934MPD2    C413715   1.282   4.169   1.723 -0.6660 -0.5929 -1.2466
  934MPD2    C513716   1.326   4.255   1.817 -0.1564 -0.1581 -0.1051
  934MPD2     H13717   1.559   3.984   1.701 -2.3893 -1.9527 -1.0844
  934MPD2    H113718   1.182   4.183   1.684 -1.5996  0.2288  1.4512
  934MPD2    H213719   1.467   4.314   1.956  1.4494  1.9838 -2.0618
  934MPD2    H313720   1.263   4.330   1.865  0.2202  1.2600 -1.8325
  934MPD2     N13721   1.316   3.998   1.572 -0.4678  0.1084 -0.6552
  934MPD2    H513722   1.227   4.025   1.532 -1.7452 -0.9078  1.5042
  934MPD2    N113723   1.663   4.129   1.877  0.0417  0.3103 -0.1417
  934MPD2    H713724   1.724   4.087   1.807 -2.8786 -0.9642 -1.9041
  935MPD2     C13725   1.692   3.158   1.155  0.2891 -0.5545 -0.5092
  935MPD2    C113726   1.566   3.173   1.103  0.8169  0.0240  0.5858
  935MPD2    C213727   1.480   3.274   1.132  0.2935  0.6122 -0.0943
  935MPD2    C313728   1.535   3.377   1.201  0.1453  0.0977 -0.5283
  935MPD2    C413729   1.662   3.367   1.260 -0.3333  0.0980  0.1974
  935MPD2    C513730   1.731   3.252   1.248  0.1376  0.0737 -0.4288
  935MPD2     H13731   1.380   3.282   1.092 -0.0482  0.5501  0.7595
  935MPD2    H113732   1.700   3.435   1.335 -0.0060  0.6021 -0.4186
  935MPD2    H213733   1.768   3.090   1.116 -0.7632 -0.4897 -2.6944
  935MPD2    H313734   1.828   3.240   1.296  0.4752 -0.2723 -1.2003
  935MPD2     N13735   1.459   3.491   1.240 -0.4673  0.0176  0.6643
  935MPD2    H513736   1.513   3.550   1.303  1.6775  0.9883 -2.0965
  935MPD2    N113737   1.534   3.090   0.992  0.9810  0.2598 -0.4405
  935MPD2    H713738   1.463   3.125   0.928  1.1909  3.0129  0.8130
  936MPD2     C13739   0.212   0.565  12.310  0.0037 -0.0373 -1.0134
  936MPD2    C113740   0.294   0.594  12.416 -0.2012 -0.3119 -0.5855
  936MPD2    C213741   0.375   0.703  12.400  0.2117 -0.6444 -0.2165
  936MPD2    C313742   0.396   0.761  12.275  0.0383 -0.4830 -0.4207
  936MPD2    C413743   0.314   0.730  12.169  1.1710  0.1585 -0.1781
  936MPD2    C513744   0.220   0.634  12.191 -0.3475  0.8931 -0.0013
  936MPD2     H13745   0.440   0.729  12.482 -0.8732 -1.0828  0.7806
  936MPD2    H113746   0.315   0.794  12.082  1.4928  1.4918  0.8019
  936MPD2    H213747   0.136   0.488  12.323 -0.3670  1.5226  6.0979
  936MPD2    H313748   0.140   0.615  12.120 -0.8256  1.1430  0.4679
  936MPD2     N13749   0.491   0.861  12.270 -0.0583  0.2880  0.2170
  936MPD2    H513750   0.513   0.909  12.357 -0.4414 -1.3262  1.2093
  936MPD2    N113751   0.274   0.539  12.545  0.0812 -0.4039 -0.3097
  936MPD2    H713752   0.342   0.574  12.611  1.0206  1.8628 -2.4471
  937MPD2     C13753   2.254   2.367  11.833  0.3897  0.4038  0.6526
  937MPD2    C113754   2.297   2.498  11.827 -0.3725  0.0293 -0.6252
  937MPD2    C213755   2.373   2.534  11.714  0.5914  0.7521  0.3723
  937MPD2    C313756   2.421   2.441  11.629  0.3096  0.3761  0.2529
  937MPD2    C413757   2.389   2.308  11.641 -0.1858  0.3323  0.0945
  937MPD2    C513758   2.303   2.276  11.742  0.0917 -0.0020  0.5256
  937MPD2     H13759   2.404   2.637  11.696  2.0415 -0.1443 -2.2098
  937MPD2    H113760   2.443   2.226  11.595  1.8203  1.4345  0.5257
  937MPD2    H213761   2.186   2.332  11.909  0.7575 -0.5768  0.5245
  937MPD2    H313762   2.266   2.174  11.745 -2.6368  0.9374 -2.5286
  937MPD2     N13763   2.503   2.489  11.520 -0.1063 -0.0162  0.6208
  937MPD2    H513764   2.548   2.578  11.539  0.7004 -0.6261  1.5230
  937MPD2    N113765   2.240   2.603  11.893 -0.5080  0.8297  0.1175
  937MPD2    H713766   2.267   2.696  11.861  0.8740 -0.1133 -1.4996
  938MPD2     C13767   0.678   3.830   0.408  0.2479 -0.1073  0.5372
  938MPD2    C113768   0.719   3.836   0.538  0.0720 -0.2493 -0.4175
  938MPD2    C213769   0.741   3.719   0.601 -0.3399  0.0649  0.2158
  938MPD2    C313770   0.699   3.599   0.546 -0.5288  0.2737 -0.1066
  938MPD2    C413771   0.663   3.599   0.415 -0.3288  0.3157 -0.5918
  938MPD2    C513772   0.658   3.713   0.347 -0.1056  0.0816 -0.6371
  938MPD2     H13773   0.790   3.713   0.698 -3.7553 -0.0143  1.9352
  938MPD2    H113774   0.642   3.512   0.353  3.5917 -1.2715  0.3190
  938MPD2    H213775   0.673   3.922   0.350  0.3870 -0.4274  0.0135
  938MPD2    H313776   0.635   3.717   0.241  0.2407  0.1933 -0.7057
  938MPD2     N13777   0.705   3.471   0.609 -0.2033 -0.2286 -0.0446
  938MPD2    H513778   0.664   3.393   0.558 -1.5282  0.0350  0.6151
  938MPD2    N113779   0.773   3.953   0.602  0.5613  0.4302 -0.3352
  938MPD2    H713780   0.805   3.941   0.697  0.9477  0.2360 -0.4916
  939MPD2     C13781   1.870   4.623   0.955  0.0967  0.2096 -0.3438
  939MPD2    C113782   1.740   4.669   0.970  0.0902 -0.5461  0.3032
  939MPD2    C213783   1.647   4.643   0.876 -0.6486 -0.2097  0.4074
  939MPD2    C313784   1.681   4.569   0.763  0.1922 -0.5494  0.3574
  939MPD2    C413785   1.814   4.522   0.755 -0.5805 -0.7558 -0.1712
  939MPD2    C513786   1.911   4.563   0.839 -0.0397 -0.2980  0.5625
  939MPD2     H13787   1.545   4.680   0.883 -0.6682  0.2611 -2.3483
  939MPD2    H113788   1.849   4.470   0.667  1.3515 -2.2309  1.4672
  939MPD2    H213789   1.948   4.652   1.024 -0.7254 -1.1128  1.1549
  939MPD2    H313790   2.013   4.528   0.828  0.6902  2.3677 -1.1508
  939MPD2     N13791   1.582   4.541   0.664 -0.5160 -0.2495 -0.8166
  939MPD2    H513792   1.498   4.598   0.659 -1.4938 -1.4544  1.5659
  939MPD2    N113793   1.706   0.015   1.079  0.1035  0.1884  0.0721
  939MPD2    H713794   1.782   0.028   1.145 -0.1022  2.6658 -0.2017
  940MPD2     C13795   0.521   0.457  12.101  0.6380  0.5448 -0.3985
  940MPD2    C113796   0.601   0.384  12.182  0.2187 -0.0922  0.3263
  940MPD2    C213797   0.581   0.241  12.190  0.0663 -0.0074 -0.0520
  940MPD2    C313798   0.486   0.180  12.112  0.0989 -0.1008  0.2612
  940MPD2    C413799   0.412   0.258  12.026 -0.8589 -0.2546  0.0216
  940MPD2    C513800   0.431   0.393  12.018  0.3707  0.3365  0.0103
  940MPD2     H13801   0.634   0.181  12.264 -0.4152 -0.6325 -0.2133
  940MPD2    H113802   0.342   0.210  11.958  1.4446 -0.4332 -2.2091
  940MPD2    H213803   0.531   0.564  12.090  0.7120  0.5667 -0.1288
  940MPD2    H313804   0.361   0.440  11.949  1.7330  1.5045 -0.5825
  940MPD2     N13805   0.466   0.045  12.107 -0.3776 -0.0133  0.5831
  940MPD2    H513806   0.401   0.010  12.037 -0.2792  0.4394  0.2601
  940MPD2    N113807   0.697   0.444  12.259 -0.3194  0.1444 -0.4101
  940MPD2    H713808   0.743   0.385  12.328 -0.1985 -1.3633 -1.7745
  941MPD2     C13809   4.150   0.567  10.413  0.2655  0.4933  0.4976
  941MPD2    C113810   4.159   0.437  10.382  0.3148 -0.6954 -0.0182
  941MPD2    C213811   4.058   0.355  10.426 -0.7878  0.5510 -0.9229
  941MPD2    C313812   3.950   0.399  10.506 -0.0687  0.6620 -0.2782
  941MPD2    C413813   3.934   0.538  10.515  0.2439 -0.2791 -0.1418
  941MPD2    C513814   4.036   0.617  10.465  0.3326 -0.0798 -0.5396
  941MPD2     H13815   4.066   0.249  10.408  0.3806  0.6338 -0.8524
  941MPD2    H113816   3.849   0.581  10.567 -1.0256 -2.5308 -0.3982
  941MPD2    H213817   4.223   0.641  10.380  0.4221 -0.8599 -2.2264
  941MPD2    H313818   4.028   0.725  10.473 -1.2348 -0.3364  1.2576
  941MPD2     N13819   3.851   0.316  10.568 -0.3655  0.7175 -0.6048
  941MPD2    H513820   3.783   0.370  10.620 -1.8400 -0.0304 -1.7695
  941MPD2    N113821   4.263   0.381  10.307  0.1597  0.0041  0.7448
  941MPD2    H713822   4.271   0.281  10.294  0.0095  0.0195  0.5350
  942MPD2     C13823   1.198   1.506   8.491  0.5043 -0.2493  0.1212
  942MPD2    C113824   1.114   1.492   8.601 -0.4153 -0.0111  0.0192
  942MPD2    C213825   1.106   1.373   8.663  0.1390  0.3490 -0.4474
  942MPD2    C313826   1.169   1.264   8.618  0.5069  0.1225  1.0971
  942MPD2    C413827   1.240   1.269   8.501  0.3831 -0.2014  0.2612
  942MPD2    C513828   1.244   1.385   8.433  0.4097  0.1779  0.2307
  942MPD2     H13829   1.034   1.360   8.744 -0.0379  2.1342 -0.3220
  942MPD2    H113830   1.281   1.175   8.466 -0.2911 -0.4245  0.0745
  942MPD2    H213831   1.212   1.594   8.430  0.8576 -0.5276 -0.1994
  942MPD2    H313832   1.305   1.388   8.344 -0.5381 -1.9672 -0.5171
  942MPD2     N13833   1.141   1.136   8.663 -0.1670 -0.1283  0.0045
  942MPD2    H513834   1.181   1.064   8.604  0.2183 -0.1879  0.3361
  942MPD2    N113835   1.036   1.601   8.640  0.3083  0.0143  0.5877
  942MPD2    H713836   0.973   1.586   8.719  0.8857 -0.2417  0.9946
  943MPD2     C13837   3.656   0.141   9.316  0.2953  0.8756 -0.5382
  943MPD2    C113838   3.661   0.101   9.448  0.6062 -0.1444 -0.1311
  943MPD2    C213839   3.679   0.201   9.544 -0.2270  0.4506  0.4070
  943MPD2    C313840   3.698   0.336   9.508  0.2055 -0.9124  0.4983
  943MPD2    C413841   3.684   0.373   9.376 -0.3250 -0.3850 -0.3794
  943MPD2    C513842   3.670   0.276   9.289  0.3203 -0.7308  0.4673
  943MPD2     H13843   3.697   0.171   9.646  2.7914 -1.7525 -0.7798
  943MPD2    H113844   3.688   0.474   9.335 -1.1566 -0.1826  0.0344
  943MPD2    H213845   3.652   0.071   9.233 -0.1257  2.5551 -1.9438
  943MPD2    H313846   3.665   0.316   9.188 -0.0252  1.7499  1.4765
  943MPD2     N13847   3.742   0.429   9.610  0.0214  0.1032 -0.3624
  943MPD2    H513848   3.786   0.512   9.572  1.5686 -0.8099 -0.5922
  943MPD2    N113849   3.648   4.702   9.469 -0.2109 -0.0942  0.0280
  943MPD2    H713850   3.628   4.644   9.388 -0.6917 -1.4840  1.1448
  944MPD2     C13851   3.264   4.610  11.079  0.4470 -0.0312 -0.1102
  944MPD2    C113852   3.192   4.519  11.155  0.7188  0.4750 -0.5107
  944MPD2    C213853   3.079   4.568  11.219 -0.0435  0.1232 -0.3347
  944MPD2    C313854   3.037   4.701  11.200  0.2092  0.0135  0.1480
  944MPD2    C413855   3.113   0.048  11.114 -0.0007  0.4055  0.1395
  944MPD2    C513856   3.225   0.001  11.063  0.4750 -1.0448 -0.3390
  944MPD2     H13857   3.014   4.503  11.277  0.4820 -0.4261 -0.3743
  944MPD2    H113858   3.084   0.152  11.101 -0.6242  0.2649  0.3822
  944MPD2    H213859   3.365   4.592  11.045  1.0765 -1.1688  2.3879
  944MPD2    H313860   3.282   0.075  11.008 -0.0665  0.6261  1.3562
  944MPD2     N13861   2.918   0.009  11.272  0.5378 -0.7462  0.2283
  944MPD2    H513862   2.867   4.679  11.327 -0.4740 -0.8142 -0.8029
  944MPD2    N113863   3.237   4.384  11.166 -0.0895 -0.2193  0.0326
  944MPD2    H713864   3.326   4.360  11.126 -0.7210 -1.3526 -0.6854
    1TMC1    C113865   1.404   4.550  14.222 -0.4315 -0.1959  0.2145
    1TMC1    C213866   1.341   4.602  14.112  0.1476 -0.1263 -0.6447
    1TMC1    C313867   1.345   4.538  13.989  0.4499  1.1058  0.1019
    1TMC1    C413868   1.459   4.428  14.219 -0.0787  0.4352  0.0996
    1TMC1    C513869   1.464   4.367  14.094  0.0155 -0.4901 -0.0080
    1TMC1    C613870   1.402   4.418  13.976 -0.4285 -0.3720 -0.0257
    1TMC1     C13871   1.435   4.634  14.339 -0.3046  0.3017 -0.4660
    1TMC1     O13872   1.509   4.586  14.423  0.3711  0.3392  0.0861
    1TMC1     H13873   1.272   4.685  14.117  1.9770  1.2788  1.4160
    1TMC1    H113874   1.500   4.395  14.314  1.1390  0.4745 -0.4005
    1TMC1    H213875   1.409   4.369  13.879 -0.3555  0.1464 -0.2833
    1TMC1    C713876   1.524   4.235  14.098  0.0238  0.4842  0.0008
    1TMC1    C813877   1.221   4.560  13.918  0.3391  0.2459 -0.2683
    1TMC1    O113878   1.483   4.144  14.169  0.4765  0.3098  0.3933
    1TMC1    O213879   1.114   4.582  13.974 -0.7013 -0.1434  0.6449
    1TMC1    O313880   1.566   4.217  13.971 -0.5733 -0.3554 -0.1211
    1TMC1    H313881   1.600   4.306  13.949 -1.1975 -0.0972 -0.0568
    1TMC1    O513882   1.231   4.524  13.793  0.2906  0.1488  0.0947
    1TMC1    H513883   1.320   4.537  13.754  0.2726 -2.4411 -0.7639
    2MPD2     C13884   1.424   0.340  14.594 -0.1319 -0.3297  0.0946
    2MPD2    C113885   1.329   0.345  14.496 -0.0236  0.2024 -0.1109
    2MPD2    C213886   1.299   0.237  14.419  0.0041 -0.0155  0.1590
    2MPD2    C313887   1.369   0.119  14.438  0.1545 -0.2165 -0.1655
    2MPD2    C413888   1.449   0.111  14.557  0.9222 -0.2913  0.4453
    2MPD2    C513889   1.485   0.218  14.629 -0.0074 -0.5569  0.3951
    2MPD2     H13890   1.231   0.251  14.336 -0.2594 -0.2192  0.3427
    2MPD2    H113891   1.483   0.014  14.590  0.0115 -0.1455  1.7916
    2MPD2    H213892   1.440   0.427  14.656 -0.9241  0.2526 -0.5325
    2MPD2    H313893   1.556   0.198  14.708 -2.0468  0.1427  2.3902
    2MPD2     N13894   1.366   0.014  14.340  0.8997 -0.2425  0.2380
    2MPD2    H513895   1.296   0.019  14.267  1.9662 -2.5082 -0.9565
    2MPD2    N113896   1.279   0.480  14.469 -0.8497 -0.1729  0.4055
    2MPD2    H713897   1.324   0.556  14.520  1.6059  0.1160 -2.1517
    3TMC2    C113898   1.165   0.643  14.325  0.0061 -0.1351  0.1483
    3TMC2    C213899   1.246   0.744  14.364  0.3086 -0.0500 -0.1532
    3TMC2    C313900   1.258   0.852  14.284 -0.2904  0.0057  0.2891
    3TMC2    C413901   1.081   0.662  14.217 -0.7913  0.4508  0.1368
    3TMC2    C513902   1.103   0.775  14.132 -0.0176 -0.0166  0.0602
    3TMC2    C613903   1.191   0.874  14.168  0.4164 -0.5224  0.0090
    3TMC2     C13904   1.178   0.508  14.376 -0.5831  0.2383 -0.5743
    3TMC2     O13905   1.099   0.430  14.322  0.0492 -0.0382  0.2949
    3TMC2     H13906   1.298   0.728  14.458 -0.3511  0.5899  0.3182
    3TMC2    H113907   1.015   0.580  14.192  0.5448 -0.2797 -1.0440
    3TMC2    H213908   1.213   0.959  14.105 -0.4540 -0.7266 -0.5711
    3TMC2    C713909   1.015   0.793  14.015 -1.0288  0.0956  0.4400
    3TMC2    C813910   1.323   0.965  14.343  0.0865 -0.0164  0.3003
    3TMC2    O113911   0.923   0.716  14.014  0.5642 -0.0195 -0.0185
    3TMC2    O213912   1.334   0.957  14.467 -0.0821  0.0366  0.2361
    3TMC2    O513913   1.440   0.971  14.266 -0.5249  0.6806 -0.0409
    3TMC2    H513914   1.427   0.968  14.169 -1.7581  0.9261  0.1164
    4TMC2    C113915   1.085   1.516  13.359 -0.4023  0.0622 -0.0315
    4TMC2    C213916   1.190   1.593  13.386 -0.2612  0.0949 -0.6403
    4TMC2    C313917   1.297   1.530  13.441  0.1419  0.2579 -0.0497
    4TMC2    C413918   1.083   1.381  13.393  0.5588 -0.0327 -0.1841
    4TMC2    C513919   1.196   1.323  13.448  0.5900  0.4471 -0.2834
    4TMC2    C613920   1.310   1.401  13.468 -0.7244  0.4932 -0.3558
    4TMC2     C13921   0.968   1.596  13.322  0.6958  0.3122 -0.3134
    4TMC2     O13922   0.981   1.710  13.286 -0.0223  0.1012 -0.4637
    4TMC2     H13923   1.191   1.700  13.369  0.0366 -0.2900 -2.9958
    4TMC2    H113924   0.996   1.320  13.373  0.7936  0.1103 -1.6649
    4TMC2    H213925   1.394   1.364  13.526 -1.7828 -0.1284  0.7694
    4TMC2    C713926   1.184   1.206  13.535  0.2465  0.0817 -0.1773
    4TMC2    C813927   1.422   1.599  13.478 -0.1919 -0.0283 -0.7940
    4TMC2    O113928   1.263   1.193  13.628 -0.4319 -0.1774  0.3299
    4TMC2    O213929   1.488   1.571  13.577 -0.1682  0.4637  0.6579
    4TMC2    O513930   1.402   1.725  13.434  0.4300 -0.0802 -0.0018
    4TMC2    H513931   1.382   1.720  13.338 -1.5045  0.6605  0.3506
    5MPD2     C13932   0.487   1.627  13.163  0.0371 -0.8329  0.7463
    5MPD2    C113933   0.482   1.579  13.287 -0.6758  0.0797  0.3603
    5MPD2    C213934   0.601   1.558  13.356  0.4013  0.1605 -0.9215
    5MPD2    C313935   0.725   1.578  13.291 -0.7743  0.1712 -0.1665
    5MPD2    C413936   0.726   1.628  13.161 -0.6949 -0.5416  0.7426
    5MPD2    C513937   0.603   1.646  13.101  0.0530  0.0571 -0.3676
    5MPD2     H13938   0.608   1.519  13.457  0.6652 -2.0840 -1.8080
    5MPD2    H113939   0.816   1.644  13.102 -0.1268  1.1677  2.0705
    5MPD2    H213940   0.405   1.673  13.109  0.2052  1.0732  2.1066
    5MPD2    H313941   0.594   1.701  13.008 -0.1722  0.4797 -0.0954
    5MPD2     N13942   0.849   1.537  13.352 -0.2819 -0.6387 -0.4170
    5MPD2    H513943   0.858   1.466  13.424 -2.1329  1.7245  2.1253
    5MPD2    N113944   0.351   1.571  13.350  0.7177  0.5862 -0.4185
    5MPD2    H713945   0.274   1.597  13.288 -1.4334 -1.6558  1.2934
    6MPD1     C13946   3.932   2.915  13.129 -0.5207  0.2125 -0.3931
    6MPD1    C113947   3.909   2.811  13.039  0.1307  0.0641 -0.2090
    6MPD1    C213948   3.956   2.685  13.060 -0.1103 -0.7014 -0.0031
    6MPD1    C313949   4.035   2.660  13.173 -0.6506 -0.1782  0.6776
    6MPD1    C413950   4.062   2.761  13.264 -0.4975 -0.4519 -0.2493
    6MPD1    C513951   4.004   2.886  13.240 -0.3669  0.1066  0.4636
    6MPD1     H13952   3.935   2.602  12.993  0.9428 -1.4561  0.5992
    6MPD1    H113953   4.130   2.757  13.349 -0.7354 -0.4435 -0.0587
    6MPD1    H213954   3.903   3.019  13.113  1.9365  1.2599  1.8794
    6MPD1    H313955   4.032   2.970  13.302  1.2778 -1.0708  1.3111
    6MPD1     N13956   4.108   2.538  13.198  0.1405  0.3036 -0.2703
    6MPD1    H513957   4.178   2.542  13.271  0.2085  1.1774 -0.3902
    6MPD1    N113958   3.841   2.843  12.918 -0.4455 -0.7315  0.2089
    6MPD1    H613959   3.756   2.896  12.938  0.1106  0.0315  0.5612
    6MPD1    H713960   3.822   2.770  12.850 -2.1304 -1.1774  1.1519
    7MPD2     C13961   4.558   2.167  13.686 -0.0626  0.3283 -0.5764
    7MPD2    C113962   4.508   2.082  13.595 -0.2429 -0.1371  0.7619
    7MPD2    C213963   4.514   1.947  13.613  0.0041  0.0458 -0.1573
    7MPD2    C313964   4.597   1.895  13.714  0.3678  0.6961  0.1998
    7MPD2    C413965   4.639   1.980  13.814 -0.2097 -0.4543 -0.0980
    7MPD2    C513966   4.630   2.117  13.791  0.1284 -0.6370  0.1300
    7MPD2     H13967   4.474   1.876  13.541  1.5101  0.1325 -1.0745
    7MPD2    H113968   4.688   1.943  13.903  2.1958  3.2642  0.1440
    7MPD2    H213969   4.543   2.274  13.674  1.2805  0.7250  1.2752
    7MPD2    H313970   4.664   2.184  13.869 -1.0833 -0.7110  0.7119
    7MPD2     N13971   4.631   1.754  13.696  0.4919 -0.7474 -0.2972
    7MPD2    H513972   4.594   1.715  13.610  1.0881 -2.7475  0.3424
    7MPD2    N113973   4.444   2.126  13.476  0.0788 -0.1122 -0.2179
    7MPD2    H713974   4.409   2.051  13.417 -0.2734 -0.5593  0.5499
    8TMC3    C113975   0.026   1.570  13.684 -0.0461 -0.4516  1.0923
    8TMC3    C213976   0.159   1.582  13.652 -0.8696  1.0359  0.1290
    8TMC3    C313977   0.189   1.561  13.521  0.1407  0.4778 -0.0967
    8TMC3    C413978   4.666   1.527  13.593  0.0944 -0.8798 -0.0090
    8TMC3    C513979   4.701   1.511  13.464  0.6746 -0.0379 -0.3841
    8TMC3    C613980   0.092   1.526  13.423  0.1768 -0.4099 -0.4292
    8TMC3     C13981   4.725   1.685  13.768  0.4950 -0.8019  0.6555
    8TMC3     O13982   0.051   1.724  13.861 -0.2616  0.2385  0.3986
    8TMC3     H13983   0.233   1.616  13.723 -0.7032  0.5930  0.1669
    8TMC3    H113984   4.563   1.525  13.627  0.1919  0.5695  0.3880
    8TMC3    H213985   0.125   1.503  13.323  0.2573 -0.6324 -0.3526
    8TMC3    C713986   4.608   1.580  13.384 -0.0244  0.2198  0.5765
    8TMC3    C813987   0.331   1.568  13.483  0.6225 -0.5284  0.1335
    8TMC3    O113988   4.521   1.641  13.446  0.8687  0.3419 -0.2081
    8TMC3    O213989   0.417   1.565  13.571  0.1826 -0.2030 -1.0408
    9TMC3    C113990   4.206   2.331  13.150 -0.5629 -0.6713  0.0786
    9TMC3    C213991   4.214   2.218  13.070 -0.1580  0.1831  0.0497
    9TMC3    C313992   4.310   2.127  13.106 -0.3896  0.9859 -0.1131
    9TMC3    C413993   4.294   2.352  13.259 -0.7705  0.1200 -1.0158
    9TMC3    C513994   4.381   2.248  13.289 -0.4108 -0.3567  0.3077
    9TMC3    C613995   4.405   2.140  13.206  0.1044  0.5206  0.3736
    9TMC3     C13996   4.101   2.421  13.122 -0.1245  0.1919  0.1929
    9TMC3     O13997   4.032   2.386  13.029  0.0193  0.1568  0.0955
    9TMC3     H13998   4.136   2.191  12.999  0.2648 -1.0855  0.0736
    9TMC3    H113999   4.270   2.422  13.337  0.9133  0.3149 -0.6937
    9TMC3    H214000   4.482   2.065  13.222 -2.3749 -1.8508  1.2640
    9TMC3    C714001   4.444   2.249  13.419 -0.4910  1.3211 -0.5102
    9TMC3    C814002   4.299   2.006  13.024 -0.5184  1.1084  0.4399
    9TMC3    O114003   4.492   2.351  13.460  0.2695 -0.4925  0.0373
    9TMC3    O214004   4.288   2.016  12.907 -0.1551  0.4949  0.4823
   10MPD2     C14005   4.546   1.556  13.012 -0.0065 -0.1801  0.4129
   10MPD2    C114006   4.547   1.610  13.141  0.4591  0.2093 -0.5357
   10MPD2    C214007   4.481   1.723  13.162  0.2604  0.0884 -0.2570
   10MPD2    C314008   4.415   1.785  13.064 -0.2770  0.1350  0.1079
   10MPD2    C414009   4.411   1.737  12.933  0.6222 -0.2259 -0.0288
   10MPD2    C514010   4.479   1.617  12.910 -0.4548 -0.4683 -0.5526
   10MPD2     H14011   4.481   1.768  13.261 -1.6868 -2.4757  0.9033
   10MPD2    H114012   4.364   1.775  12.843 -1.3057 -0.7583  0.7623
   10MPD2    H214013   4.591   1.459  12.994  3.6513  1.5419  0.3819
   10MPD2    H314014   4.494   1.582  12.808  1.5096 -0.2921 -0.3340
   10MPD2     N14015   4.348   1.909  13.106  0.0330 -0.4190 -0.4708
   10MPD2    H514016   4.355   1.920  13.206  1.7690 -1.8397 -0.4278
   10MPD2    N114017   4.624   1.552  13.244  0.0605  0.0154 -0.0603
   10MPD2    H714018   4.683   1.473  13.219  0.3427 -0.4407  2.0144
   11MPD2     C14019   0.891   0.849  13.756 -0.7910 -0.0057 -0.1633
   11MPD2    C114020   0.996   0.922  13.804 -0.5986  0.2709 -0.9276
   11MPD2    C214021   1.058   1.020  13.729  0.5149 -0.1420 -0.3879
   11MPD2    C314022   1.019   1.042  13.599  0.1529  0.6551 -0.9064
   11MPD2    C414023   0.909   0.969  13.556  0.4314  0.3198  0.0746
   11MPD2    C514024   0.844   0.877  13.632  0.0106 -0.2763 -0.8640
   11MPD2     H14025   1.149   1.066  13.767  0.9377 -0.8470 -0.5535
   11MPD2    H114026   0.872   0.989  13.456 -1.7514  1.9888  1.2138
   11MPD2    H214027   0.847   0.766  13.810  0.2889 -0.2810  0.2977
   11MPD2    H314028   0.770   0.818  13.581  1.0034  0.2997 -2.9715
   11MPD2     N14029   1.075   1.131  13.511 -0.5647 -0.2356 -0.0167
   11MPD2    H514030   1.026   1.149  13.424 -0.4742 -0.6664 -0.1551
   11MPD2    N114031   1.048   0.895  13.930 -0.1867 -0.2290  0.2242
   11MPD2    H714032   1.131   0.949  13.950  1.7263 -2.2477 -2.1573
    1MPD1     C14033   4.426   2.462  15.269 -0.2988  0.1649  0.3480
    1MPD1    C114034   4.492   2.578  15.296 -0.6200 -0.4020 -0.6651
    1MPD1    C214035   4.523   2.594  15.432 -0.7585 -0.4273 -0.6421
    1MPD1    C314036   4.481   2.504  15.531  0.4270 -0.0718 -0.0573
    1MPD1    C414037   4.402   2.400  15.495 -0.3180  0.3959  0.1490
    1MPD1    C514038   4.369   2.386  15.362 -0.3039  0.9164  0.4875
    1MPD1     H14039   4.587   2.676  15.461  3.5254 -3.4770 -1.3891
    1MPD1    H114040   4.362   2.328  15.565 -0.3937  0.4190  0.1298
    1MPD1    H214041   4.415   2.434  15.165 -0.0557  0.3481  0.2748
    1MPD1    H314042   4.323   2.291  15.337 -0.3391  1.0835 -0.0909
    1MPD1     N14043   4.502   2.520  15.665 -0.2027  0.1135 -0.1325
    1MPD1    H514044   4.448   2.459  15.725  0.2344 -1.9031 -1.7895
    1MPD1    N114045   4.560   2.651  15.198 -0.2315 -0.1646  0.6626
    1MPD1    H614046   4.589   2.746  15.221  0.5420 -0.4978  1.0561
    1MPD1    H714047   4.516   2.643  15.106 -0.2559  2.2549  0.4583
    2MPD1     C14048   3.949   2.550  16.486 -0.2130 -0.0721  0.0206
    2MPD1    C114049   4.077   2.552  16.538 -0.3362 -0.2539  0.4255
    2MPD1    C214050   4.187   2.556  16.452 -1.2684 -0.0359 -0.7943
    2MPD1    C314051   4.162   2.553  16.314 -0.0634 -0.3744  0.0848
    2MPD1    C414052   4.039   2.549  16.263  0.8405  0.2866 -0.8627
    2MPD1    C514053   3.935   2.551  16.345  0.5258  0.3645  0.1008
    2MPD1     H14054   4.283   2.572  16.499 -0.6305 -1.7586 -1.5303
    2MPD1    H114055   4.008   2.546  16.159 -0.0414 -0.6260 -0.5756
    2MPD1    H214056   3.858   2.548  16.545 -0.3639 -0.2846 -0.2202
    2MPD1    H314057   3.837   2.565  16.303  0.8465  3.0192  0.2364
    2MPD1     N14058   4.279   2.568  16.235 -0.2079  0.0602 -0.0996
    2MPD1    H514059   4.364   2.577  16.290 -0.3311  0.6205  0.0061
    2MPD1    N114060   4.094   2.557  16.688  1.0172  0.6131  0.1217
    2MPD1    H614061   4.010   2.525  16.736  1.1254  0.9046  0.5055
    2MPD1    H714062   4.181   2.520  16.725  0.0355  0.5290  2.3347
    3TMC3    C114063   4.423   2.586  16.052 -0.1160 -0.0703  0.2815
    3TMC3    C214064   4.518   2.633  16.136 -0.3137 -0.7783  0.1684
    3TMC3    C314065   4.636   2.672  16.076  0.4058 -0.1175 -0.2366
    3TMC3    C414066   4.443   2.577  15.917 -0.1466  0.6959  0.1667
    3TMC3    C514067   4.559   2.618  15.862 -0.3323  0.0822  0.2898
    3TMC3    C614068   4.660   2.673  15.939  0.0465 -0.0160 -0.1667
    3TMC3     C14069   4.288   2.561  16.098  0.2057  0.2784  0.1649
    3TMC3     O14070   4.200   2.557  16.015  0.1918 -0.3419  0.0117
    3TMC3     H14071   4.492   2.652  16.239 -1.9800  0.8290 -0.5410
    3TMC3    H114072   4.361   2.544  15.855  0.9315  1.0422 -1.4407
    3TMC3    H214073   0.010   2.708  15.888 -0.0720  1.5312  0.6925
    3TMC3    C714074   4.580   2.620  15.724 -0.0484 -0.0489  0.2524
    3TMC3    C814075   0.012   2.703  16.164  0.2432 -0.8080  0.2623
    3TMC3    O114076   4.648   2.706  15.673  0.1727  0.5106 -0.0511
    3TMC3    O214077   4.728   2.736  16.281 -0.0213  0.0578  0.1514
    4MPD1     C14078   0.464   2.910  16.216 -0.5537  0.0066 -0.4067
    4MPD1    C114079   0.461   2.841  16.096 -0.0560  0.0365  0.7445
    4MPD1    C214080   0.356   2.755  16.063  0.3776  0.7960  0.2570
    4MPD1    C314081   0.246   2.757  16.147  0.1737 -0.8460 -0.0049
    4MPD1    C414082   0.256   2.817  16.272 -0.3821  0.1441  0.0974
    4MPD1    C514083   0.362   2.897  16.307 -0.0932 -0.0839 -0.4506
    4MPD1     H14084   0.359   2.685  15.981  0.3352  1.1092 -0.0133
    4MPD1    H114085   0.182   2.813  16.351 -1.9046  1.4024 -1.2415
    4MPD1    H214086   0.543   2.982  16.230 -3.2498  3.0060 -0.5994
    4MPD1    H314087   0.359   2.946  16.404 -0.1447 -0.2262 -0.3788
    4MPD1     N14088   0.135   2.693  16.097 -0.0780  0.0336  0.0057
    4MPD1    H514089   0.144   2.665  16.000 -3.2273 -1.4206  0.1286
    4MPD1    N114090   0.579   2.826  16.013 -0.3103 -0.2575 -0.0503
    4MPD1    H614091   0.619   2.918  16.000  0.3937 -0.8290 -1.9029
    4MPD1    H714092   0.555   2.783  15.924 -1.7551  0.8245 -0.1756
    1TCq1    O114093   4.071   0.375   9.196 -0.4845 -0.2644 -0.3076
    1TCq1    C114094   4.132   0.488   9.172  0.5790 -0.5627 -0.1162
    1TCq1    O214095   4.247   0.514   9.205  0.1866  0.0251 -0.1718
    1TCq1    C214096   4.067   0.559   9.067 -0.1852  0.0146  0.1300
    1TCq1    C314097   3.929   0.559   9.061 -0.1118  0.0119 -0.0367
    1TCq1    C414098   3.874   0.669   8.993 -0.2531 -0.5685  0.2731
    1TCq1    C514099   3.952   0.779   8.954 -0.2585  0.4295  0.8037
    1TCq1    C614100   4.087   0.781   8.967 -0.0631 -0.4932 -0.1988
    1TCq1    C714101   4.145   0.656   9.010 -0.0446 -0.2596  0.3537
    1TCq1    C814102   4.179   0.900   8.939  0.0349  0.0917 -0.5379
    1TCq1    O414103   4.296   0.873   8.926  0.3774  0.1260  0.7298
    1TCq1    C914104   3.735   0.693   9.005  0.1828  0.7914 -0.3028
    1TCq1    O514105   3.676   0.607   9.076  0.1400  0.2962  0.1467
    1TCq1    O614106   3.680   0.785   8.941 -0.0405 -0.1900 -0.2040
    1TCq1    H114107   4.008   0.347   9.126 -1.1239 -0.7183  0.4551
    1TCq1    H214108   3.874   0.509   9.141 -0.4225 -0.3700 -0.4859
    1TCq1    H314109   3.900   0.865   8.912  0.7347  1.9193  2.6444
    1TCq1    H414110   4.253   0.656   9.022  0.2289  0.0193 -2.1035
    2MPD1     C14111   4.250   1.389   8.829  0.5837 -0.1173 -0.2575
    2MPD1    C114112   4.117   1.374   8.822 -0.0595  0.5464 -0.0746
    2MPD1    C214113   4.073   1.244   8.845 -0.0201  0.7270 -0.3941
    2MPD1    C314114   4.159   1.146   8.890 -0.5150  0.2666  1.0891
    2MPD1    C414115   4.292   1.177   8.906 -0.1326  0.2808 -0.2609
    2MPD1    C514116   4.342   1.296   8.864 -0.1364  0.3293 -0.2353
    2MPD1     H14117   3.969   1.228   8.819  0.1316  1.1036 -1.2419
    2MPD1    H114118   4.357   1.100   8.945 -0.0150  0.4708 -0.0805
    2MPD1    H214119   4.291   1.481   8.788  0.4998  0.3141  0.6422
    2MPD1    H314120   4.447   1.321   8.869 -0.6790  2.1837  1.6951
    2MPD1     N14121   4.108   1.015   8.911  0.2039 -0.1669 -0.0190
    2MPD1    H514122   4.007   1.009   8.918  0.2236 -0.3993  0.0977
    2MPD1    N114123   4.030   1.466   8.759 -0.3323 -0.4653 -0.7756
    2MPD1    H614124   4.065   1.562   8.759  4.3683 -2.1782  2.3112
    2MPD1    H714125   3.933   1.463   8.789  0.4690  0.2087  1.8837
    1TMC1    C114126   2.246   3.898   0.231  0.3635 -0.2687 -0.0596
    1TMC1    C214127   2.208   4.003   0.312 -0.3325  0.2608 -0.1103
    1TMC1    C314128   2.245   4.126   0.272  0.1437  0.4060 -0.2279
    1TMC1    C414129   2.329   3.918   0.122  0.1586  0.1342  1.3157
    1TMC1    C514130   2.361   4.046   0.096  0.4482 -0.2950 -0.0812
    1TMC1    C614131   2.324   4.154   0.162 -0.6672  0.1296  0.1356
    1TMC1     C14132   2.238   3.777   0.306  0.1306  0.1870  0.6769
    1TMC1     O14133   2.194   3.778   0.422  0.2967 -0.5293 -0.5264
    1TMC1     H14134   2.139   3.998   0.396 -1.1536 -1.7025 -0.8995
    1TMC1    H114135   2.372   3.834   0.069 -2.5186 -0.2160 -0.3308
    1TMC1    H214136   2.351   4.255   0.132 -0.7150  1.3181  4.0323
    1TMC1    C714137   2.434   4.064  17.723  0.3043 -0.1656  0.0268
    1TMC1    C814138   2.223   4.234   0.370  0.1342 -1.2404  0.1059
    1TMC1    O114139   2.405   4.007  17.619  0.2125  0.2837  0.3008
    1TMC1    O214140   2.153   4.225   0.473  0.3621  0.5909 -0.0721
    1TMC1    O314141   2.543   4.139  17.752  0.0669  0.1199 -0.4655
    1TMC1    H314142   2.563   4.164   0.092  1.0204 -1.4119 -0.2730
    1TMC1    O514143   2.298   4.347   0.344  0.0906  0.0319 -0.5638
    1TMC1    H514144   2.342   4.353   0.257 -0.4737 -0.2882 -0.8692
    2MPD1     C14145   2.307   3.275   0.339  0.4340  0.7104 -0.0414
    2MPD1    C114146   2.298   3.303   0.206  0.0107 -0.3640 -0.1246
    2MPD1    C214147   2.291   3.436   0.174  0.1638 -0.6738 -0.0698
    2MPD1    C314148   2.271   3.532   0.267  0.1558 -0.2488 -0.4100
    2MPD1    C414149   2.270   3.498   0.399 -0.2794 -0.4533 -0.1135
    2MPD1    C514150   2.288   3.371   0.433  0.6024  0.2355  0.0328
    2MPD1     H14151   2.301   3.469   0.071  0.4088  3.3551  1.2425
    2MPD1    H114152   2.256   3.565   0.483  2.0382  0.2361 -0.2774
    2MPD1    H214153   2.324   3.177   0.381 -2.5152 -0.2658 -1.1076
    2MPD1    H314154   2.297   3.336   0.535 -2.8241  0.9690  0.5911
    2MPD1     N14155   2.268   3.667   0.228  0.1446  0.3033  0.0496
    2MPD1    H514156   2.279   3.688   0.130 -1.4257  1.5789  0.1646
    2MPD1    N114157   2.327   3.205   0.109  1.0763  0.1717  0.1769
    2MPD1    H614158   2.273   3.122   0.131 -0.0965  1.2398  1.3349
    2MPD1    H714159   2.293   3.242   0.021 -0.9296  0.6151  1.1335
    1MPD1     C14160   1.475   1.698  12.354  0.2655 -0.0718  0.6746
    1MPD1    C114161   1.581   1.781  12.337 -0.1614 -0.4579 -0.0862
    1MPD1    C214162   1.565   1.906  12.289 -0.3072 -0.2635  0.2859
    1MPD1    C314163   1.436   1.957  12.280 -0.3005 -0.7610  0.1637
    1MPD1    C414164   1.330   1.879  12.306  0.9520  0.1645  0.9192
    1MPD1    C514165   1.350   1.747  12.341  0.3092  0.0322  0.8275
    1MPD1     H14166   1.651   1.972  12.278 -1.0263  0.3495 -1.6082
    1MPD1    H114167   1.230   1.903  12.272  0.3121 -0.9858  2.0053
    1MPD1    H214168   1.498   1.596  12.382 -0.6276 -0.7429 -1.0351
    1MPD1    H314169   1.269   1.677  12.358  0.2398 -0.3973 -1.2858
    1MPD1     N14170   1.422   2.090  12.223 -0.7166  0.3709 -0.4624
    1MPD1    H514171   1.507   2.137  12.193 -0.8477 -0.0040 -1.4038
    1MPD1    N114172   1.705   1.726  12.355  0.1837 -0.0048  0.7989
    1MPD1    H614173   1.716   1.626  12.372  2.0357  0.0618 -0.0302
    1MPD1    H714174   1.777   1.745  12.286  1.8600  0.5688  2.7121
    2MPD1     C14175   0.273   2.283  10.941 -0.3614 -0.3762 -0.0649
    2MPD1    C114176   0.394   2.331  10.985 -0.7378  0.4023 -0.3517
    2MPD1    C214177   0.498   2.322  10.899  0.0426  0.2795  0.1569
    2MPD1    C314178   0.485   2.270  10.778  0.2867  0.2250 -0.7214
    2MPD1    C414179   0.362   2.207  10.742 -0.4575  0.5562 -0.5047
    2MPD1    C514180   0.256   2.216  10.829  0.1683 -0.3298 -0.4263
    2MPD1     H14181   0.593   2.361  10.935  1.6789 -1.2982 -2.3956
    2MPD1    H114182   0.350   2.179  10.638 -0.4111 -1.5491  0.0444
    2MPD1    H214183   0.181   2.291  10.997  1.1909  0.5515  2.3699
    2MPD1    H314184   0.159   2.179  10.800 -0.6933  0.7408  1.0427
    2MPD1     N14185   0.592   2.260  10.685 -0.7393  0.4367  0.5453
    2MPD1    H514186   0.576   2.206  10.601  1.3093  0.6922 -0.0074
    2MPD1    N114187   0.391   2.415  11.096 -0.3973  0.2347 -0.0317
    2MPD1    H614188   0.484   2.441  11.128 -0.4973  0.4989  0.0430
    2MPD1    H714189   0.335   2.375  11.171 -0.5232 -3.8444 -2.2991
    3MPD1     C14190   0.964   1.865   9.853 -0.0436 -0.5055 -0.1750
    3MPD1    C114191   1.012   1.997   9.852 -0.0842 -0.5729  0.5259
    3MPD1    C214192   1.008   2.064   9.972 -0.2013 -0.7485 -0.5662
    3MPD1    C314193   0.943   2.008  10.089  0.6365 -0.6579  0.4222
    3MPD1    C414194   0.882   1.886  10.077 -0.0704 -0.1846  0.8539
    3MPD1    C514195   0.894   1.816   9.962 -0.2678 -0.0424  0.5048
    3MPD1     H14196   1.053   2.162   9.971 -3.6150  0.8274  0.5054
    3MPD1    H114197   0.816   1.846  10.153 -1.0140 -2.9230 -1.4191
    3MPD1    H214198   0.987   1.799   9.771  0.5195  0.7183 -0.9956
    3MPD1    H314199   0.853   1.716   9.955 -0.0663 -0.2012  1.5304
    3MPD1     N14200   0.939   2.091  10.204 -0.1864 -0.0978 -0.2943
    3MPD1    H514201   0.988   2.179  10.192  0.9350 -0.7800 -0.6400
    3MPD1    N114202   1.104   2.046   9.760  0.0343 -0.0887  0.5147
    3MPD1    H614203   1.103   2.147   9.755 -2.0301 -0.2315 -1.9094
    3MPD1    H714204   1.112   2.000   9.669 -1.0453  0.7744 -0.0186
    4MPD2     C14205   0.985   2.687  11.805  0.4240  0.3219 -0.9781
    4MPD2    C114206   1.120   2.665  11.814 -0.1849 -0.5720  0.4505
    4MPD2    C214207   1.203   2.718  11.712  0.2278 -0.8320  0.0803
    4MPD2    C314208   1.156   2.793  11.607 -0.3970  0.4755 -1.4505
    4MPD2    C414209   1.023   2.817  11.597 -0.3750 -0.0090  0.0277
    4MPD2    C514210   0.941   2.765  11.700 -0.8714 -0.0958  0.4884
    4MPD2     H14211   1.304   2.679  11.714  0.1432 -1.0937 -0.7032
    4MPD2    H114212   0.985   2.875  11.514 -0.1593 -1.4608 -1.0614
    4MPD2    H214213   0.911   2.651  11.875  0.5556  0.5871 -0.7031
    4MPD2    H314214   0.834   2.781  11.694 -1.0206 -0.9997  0.7888
    4MPD2     N14215   1.247   2.834  11.502 -0.1047  0.1387 -0.0358
    4MPD2    H514216   1.203   2.867  11.416  0.2881  2.5830  0.6905
    4MPD2    N114217   1.176   2.602  11.923 -0.4584  0.0044 -0.1317
    4MPD2    H714218   1.277   2.607  11.930 -0.8169  0.5111  4.6445
    5TMC3    C114219   1.209   2.488  12.112 -0.0094  0.0384 -0.0096
    5TMC3    C214220   1.191   2.358  12.126 -0.6846 -0.2474  0.0379
    5TMC3    C314221   1.304   2.285  12.127 -0.7644 -0.4696  1.2796
    5TMC3    C414222   1.338   2.541  12.091  0.4817  0.0225 -0.1582
    5TMC3    C514223   1.448   2.468  12.084 -0.5490 -0.3357 -0.1314
    5TMC3    C614224   1.436   2.336  12.099  0.2891  0.5128  0.5225
    5TMC3     C14225   1.108   2.540  12.027 -0.0809  0.0402 -0.5932
    5TMC3     O14226   0.988   2.526  12.057  0.6435  0.5522  0.3106
    5TMC3     H14227   1.093   2.316  12.144 -0.0367 -2.1770 -1.0085
    5TMC3    H114228   1.344   2.649  12.085  1.6456  0.0546  1.5955
    5TMC3    H214229   1.523   2.273  12.112  0.8735  1.7271  2.4800
    5TMC3    C714230   1.524   2.513  11.968 -0.4883  0.6889 -0.6718
    5TMC3    C814231   1.299   2.148  12.192  0.4332 -0.2306  0.4329
    5TMC3    O114232   1.463   2.586  11.893  1.3346 -0.4071 -0.2465
    5TMC3    O214233   1.185   2.101  12.197  0.6405  0.3156 -0.3148
    6TMC3    C114234   0.817   2.291  10.597 -0.1895  0.7153  0.1805
    6TMC3    C214235   0.800   2.192  10.510 -0.7095  0.3928 -0.7409
    6TMC3    C314236   0.894   2.176  10.406  0.4590 -0.2160 -0.6783
    6TMC3    C414237   0.934   2.361  10.608  0.3392  0.0966  0.0794
    6TMC3    C514238   1.018   2.342  10.504 -0.3507  0.1550 -0.6123
    6TMC3    C614239   1.004   2.251  10.406  0.4399 -0.3837  0.1614
    6TMC3     C14240   0.719   2.323  10.705 -0.2109 -0.3834 -0.1443
    6TMC3     O14241   0.757   2.408  10.791 -0.1639  0.5537  0.0531
    6TMC3     H14242   0.719   2.120  10.511 -1.4357  1.1924 -2.5306
    6TMC3    H114243   0.941   2.438  10.684 -0.0746  0.3715 -0.1642
    6TMC3    H214244   1.081   2.248  10.330  0.3247 -0.1302  0.0344
    6TMC3    C714245   1.145   2.420  10.504 -0.4335 -0.0892  0.2712
    6TMC3    C814246   0.876   2.064  10.312 -0.6463 -0.1637  0.6568
    6TMC3    O114247   1.208   2.406  10.400 -0.1018 -0.1190 -0.2537
    6TMC3    O214248   0.787   1.984  10.336 -0.3105  0.0508  0.0671
    7MPD2     C14249   1.892   2.539  11.618 -0.3404  0.3481  0.0795
    7MPD2    C114250   1.780   2.620  11.633 -0.5272  0.2703 -0.2437
    7MPD2    C214251   1.704   2.603  11.747  0.3732  0.0314  0.3743
    7MPD2    C314252   1.742   2.509  11.850 -0.3329 -0.4274  0.5147
    7MPD2    C414253   1.860   2.434  11.829 -0.5725 -1.4784 -0.0817
    7MPD2    C514254   1.937   2.451  11.713  0.1730 -0.2264 -0.5555
    7MPD2     H14255   1.610   2.656  11.750  0.2360 -0.2778  1.7724
    7MPD2    H114256   1.879   2.345  11.887  1.8277 -1.2156 -0.4484
    7MPD2    H214257   1.968   2.554  11.542  0.7289  0.9881  1.2688
    7MPD2    H314258   2.029   2.395  11.705  0.4778 -0.0581  1.8366
    7MPD2     N14259   1.656   2.475  11.964 -0.8644  0.3087 -0.0163
    7MPD2    H514260   1.690   2.404  12.028  2.9934  2.2017  0.0748
    7MPD2    N114261   1.733   2.711  11.538  0.0173  0.0788 -0.6279
    7MPD2    H714262   1.646   2.755  11.566  0.7718 -0.3025  2.3068
    8TMC3    C114263   1.652   2.774  11.324  0.2967  0.1429  0.6499
    8TMC3    C214264   1.599   2.696  11.223  0.0257 -0.6588  0.6661
    8TMC3    C314265   1.461   2.713  11.200 -0.4773 -0.6673 -0.1430
    8TMC3    C414266   1.573   2.854  11.396 -0.5104  0.5413  0.2161
    8TMC3    C514267   1.437   2.865  11.372 -0.0586 -1.0792  0.2214
    8TMC3    C614268   1.387   2.796  11.273 -0.5203  0.5024  0.3053
    8TMC3     C14269   1.760   2.707  11.401 -0.6589 -0.5517  0.3000
    8TMC3     O14270   1.830   2.626  11.339 -0.4833  0.0222  0.1074
    8TMC3     H14271   1.665   2.625  11.174  2.0361  0.8711  1.1478
    8TMC3    H114272   1.618   2.924  11.466  1.3575  0.1353 -0.5764
    8TMC3    H214273   1.282   2.797  11.249 -0.2431  1.3008 -0.8748
    8TMC3    C714274   1.385   2.828  11.503 -0.0349 -0.0094  0.9513
    8TMC3    C814275   1.403   2.674  11.065  0.0749  0.6274 -0.0902
    8TMC3    O114276   1.462   2.788  11.591  0.3783  0.3140 -0.6361
    8TMC3    O214277   1.283   2.690  11.043 -0.4838  0.3212  0.4311
    9MPD2     C14278   1.560   2.586  10.747 -0.3031  0.7352 -0.2198
    9MPD2    C114279   1.461   2.596  10.843 -0.1077 -0.4467 -0.6415
    9MPD2    C214280   1.338   2.552  10.797  0.0144 -0.3429  0.0991
    9MPD2    C314281   1.313   2.519  10.668 -1.1589  0.4862 -0.1931
    9MPD2    C414282   1.408   2.517  10.574  0.0083  0.1179 -0.4457
    9MPD2    C514283   1.536   2.540  10.622 -0.0805 -0.3861 -0.4122
    9MPD2     H14284   1.256   2.542  10.868 -1.0370  1.3800 -0.8621
    9MPD2    H114285   1.391   2.486  10.471  4.2770 -1.7222 -0.6204
    9MPD2    H214286   1.664   2.607  10.767  0.0518 -1.4754  0.2890
    9MPD2    H314287   1.608   2.545  10.541  0.1725  1.4088 -0.0758
    9MPD2     N14288   1.182   2.474  10.627  0.0326 -0.4711  0.2136
    9MPD2    H514289   1.108   2.476  10.697 -0.2906 -0.1295 -0.1317
    9MPD2    N114290   1.494   2.638  10.974  0.3815 -0.1651  0.3468
    9MPD2    H714291   1.594   2.634  10.990  0.2740 -0.6994  0.8893
    1MPD1     C14292   2.298   0.907  16.856 -0.8667  0.7206 -0.0203
    1MPD1    C114293   2.358   0.899  16.730  0.0985  0.3380 -0.0489
    1MPD1    C214294   2.468   0.972  16.702 -0.3219 -0.0232  0.3286
    1MPD1    C314295   2.534   1.042  16.804  0.0604  0.4811  0.1201
    1MPD1    C414296   2.477   1.043  16.928  0.4991 -0.3932 -0.1283
    1MPD1    C514297   2.363   0.970  16.955  0.1799 -0.6987  0.7499
    1MPD1     H14298   2.506   0.982  16.601  0.6655  0.2619  0.7232
    1MPD1    H114299   2.529   1.100  17.004 -1.2199  0.0928  0.6851
    1MPD1    H214300   2.215   0.852  16.899 -0.7922  0.3256 -0.3823
    1MPD1    H314301   2.318   0.962  17.054 -2.3568  0.1134 -0.3533
    1MPD1     N14302   2.649   1.126  16.785 -0.4021  0.4243  0.3281
    1MPD1    H514303   2.692   1.168  16.866  2.1174 -0.8455 -0.3743
    1MPD1    N114304   2.292   0.834  16.621 -0.1416 -0.4178 -0.1173
    1MPD1    H614305   2.359   0.809  16.549  0.6065  0.5198  0.2585
    1MPD1    H714306   2.238   0.754  16.654 -0.3083 -0.1309  0.3008
    2TMC2    C114307   2.949   1.440  16.633  0.3533  0.1319 -0.1218
    2TMC2    C214308   3.039   1.409  16.725 -0.2795  0.0520 -0.3560
    2TMC2    C314309   3.023   1.294  16.796 -1.3148  0.0733 -0.2084
    2TMC2    C414310   2.838   1.359  16.607 -0.4427 -0.5993 -0.1178
    2TMC2    C514311   2.825   1.246  16.686  0.0065 -0.1041 -0.7778
    2TMC2    C614312   2.912   1.213  16.791  0.7612 -0.4297 -0.7289
    2TMC2     C14313   2.971   1.575  16.569  0.1011  1.7026  0.1389
    2TMC2     O14314   3.070   1.645  16.594  0.1340  0.4817  0.4150
    2TMC2     H14315   3.139   1.450  16.722 -0.0911 -0.4992 -1.6578
    2TMC2    H114316   2.771   1.367  16.522 -2.7136 -1.6876  1.5898
    2TMC2    H214317   2.900   1.117  16.839 -0.2229  0.1663  0.2305
    2TMC2    C714318   2.708   1.163  16.662  0.1696  0.3518 -0.5300
    2TMC2    C814319   3.134   1.250  16.875 -0.1879 -0.3531  0.3902
    2TMC2    O114320   2.660   1.156  16.548  0.5846 -0.3335  0.3955
    2TMC2    O214321   3.215   1.323  16.930 -0.9442  0.0993 -1.4007
    2TMC2    O514322   3.129   1.118  16.879 -0.3677  0.4475 -0.5976
    2TMC2    H514323   3.067   1.079  16.813 -0.9526  0.0912  0.1553
    3MPD1     C14324   2.834   1.901  16.198 -0.7601 -0.5775  0.1023
    3MPD1    C114325   2.748   1.793  16.196  0.0701 -0.4566  0.6784
    3MPD1    C214326   2.760   1.704  16.296  0.2479  0.3708  0.9096
    3MPD1    C314327   2.859   1.705  16.389 -0.3796 -0.6136 -0.0834
    3MPD1    C414328   2.942   1.814  16.388  0.0673  0.3228  0.3036
    3MPD1    C514329   2.926   1.907  16.290 -0.2904 -0.4303 -0.0962
    3MPD1     H14330   2.684   1.626  16.301  0.7413 -0.1325  0.5100
    3MPD1    H114331   3.017   1.831  16.465 -0.7259  1.1335  0.9053
    3MPD1    H214332   2.824   1.979  16.123 -0.9810  1.3329  2.1191
    3MPD1    H314333   2.992   1.993  16.289 -0.9419  0.0744 -0.4598
    3MPD1     N14334   2.871   1.594  16.468  0.2243  0.0358  1.1906
    3MPD1    H514335   2.794   1.529  16.460  1.3302 -1.2695  1.1926
    3MPD1    N114336   2.655   1.775  16.095  0.1555  0.6144 -0.1011
    3MPD1    H614337   2.680   1.832  16.015 -1.8930  2.1250  0.3446
    3MPD1    H714338   2.632   1.680  16.068 -1.0612  1.8880 -3.5374
    1TMC1    C114339   4.366   0.147  13.049 -0.0792 -0.3372 -0.1525
    1TMC1    C214340   4.307   0.254  13.108 -0.1396  0.7276  0.3309
    1TMC1    C314341   4.176   0.227  13.145 -0.5287  0.0595  0.1721
    1TMC1    C414342   4.319   0.020  13.041 -0.0250  0.2522  0.1692
    1TMC1    C514343   4.198   4.737  13.096  0.7662  0.8294  0.8148
    1TMC1    C614344   4.125   0.099  13.148  0.1833  0.3971 -0.2543
    1TMC1     C14345   4.503   0.142  13.025 -0.3580  0.3856  0.1815
    1TMC1     O14346   4.538   0.062  12.937  0.0642  0.3363 -0.1230
    1TMC1     H14347   4.338   0.358  13.108 -0.2584  0.7639  0.5317
    1TMC1    H114348   4.367   4.674  12.994  1.2213  1.3443 -0.5225
    1TMC1    H214349   4.034   0.075  13.201  0.5283  1.2667  0.7273
    1TMC1    C714350   4.174   4.595  13.115 -0.2066  0.1369 -0.4242
    1TMC1    C814351   4.092   0.337  13.182  0.1116 -0.3349 -0.3844
    1TMC1    O114352   4.209   4.507  13.039  0.5207  0.2958  0.0208
    1TMC1    O214353   3.968   0.325  13.185 -0.5156 -0.3885  0.0886
    1TMC1    O314354   4.138   4.581  13.247  0.1805  0.2997 -0.5396
    1TMC1    H314355   4.135   4.667  13.295  0.6780 -1.1464  2.0771
    1TMC1    O514356   4.151   0.378  13.295  0.1403  0.4361 -0.2270
    1TMC1    H514357   4.247   0.357  13.302  0.5339  1.6436 -2.1914
    2MPD2     C14358   0.052   0.175  12.999 -0.1724  0.0710 -0.0045
    2MPD2    C114359   4.726   0.200  13.120 -0.1063  0.5560 -0.6587
    2MPD2    C214360   0.057   0.226  13.231 -0.6402 -0.0369 -0.3018
    2MPD2    C314361   0.198   0.240  13.233 -0.2219 -0.0689 -0.1542
    2MPD2    C414362   0.260   0.231  13.107  0.4341 -0.2061 -0.2840
    2MPD2    C514363   0.186   0.185  13.000  0.3693 -0.0394 -0.4681
    2MPD2     H14364   4.739   0.233  13.323 -0.2924 -0.3646 -0.0582
    2MPD2    H114365   0.366   0.246  13.093  0.5607 -0.1655  0.7223
    2MPD2    H214366   0.001   0.140  12.910 -2.2926 -1.2754  1.7391
    2MPD2    H314367   0.228   0.177  12.901 -1.0848  0.4954 -1.1319
    2MPD2     N14368   0.265   0.277  13.348  0.4101 -0.2459  0.5721
    2MPD2    H514369   0.212   0.285  13.434  1.2703 -0.5388  1.1284
    2MPD2    N114370   4.585   0.201  13.128  0.6257 -0.4542 -0.5778
    2MPD2    H714371   4.545   0.222  13.219  1.7426 -0.2818 -0.1332
    3TCq1    O114372   0.616   0.660  13.722 -0.0177 -0.6241  0.2431
    3TCq1    C114373   0.534   0.665  13.615  0.0905 -0.5305  0.1379
    3TCq1    O214374   0.544   0.733  13.516 -0.1688 -0.0074 -0.0460
    3TCq1    C214375   0.488   0.532  13.607 -0.4276  0.5038  0.1349
    3TCq1    C314376   0.416   0.484  13.717  0.3811  0.1661 -0.2685
    3TCq1    C414377   0.372   0.354  13.708 -0.1437  0.0188  0.0904
    3TCq1    C514378   0.370   0.277  13.592 -0.4610  0.2236  0.1447
    3TCq1    C614379   0.426   0.345  13.490  0.1116  0.5488 -0.1826
    3TCq1    C714380   0.493   0.463  13.490 -0.5921 -0.4252 -0.5572
    3TCq1    C814381   0.396   0.301  13.357  0.0726 -0.1684 -0.4463
    3TCq1    O414382   0.488   0.302  13.278  0.0933 -0.4178 -0.4637
    3TCq1    C914383   0.284   0.302  13.810  0.0139  0.6623 -0.6790
    3TCq1    O514384   0.236   0.184  13.792  0.2852  0.5635 -0.5593
    3TCq1    O614385   0.258   0.376  13.905 -0.1356 -0.4094 -0.1664
    3TCq1    H114386   0.599   0.580  13.776  1.9316 -0.7554  0.6519
    3TCq1    H214387   0.400   0.542  13.807 -2.1191  0.5214 -0.9301
    3TCq1    H314388   0.333   0.176  13.576  0.8091 -0.1189 -0.6393
    3TCq1    H414389   0.550   0.491  13.403 -2.4855 -0.8869 -1.9355
    1MPD2     C14390   4.291   1.319  13.393 -0.2221 -0.0448  0.0610
    1MPD2    C114391   4.258   1.276  13.523 -0.1635  0.4042  0.0448
    1MPD2    C214392   4.356   1.225  13.603 -0.1416  0.0478  0.7553
    1MPD2    C314393   4.484   1.206  13.557 -0.0623  0.9002 -0.9225
    1MPD2    C414394   4.517   1.265  13.439 -0.1547  0.5675  0.4260
    1MPD2    C514395   4.424   1.319  13.353  0.2223  0.4028 -0.1100
    1MPD2     H14396   4.338   1.204  13.708  0.4836  0.8013  1.0099
    1MPD2    H114397   4.620   1.257  13.404  0.5700  0.0118  2.6693
    1MPD2    H214398   4.207   1.356  13.334  0.4030  0.0711 -0.7639
    1MPD2    H314399   4.443   1.369  13.258  0.6370 -1.7721 -1.1824
    1MPD2     N14400   4.587   1.147  13.640 -0.6060  0.3790 -0.1198
    1MPD2    H514401   4.681   1.160  13.603 -0.9502 -0.3253 -1.2291
    1MPD2    N114402   4.120   1.270  13.560 -0.6171 -0.5596  0.7574
    1MPD2    H714403   4.050   1.310  13.498 -1.1244 -1.6975  0.5858
    2TMC3    C114404   3.927   1.214  13.705 -0.7111 -0.4641 -0.2326
    2TMC3    C214405   3.892   1.118  13.783 -0.1966 -0.1832  0.1821
    2TMC3    C314406   3.822   1.155  13.896 -0.5768 -0.1982 -0.1427
    2TMC3    C414407   3.885   1.341  13.717  0.2392  0.3953 -0.5120
    2TMC3    C514408   3.792   1.364  13.814  0.5936 -0.9095  0.0153
    2TMC3    C614409   3.760   1.269  13.912 -0.2461 -0.5934 -1.0662
    2TMC3     C14410   4.070   1.205  13.676 -0.0033  0.8074 -0.3419
    2TMC3     O14411   4.125   1.128  13.756  0.3131  0.0065 -0.0800
    2TMC3     H14412   3.923   1.014  13.779 -0.2784 -0.2197  0.4651
    2TMC3    H114413   3.930   1.422  13.660  1.2775  0.8268  0.9133
    2TMC3    H214414   3.706   1.293  14.003  2.6844  3.1366 -0.3055
    2TMC3    C714415   3.799   1.496  13.870 -0.1618 -0.3005 -0.0259
    2TMC3    C814416   3.875   1.103  14.016 -0.3660  0.5837  0.3738
    2TMC3    O114417   3.888   1.514  13.949  0.0952 -0.0841 -0.1547
    2TMC3    O214418   3.815   1.138  14.120 -0.0122  0.7434  0.0677
    3TCq1    O114419   3.682   2.295  14.675  0.3158  0.2252  0.4236
    3TCq1    C114420   3.806   2.302  14.622 -0.1208 -0.1977 -0.3093
    3TCq1    O214421   3.880   2.398  14.647 -0.0936  0.1088 -0.4261
    3TCq1    C214422   3.835   2.175  14.555 -0.5102  0.0715 -0.3472
    3TCq1    C314423   3.966   2.125  14.561  0.0876 -0.6560 -0.2750
    3TCq1    C414424   4.009   2.025  14.474  0.0461  0.0249 -0.8920
    3TCq1    C514425   3.919   1.974  14.380  0.3758 -0.3652  0.4821
    3TCq1    C614426   3.800   2.039  14.365  0.2637  0.1544 -1.0580
    3TCq1    C714427   3.765   2.143  14.445 -0.3692  0.6812 -0.0424
    3TCq1    C814428   3.711   2.029  14.250  0.3167 -0.6611  0.4145
    3TCq1    O414429   3.610   2.102  14.236 -0.2834 -0.1724 -0.1368
    3TCq1    C914430   4.147   1.975  14.486  0.8120 -0.2887 -0.5419
    3TCq1    O514431   4.174   1.870  14.423  0.2306  0.7218  0.3684
    3TCq1    O614432   4.213   2.023  14.584  0.3448 -0.1644 -0.1215
    3TCq1    H114433   3.643   2.209  14.649  1.0403 -0.2493  0.8870
    3TCq1    H214434   4.027   2.164  14.642 -0.8692  0.4995 -0.1052
    3TCq1    H314435   3.952   1.890  14.321 -0.4791 -1.5360  1.6728
    3TCq1    H414436   3.678   2.204  14.426 -2.0758 -1.8626 -0.3743
    4MPD2     C14437   3.598   1.953  13.991 -0.5278  0.2660  0.2538
    4MPD2    C114438   3.689   1.873  14.057 -0.3386 -0.1590 -0.8370
    4MPD2    C214439   3.722   1.748  14.005  0.1418 -0.9155  0.0596
    4MPD2    C314440   3.662   1.698  13.889 -0.1107 -0.5583  0.0245
    4MPD2    C414441   3.560   1.777  13.838  0.6280 -0.4706 -0.7000
    4MPD2    C514442   3.536   1.904  13.874  0.2608  0.0545 -0.1662
    4MPD2     H14443   3.802   1.694  14.055 -0.4131 -0.8044  1.0693
    4MPD2    H114444   3.519   1.743  13.743  0.2058  1.4774 -1.2117
    4MPD2    H214445   3.585   2.057  14.018 -0.1136  1.0812 -2.6601
    4MPD2    H314446   3.459   1.968  13.832  0.9630  0.8764 -0.1919
    4MPD2     N14447   3.685   1.569  13.844  0.0754 -0.5118  0.2402
    4MPD2    H514448   3.620   1.529  13.777 -1.3133  3.7672 -0.9954
    4MPD2    N114449   3.747   1.920  14.178  0.0783 -0.6082  0.0347
    4MPD2    H714450   3.829   1.871  14.213  1.0237  0.7628 -0.2951
    5TMC2    C114451   4.687   1.050  14.076  0.3430 -0.5010 -0.4252
    5TMC2    C214452   0.017   1.167  14.088 -0.5823 -0.0199  0.2189
    5TMC2    C314453   0.056   1.229  13.976 -0.0678  0.3277 -0.2681
    5TMC2    C414454   4.663   1.000  13.952 -0.3536  0.5501 -0.2822
    5TMC2    C514455   4.698   1.069  13.839  0.1125  0.4017 -0.5565
    5TMC2    C614456   0.033   1.182  13.854  0.1108 -0.1341  0.0042
    5TMC2     C14457   4.578   1.038  14.171  0.1595 -0.1478 -0.2296
    5TMC2     O14458   4.598   1.069  14.287  0.0652 -0.1277 -0.4317
    5TMC2     H14459   0.033   1.211  14.186 -0.0588  2.0274 -0.7706
    5TMC2    H114460   4.620   0.900  13.947  1.1106 -0.1119  0.4097
    5TMC2    H214461   0.038   1.236  13.760 -2.8280 -0.4162 -0.3201
    5TMC2    C714462   4.572   1.083  13.760  0.1064  0.9177  0.0183
    5TMC2    C814463   0.154   1.338  13.990  0.6446 -0.0037 -0.1941
    5TMC2    O114464   4.470   1.049  13.815  0.2574  0.1894  0.0058
    5TMC2    O214465   0.184   1.402  13.891  0.2460 -0.8628  0.3448
    5TMC2    O514466   0.232   1.313  14.101 -1.1444  0.0273  0.0813
    5TMC2    H514467   0.199   1.234  14.149 -1.0752  0.3709  0.6981
    6MPD2     C14468   4.062   1.028  14.243 -0.2295 -0.1900  0.1876
    6MPD2    C114469   4.099   1.041  14.109  0.1497 -0.4897 -0.5696
    6MPD2    C214470   4.231   1.035  14.070 -0.5494  0.0278  0.4206
    6MPD2    C314471   4.331   1.031  14.161 -0.4169  0.3134 -0.2647
    6MPD2    C414472   4.307   1.029  14.298 -0.2502 -0.4141  0.4250
    6MPD2    C514473   4.168   1.020  14.329  0.2177 -0.1458  0.1709
    6MPD2     H14474   4.261   1.047  13.967  2.8320 -0.8981  1.2919
    6MPD2    H114475   4.386   1.019  14.372  0.2219  1.2078  0.1355
    6MPD2    H214476   3.959   1.030  14.276  0.0692  0.5213  1.0656
    6MPD2    H314477   4.140   1.027  14.434  0.7450 -0.4366  0.3335
    6MPD2     N14478   4.460   1.026  14.105  0.3432  0.1000 -0.7353
    6MPD2    H514479   4.463   1.038  14.004 -0.9684  1.4900 -0.6129
    6MPD2    N114480   4.002   1.057  14.011  0.4578 -0.1677  0.5879
    6MPD2    H714481   4.038   1.051  13.916  0.8878  0.3801  0.7173
  945NH4     N114482   3.685   2.142  17.173 -0.2348  0.2498  0.0695
  945NH4     H214483   3.607   2.151  17.240 -0.2904 -3.8088  0.5660
  945NH4     H314484   3.725   2.046  17.174 -0.0895  0.3434  2.6853
  945NH4     H414485   3.760   2.205  17.209  0.3099 -0.6751  0.5673
  945NH4     H514486   3.666   2.170  17.075  1.2753  2.5589  0.4498
  946SOD     NA14487   0.294   2.093  12.315  0.0828 -0.1557 -0.5839
  947SOD     NA14488   0.727   3.771  16.197  0.1605  0.0186  0.0211
  948SOD     NA14489   4.213   1.960  14.797  0.1775 -0.1457 -0.1042
  949SOD     NA14490   1.690   3.102  16.533  0.2865 -0.0105 -0.0141
  950SOD     NA14491   2.812   4.413   6.033 -0.4171 -0.3295  0.0777
  951SOD     NA14492   2.320   4.061   9.274 -0.1788 -0.6756 -0.0058
  952SOD     NA14493   3.927   0.664   8.389  0.4979 -0.5241  0.5352
  953SOL     OW14494   3.360   4.362   0.135  0.2753 -0.5389 -0.8293
  953SOL    HW114495   3.449   4.394   0.151  0.6021 -2.1555  0.5181
  953SOL    HW214496   3.334   4.335   0.223  0.1863  1.7711 -0.1552
  954SOL     OW14497   2.688   0.120   6.010 -0.5429 -0.2680 -0.3039
  954SOL    HW114498   2.758   0.108   6.074  0.1743  1.0645 -0.8471
  954SOL    HW214499   2.620   0.161   6.063 -1.1810  0.4192 -1.6638
  955SOL     OW14500   2.460   2.027   0.698  0.0251  0.7340 -0.4737
  955SOL    HW114501   2.474   2.113   0.660  0.3263  0.4273 -1.0436
  955SOL    HW214502   2.535   2.014   0.756 -0.3137  0.9698  0.0266
  956SOL     OW14503   1.831   1.756  13.336  0.3678  0.2114 -0.1122
  956SOL    HW114504   1.781   1.785  13.412  0.4403  2.9188 -1.1081
  956SOL    HW214505   1.876   1.838  13.315  0.9342  0.0493  0.4633
  957SOL     OW14506   2.796   4.346   9.447 -0.1574  0.2857 -0.4927
  957SOL    HW114507   2.813   4.415   9.383 -0.8672  1.7231  0.8682
  957SOL    HW214508   2.749   4.390   9.518 -1.0929 -0.8886 -0.3887
  958SOL     OW14509   4.147   2.121  15.478  0.2496 -0.1167 -0.1392
  958SOL    HW114510   4.061   2.161  15.464 -0.9831 -2.8255 -0.2043
  958SOL    HW214511   4.131   2.058  15.548  0.1136  0.3680  0.2693
  959SOL     OW14512   2.761   1.371   6.289 -0.4705 -0.9408 -0.1414
  959SOL    HW114513   2.679   1.416   6.311 -2.3487 -3.8403 -1.2938
  959SOL    HW214514   2.746   1.358   6.195 -0.4448  0.7922 -0.3930
  960SOL     OW14515   1.745   0.167   2.336  0.5244 -0.2531 -0.0066
  960SOL    HW114516   1.784   0.149   2.251  1.0425 -2.9263  0.7994
  960SOL    HW214517   1.811   0.136   2.397  1.2671  0.4391 -0.4659
  961SOL     OW14518   1.537   0.773   2.736  0.0351 -0.3369  0.2929
  961SOL    HW114519   1.580   0.797   2.655 -1.7120  0.2246 -0.4628
  961SOL    HW214520   1.482   0.700   2.707 -0.2120  0.4248 -1.1199
  962SOL     OW14521   0.148   0.825   6.210 -0.3690 -0.2167 -0.3414
  962SOL    HW114522   0.200   0.799   6.134  3.4098  1.8370  1.4974
  962SOL    HW214523   0.188   0.771   6.279 -1.4787  1.4767  1.6423
  963SOL     OW14524   3.708   3.469   8.080  0.1102 -0.1318 -0.0074
  963SOL    HW114525   3.797   3.438   8.099 -0.7714 -0.7276  3.1332
  963SOL    HW214526   3.673   3.498   8.164  0.4822 -1.2806  0.5535
  964SOL     OW14527   0.516   0.713   3.498 -0.0843 -0.0013 -0.0292
  964SOL    HW114528   0.442   0.741   3.444 -1.2197 -1.5459  0.7123
  964SOL    HW214529   0.568   0.668   3.432  0.1382  0.2389 -0.0163
  965SOL     OW14530   1.781   4.545   4.167 -0.1168 -0.1748  0.3016
  965SOL    HW114531   1.822   4.507   4.244 -2.1902  1.6561  2.3050
  965SOL    HW214532   1.844   4.615   4.150  0.1280 -0.2484  0.9309
  966SOL     OW14533   0.521   0.800   2.662  0.2960  0.2117  0.2741
  966SOL    HW114534   0.547   0.801   2.570  1.0286  2.3296  0.4996
  966SOL    HW214535   0.549   0.714   2.695 -1.5659 -0.3448  0.4151
  967SOL     OW14536   4.367   4.102   6.412 -0.4285 -0.0658  0.0852
  967SOL    HW114537   4.453   4.068   6.441 -1.3142 -1.0061  1.6398
  967SOL    HW214538   4.332   4.023   6.371  0.3963  0.4919 -1.7111
  968SOL     OW14539   2.158   3.043   9.589  0.0203 -0.1694 -0.2589
  968SOL    HW114540   2.212   2.977   9.633  2.2863  2.0327  0.2444
  968SOL    HW214541   2.156   3.111   9.657 -0.1714 -1.3697  0.9352
  969SOL     OW14542   0.280   3.885   2.524  0.3439  0.3879  0.4278
  969SOL    HW114543   0.342   3.867   2.453 -0.7259  0.7769 -0.6013
  969SOL    HW214544   0.194   3.887   2.482  1.0414 -1.7837 -1.0936
  970SOL     OW14545   4.172   0.461   5.360 -0.0455 -0.3328  0.4648
  970SOL    HW114546   4.261   0.484   5.333 -0.2067  0.2325  0.4173
  970SOL    HW214547   4.149   0.540   5.408 -2.0907 -0.5964 -0.0989
  971SOL     OW14548   3.464   0.623   8.308  0.2316 -0.3648  0.4029
  971SOL    HW114549   3.503   0.708   8.329 -0.6961 -0.1685  1.3415
  971SOL    HW214550   3.405   0.609   8.382 -2.8558 -1.7813 -2.2988
  972SOL     OW14551   3.887   2.162  10.299 -0.1080 -0.1266  0.5078
  972SOL    HW114552   3.796   2.154  10.330 -0.1519  0.1613  0.4574
  972SOL    HW214553   3.867   2.144  10.207  0.2245  0.8499  0.2462
  973SOL     OW14554   3.915   1.894   2.165  0.0279  0.2205 -0.3597
  973SOL    HW114555   3.983   1.828   2.176 -0.4525 -0.5129 -1.6349
  973SOL    HW214556   3.922   1.907   2.070  0.2976 -0.7882 -0.4808
  974SOL     OW14557   1.725   3.678  16.672 -0.0075 -0.1895 -0.0445
  974SOL    HW114558   1.732   3.646  16.762  0.4965  0.0290 -0.0051
  974SOL    HW214559   1.792   3.633  16.621  2.3220  2.4486  0.6618
  975SOL     OW14560   4.644   1.004   2.230 -0.4265 -0.3881 -0.0169
  975SOL    HW114561   4.572   0.944   2.249 -0.8898  0.2188  0.1266
  975SOL    HW214562   4.683   0.959   2.155 -0.1199  0.9152 -0.6515
  976SOL     OW14563   4.401   3.753   3.565 -0.0033 -0.2892  0.3245
  976SOL    HW114564   4.361   3.733   3.480 -0.0142  0.6512  0.1049
  976SOL    HW214565   4.459   3.827   3.546 -0.8967  0.0245 -1.1128
  977SOL     OW14566   1.640   0.845   2.461 -0.3305 -0.4738 -0.3750
  977SOL    HW114567   1.721   0.894   2.446  0.2024 -1.8706 -2.1084
  977SOL    HW214568   1.596   0.853   2.376  0.0822 -1.4900 -0.6813
  978SOL     OW14569   1.326   0.997   2.631  0.2838  0.3625 -0.0133
  978SOL    HW114570   1.403   1.033   2.586  0.6489 -0.6791 -0.2277
  978SOL    HW214571   1.285   0.948   2.560 -3.1219  0.5216  1.8382
  979SOL     OW14572   4.075   3.727   6.191 -0.1529 -0.3280 -0.2196
  979SOL    HW114573   4.066   3.757   6.100  0.7846  0.3327 -0.1040
  979SOL    HW214574   4.060   3.634   6.174 -0.2563 -0.9137  3.1766
  980SOL     OW14575   4.473   1.838   4.426  0.0428  0.0047  0.3994
  980SOL    HW114576   4.566   1.840   4.450 -0.2947 -2.6447  1.8792
  980SOL    HW214577   4.465   1.767   4.363  0.9825 -1.2676  1.7179
  981SOL     OW14578   1.425   0.686  12.661 -0.0224 -0.0630 -0.0350
  981SOL    HW114579   1.408   0.725  12.747  0.5972 -0.7943  0.4220
  981SOL    HW214580   1.460   0.601  12.688  2.2284  1.0393  0.5459
  982SOL     OW14581   1.324   3.607  12.001  0.2991  0.1990  0.6968
  982SOL    HW114582   1.299   3.672  12.066  0.0602  0.9539 -0.1631
  982SOL    HW214583   1.364   3.658  11.931  0.3851 -0.5166  0.2156
  983SOL     OW14584   1.969   0.076   0.334  0.3144  0.1419 -0.2203
  983SOL    HW114585   1.941   0.087   0.425 -1.7618 -0.3825 -0.7841
  983SOL    HW214586   2.028   0.001   0.340  1.4150  1.0330  0.0846
  984SOL     OW14587   1.215   0.364   1.756  0.2198 -0.8217 -0.1754
  984SOL    HW114588   1.307   0.338   1.749  0.6342 -0.3179  3.3855
  984SOL    HW214589   1.225   0.459   1.749  0.2979 -0.8853 -0.9839
  985SOL     OW14590   1.313   0.553   2.315 -0.0863  0.7927 -0.4356
  985SOL    HW114591   1.342   0.479   2.368 -1.7136  0.7685  0.4131
  985SOL    HW214592   1.346   0.542   2.226 -0.3898  1.4793 -0.6321
  986SOL     OW14593   3.867   1.427   2.905 -0.3106 -0.4746 -0.5243
  986SOL    HW114594   3.874   1.345   2.858  0.0791  0.1399 -1.5309
  986SOL    HW214595   3.797   1.401   2.966 -0.4461  0.7985 -0.1204
  987SOL     OW14596   0.691   1.030   4.422 -0.5076  0.2245 -0.2195
  987SOL    HW114597   0.642   1.063   4.497 -1.0476 -1.4625  0.1839
  987SOL    HW214598   0.666   0.937   4.425  1.3911 -0.2805  0.4605
  988SOL     OW14599   2.202   2.854  11.748 -0.1331  0.4744  0.3499
  988SOL    HW114600   2.222   2.900  11.667 -2.6041 -0.8403 -0.9981
  988SOL    HW214601   2.108   2.870  11.747 -0.4293 -1.5272 -1.3553
  989SOL     OW14602   1.036   1.561  15.228 -0.2054  0.6821 -0.6973
  989SOL    HW114603   1.037   1.526  15.139 -3.2983 -1.6599  0.1985
  989SOL    HW214604   0.948   1.535  15.256  0.0413 -0.9161 -1.3677
  990SOL     OW14605   4.665   4.723   8.440 -0.4324 -0.6771 -0.0730
  990SOL    HW114606   4.689   4.708   8.532  0.3655 -1.2333 -0.3745
  990SOL    HW214607   4.638   0.076   8.440  1.5807 -0.0852 -0.0776
  991SOL     OW14608   1.302   3.460  16.181  0.1897 -0.4065  0.3982
  991SOL    HW114609   1.236   3.420  16.236  0.0836 -0.0473  0.5304
  991SOL    HW214610   1.377   3.416  16.222 -0.2909 -1.1501  0.4866
  992SOL     OW14611   2.512   3.437  17.187 -0.0313  0.3819  0.0833
  992SOL    HW114612   2.464   3.520  17.183  1.3748  1.2262  0.8271
  992SOL    HW214613   2.596   3.478  17.167 -0.1960 -0.8191 -3.1063
  993SOL     OW14614   0.631   2.416   7.781 -0.5067  0.0896 -0.4071
  993SOL    HW114615   0.634   2.506   7.750 -1.6493  0.3482  0.1977
  993SOL    HW214616   0.716   2.413   7.825 -0.6163 -0.6150 -0.2381
  994SOL     OW14617   0.017   1.454   6.797  0.0390 -0.6908  0.5077
  994SOL    HW114618   4.725   1.370   6.833 -2.0153 -0.3908 -0.5927
  994SOL    HW214619   0.012   1.515   6.871  2.9137  0.7532 -0.5107
  995SOL     OW14620   1.487   0.312   1.757 -0.2613 -0.6409  0.4602
  995SOL    HW114621   1.520   0.223   1.751  3.2167  0.5833  1.1572
  995SOL    HW214622   1.559   0.358   1.800 -1.5913 -0.3168  2.3683
  996SOL     OW14623   0.347   0.951   3.239  0.0317 -0.2810  0.2195
  996SOL    HW114624   0.403   0.971   3.164  0.6445  0.9946  1.0319
  996SOL    HW214625   0.338   0.855   3.236  1.0687 -0.4320  1.7723
  997SOL     OW14626   2.015   1.986  14.773  0.0714  0.0236  0.0211
  997SOL    HW114627   1.990   2.043  14.700 -1.1771  0.3488  0.7135
  997SOL    HW214628   2.098   1.950  14.741  1.0228  3.1098 -0.9797
  998SOL     OW14629   0.343   0.240  15.706  0.3461 -0.0638 -0.1817
  998SOL    HW114630   0.261   0.218  15.663  1.2301  0.8133 -2.3364
  998SOL    HW214631   0.406   0.187  15.657  0.1077 -1.4773  1.0384
  999SOL     OW14632   4.244   1.744  17.566  0.3843 -0.3423 -0.1707
  999SOL    HW114633   4.330   1.751  17.525 -0.3040 -1.2451 -1.7506
  999SOL    HW214634   4.256   1.668  17.623  0.5263 -1.0021 -1.0849
 1000SOL     OW14635   0.147   3.118  10.182 -0.0983 -0.3701 -0.2027
 1000SOL    HW114636   0.149   3.162  10.267  2.2397 -2.3846  0.8087
 1000SOL    HW214637   0.146   3.191  10.120 -2.5248  2.8724  3.6710
 1001SOL     OW14638   2.410   4.580   6.842 -0.3202  0.0767  0.3761
 1001SOL    HW114639   2.455   4.533   6.911  1.5009  0.5297 -0.5088
 1001SOL    HW214640   2.481   4.608   6.785 -2.3164  2.0209 -1.1744
 1002SOL     OW14641   0.075   1.772   8.158 -0.3326 -0.2150 -0.1919
 1002SOL    HW114642   0.116   1.703   8.210 -0.5752 -0.9860 -1.0261
 1002SOL    HW214643   0.140   1.839   8.180 -0.0770 -0.7185  0.5767
 1003SOL     OW14644   2.817   3.658  16.809 -0.6686 -0.4478  0.0014
 1003SOL    HW114645   2.796   3.728  16.747  0.9060 -0.5848 -0.7020
 1003SOL    HW214646   2.752   3.670  16.878  0.0318 -1.0494  0.7626
 1004SOL     OW14647   4.636   3.338  17.192 -0.3435 -0.0386  0.2071
 1004SOL    HW114648   4.636   3.242  17.198  0.6159 -0.2186 -2.3360
 1004SOL    HW214649   4.684   3.356  17.273  2.0650  0.7877 -1.3943
 1005SOL     OW14650   1.363   4.661   6.311  0.7286  0.0434  0.0390
 1005SOL    HW114651   1.385   4.606   6.387 -1.0005 -1.2279 -0.3633
 1005SOL    HW214652   1.424   4.632   6.243  0.0165  2.1511 -1.4942
 1006SOL     OW14653   4.206   3.976   9.556  0.1924 -0.2636 -0.1898
 1006SOL    HW114654   4.137   3.955   9.493  0.6304  0.8386 -1.0371
 1006SOL    HW214655   4.153   3.952   9.632 -0.1409  1.2866  0.0642
 1007SOL     OW14656   3.480   2.681  15.903 -0.1842  0.2723 -0.8922
 1007SOL    HW114657   3.386   2.689  15.920 -0.4549 -2.6585 -1.1064
 1007SOL    HW214658   3.486   2.660  15.810 -2.5268  0.1533 -1.0123
 1008SOL     OW14659   0.437   2.863   5.562  0.2004 -0.4626  0.8351
 1008SOL    HW114660   0.448   2.923   5.488 -1.5621  1.0048  1.7665
 1008SOL    HW214661   0.379   2.919   5.613  2.5099 -0.3437  3.3201
 1009SOL     OW14662   3.715   2.348  16.215 -0.4303  0.0684  0.1237
 1009SOL    HW114663   3.744   2.424  16.163 -0.9722  0.2595  0.0997
 1009SOL    HW214664   3.636   2.318  16.169 -0.6274 -1.2250  1.3398
 1010SOL     OW14665   1.797   3.170   4.855 -0.7395 -0.8305  0.3755
 1010SOL    HW114666   1.725   3.108   4.845 -0.2095 -1.2074 -1.1160
 1010SOL    HW214667   1.863   3.121   4.905  0.1798 -0.4704 -0.4861
 1011SOL     OW14668   3.178   2.128   2.180  0.3782 -0.3191  0.0260
 1011SOL    HW114669   3.233   2.196   2.218  0.8691 -0.8084  0.2006
 1011SOL    HW214670   3.144   2.090   2.261 -0.6503  0.0863 -0.2142
 1012SOL     OW14671   0.980   1.126  17.007  0.3341  0.5490  0.0535
 1012SOL    HW114672   1.074   1.113  16.992  0.2687  0.5314 -0.3360
 1012SOL    HW214673   0.976   1.199  17.069 -0.3446  2.6109 -2.4036
 1013SOL     OW14674   2.049   2.075  10.117  0.5073 -0.4417 -0.0868
 1013SOL    HW114675   2.115   2.014  10.150  0.4918 -0.4688 -0.1055
 1013SOL    HW214676   1.964   2.036  10.137 -0.5257  2.2259  0.6860
 1014SOL     OW14677   2.924   2.036   8.061  0.1746  0.4057  0.1021
 1014SOL    HW114678   2.991   2.071   8.001 -2.4902  0.7504 -2.6531
 1014SOL    HW214679   2.982   2.030   8.136 -1.4847  1.7264  1.4839
 1015SOL     OW14680   3.360   1.701  11.157  0.4203 -0.0460 -0.0551
 1015SOL    HW114681   3.339   1.639  11.227 -0.3485 -0.0512 -0.2924
 1015SOL    HW214682   3.449   1.727  11.183 -0.8220  2.6547  1.4389
 1016SOL     OW14683   3.743   1.488   8.817 -0.2019  0.3986 -0.2234
 1016SOL    HW114684   3.717   1.462   8.906 -2.4508  0.8864 -0.7398
 1016SOL    HW214685   3.743   1.584   8.825  0.5782  0.5759 -2.2669
 1017SOL     OW14686   2.411   3.001  10.405  0.0224 -0.5683  0.3410
 1017SOL    HW114687   2.331   3.051  10.421 -1.2333 -1.4145 -3.3038
 1017SOL    HW214688   2.478   3.047  10.455  0.2774 -0.9149  0.3141
 1018SOL     OW14689   4.398   3.040   8.250  0.3551  0.0860 -0.5097
 1018SOL    HW114690   4.304   3.029   8.262  0.2906  0.8067 -0.3347
 1018SOL    HW214691   4.408   3.107   8.317 -0.0135  0.5963 -0.9550
 1019SOL     OW14692   2.550   4.520   7.449 -0.4232 -0.1134  0.2316
 1019SOL    HW114693   2.518   4.559   7.368  1.4463  2.1968  0.6062
 1019SOL    HW214694   2.547   4.590   7.514  3.2796  1.5480 -1.4281
 1020SOL     OW14695   4.502   2.454  14.728  0.2539  0.1040  0.1152
 1020SOL    HW114696   4.587   2.437  14.688  0.1966 -0.7127  0.3405
 1020SOL    HW214697   4.461   2.369  14.712  0.9893  0.3276 -2.9260
 1021SOL     OW14698   3.451   3.218  14.963 -0.1358 -0.5352 -0.3884
 1021SOL    HW114699   3.408   3.180  14.887 -0.0813  1.8237 -1.5788
 1021SOL    HW214700   3.463   3.308  14.932 -0.0414 -0.7159 -0.8795
 1022SOL     OW14701   2.864   1.685   3.293 -0.0950 -0.4908  0.0538
 1022SOL    HW114702   2.786   1.689   3.237 -0.0247  0.8286  0.0667
 1022SOL    HW214703   2.920   1.648   3.225 -0.2167  2.8031 -1.7876
 1023SOL     OW14704   3.314   1.273   5.462  0.3145  0.8084  0.4732
 1023SOL    HW114705   3.406   1.295   5.473 -0.3321  4.0228 -0.4977
 1023SOL    HW214706   3.299   1.225   5.543  2.5747  0.9784  0.9856
 1024SOL     OW14707   0.794   4.612  14.463 -0.0107  0.2740  0.6302
 1024SOL    HW114708   0.776   4.518  14.464 -1.3546  0.5453  0.8835
 1024SOL    HW214709   0.863   4.632  14.526 -0.3649 -1.6619  1.6279
 1025SOL     OW14710   4.503   0.350   0.510 -0.0993  0.5533 -0.5358
 1025SOL    HW114711   4.418   0.314   0.484 -1.0059  2.2977  0.0650
 1025SOL    HW214712   4.554   0.287   0.458 -2.6147 -1.2068 -0.8635
 1026SOL     OW14713   3.877   1.486   1.525  0.0406  0.1575  0.4155
 1026SOL    HW114714   3.919   1.400   1.529  0.2816  0.2563  0.0315
 1026SOL    HW214715   3.814   1.468   1.455 -1.4211  2.8776  1.0534
 1027SOL     OW14716   3.205   1.474  14.909  0.8521 -0.6043 -0.4466
 1027SOL    HW114717   3.249   1.390  14.896  0.4803 -1.0054  0.8589
 1027SOL    HW214718   3.163   1.483  14.823 -1.2462 -1.8482  0.4469
 1028SOL     OW14719   1.558   3.756   7.291 -0.7240 -0.1560  0.1640
 1028SOL    HW114720   1.535   3.687   7.229  2.2434  0.0963 -1.1940
 1028SOL    HW214721   1.582   3.701   7.365  3.2455  0.3167 -0.7593
 1029SOL     OW14722   3.553   2.564   4.778 -0.1518 -0.3587 -0.0294
 1029SOL    HW114723   3.516   2.583   4.692 -0.5989  1.2543  0.5148
 1029SOL    HW214724   3.644   2.589   4.768 -0.7964  1.3592 -1.5417
 1030SOL     OW14725   3.401   4.552   1.732  0.4636  0.1296  0.0662
 1030SOL    HW114726   3.359   4.545   1.818 -0.6999  0.0644 -0.5167
 1030SOL    HW214727   3.492   4.571   1.756  0.0210  0.8779  1.1555
 1031SOL     OW14728   3.585   1.384   8.052 -0.6447  0.4253  0.2249
 1031SOL    HW114729   3.680   1.393   8.062 -0.6823  1.8638 -0.6836
 1031SOL    HW214730   3.568   1.473   8.080  0.5868  0.9478 -0.6872
 1032SOL     OW14731   4.072   1.459   3.625 -0.2667 -0.3045  0.4125
 1032SOL    HW114732   4.105   1.511   3.551 -1.6892 -0.4559 -0.3453
 1032SOL    HW214733   4.104   1.504   3.703 -0.9259 -0.5726  0.8371
 1033SOL     OW14734   0.758   0.209  14.580  0.6124  0.0475  0.2957
 1033SOL    HW114735   0.791   0.298  14.575  2.8452 -0.6852  2.1938
 1033SOL    HW214736   0.817   0.177  14.511  1.2541  0.7338  0.5310
 1034SOL     OW14737   2.176   2.346   9.782  0.5431  0.2021 -0.6047
 1034SOL    HW114738   2.127   2.264   9.785  0.5553  0.1120 -2.8265
 1034SOL    HW214739   2.268   2.324   9.769  0.2719  0.7222 -3.3875
 1035SOL     OW14740   0.056   4.119   5.733  0.0650 -0.2392 -0.2093
 1035SOL    HW114741   0.099   4.035   5.746  2.3260  0.7077 -1.5451
 1035SOL    HW214742   4.709   4.084   5.757 -0.6324  0.9847 -0.8980
 1036SOL     OW14743   3.734   0.945   1.935  0.3539  0.3296 -0.4553
 1036SOL    HW114744   3.648   0.945   1.976  0.4052 -0.3831 -0.3383
 1036SOL    HW214745   3.715   0.979   1.848 -3.9430  0.8128  0.6909
 1037SOL     OW14746   4.611   1.977   2.367 -0.6350  0.2625  0.2054
 1037SOL    HW114747   4.605   2.072   2.360 -3.2422 -0.0409 -1.8714
 1037SOL    HW214748   4.519   1.952   2.379 -0.1258 -1.2617  0.9976
 1038SOL     OW14749   1.874   0.602  12.671 -0.4312  0.0239  0.3776
 1038SOL    HW114750   1.937   0.567  12.608  1.7629  1.6715  1.6509
 1038SOL    HW214751   1.903   0.692  12.657  1.4545 -0.5478  0.5338
 1039SOL     OW14752   1.679   4.245  15.701 -0.0061 -0.5362  0.3485
 1039SOL    HW114753   1.754   4.210  15.652 -0.3882  0.2320 -0.7869
 1039SOL    HW214754   1.717   4.329  15.727  0.1712 -0.8768  1.1823
 1040SOL     OW14755   2.812   2.047   5.065 -0.2407 -0.0136  0.4357
 1040SOL    HW114756   2.857   1.968   5.094  0.6120 -0.0219 -0.8838
 1040SOL    HW214757   2.776   2.013   4.982  0.5965  0.4270 -0.1133
 1041SOL     OW14758   2.036   3.422   3.889  0.4494 -0.3961 -0.1637
 1041SOL    HW114759   2.099   3.370   3.839  1.0482  1.3562 -1.2173
 1041SOL    HW214760   2.054   3.507   3.849  1.7187 -1.4566 -1.8275
 1042SOL     OW14761   1.674   2.312   5.015  0.4386 -0.2673  0.3466
 1042SOL    HW114762   1.637   2.400   5.028 -0.6501 -0.9263  1.7341
 1042SOL    HW214763   1.618   2.268   5.079  2.0820  1.1716  2.7534
 1043SOL     OW14764   3.967   1.564  16.885  0.1582 -0.2288 -0.3408
 1043SOL    HW114765   4.037   1.608  16.837  0.2912  0.6860  0.7070
 1043SOL    HW214766   3.987   1.471  16.868  0.1703 -0.2802 -0.0366
 1044SOL     OW14767   1.445   2.746   6.850  0.5660  0.5084 -0.4725
 1044SOL    HW114768   1.378   2.798   6.806 -0.3058  2.9798  3.7081
 1044SOL    HW214769   1.393   2.705   6.920  0.3903 -0.6121 -1.2463
 1045SOL     OW14770   3.074   3.016   6.635  0.5778  0.0175  0.1194
 1045SOL    HW114771   3.095   2.925   6.614 -0.1867 -0.3299  0.8412
 1045SOL    HW214772   2.994   2.997   6.685  0.7609 -0.8359  0.0950
 1046SOL     OW14773   2.594   4.397   8.427  0.4263 -0.4724 -0.4511
 1046SOL    HW114774   2.662   4.330   8.425  0.1323 -0.8332  2.4958
 1046SOL    HW214775   2.649   4.475   8.414 -0.4298 -0.2946 -3.0796
 1047SOL     OW14776   1.684   0.639  13.257 -0.0850  0.1703  0.1967
 1047SOL    HW114777   1.618   0.695  13.217 -0.5268 -1.0962 -0.8352
 1047SOL    HW214778   1.762   0.651  13.203 -1.1588 -0.1459 -1.4333
 1048SOL     OW14779   2.664   3.475   0.148  0.2579 -0.5090  0.3210
 1048SOL    HW114780   2.624   3.444   0.230 -2.4950 -2.2191 -1.6528
 1048SOL    HW214781   2.756   3.454   0.163  0.8482  1.1018 -1.0158
 1049SOL     OW14782   2.680   1.627   4.511 -0.3976  0.3627 -0.0714
 1049SOL    HW114783   2.685   1.677   4.430  0.0672  2.4954  1.2733
 1049SOL    HW214784   2.585   1.628   4.519 -0.4129  1.1845 -0.3447
 1050SOL     OW14785   0.677   1.913   5.115  0.1127 -0.3199  0.2831
 1050SOL    HW114786   0.759   1.901   5.163  0.4584  2.0077  0.2447
 1050SOL    HW214787   0.626   1.833   5.132  0.7554 -0.7940 -0.0056
 1051SOL     OW14788   3.120   4.681  12.987  0.4144  0.5462  0.1360
 1051SOL    HW114789   3.060   4.668  12.913 -0.8569  1.5361  1.0029
 1051SOL    HW214790   3.066   4.723  13.053  0.3721 -0.1646  0.5567
 1052SOL     OW14791   2.809   1.999  12.620 -0.0748  0.0256 -0.2548
 1052SOL    HW114792   2.742   1.931  12.623 -0.9207  0.9047  0.6938
 1052SOL    HW214793   2.760   2.068  12.574 -0.0865  0.6889  0.7542
 1053SOL     OW14794   2.989   0.946   8.235 -0.2571  0.3383  0.5132
 1053SOL    HW114795   2.951   0.917   8.318 -1.8619  0.6843 -0.0953
 1053SOL    HW214796   2.982   0.866   8.183 -0.2279  1.4376 -1.1689
 1054SOL     OW14797   2.655   4.651   6.702 -0.0690 -0.4915 -0.0569
 1054SOL    HW114798   2.719   4.579   6.697  0.9102  0.2520  1.5880
 1054SOL    HW214799   2.710   4.729   6.697 -1.3587  0.5014  1.4459
 1055SOL     OW14800   0.523   2.788   2.565 -0.0510  0.1068 -0.3573
 1055SOL    HW114801   0.585   2.719   2.585  0.1084  0.1360 -0.7519
 1055SOL    HW214802   0.512   2.814   2.656  1.0798  0.9774 -0.4690
 1056SOL     OW14803   0.442   3.913  16.789 -0.5492  0.3959  0.2610
 1056SOL    HW114804   0.451   3.992  16.841  1.3614 -0.0662  0.6129
 1056SOL    HW214805   0.386   3.860  16.846 -1.6868 -0.3764 -1.5826
 1057SOL     OW14806   3.191   2.046  16.420 -0.2054  0.2312  0.4128
 1057SOL    HW114807   3.102   2.066  16.449 -1.2103 -1.4780 -1.5119
 1057SOL    HW214808   3.232   2.033  16.506 -1.1097 -0.4870  0.7309
 1058SOL     OW14809   4.526   0.566   7.228  0.2665  0.2653  0.1826
 1058SOL    HW114810   4.545   0.610   7.311  0.9690  0.2904  0.0088
 1058SOL    HW214811   4.527   0.638   7.165 -0.7125 -0.8945 -1.1552
 1059SOL     OW14812   0.898   3.244  14.430  0.1228 -0.0942  0.8117
 1059SOL    HW114813   0.909   3.201  14.345 -2.3891  3.8821 -1.4604
 1059SOL    HW214814   0.989   3.235  14.460  0.9183  1.0246 -1.2678
 1060SOL     OW14815   3.681   2.965   5.470  0.4853  0.1906  0.1662
 1060SOL    HW114816   3.698   3.059   5.478  1.6345 -0.0413  0.3865
 1060SOL    HW214817   3.756   2.950   5.412  0.2065  2.0232 -0.6875
 1061SOL     OW14818   2.954   4.567  12.686 -0.0545 -0.6158 -0.6201
 1061SOL    HW114819   2.910   4.514  12.620 -2.4417  1.9032 -1.0410
 1061SOL    HW214820   2.969   4.509  12.761 -2.3019 -2.0299 -1.2848
 1062SOL     OW14821   1.416   1.060  14.921  0.0080  0.4416 -0.4352
 1062SOL    HW114822   1.491   1.079  14.977  1.8377 -0.1954 -2.6651
 1062SOL    HW214823   1.456   0.992  14.867 -1.8384 -0.3365 -0.8389
 1063SOL     OW14824   1.813   0.779   2.940 -0.0618 -0.4362 -0.5273
 1063SOL    HW114825   1.839   0.764   2.849 -2.1960 -0.4950 -1.1316
 1063SOL    HW214826   1.879   0.839   2.975 -1.6868  0.3669  1.1745
 1064SOL     OW14827   2.341   1.361   6.409 -0.3816  0.3537  0.1020
 1064SOL    HW114828   2.343   1.376   6.504 -1.3358  3.1042 -0.3183
 1064SOL    HW214829   2.417   1.413   6.382 -0.3868  0.9705  1.2727
 1065SOL     OW14830   3.281   1.225   4.364 -0.0881 -0.0063 -0.4376
 1065SOL    HW114831   3.370   1.260   4.376  0.0039  0.0556 -1.3031
 1065SOL    HW214832   3.280   1.206   4.271  0.0805  0.3570 -0.5156
 1066SOL     OW14833   3.274   2.679   1.646 -0.0358 -0.3350 -0.3858
 1066SOL    HW114834   3.291   2.587   1.669 -0.0028  0.2735  1.9955
 1066SOL    HW214835   3.203   2.667   1.582 -1.3553  0.2975  0.9557
 1067SOL     OW14836   0.837   0.081   1.692  0.8061  0.0005  0.1098
 1067SOL    HW114837   0.854   0.099   1.600  0.4597 -0.3954 -0.0341
 1067SOL    HW214838   0.821   4.726   1.678  1.5437 -0.1293  0.1824
 1068SOL     OW14839   3.533   4.426   5.594  0.1329 -0.6921 -0.1999
 1068SOL    HW114840   3.516   4.490   5.525 -3.1375  0.7017  1.8983
 1068SOL    HW214841   3.539   4.489   5.665  0.5341 -0.0287 -0.8318
 1069SOL     OW14842   4.363   3.649   7.959  0.5641  0.1495 -0.2198
 1069SOL    HW114843   4.359   3.554   7.960 -0.8325  0.2170  0.8498
 1069SOL    HW214844   4.277   3.662   7.919  1.1779 -0.0330 -1.6093
 1070SOL     OW14845   3.762   1.916   5.654 -0.2540  0.9444  0.4618
 1070SOL    HW114846   3.837   1.962   5.690 -0.2924  1.1671  0.2536
 1070SOL    HW214847   3.809   1.867   5.587 -0.9669 -0.3462  0.8935
 1071SOL     OW14848   3.096   3.223   8.183  0.3763  0.0754  0.3970
 1071SOL    HW114849   3.125   3.302   8.229  2.8769  0.8049 -2.4882
 1071SOL    HW214850   3.174   3.195   8.135 -1.6661  0.0474 -2.8831
 1072SOL     OW14851   1.681   3.392   4.418 -0.4899 -0.7251  0.4583
 1072SOL    HW114852   1.592   3.358   4.407 -1.0791  0.9990 -0.1188
 1072SOL    HW214853   1.659   3.485   4.430  1.1792 -0.3711  0.7606
 1073SOL     OW14854   3.517   3.059  15.148  0.1256  0.4117 -0.1836
 1073SOL    HW114855   3.546   3.113  15.221  0.5672 -0.1387  0.0469
 1073SOL    HW214856   3.506   3.126  15.081  1.0757  1.0668  0.3159
 1074SOL     OW14857   0.690   4.265   9.183  0.2214 -0.1646 -0.0706
 1074SOL    HW114858   0.697   4.214   9.263  2.1397 -0.7424 -0.5843
 1074SOL    HW214859   0.611   4.236   9.139 -0.1649 -2.0630  1.9281
 1075SOL     OW14860   1.179   1.782   6.901  0.2390  0.0918  0.0753
 1075SOL    HW114861   1.091   1.749   6.920 -0.5253  1.6251 -0.7990
 1075SOL    HW214862   1.200   1.721   6.830 -1.0716 -0.8821  0.5227
 1076SOL     OW14863   0.324   2.039   2.727  0.3208  0.1006 -0.2746
 1076SOL    HW114864   0.345   1.948   2.746  0.5357 -0.1972 -1.9335
 1076SOL    HW214865   0.277   2.066   2.806  1.1055  0.6059  0.0195
 1077SOL     OW14866   3.522   0.197   5.435 -0.1593 -0.7490 -0.1503
 1077SOL    HW114867   3.587   0.195   5.505 -0.8421 -0.0832  0.4915
 1077SOL    HW214868   3.574   0.172   5.359  0.6518  0.1241  0.1265
 1078SOL     OW14869   2.036   3.833   6.484 -0.6997  0.6915  0.8098
 1078SOL    HW114870   1.977   3.908   6.499 -2.5103 -0.2174 -1.7404
 1078SOL    HW214871   2.025   3.810   6.392  1.4740  0.9799  0.4750
 1079SOL     OW14872   2.676   1.630   9.243  0.0286 -0.6776  0.1028
 1079SOL    HW114873   2.683   1.616   9.149  0.3877  0.9948 -0.1141
 1079SOL    HW214874   2.732   1.707   9.247 -1.0140  0.1118 -0.5943
 1080SOL     OW14875   0.276   4.338  17.206 -0.1351  0.2111 -0.0425
 1080SOL    HW114876   0.274   4.268  17.140 -0.4382 -0.1989  0.3986
 1080SOL    HW214877   0.353   4.310  17.255 -0.2807 -1.0265 -0.5240
 1081SOL     OW14878   3.686   1.537  16.412  0.3659 -0.0442  0.1320
 1081SOL    HW114879   3.700   1.493  16.496  0.5582 -1.0459 -0.4341
 1081SOL    HW214880   3.665   1.620  16.456  0.4935 -0.9443  1.8992
 1082SOL     OW14881   3.495   3.808   8.078 -0.2490 -0.0673 -0.4323
 1082SOL    HW114882   3.515   3.885   8.024  0.5708  0.9573  1.3194
 1082SOL    HW214883   3.581   3.788   8.116 -0.7127  2.0277  1.7803
 1083SOL     OW14884   0.409   0.541   4.472 -0.1485  0.6528 -0.6189
 1083SOL    HW114885   0.380   0.510   4.387  0.7717 -3.1656  0.4641
 1083SOL    HW214886   0.353   0.492   4.532 -0.4629  0.4799 -1.0601
 1084SOL     OW14887   3.839   2.863   2.196 -0.2788 -0.2894 -0.3717
 1084SOL    HW114888   3.892   2.867   2.276  0.1107 -2.7553 -0.5066
 1084SOL    HW214889   3.895   2.911   2.135  0.1543 -0.4042 -0.0726
 1085SOL     OW14890   3.388   0.347   4.197 -0.2425  0.2861 -0.0852
 1085SOL    HW114891   3.360   0.438   4.206  1.1213  0.7546 -0.5910
 1085SOL    HW214892   3.382   0.321   4.289 -2.7400  2.6398  0.4161
 1086SOL     OW14893   4.005   3.786   4.680  0.0916 -0.0450  0.4196
 1086SOL    HW114894   3.975   3.837   4.604  2.5493  0.1964 -0.4005
 1086SOL    HW214895   4.036   3.709   4.632 -0.8393 -0.1036 -0.0967
 1087SOL     OW14896   0.993   0.149   4.169  0.0363  0.1531  0.1657
 1087SOL    HW114897   1.067   0.203   4.139 -0.5536  0.6067 -0.4779
 1087SOL    HW214898   0.949   0.177   4.089  0.2928 -0.7369 -0.2916
 1088SOL     OW14899   4.214   3.551   2.245  0.4163 -0.0960 -0.8666
 1088SOL    HW114900   4.178   3.567   2.158  0.6179 -2.0274 -1.3079
 1088SOL    HW214901   4.307   3.542   2.225  0.3711 -0.2661 -1.0027
 1089SOL     OW14902   0.650   2.141   7.839  0.3628 -0.2065  0.2588
 1089SOL    HW114903   0.559   2.130   7.809  1.0646 -2.1226 -1.1044
 1089SOL    HW214904   0.662   2.226   7.797 -1.7511 -0.7036 -1.3533
 1090SOL     OW14905   4.586   1.633   7.890 -0.1053 -0.3680  0.4047
 1090SOL    HW114906   4.534   1.612   7.968  0.5042  0.0393  0.9270
 1090SOL    HW214907   4.532   1.700   7.848  2.2355  1.9216  1.0275
 1091SOL     OW14908   1.274   4.257  11.024 -0.1520 -0.1147 -0.6205
 1091SOL    HW114909   1.275   4.196  11.098  3.3353 -0.8046 -1.2500
 1091SOL    HW214910   1.191   4.236  10.981  0.5546 -1.5897 -1.2828
 1092SOL     OW14911   1.131   2.009  12.902  0.0258  0.0487 -0.1428
 1092SOL    HW114912   1.167   1.938  12.955  0.9055  1.5276  1.2241
 1092SOL    HW214913   1.048   1.968  12.877 -1.1208  1.4238  1.4097
 1093SOL     OW14914   0.102   3.380   5.193  0.1684  0.0274 -0.3302
 1093SOL    HW114915   0.090   3.317   5.121 -0.1029  0.3354 -0.5538
 1093SOL    HW214916   0.047   3.348   5.265  1.3195 -0.0984  0.4914
 1094SOL     OW14917   0.009   1.899   8.422 -0.2617 -0.2051 -0.2186
 1094SOL    HW114918   4.724   1.981   8.379  0.8403  0.3406  0.2364
 1094SOL    HW214919   0.027   1.852   8.340  1.3053  1.4507 -0.8187
 1095SOL     OW14920   3.724   4.166  15.656  0.2144 -0.2580  0.1565
 1095SOL    HW114921   3.664   4.209  15.595  0.2648  2.5108  2.0440
 1095SOL    HW214922   3.771   4.108  15.597 -4.0884 -2.1621 -1.4502
 1096SOL     OW14923   4.512   0.538   7.567 -0.1660  0.1711 -0.1137
 1096SOL    HW114924   4.456   0.492   7.629 -0.0225  0.6614  0.3766
 1096SOL    HW214925   4.595   0.551   7.611  1.2386 -1.1207 -2.3741
 1097SOL     OW14926   3.642   0.715  13.736 -0.1472  0.3340 -0.4854
 1097SOL    HW114927   3.705   0.751  13.673  2.4731 -0.7344  1.5154
 1097SOL    HW214928   3.552   0.715  13.705  0.1383 -3.1892 -1.3450
 1098SOL     OW14929   0.842   4.548   8.512 -0.2993 -0.1251  0.4863
 1098SOL    HW114930   0.845   4.453   8.515  1.1388 -0.0964  0.2515
 1098SOL    HW214931   0.937   4.561   8.520 -0.4630  0.5884  1.3120
 1099SOL     OW14932   2.763   2.991   5.043  0.3474 -0.4062 -0.6309
 1099SOL    HW114933   2.761   3.086   5.035  2.1767 -0.3840 -0.6607
 1099SOL    HW214934   2.856   2.971   5.050  0.8826  2.6813  1.0465
 1100SOL     OW14935   1.847   1.712   7.729  0.3460 -0.2655 -0.7303
 1100SOL    HW114936   1.761   1.694   7.691 -0.9706  2.5433  0.8767
 1100SOL    HW214937   1.838   1.807   7.737  2.6588  0.0442 -1.8716
 1101SOL     OW14938   3.156   1.414   1.312 -0.0045 -0.0956  0.1776
 1101SOL    HW114939   3.156   1.455   1.225 -0.6013  0.5672  0.4910
 1101SOL    HW214940   3.063   1.394   1.317  0.5046 -2.5399  0.0663
 1102SOL     OW14941   4.122   3.273   7.115  0.3786 -0.0059 -0.2537
 1102SOL    HW114942   4.196   3.254   7.058  2.3830 -0.0594  2.3792
 1102SOL    HW214943   4.059   3.214   7.074 -0.4320  0.3778  0.4254
 1103SOL     OW14944   3.300   3.764   0.650 -0.0046  0.1398  0.2722
 1103SOL    HW114945   3.206   3.745   0.644  0.5280 -2.7602  0.7789
 1103SOL    HW214946   3.298   3.859   0.659  1.1338  0.3162 -1.2745
 1104SOL     OW14947   2.614   0.596   6.998  0.2268  0.0034  0.0109
 1104SOL    HW114948   2.540   0.608   6.940 -0.5528 -0.2955  0.9393
 1104SOL    HW214949   2.646   0.685   6.987  0.2668  0.0652  0.6418
 1105SOL     OW14950   1.604   0.810   6.776  0.2283  0.2726 -0.1925
 1105SOL    HW114951   1.539   0.862   6.728 -0.5464  0.2984  0.8866
 1105SOL    HW214952   1.588   0.731   6.724  1.0127  1.4144 -2.1887
 1106SOL     OW14953   3.192   4.201   8.241 -0.4324  0.6686 -0.0765
 1106SOL    HW114954   3.208   4.116   8.199 -0.9752  0.3579  0.3453
 1106SOL    HW214955   3.275   4.236   8.210 -0.8292  1.2491 -0.5032
 1107SOL     OW14956   1.795   3.147   3.016  0.2301 -0.0945  0.1672
 1107SOL    HW114957   1.870   3.125   2.960  0.4799 -0.8495  0.7977
 1107SOL    HW214958   1.791   3.242   3.001 -0.3785 -0.3276 -1.1043
 1108SOL     OW14959   2.306   4.737   3.576 -0.2449 -0.0551 -0.0138
 1108SOL    HW114960   2.353   0.077   3.547 -1.4960  1.1727  1.2967
 1108SOL    HW214961   2.267   4.698   3.498  2.9284 -0.8158 -1.2030
 1109SOL     OW14962   4.217   0.957  14.805  0.1197 -0.1441  0.1334
 1109SOL    HW114963   4.160   0.926  14.735  1.0622  2.4965 -1.8168
 1109SOL    HW214964   4.284   1.003  14.754 -1.3194 -0.8422 -2.3862
 1110SOL     OW14965   4.173   1.644   4.290 -0.3083 -0.4118 -0.0734
 1110SOL    HW114966   4.255   1.627   4.245  0.3170  0.4582  0.7316
 1110SOL    HW214967   4.179   1.596   4.373  0.9018 -1.5806 -0.8305
 1111SOL     OW14968   3.786   0.897   7.996 -0.4290 -0.0829  0.2522
 1111SOL    HW114969   3.787   0.973   8.054  1.3024  1.2254 -1.5159
 1111SOL    HW214970   3.835   0.925   7.919  2.0454  1.3248  2.3575
 1112SOL     OW14971   3.093   3.695  16.719 -0.4059 -0.0960 -0.1974
 1112SOL    HW114972   3.018   3.687  16.778 -1.2891 -1.5154 -1.5112
 1112SOL    HW214973   3.131   3.779  16.742  1.5892 -0.9506 -0.3786
 1113SOL     OW14974   1.824   1.663   1.774 -0.8696 -0.8111  0.0430
 1113SOL    HW114975   1.840   1.646   1.867 -1.0737 -0.0613  0.2085
 1113SOL    HW214976   1.734   1.634   1.757 -1.2073 -0.5127  1.3532
 1114SOL     OW14977   0.549   0.125  16.822  0.2253 -0.0792  0.5522
 1114SOL    HW114978   0.543   0.042  16.774 -0.0830  0.9305 -1.1324
 1114SOL    HW214979   0.621   0.169  16.776  1.2871 -1.9690  0.4094
 1115SOL     OW14980   1.664   1.360   7.260 -0.1232  0.2137 -0.2035
 1115SOL    HW114981   1.589   1.419   7.255  2.0750  3.1790  1.6387
 1115SOL    HW214982   1.647   1.314   7.343  3.1768 -0.1548  0.2490
 1116SOL     OW14983   0.038   4.555   8.264 -0.4229  0.2474  0.2110
 1116SOL    HW114984   4.735   4.608   8.332 -1.2758  0.0507 -0.1577
 1116SOL    HW214985   0.079   4.614   8.201 -2.0972  1.8242  0.6137
 1117SOL     OW14986   1.741   3.492   3.405  0.3216 -0.3725 -0.2073
 1117SOL    HW114987   1.704   3.498   3.493 -0.3460  0.7493 -0.5800
 1117SOL    HW214988   1.817   3.436   3.425  0.5033  0.7070  2.0558
 1118SOL     OW14989   2.551   1.560   8.327  0.9954 -0.2327 -0.4547
 1118SOL    HW114990   2.474   1.606   8.293  0.6315  0.2712  1.0418
 1118SOL    HW214991   2.566   1.494   8.259  1.2511 -0.3349 -0.3006
 1119SOL     OW14992   4.594   2.925  15.265  0.3190 -0.0462  0.3152
 1119SOL    HW114993   4.601   2.938  15.170 -2.6944 -0.1888  0.0661
 1119SOL    HW214994   4.503   2.897  15.268 -0.2343  1.6898 -0.0717
 1120SOL     OW14995   0.250   4.591  17.128  0.2519  0.1964  0.1485
 1120SOL    HW114996   0.239   4.499  17.149 -1.5455  0.1569 -1.0086
 1120SOL    HW214997   0.158   4.615  17.118  0.3794 -0.5110 -2.7482
 1121SOL     OW14998   2.014   3.833  13.519 -0.0795 -0.0638 -0.5690
 1121SOL    HW114999   2.077   3.802  13.454  0.2076 -0.8825  0.1051
 1121SOL    HW215000   2.028   3.764  13.583 -1.8025 -0.8858 -1.0675
 1122SOL     OW15001   4.323   1.988  13.872 -0.1524  0.0695 -0.1866
 1122SOL    HW115002   4.317   2.083  13.881 -1.1951  0.0489 -0.6956
 1122SOL    HW215003   4.411   1.984  13.835 -0.9645 -0.4965 -2.0291
 1123SOL     OW15004   0.126   4.588   0.937 -0.9093 -0.0428  0.2658
 1123SOL    HW115005   0.189   4.659   0.923  1.3542 -2.5079 -2.0915
 1123SOL    HW215006   0.174   4.551   1.011  0.3548 -0.2769 -0.6822
 1124SOL     OW15007   3.135   0.000  12.598  0.1065  0.2688 -0.2088
 1124SOL    HW115008   3.146   0.039  12.685 -2.6922  1.7774 -0.5314
 1124SOL    HW215009   3.107   4.651  12.625 -0.9436  0.8516  0.6194
 1125SOL     OW15010   1.201   0.015   2.072 -0.2229 -0.1593 -0.3246
 1125SOL    HW115011   1.165   4.667   2.088  1.4492 -0.5194  1.5424
 1125SOL    HW215012   1.259   4.732   1.999  2.6364  2.3856  1.2021
 1126SOL     OW15013   0.413   2.997   6.860  0.5004 -0.2469  0.3990
 1126SOL    HW115014   0.494   3.043   6.837  0.1980 -0.2251 -0.5988
 1126SOL    HW215015   0.347   3.066   6.871 -0.3526 -0.7244 -1.7112
 1127SOL     OW15016   1.644   1.483   0.320  0.9424 -0.5089  0.3967
 1127SOL    HW115017   1.701   1.504   0.246 -0.1439 -1.3094 -0.6833
 1127SOL    HW215018   1.583   1.415   0.290  1.5225 -2.1093  2.8797
 1128SOL     OW15019   2.484   1.777  11.747 -0.4130 -0.2090 -0.0419
 1128SOL    HW115020   2.578   1.794  11.755 -0.6010  0.7830 -0.0425
 1128SOL    HW215021   2.482   1.686  11.777 -0.9623 -0.7057 -1.5744
 1129SOL     OW15022   0.066   0.744  17.536 -0.2157  0.4111 -0.1543
 1129SOL    HW115023   0.130   0.747  17.464  1.5413  1.2441  1.4232
 1129SOL    HW215024   0.077   0.656  17.573 -0.9525 -0.5331 -2.1453
 1130SOL     OW15025   2.213   2.121   0.706  0.4384 -0.7318  0.5823
 1130SOL    HW115026   2.224   2.215   0.723 -1.3278 -0.3367 -0.4311
 1130SOL    HW215027   2.299   2.096   0.674  0.2858  1.2948 -1.3878
 1131SOL     OW15028   4.442   2.955   5.057 -0.4038 -0.2320 -0.2855
 1131SOL    HW115029   4.418   2.869   5.091  0.2518 -0.3034 -0.0131
 1131SOL    HW215030   4.536   2.953   5.043 -0.1901 -1.1470  1.3356
 1132SOL     OW15031   1.716   0.413   7.554 -0.4978  0.0932 -0.5332
 1132SOL    HW115032   1.745   0.325   7.530  0.0430  0.4462 -1.1560
 1132SOL    HW215033   1.638   0.403   7.609  0.2885 -0.0931  0.5643
 1133SOL     OW15034   3.107   1.822   1.872 -0.1577  0.0578 -0.2376
 1133SOL    HW115035   3.155   1.894   1.912 -1.0102 -0.1074  1.0850
 1133SOL    HW215036   3.164   1.746   1.881 -0.0735 -0.1070 -2.0876
 1134SOL     OW15037   1.806   0.829  13.726  0.7351 -0.4656 -0.5337
 1134SOL    HW115038   1.901   0.814  13.725  0.7169 -0.4761 -2.7676
 1134SOL    HW215039   1.775   0.785  13.646 -0.6152 -2.5231  1.1210
 1135SOL     OW15040   4.110   3.402  13.693 -0.5621 -0.0102  0.2114
 1135SOL    HW115041   4.032   3.352  13.672 -1.8009  1.7176  0.6879
 1135SOL    HW215042   4.156   3.335  13.743 -0.5349 -1.9625 -2.4168
 1136SOL     OW15043   2.050   2.982   4.158 -0.3198 -0.0342  0.9096
 1136SOL    HW115044   2.101   3.044   4.211  1.0055 -1.1608  0.9666
 1136SOL    HW215045   1.994   2.950   4.229 -1.2794 -0.1797  0.0714
 1137SOL     OW15046   0.406   0.992   4.124 -0.6757 -0.6415  0.1365
 1137SOL    HW115047   0.331   0.996   4.183 -0.3831 -2.1550  0.6097
 1137SOL    HW215048   0.369   1.016   4.039  0.1086  0.7305  0.1875
 1138SOL     OW15049   2.662   0.398  16.204  0.0688 -0.4191 -0.1882
 1138SOL    HW115050   2.680   0.384  16.111 -2.1994  2.2176 -1.0038
 1138SOL    HW215051   2.589   0.458  16.190  1.5106  1.4231  0.1264
 1139SOL     OW15052   2.063   1.365  17.691 -0.0043 -0.0836  0.0093
 1139SOL    HW115053   2.012   1.432  17.646 -1.9261 -0.5921  1.4067
 1139SOL    HW215054   2.152   1.393  17.667 -1.0046  3.8554  0.9890
 1140SOL     OW15055   3.746   2.531   1.320 -0.5704 -0.3464  0.1329
 1140SOL    HW115056   3.766   2.438   1.327  1.4899  0.1356  0.6568
 1140SOL    HW215057   3.652   2.546   1.329 -0.5432 -0.8657  1.3092
 1141SOL     OW15058   4.343   2.134  12.072 -0.3032 -0.1800  0.1899
 1141SOL    HW115059   4.414   2.122  12.135 -2.4502  0.6559  2.7621
 1141SOL    HW215060   4.358   2.212  12.017  1.0432  0.7129  1.8337
 1142SOL     OW15061   4.354   4.629  15.545 -0.1151  0.1971  1.0867
 1142SOL    HW115062   4.399   4.705  15.509 -0.5394  1.2786  2.8495
 1142SOL    HW215063   4.336   4.671  15.629  3.1200  1.3994  1.1898
 1143SOL     OW15064   4.083   1.364  17.118  0.6121 -0.2746 -0.0430
 1143SOL    HW115065   4.081   1.416  17.198  1.7199  0.0627 -0.2404
 1143SOL    HW215066   4.149   1.417  17.074  0.1500  1.0682  0.8717
 1144SOL     OW15067   0.709   2.661   7.719 -0.5149 -0.0780 -0.7257
 1144SOL    HW115068   0.675   2.742   7.681  0.0085  1.6819  2.5945
 1144SOL    HW215069   0.797   2.672   7.681 -0.4064 -2.1452 -1.0695
 1145SOL     OW15070   1.079   3.185  10.993 -0.3115 -0.5075 -0.5767
 1145SOL    HW115071   1.140   3.223  11.056 -1.0747 -1.3819  0.6672
 1145SOL    HW215072   1.100   3.093  11.011  0.7628  0.0629  1.1368
 1146SOL     OW15073   0.402   0.136  14.661 -0.1311 -0.0543  0.0838
 1146SOL    HW115074   0.480   0.099  14.704  0.3819  1.9093  0.8456
 1146SOL    HW215075   0.422   0.105  14.573  1.2260  1.2175 -0.0602
 1147SOL     OW15076   1.387   2.031   9.315  0.0757 -0.2752  0.6140
 1147SOL    HW115077   1.412   1.978   9.240  1.1992  0.5844  0.3836
 1147SOL    HW215078   1.296   2.048   9.289 -0.0681 -0.8017  0.7882
 1148SOL     OW15079   4.540   2.580   7.390 -0.7518  0.2275 -0.2956
 1148SOL    HW115080   4.450   2.582   7.358 -0.3011 -1.6144 -1.6650
 1148SOL    HW215081   4.574   2.664   7.356 -0.1834 -0.3355 -1.1189
 1149SOL     OW15082   1.450   0.483  13.115  0.0732 -0.0433 -0.5337
 1149SOL    HW115083   1.517   0.502  13.181  1.0002 -2.9717 -0.6510
 1149SOL    HW215084   1.491   0.407  13.075  1.6047  1.0373 -0.9872
 1150SOL     OW15085   2.397   2.474   1.792 -0.0047 -0.2002  0.0833
 1150SOL    HW115086   2.308   2.490   1.822  0.9051  2.0642  1.6205
 1150SOL    HW215087   2.411   2.530   1.716 -0.7987  0.0957  0.1594
 1151SOL     OW15088   0.619   0.724   0.609 -0.0227  0.5201  0.0786
 1151SOL    HW115089   0.641   0.631   0.612 -0.1846  0.4919  0.3803
 1151SOL    HW215090   0.546   0.726   0.671 -1.0237  0.9316 -1.1152
 1152SOL     OW15091   2.223   4.537   4.327  0.4404  0.0387 -0.2454
 1152SOL    HW115092   2.287   4.485   4.279  0.4232  0.0774 -0.3101
 1152SOL    HW215093   2.226   4.499   4.415 -1.8458 -1.0696 -0.6229
 1153SOL     OW15094   0.010   0.670  10.824 -0.0902 -0.5170  0.4290
 1153SOL    HW115095   4.662   0.702  10.848  0.9324  1.6968  1.1617
 1153SOL    HW215096   0.070   0.727  10.872 -0.8383  0.4380  0.2250
 1154SOL     OW15097   3.511   4.535   8.275  0.0085 -0.3742 -0.1031
 1154SOL    HW115098   3.594   4.523   8.322  0.6255  0.1843 -1.0438
 1154SOL    HW215099   3.532   4.614   8.225  0.5120 -0.0440  0.6323
 1155SOL     OW15100   0.787   1.150   6.543 -0.2906 -0.1960  0.0332
 1155SOL    HW115101   0.794   1.224   6.603 -0.2993 -1.3279  1.4505
 1155SOL    HW215102   0.842   1.178   6.470  1.5305 -1.1465  1.0359
 1156SOL     OW15103   0.545   0.346  14.407 -0.2131  0.0020 -0.5015
 1156SOL    HW115104   0.589   0.305  14.482  0.1155  0.9500 -0.1723
 1156SOL    HW215105   0.489   0.278  14.370 -1.0218 -0.2474  1.1636
 1157SOL     OW15106   0.281   1.511   7.759 -0.1747 -0.0384  0.1086
 1157SOL    HW115107   0.365   1.550   7.785  0.0402 -0.1336 -0.4454
 1157SOL    HW215108   0.245   1.577   7.699 -0.3091 -1.0651 -0.9540
 1158SOL     OW15109   4.331   0.416   2.004  0.6466  0.0832 -0.0652
 1158SOL    HW115110   4.320   0.431   1.911  3.0560 -2.0541 -0.6872
 1158SOL    HW215111   4.424   0.397   2.015  0.5263 -0.6194 -0.3026
 1159SOL     OW15112   0.436   3.232   9.295  0.4535 -0.0205 -0.2515
 1159SOL    HW115113   0.390   3.177   9.358 -0.0843 -0.8031 -1.3463
 1159SOL    HW215114   0.516   3.183   9.275  1.7199  2.5227 -1.4764
 1160SOL     OW15115   2.349   0.029   2.281 -0.1540  0.2938  0.0268
 1160SOL    HW115116   2.355   0.118   2.317  1.5882  0.0437  0.3743
 1160SOL    HW215117   2.416   0.036   2.212 -0.3359  0.9767 -0.0856
 1161SOL     OW15118   3.717   2.420   3.246  0.2272  0.1091  0.0638
 1161SOL    HW115119   3.712   2.515   3.249 -2.2027 -0.0417  0.7948
 1161SOL    HW215120   3.760   2.397   3.163  0.9066 -2.4677  1.1456
 1162SOL     OW15121   2.800   2.358   5.362 -0.3297  0.1649  0.0620
 1162SOL    HW115122   2.725   2.409   5.331  0.9239  1.8681 -0.1514
 1162SOL    HW215123   2.763   2.276   5.395  1.4366  0.4150  2.6463
 1163SOL     OW15124   0.449   0.624   1.892 -0.3352 -0.0808  0.0737
 1163SOL    HW115125   0.428   0.560   1.825  0.2552 -0.4013  0.1996
 1163SOL    HW215126   0.386   0.599   1.959 -0.5706  0.6695  0.1409
 1164SOL     OW15127   4.370   0.260   7.495 -0.3987  0.3522 -0.4391
 1164SOL    HW115128   4.410   0.243   7.580  1.5507 -1.9612 -1.7953
 1164SOL    HW215129   4.374   0.354   7.480 -1.7488  0.8003  2.0912
 1165SOL     OW15130   0.099   3.113   7.065 -0.0905  0.0332  0.4604
 1165SOL    HW115131   0.163   3.167   7.018 -0.8705  2.3952  2.1025
 1165SOL    HW215132   0.118   3.147   7.152 -0.7633  0.8360  0.2934
 1166SOL     OW15133   1.032   1.713   5.152  0.2148 -0.0817 -1.0936
 1166SOL    HW115134   1.019   1.799   5.110 -0.2140 -0.4549 -1.7332
 1166SOL    HW215135   1.011   1.659   5.075  0.3512 -1.4682 -0.1501
 1167SOL     OW15136   0.624   4.375  17.693  0.8180  0.4159  0.3597
 1167SOL    HW115137   0.563   4.401   0.008 -1.9070 -0.3050 -1.8340
 1167SOL    HW215138   0.564   4.376  17.619  0.1876  3.0521  0.9218
 1168SOL     OW15139   4.240   3.405   8.272  0.0453 -0.4043  0.0309
 1168SOL    HW115140   4.218   3.353   8.349  0.5345  0.3641  0.6926
 1168SOL    HW215141   4.301   3.470   8.308 -0.1477 -0.6784  0.8669
 1169SOL     OW15142   0.473   2.503   0.192  0.5124 -0.2144 -0.2913
 1169SOL    HW115143   0.379   2.514   0.187  0.1002 -2.1965  2.8149
 1169SOL    HW215144   0.462   2.425   0.247 -1.6861  2.3441  2.8655
 1170SOL     OW15145   2.904   1.903   1.159  0.2529 -0.7109 -0.3526
 1170SOL    HW115146   2.998   1.892   1.165  0.4103  0.5541 -0.4089
 1170SOL    HW215147   2.880   1.838   1.225  1.7454 -0.3529  0.5323
 1171SOL     OW15148   3.670   3.270   8.594 -0.1329  0.2718  0.2656
 1171SOL    HW115149   3.599   3.255   8.657  1.1861 -0.5603  1.5560
 1171SOL    HW215150   3.643   3.319   8.516 -0.7739  0.8175  0.8340
 1172SOL     OW15151   3.390   2.168  13.709 -0.2381 -0.4617  0.1283
 1172SOL    HW115152   3.337   2.246  13.727  1.8166  0.9769  0.0690
 1172SOL    HW215153   3.340   2.113  13.649  0.3593 -2.0802  1.1100
 1173SOL     OW15154   3.741   1.071  11.189  0.1152  0.4971 -0.1367
 1173SOL    HW115155   3.746   1.019  11.108  1.7675  0.3929  0.0400
 1173SOL    HW215156   3.690   1.146  11.155 -1.1774 -0.1518  0.3699
 1174SOL     OW15157   4.145   1.317   2.944  0.0240 -0.0729  0.5123
 1174SOL    HW115158   4.093   1.358   2.875 -0.8705 -1.1504  0.5520
 1174SOL    HW215159   4.087   1.245   2.968 -2.0042  1.3008 -0.2214
 1175SOL     OW15160   3.632   2.005   2.698 -0.2992 -0.0981  0.1998
 1175SOL    HW115161   3.653   1.978   2.609  0.4338 -0.8000  0.5838
 1175SOL    HW215162   3.612   1.921   2.740 -2.0238  0.5411  0.6223
 1176SOL     OW15163   1.278   1.614   2.166  0.8513 -0.6172  0.3799
 1176SOL    HW115164   1.283   1.704   2.133 -0.6389 -0.4967  0.4782
 1176SOL    HW215165   1.324   1.616   2.250  0.6364  1.6142  0.4271
 1177SOL     OW15166   2.248   3.693  17.667 -0.4051 -0.1692  0.2834
 1177SOL    HW115167   2.320   3.711  17.606 -1.2906  0.2134 -0.6539
 1177SOL    HW215168   2.207   3.612  17.635  1.0209 -1.4092  1.5877
 1178SOL     OW15169   2.718   0.366  12.695  0.6414 -0.6045 -0.2374
 1178SOL    HW115170   2.801   0.322  12.717  0.5740 -0.0601  1.0917
 1178SOL    HW215171   2.660   0.303  12.737  4.2011 -2.9170  1.2730
 1179SOL     OW15172   3.461   1.989  12.073  0.1181 -0.1451 -0.2222
 1179SOL    HW115173   3.465   2.049  12.147 -1.8140  0.9777 -1.0397
 1179SOL    HW215174   3.538   1.935  12.092  0.6131 -0.3553 -2.9273
 1180SOL     OW15175   3.106   1.138   2.187 -0.4087 -0.4209  0.2259
 1180SOL    HW115176   3.085   1.199   2.258 -2.1915  0.7875 -1.3539
 1180SOL    HW215177   3.168   1.202   2.151 -0.6520  0.7276  1.8454
 1181SOL     OW15178   0.330   4.094   3.181  0.6703 -0.3458 -0.2940
 1181SOL    HW115179   0.315   4.072   3.273 -0.5588  0.9821 -0.1826
 1181SOL    HW215180   0.259   4.049   3.135  0.5919 -0.7974  0.2716
 1182SOL     OW15181   0.718   3.636   4.531  0.8048  0.0258 -0.3492
 1182SOL    HW115182   0.744   3.726   4.550 -0.5519  0.0014  1.6382
 1182SOL    HW215183   0.625   3.624   4.551  0.7438 -0.8372 -1.1071
 1183SOL     OW15184   1.572   3.670   8.543 -0.2487 -0.4750 -0.1178
 1183SOL    HW115185   1.651   3.711   8.579 -0.8340 -1.2865  2.0649
 1183SOL    HW215186   1.499   3.676   8.604  1.1871 -0.5889  1.6225
 1184SOL     OW15187   0.358   0.369  15.044  0.3382 -0.5723  0.4609
 1184SOL    HW115188   0.420   0.296  15.045 -0.1233 -0.9639  0.5057
 1184SOL    HW215189   0.340   0.375  14.950 -3.0797 -0.7375  1.1010
 1185SOL     OW15190   2.436   4.346   3.938 -0.2619  0.1356 -0.4418
 1185SOL    HW115191   2.428   4.432   3.895 -0.2811 -0.0109 -0.7326
 1185SOL    HW215192   2.344   4.320   3.930 -1.1144  2.6767  0.9123
 1186SOL     OW15193   2.650   1.911   2.756  0.4283  0.5157 -0.6887
 1186SOL    HW115194   2.685   1.988   2.713 -1.5952  1.8357  0.0160
 1186SOL    HW215195   2.602   1.954   2.827  1.0442 -0.4821  0.3226
 1187SOL     OW15196   2.111   3.048   6.262 -0.4838  0.3275  0.4255
 1187SOL    HW115197   2.150   3.104   6.194  1.0020 -1.0929  0.1025
 1187SOL    HW215198   2.173   3.056   6.333  1.2240 -1.8472 -0.8348
 1188SOL     OW15199   3.636   4.313   8.026 -0.0417 -0.2258  0.5208
 1188SOL    HW115200   3.696   4.295   8.099  2.3093 -0.5791 -1.5174
 1188SOL    HW215201   3.696   4.344   7.958 -1.7293  0.0658 -0.8287
 1189SOL     OW15202   2.300   4.063   4.521 -0.0227 -0.2999 -0.5344
 1189SOL    HW115203   2.391   4.037   4.506  0.1349 -0.6447  1.1109
 1189SOL    HW215204   2.258   4.005   4.457 -0.8055 -1.2228  0.8115
 1190SOL     OW15205   3.218   2.499   5.594 -0.2046  0.1744 -0.1816
 1190SOL    HW115206   3.217   2.427   5.530 -0.7447  0.3547 -0.3732
 1190SOL    HW215207   3.259   2.574   5.551 -1.3997 -0.0798 -1.7628
 1191SOL     OW15208   4.340   0.610  13.193  0.4966  0.2116  0.3027
 1191SOL    HW115209   4.423   0.606  13.145 -0.3760 -3.8871 -0.8350
 1191SOL    HW215210   4.275   0.638  13.129  1.5002 -0.2933 -0.9523
 1192SOL     OW15211   1.078   2.264  12.765  0.5725  0.7563  1.0247
 1192SOL    HW115212   1.127   2.297  12.690  1.3769 -0.6171  0.9525
 1192SOL    HW215213   1.108   2.173  12.773 -1.2248  0.0255 -0.3612
 1193SOL     OW15214   0.072   0.388   0.350 -0.3130 -0.6572  0.2696
 1193SOL    HW115215   0.036   0.301   0.371 -1.8494 -0.0493  0.1686
 1193SOL    HW215216   0.002   0.416   0.290 -0.1992 -2.0534 -0.5365
 1194SOL     OW15217   4.259   1.635   2.283 -0.1911 -0.2984 -0.3242
 1194SOL    HW115218   4.201   1.561   2.295 -1.3640  0.5132 -1.0029
 1194SOL    HW215219   4.248   1.663   2.192  0.4379  0.5524 -0.1438
 1195SOL     OW15220   3.841   4.432   7.882  0.8943 -0.7404  0.1522
 1195SOL    HW115221   3.865   4.504   7.823  0.2900 -2.5991 -2.3592
 1195SOL    HW215222   3.930   4.397   7.887  1.0785 -0.3085 -0.0403
 1196SOL     OW15223   0.762   1.871   5.647  0.4615 -0.5140  0.1101
 1196SOL    HW115224   0.820   1.818   5.703  1.3382 -0.3864 -0.6820
 1196SOL    HW215225   0.676   1.855   5.686  1.0365 -0.2673  1.4875
 1197SOL     OW15226   0.739   2.632   9.856 -0.4640  0.1005  0.2865
 1197SOL    HW115227   0.795   2.687   9.801  0.6566 -2.3369 -0.9693
 1197SOL    HW215228   0.757   2.663   9.945 -0.3416 -0.4390  0.4491
 1198SOL     OW15229   2.700   3.198   0.312 -0.1839 -0.4319 -0.1090
 1198SOL    HW115230   2.685   3.288   0.340  0.9735  0.4665 -2.3955
 1198SOL    HW215231   2.775   3.188   0.254  0.0839  0.4969  0.0782
 1199SOL     OW15232   2.840   1.109   2.029 -0.0755  0.2574  0.1712
 1199SOL    HW115233   2.923   1.150   2.053 -0.6286  2.0588 -0.9282
 1199SOL    HW215234   2.819   1.073   2.116  1.6277 -0.7184  0.1655
 1200SOL     OW15235   1.318   2.820   2.998 -0.0875  0.0935 -0.1287
 1200SOL    HW115236   1.239   2.767   2.987 -0.5190  0.7914 -0.3898
 1200SOL    HW215237   1.281   2.907   2.983  1.0293  0.3162 -1.6029
 1201SOL     OW15238   0.075   4.327   0.867 -0.1004  0.5976 -0.6217
 1201SOL    HW115239   0.141   4.320   0.798  0.0218 -1.2996 -0.3238
 1201SOL    HW215240   0.108   4.409   0.903  0.0404  0.2805 -0.0272
 1202SOL     OW15241   1.824   2.594   1.068  0.0122 -0.2031 -0.3946
 1202SOL    HW115242   1.762   2.534   1.028 -1.5148  0.0221  1.6138
 1202SOL    HW215243   1.836   2.557   1.156 -0.3478  0.8266  0.0894
 1203SOL     OW15244   3.986   3.791   1.003  0.3983  0.2402 -0.6253
 1203SOL    HW115245   3.903   3.771   0.959 -0.4325 -1.9865  1.9051
 1203SOL    HW215246   3.975   3.885   1.010 -2.0454 -0.1708  1.2101
 1204SOL     OW15247   0.787   0.299  11.305  0.0971 -0.1729  0.0852
 1204SOL    HW115248   0.838   0.378  11.321  0.9210 -1.0196  1.7042
 1204SOL    HW215249   0.855   0.231  11.306  1.5426  1.2936  1.0940
 1205SOL     OW15250   2.866   3.139   5.545 -0.1281  0.1042  0.5669
 1205SOL    HW115251   2.895   3.087   5.471  1.6714  0.3011  1.1347
 1205SOL    HW215252   2.928   3.144   5.618  0.7058  0.4569 -0.1600
 1206SOL     OW15253   2.599   2.834   8.222 -0.3067  0.3752 -0.4392
 1206SOL    HW115254   2.685   2.827   8.180 -0.5438 -0.4448 -0.7908
 1206SOL    HW215255   2.581   2.928   8.230  1.0293  0.6509 -0.5766
 1207SOL     OW15256   1.419   2.773  14.420 -0.2188  0.1083  0.2780
 1207SOL    HW115257   1.482   2.760  14.491 -0.6205 -0.1035  0.5918
 1207SOL    HW215258   1.449   2.715  14.350  3.1095  0.8857  1.0687
 1208SOL     OW15259   1.537   0.485   6.687  0.1599  0.4930  0.2088
 1208SOL    HW115260   1.489   0.404   6.668 -0.4938  0.4569  1.9935
 1208SOL    HW215261   1.600   0.482   6.615  0.8081  0.2371  0.7847
 1209SOL     OW15262   2.859   3.722   4.163 -0.0780 -0.5810  0.1107
 1209SOL    HW115263   2.773   3.687   4.137  0.0737 -1.5956  0.9995
 1209SOL    HW215264   2.844   3.753   4.252  1.3455 -0.1347  0.1859
 1210SOL     OW15265   4.585   1.627   9.679  0.3274 -0.8701 -0.3128
 1210SOL    HW115266   4.597   1.595   9.769  0.0619  0.3423  0.1595
 1210SOL    HW215267   4.498   1.665   9.693  0.5802 -1.2031  2.1932
 1211SOL     OW15268   1.975   1.132   6.154  0.0079  0.3824  0.1880
 1211SOL    HW115269   2.020   1.047   6.151 -0.7092  0.0303 -0.6480
 1211SOL    HW215270   2.040   1.184   6.201  1.3707 -0.3670 -0.8461
 1212SOL     OW15271   0.022   0.320   6.766  0.2865  0.1930 -0.5881
 1212SOL    HW115272   4.681   0.305   6.818  0.1285  0.2061 -0.8285
 1212SOL    HW215273   0.081   0.281   6.831  1.9209 -0.7444 -2.6425
 1213SOL     OW15274   0.528   1.284   6.835  0.4860 -0.4689 -0.8653
 1213SOL    HW115275   0.507   1.281   6.929  2.2498 -0.6617 -0.4716
 1213SOL    HW215276   0.538   1.189   6.826 -2.3147 -0.7089 -1.5900
 1214SOL     OW15277   3.828   1.535  11.083  0.2973  0.3064 -1.0400
 1214SOL    HW115278   3.742   1.496  11.095  0.6908 -0.7338 -1.6716
 1214SOL    HW215279   3.833   1.538  10.988  0.3636  0.1618 -1.0405
 1215SOL     OW15280   2.796   4.431   1.827 -0.4640 -0.1913 -0.3141
 1215SOL    HW115281   2.764   4.479   1.903 -1.0961  2.0036 -1.9474
 1215SOL    HW215282   2.736   4.458   1.757  0.8384 -1.4477 -1.9212
 1216SOL     OW15283   0.657   0.824  15.263  0.5256 -0.1125  0.5806
 1216SOL    HW115284   0.630   0.886  15.330 -0.4154 -0.7454  0.7816
 1216SOL    HW215285   0.702   0.886  15.204 -0.8036 -0.6361 -0.9778
 1217SOL     OW15286   3.454   3.049   3.369  0.6701  0.2878 -0.0006
 1217SOL    HW115287   3.535   3.024   3.413  0.7678  1.6177  0.5655
 1217SOL    HW215288   3.486   3.106   3.299  1.2951 -2.4820 -1.9822
 1218SOL     OW15289   3.861   4.590   0.789  0.5239  0.2743 -0.2499
 1218SOL    HW115290   3.913   4.529   0.737  0.2104 -0.4259  0.2684
 1218SOL    HW215291   3.899   4.676   0.771 -0.8582  0.3946 -2.5606
 1219SOL     OW15292   1.654   3.915   5.452  0.0853  0.5367  0.4470
 1219SOL    HW115293   1.618   3.917   5.363 -0.1883  1.0339  0.5673
 1219SOL    HW215294   1.703   3.997   5.452  0.3459  0.3830  1.1262
 1220SOL     OW15295   0.811   0.352   1.384 -0.1209 -0.0205  0.2463
 1220SOL    HW115296   0.759   0.410   1.440  1.3969  1.0614  0.5294
 1220SOL    HW215297   0.884   0.408   1.359 -1.5959  0.7304 -2.4657
 1221SOL     OW15298   2.360   2.446  17.343 -0.6854 -0.4276 -0.0629
 1221SOL    HW115299   2.382   2.457  17.251  2.5570 -0.9305  0.6449
 1221SOL    HW215300   2.444   2.474  17.380  0.0846 -1.0382 -1.3625
 1222SOL     OW15301   1.594   1.967   8.501  0.6282  0.1967  0.1457
 1222SOL    HW115302   1.654   1.893   8.494 -1.1166 -0.9709 -2.0553
 1222SOL    HW215303   1.515   1.925   8.535  0.9953 -0.1829  0.5378
 1223SOL     OW15304   2.125   2.456   8.457  0.0212 -0.2608  0.5701
 1223SOL    HW115305   2.173   2.509   8.521 -0.4506  0.7864  0.0443
 1223SOL    HW215306   2.096   2.516   8.389  1.5673 -0.0883  0.0554
 1224SOL     OW15307   2.212   4.668   7.477  0.4355 -0.2454 -0.1485
 1224SOL    HW115308   2.125   4.654   7.439 -0.1603  3.2559 -0.1035
 1224SOL    HW215309   2.256   4.707   7.402  1.1942  1.2187  1.0584
 1225SOL     OW15310   2.865   1.963   1.745  0.1549 -0.1283  0.0499
 1225SOL    HW115311   2.947   1.930   1.781 -0.0248 -0.8453 -0.2100
 1225SOL    HW215312   2.889   2.056   1.737  0.4675 -0.0481  1.8657
 1226SOL     OW15313   2.359   3.353   6.750  0.2266  0.1618 -0.4308
 1226SOL    HW115314   2.431   3.290   6.750  1.7930  1.9488  3.6174
 1226SOL    HW215315   2.405   3.427   6.710 -1.6400  1.6678  0.2134
 1227SOL     OW15316   1.223   3.939  17.068  0.3487  0.4023  0.1673
 1227SOL    HW115317   1.229   3.981  17.154 -0.6700  1.1895 -0.1449
 1227SOL    HW215318   1.220   3.845  17.086  1.3495  0.7852  2.2683
 1228SOL     OW15319   4.138   0.663   1.902 -0.0186 -0.1653  0.2198
 1228SOL    HW115320   4.218   0.637   1.856  2.5444  2.5077  3.2230
 1228SOL    HW215321   4.169   0.705   1.982  1.1220  1.6809 -1.1845
 1229SOL     OW15322   3.422   3.469  14.242 -0.6844 -0.2329  0.3288
 1229SOL    HW115323   3.483   3.530  14.200  1.0423 -1.2349  1.3865
 1229SOL    HW215324   3.346   3.469  14.184  0.2091  1.2410 -0.8428
 1230SOL     OW15325   2.594   2.619   4.792  0.1091 -0.2697 -0.0470
 1230SOL    HW115326   2.638   2.695   4.756  0.5451  0.2977  1.6913
 1230SOL    HW215327   2.668   2.572   4.830 -0.7444 -0.4725  1.3539
 1231SOL     OW15328   3.018   3.353  12.126  0.3843 -0.2386  0.0302
 1231SOL    HW115329   3.007   3.307  12.043  2.2113  1.1615 -0.9705
 1231SOL    HW215330   3.109   3.346  12.153  0.7241  0.5307 -0.9472
 1232SOL     OW15331   1.544   0.435   3.825  0.0395 -0.1345 -0.4109
 1232SOL    HW115332   1.507   0.373   3.762  1.0639 -0.1671 -0.9834
 1232SOL    HW215333   1.637   0.434   3.803 -0.4126  2.5273 -2.4142
 1233SOL     OW15334   4.292   4.173   7.107  0.4216  0.0153  0.2169
 1233SOL    HW115335   4.329   4.085   7.096 -2.3442 -1.2578  1.4037
 1233SOL    HW215336   4.257   4.192   7.020 -0.1077 -4.5086 -0.5759
 1234SOL     OW15337   1.935   3.315  11.913 -0.2257 -0.4478 -0.3481
 1234SOL    HW115338   2.021   3.276  11.902  0.2515  0.5933 -0.3318
 1234SOL    HW215339   1.918   3.296  12.006 -2.1115  1.3055 -0.3317
 1235SOL     OW15340   4.322   3.025   7.562 -0.2338 -0.2388  0.0655
 1235SOL    HW115341   4.339   2.983   7.646  1.6020 -1.5572 -0.9903
 1235SOL    HW215342   4.226   3.018   7.560 -0.1263 -1.7870  0.7113
 1236SOL     OW15343   0.961   2.510   4.075 -0.7424  0.2213  0.2684
 1236SOL    HW115344   0.955   2.563   4.154 -1.9391 -0.5549  0.6917
 1236SOL    HW215345   1.038   2.547   4.030  0.9170 -2.3903  0.9534
 1237SOL     OW15346   0.045   3.803   2.360  0.7154  0.5504 -0.6338
 1237SOL    HW115347   0.095   3.727   2.330 -0.3199  1.1739 -3.9042
 1237SOL    HW215348   0.022   3.855   2.283  1.9494 -1.6138 -2.4753
 1238SOL     OW15349   4.346   3.549   2.549 -0.1383  0.3689 -0.7702
 1238SOL    HW115350   4.405   3.625   2.554  0.0394  0.3450 -2.6008
 1238SOL    HW215351   4.377   3.485   2.486  1.9067  0.8167 -0.2536
 1239SOL     OW15352   3.910   3.245  10.940  0.5098  0.6748  0.0121
 1239SOL    HW115353   3.887   3.211  11.027 -1.3356 -3.4856 -2.0957
 1239SOL    HW215354   3.880   3.185  10.872 -1.5485  1.4672  0.2217
 1240SOL     OW15355   0.663   1.215   3.269 -0.1740 -0.3145  0.4386
 1240SOL    HW115356   0.603   1.280   3.232  0.7869 -0.7849 -1.9766
 1240SOL    HW215357   0.711   1.183   3.193  0.4920 -1.6895  1.4328
 1241SOL     OW15358   3.894   1.439   3.918 -0.5288 -0.5397 -0.4806
 1241SOL    HW115359   3.919   1.500   3.987 -2.4477  0.5234 -0.7362
 1241SOL    HW215360   3.977   1.395   3.903  0.7026  0.6616  2.7669
 1242SOL     OW15361   3.378   0.319   2.891  0.1278  0.2761  0.3100
 1242SOL    HW115362   3.407   0.247   2.946 -0.4933  0.3311  0.7098
 1242SOL    HW215363   3.423   0.387   2.940 -0.1488 -0.1624  1.1658
 1243SOL     OW15364   2.876   0.763   4.040 -0.6492 -0.2924  0.1187
 1243SOL    HW115365   2.935   0.801   4.105 -0.9921 -1.5010  1.1209
 1243SOL    HW215366   2.790   0.795   4.065 -0.6005 -0.5579  0.6239
 1244SOL     OW15367   0.824   3.015   2.596 -0.4587  0.0357 -0.1224
 1244SOL    HW115368   0.757   3.062   2.645  1.0298 -0.0892  2.0212
 1244SOL    HW215369   0.896   3.006   2.659 -0.0730  1.2437 -0.3918
 1245SOL     OW15370   2.510   4.154   7.961  0.7951  0.5055  0.2297
 1245SOL    HW115371   2.535   4.129   8.050 -1.6283 -0.3117  0.6816
 1245SOL    HW215372   2.453   4.228   7.980  0.4328  0.2663  0.0790
 1246SOL     OW15373   1.932   1.678   9.238  0.8111 -0.0403  0.2947
 1246SOL    HW115374   1.863   1.614   9.254  1.5472 -0.5459  1.4155
 1246SOL    HW215375   1.960   1.648   9.151 -0.7876  1.6440 -0.8053
 1247SOL     OW15376   0.364   0.764   4.650 -0.5625  0.3741 -0.1021
 1247SOL    HW115377   0.290   0.726   4.698  0.5434 -1.9225 -0.2401
 1247SOL    HW215378   0.374   0.701   4.579 -2.9238  2.0823 -1.9676
 1248SOL     OW15379   4.161   2.785  10.418 -0.1617 -0.3393  0.6682
 1248SOL    HW115380   4.171   2.690  10.423  0.8471 -0.3097 -0.8625
 1248SOL    HW215381   4.231   2.805  10.357  0.7884 -1.3407  1.4238
 1249SOL     OW15382   0.908   2.806   4.868 -0.3669 -0.6577  0.0287
 1249SOL    HW115383   0.922   2.874   4.935  3.1161 -0.5498 -0.7767
 1249SOL    HW215384   0.860   2.860   4.807  1.5000  0.2027 -0.6788
 1250SOL     OW15385   1.709   3.576   9.413 -0.2826  0.3141 -0.1450
 1250SOL    HW115386   1.730   3.491   9.376  1.0965  1.5761 -2.2721
 1250SOL    HW215387   1.698   3.553   9.505  1.0481 -1.3904 -0.4045
 1251SOL     OW15388   3.399   0.985   5.244  0.1781  0.2912 -0.4076
 1251SOL    HW115389   3.396   0.916   5.178 -2.5106 -0.5436  0.5718
 1251SOL    HW215390   3.381   1.066   5.197 -3.2817  0.1057  0.5913
 1252SOL     OW15391   3.383   1.572  14.196  0.2017  0.2199  0.3239
 1252SOL    HW115392   3.476   1.588  14.211  0.5470 -1.8394  0.3944
 1252SOL    HW215393   3.376   1.480  14.173 -0.6297  0.4879 -0.4896
 1253SOL     OW15394   0.740   3.874  11.782 -0.2158 -0.4447  0.1326
 1253SOL    HW115395   0.781   3.939  11.724 -0.9087 -0.7246 -0.6588
 1253SOL    HW215396   0.821   3.830  11.808  0.1227  0.1387  0.0790
 1254SOL     OW15397   2.117   3.531  17.276  0.1036  0.0810 -0.2596
 1254SOL    HW115398   2.198   3.578  17.257  1.3247 -2.4267 -1.2674
 1254SOL    HW215399   2.124   3.513  17.370  0.5831 -0.7036 -0.4499
 1255SOL     OW15400   3.449   0.086   2.039 -0.9684  0.0012  0.0274
 1255SOL    HW115401   3.527   0.109   2.089 -0.6666 -0.8103 -0.0714
 1255SOL    HW215402   3.438   4.730   2.040 -0.1542 -0.0788  1.0368
 1256SOL     OW15403   1.173   2.251   6.474  0.1301 -0.0911 -0.6622
 1256SOL    HW115404   1.201   2.254   6.383  0.8616  0.7191 -0.4088
 1256SOL    HW215405   1.260   2.248   6.514 -0.3385  2.0401  0.4879
 1257SOL     OW15406   2.293   3.083   7.894 -0.0203 -0.7593  0.3006
 1257SOL    HW115407   2.205   3.103   7.862 -0.1253  0.7962  1.5608
 1257SOL    HW215408   2.270   3.050   7.981  1.3482 -2.2845  0.0722
 1258SOL     OW15409   0.566   1.615   7.211  0.2644 -0.3083  0.1186
 1258SOL    HW115410   0.517   1.541   7.175 -0.3688 -0.1316  0.6017
 1258SOL    HW215411   0.521   1.680   7.157 -2.1250  0.4445  2.9607
 1259SOL     OW15412   4.707   4.423  10.989 -0.0886  0.2517 -0.2062
 1259SOL    HW115413   4.671   4.463  10.910 -0.8758  2.4617  1.2796
 1259SOL    HW215414   4.708   4.331  10.964  1.1876  0.4065 -0.7097
 1260SOL     OW15415   1.567   0.103  11.298 -0.0662 -0.1909  0.2581
 1260SOL    HW115416   1.585   0.180  11.353  1.6526  0.9408 -1.8404
 1260SOL    HW215417   1.632   0.121  11.229 -1.8229 -2.4202 -1.9477
 1261SOL     OW15418   1.387   0.059   4.868  0.1105 -0.0195 -0.1689
 1261SOL    HW115419   1.342   0.062   4.783  0.2768  2.1612 -0.1814
 1261SOL    HW215420   1.452   4.731   4.846 -0.0915 -1.0718  2.3771
 1262SOL     OW15421   2.411   4.393   6.599  0.4079  0.0972 -0.0891
 1262SOL    HW115422   2.476   4.463   6.603 -1.0926  1.3977  1.1429
 1262SOL    HW215423   2.365   4.410   6.681 -0.3001  0.3524 -0.5456
 1263SOL     OW15424   1.654   0.610   9.136  0.3525  0.3735 -0.5944
 1263SOL    HW115425   1.640   0.560   9.056 -2.4510 -1.8414  1.2818
 1263SOL    HW215426   1.622   0.698   9.117  0.8876  0.5000 -0.8989
 1264SOL     OW15427   3.418   0.463   0.965 -0.2635  0.2326  0.1086
 1264SOL    HW115428   3.439   0.538   1.022  2.2307 -0.4138  0.0470
 1264SOL    HW215429   3.447   0.511   0.887  0.1450 -0.6891 -0.3058
 1265SOL     OW15430   2.612   1.076  16.294  0.0842  0.0367  0.4736
 1265SOL    HW115431   2.668   0.998  16.296 -0.4087 -0.3254  0.1789
 1265SOL    HW215432   2.628   1.115  16.380  2.0759  0.9374 -0.2877
 1266SOL     OW15433   1.862   0.615  12.035  0.8049  0.0971  0.2753
 1266SOL    HW115434   1.775   0.621  11.995 -0.1566  0.8743  2.4695
 1266SOL    HW215435   1.888   0.700  12.071  1.6691 -0.2086  0.3679
 1267SOL     OW15436   2.957   0.544   2.734 -0.3978 -0.0293 -0.1195
 1267SOL    HW115437   2.934   0.591   2.814 -2.4700  1.2763 -1.4869
 1267SOL    HW215438   3.006   0.474   2.779  1.9568  0.2586 -2.2519
 1268SOL     OW15439   4.455   0.752   3.056 -0.8939  0.2769  0.5451
 1268SOL    HW115440   4.528   0.763   3.117 -0.7720 -0.1366  0.4694
 1268SOL    HW215441   4.474   0.671   3.008 -1.7955  0.4435 -0.1006
 1269SOL     OW15442   3.660   1.259  16.122  0.3377  0.1371  0.1877
 1269SOL    HW115443   3.638   1.251  16.029 -1.0675 -0.7152  0.5840
 1269SOL    HW215444   3.626   1.180  16.165 -1.1784  0.7274  0.0873
 1270SOL     OW15445   2.303   0.373  16.516 -0.2743  0.1417 -0.3702
 1270SOL    HW115446   2.262   0.455  16.542  1.0081  0.6312  0.0850
 1270SOL    HW215447   2.330   0.334  16.599 -0.3165 -0.5828 -0.6955
 1271SOL     OW15448   2.227   0.876   1.683 -0.5162 -0.0022  0.2056
 1271SOL    HW115449   2.151   0.886   1.739 -0.9291 -0.8754 -0.2164
 1271SOL    HW215450   2.270   0.956   1.713  2.8361 -1.7185 -0.0322
 1272SOL     OW15451   2.582   3.420   5.845 -0.1169 -0.3047  0.4183
 1272SOL    HW115452   2.588   3.515   5.839  1.6596 -0.4103  0.3220
 1272SOL    HW215453   2.587   3.402   5.752 -0.7136  2.3224 -0.1084
 1273SOL     OW15454   2.841   0.167   6.818  0.7159  0.4668  0.3058
 1273SOL    HW115455   2.914   0.144   6.876  2.7318 -0.0493 -2.4169
 1273SOL    HW215456   2.823   0.257   6.845  0.0932  0.6661 -0.7698
 1274SOL     OW15457   0.689   1.830  14.250  0.3191  0.6869  0.0084
 1274SOL    HW115458   0.759   1.851  14.188  0.0585  0.3483 -0.3994
 1274SOL    HW215459   0.607   1.856  14.209  0.4718 -2.5362 -2.3306
 1275SOL     OW15460   0.900   4.565  14.109 -0.1944 -0.0284 -0.7422
 1275SOL    HW115461   0.937   4.524  14.187 -1.0069  0.6773  0.0017
 1275SOL    HW215462   0.982   4.590  14.065 -1.5735  1.0248 -2.6961
 1276SOL     OW15463   0.315   4.669   5.290  0.7700  0.0328 -0.5464
 1276SOL    HW115464   0.364   4.700   5.366  1.3110  1.6654 -1.5592
 1276SOL    HW215465   0.282   4.585   5.320 -1.2709  0.9622 -0.1495
 1277SOL     OW15466   2.144   1.086   4.413  0.0077 -0.3758 -0.2520
 1277SOL    HW115467   2.120   1.039   4.333 -0.4797 -2.4699  1.1355
 1277SOL    HW215468   2.134   1.017   4.479  0.5970  0.1780  0.4142
 1278SOL     OW15469   1.640   4.286   3.464  0.2769 -0.4945  0.3347
 1278SOL    HW115470   1.558   4.324   3.433  1.5108  1.4396 -0.6281
 1278SOL    HW215471   1.627   4.204   3.417  0.8819  0.0933 -0.8490
 1279SOL     OW15472   0.194   2.654  11.471 -0.0519 -0.3604 -0.6824
 1279SOL    HW115473   0.151   2.739  11.485 -0.6125 -0.6980 -0.3488
 1279SOL    HW215474   0.267   2.668  11.531 -1.3461 -2.4083  1.4155
 1280SOL     OW15475   3.857   2.440  11.071  0.6889  0.5011 -0.1764
 1280SOL    HW115476   3.929   2.498  11.045 -0.5188  1.8241 -0.5838
 1280SOL    HW215477   3.899   2.355  11.062 -1.1470 -0.5909  1.6380
 1281SOL     OW15478   0.390   0.361   6.552 -0.1168  0.4375 -0.4108
 1281SOL    HW115479   0.295   0.358   6.538 -0.0663 -2.1896 -0.1723
 1281SOL    HW215480   0.394   0.280   6.603 -0.9201 -1.0161 -2.6592
 1282SOL     OW15481   3.297   3.081  10.866 -0.0070 -0.0417  0.7392
 1282SOL    HW115482   3.247   3.144  10.918 -0.2356 -0.7445  1.3885
 1282SOL    HW215483   3.227   3.028  10.826  0.6726 -0.8371  0.6069
 1283SOL     OW15484   1.549   0.488  11.435  0.1023  0.1477 -0.1267
 1283SOL    HW115485   1.497   0.562  11.465  1.8049  1.6645 -0.8796
 1283SOL    HW215486   1.538   0.431  11.511  0.9604  0.0302 -0.0871
 1284SOL     OW15487   0.731   0.578   7.168  0.1523 -0.3559  0.3999
 1284SOL    HW115488   0.820   0.608   7.184 -0.4093  1.3130  0.4066
 1284SOL    HW215489   0.684   0.628   7.235 -0.2688 -1.9996  1.3243
 1285SOL     OW15490   1.155   0.652   4.383  0.3989 -0.3084 -0.5729
 1285SOL    HW115491   1.206   0.580   4.347 -1.3084 -1.5569 -0.4489
 1285SOL    HW215492   1.223   0.706   4.424 -0.1498 -0.3230  0.3775
 1286SOL     OW15493   1.840   2.588   3.083 -0.6156  0.2367  0.1135
 1286SOL    HW115494   1.784   2.516   3.112  0.1184  0.1919  1.4320
 1286SOL    HW215495   1.783   2.659   3.110  0.0491  1.1313 -0.8451
 1287SOL     OW15496   1.884   0.248  17.740  0.1671 -0.2914 -0.7224
 1287SOL    HW115497   1.928   0.219  17.660  0.7808  1.9715 -1.2203
 1287SOL    HW215498   1.793   0.232  17.717  0.0085 -0.2043 -0.1537
 1288SOL     OW15499   4.481   2.324   5.116  0.1060 -0.4307  0.4364
 1288SOL    HW115500   4.562   2.279   5.137  0.4362 -0.6661 -1.3379
 1288SOL    HW215501   4.499   2.342   5.023  1.3589 -0.1821  0.7343
 1289SOL     OW15502   4.259   3.170  13.785 -0.2408  0.0959 -0.1029
 1289SOL    HW115503   4.186   3.144  13.729 -1.5186  2.5073  0.4318
 1289SOL    HW215504   4.327   3.195  13.723  0.5842 -0.0117  0.7565
 1290SOL     OW15505   2.215   3.141   4.763  0.5768 -0.3560 -0.5639
 1290SOL    HW115506   2.210   3.068   4.825 -2.9753 -1.1832 -1.8040
 1290SOL    HW215507   2.130   3.145   4.720  0.7707 -0.3028 -0.9367
 1291SOL     OW15508   1.371   2.133   6.274 -0.2032 -0.2861 -0.5584
 1291SOL    HW115509   1.415   2.089   6.201 -1.1754 -0.2278 -1.1828
 1291SOL    HW215510   1.407   2.221   6.265  1.0177 -0.7056  0.1405
 1292SOL     OW15511   2.199   2.403   3.506  0.1879 -0.1315 -0.8566
 1292SOL    HW115512   2.143   2.453   3.565 -0.8406 -0.9609 -1.1280
 1292SOL    HW215513   2.271   2.380   3.563  0.7773  2.5547 -0.4876
 1293SOL     OW15514   4.515   4.599   5.785 -0.0813 -0.4640  0.0029
 1293SOL    HW115515   4.482   4.580   5.873  0.7796 -2.1234 -0.0375
 1293SOL    HW215516   4.508   4.511   5.749 -0.1004 -1.2988  2.0337
 1294SOL     OW15517   3.876   4.062   5.113 -0.3312 -0.3310  0.2317
 1294SOL    HW115518   3.902   3.988   5.058 -0.9708  0.3628 -0.9990
 1294SOL    HW215519   3.957   4.083   5.160  0.4431 -2.0490 -0.3364
 1295SOL     OW15520   0.621   0.775   4.478 -0.9959 -0.3844 -0.2898
 1295SOL    HW115521   0.687   0.707   4.491 -0.8418 -0.3838 -1.0855
 1295SOL    HW215522   0.542   0.723   4.467 -1.2268 -0.6792  2.7810
 1296SOL     OW15523   0.866   1.932   0.840  0.5875  0.0377  0.0648
 1296SOL    HW115524   0.887   1.948   0.748 -0.1090 -0.7628 -0.2303
 1296SOL    HW215525   0.922   1.997   0.884 -1.5006  2.7094 -1.1894
 1297SOL     OW15526   1.147   3.800   3.748 -0.2701 -0.1462  0.3397
 1297SOL    HW115527   1.171   3.804   3.656 -0.5636  2.9049  0.3864
 1297SOL    HW215528   1.221   3.753   3.788  1.3424  0.3736 -2.0065
 1298SOL     OW15529   0.824   2.411  13.186  0.3734  0.2723 -0.1481
 1298SOL    HW115530   0.876   2.332  13.168 -1.2467 -1.3905  2.4278
 1298SOL    HW215531   0.897   2.468  13.210 -0.7082  1.4826  0.2510
 1299SOL     OW15532   0.863   3.346  16.326 -0.3022 -0.4755  0.7451
 1299SOL    HW115533   0.797   3.348  16.396 -0.1902 -3.7806  0.9470
 1299SOL    HW215534   0.831   3.276  16.269  1.4077 -0.2587 -0.4579
 1300SOL     OW15535   4.281   1.579  12.643  0.5426 -0.0579  0.2636
 1300SOL    HW115536   4.282   1.530  12.725  1.1362  1.2355  1.0342
 1300SOL    HW215537   4.355   1.536  12.599 -0.3028  0.0085 -1.2237
 1301SOL     OW15538   4.612   1.664   3.505  0.6988  0.1117  0.3859
 1301SOL    HW115539   4.535   1.607   3.507  2.0964 -1.7284  1.0776
 1301SOL    HW215540   4.577   1.742   3.460  2.5279 -0.6727 -2.3904
 1302SOL     OW15541   1.808   0.547   4.132  0.6149  0.5420 -0.0942
 1302SOL    HW115542   1.838   0.507   4.051 -0.4979  1.8255 -1.1341
 1302SOL    HW215543   1.715   0.556   4.112 -0.2850  0.3490  3.9278
 1303SOL     OW15544   0.604   4.117   3.652 -0.7677  0.1577 -0.0919
 1303SOL    HW115545   0.625   4.058   3.725  0.0504 -0.0048 -0.4531
 1303SOL    HW215546   0.690   4.136   3.615 -1.8329 -0.2631 -2.7980
 1304SOL     OW15547   2.587   1.984   0.944  0.2465  1.0482 -0.3723
 1304SOL    HW115548   2.505   1.955   0.985  0.3779 -0.9608 -1.5354
 1304SOL    HW215549   2.591   2.066   0.993  2.0334 -0.2540  1.6353
 1305SOL     OW15550   1.539   1.511   5.843  0.1969  0.3014  0.3018
 1305SOL    HW115551   1.456   1.485   5.881  0.0973 -1.0256 -0.7758
 1305SOL    HW215552   1.583   1.544   5.921 -0.4287  1.8389 -0.0076
 1306SOL     OW15553   2.789   1.825   9.091 -0.1378 -0.0630  0.2883
 1306SOL    HW115554   2.848   1.767   9.043 -0.2286  1.7996 -2.0328
 1306SOL    HW215555   2.840   1.905   9.102 -0.8525  0.4276 -0.0316
 1307SOL     OW15556   3.778   2.868  10.947  0.0411 -0.0739  0.0163
 1307SOL    HW115557   3.788   2.913  10.863  0.9244  0.6349  0.4983
 1307SOL    HW215558   3.749   2.780  10.923 -1.9662  0.4445  0.5827
 1308SOL     OW15559   2.351   0.646   3.414 -0.2488 -0.3647 -0.4586
 1308SOL    HW115560   2.368   0.555   3.390  0.0536 -0.5991  0.6350
 1308SOL    HW215561   2.415   0.658   3.485  0.5720  1.7346 -1.5864
 1309SOL     OW15562   1.888   3.080  17.582  0.2834 -0.3449  0.2245
 1309SOL    HW115563   1.856   3.119  17.501 -0.7820 -0.1793  0.7278
 1309SOL    HW215564   1.811   3.083  17.638  0.4543  1.8742  0.3271
 1310SOL     OW15565   2.748   1.942   3.561  0.1152  0.3251  0.2216
 1310SOL    HW115566   2.669   1.917   3.512  0.0720 -3.1911  2.0722
 1310SOL    HW215567   2.706   1.945   3.647 -0.2466 -0.6911  0.0884
 1311SOL     OW15568   2.313   4.241  10.247 -0.3031 -0.9578  0.2460
 1311SOL    HW115569   2.385   4.178  10.248  1.8048  1.4310 -1.4941
 1311SOL    HW215570   2.315   4.257  10.341  2.4508  1.7169 -0.2589
 1312SOL     OW15571   3.663   0.721   1.433  0.6954 -0.2573 -0.2056
 1312SOL    HW115572   3.731   0.680   1.486  1.3747  1.1569  0.0208
 1312SOL    HW215573   3.707   0.799   1.400 -1.1658  1.4402  1.3488
 1313SOL     OW15574   1.475   2.522   2.503  0.3091  0.1414 -0.1267
 1313SOL    HW115575   1.475   2.572   2.422 -0.9737  0.9954  0.4101
 1313SOL    HW215576   1.421   2.575   2.561  0.4645 -0.0889  0.2323
 1314SOL     OW15577   3.751   2.534  15.772 -0.2961 -0.0450 -0.3301
 1314SOL    HW115578   3.713   2.577  15.696  0.0432  0.1563 -0.3856
 1314SOL    HW215579   3.686   2.561  15.837 -0.6472 -1.7754  0.0389
 1315SOL     OW15580   0.867   0.958   6.858 -0.2877  0.2488  0.0484
 1315SOL    HW115581   0.808   0.889   6.829 -1.8778  2.3319 -1.5996
 1315SOL    HW215582   0.951   0.912   6.855 -0.2955  0.2296  0.1080
 1316SOL     OW15583   4.128   3.602   7.723 -0.6925 -0.2191 -0.4573
 1316SOL    HW115584   4.169   3.607   7.637  1.3004  0.8480  0.5599
 1316SOL    HW215585   4.056   3.666   7.715 -0.9095 -0.3188  0.7666
 1317SOL     OW15586   2.870   3.071   0.789 -0.0346 -0.2452  0.5674
 1317SOL    HW115587   2.881   3.151   0.840  1.1033 -0.7669  1.1172
 1317SOL    HW215588   2.886   3.005   0.855 -1.1036 -1.5586 -0.4755
 1318SOL     OW15589   0.910   3.546   1.048  0.2912 -0.3883  0.6867
 1318SOL    HW115590   0.898   3.641   1.049  0.6239 -0.3642  2.3036
 1318SOL    HW215591   0.862   3.524   0.968  0.4991  1.5240  0.0429
 1319SOL     OW15592   1.613   0.921   7.847  0.2554  0.0114  0.4807
 1319SOL    HW115593   1.614   0.830   7.878 -1.2108  0.5298  2.0548
 1319SOL    HW215594   1.659   0.926   7.764 -2.8863  1.3269 -1.1724
 1320SOL     OW15595   3.027   1.396  10.624  0.4450  0.3450 -0.0922
 1320SOL    HW115596   2.946   1.363  10.663  1.5279  0.9412  2.6255
 1320SOL    HW215597   3.008   1.359  10.538  0.5348  2.9355 -1.2333
 1321SOL     OW15598   2.057   2.636  12.932 -0.2892 -0.2350 -0.0644
 1321SOL    HW115599   2.067   2.604  13.022 -0.3939  1.1224  0.4268
 1321SOL    HW215600   2.144   2.661  12.902 -0.7887  2.0178  0.3572
 1322SOL     OW15601   2.844   1.146   9.391 -0.2385 -0.7058  0.4402
 1322SOL    HW115602   2.855   1.223   9.335  0.0765 -0.7669  0.4162
 1322SOL    HW215603   2.755   1.119   9.368 -0.6087  2.9236 -2.3376
 1323SOL     OW15604   1.302   1.994   5.388 -0.3007  0.1885  0.3422
 1323SOL    HW115605   1.278   2.040   5.308 -0.0307  0.3568  0.3591
 1323SOL    HW215606   1.301   2.070   5.447 -0.9385  1.4486 -1.2879
 1324SOL     OW15607   3.321   0.626   7.522 -0.3216  0.0971  0.2176
 1324SOL    HW115608   3.235   0.604   7.485 -0.7457 -0.9722  1.8480
 1324SOL    HW215609   3.318   0.565   7.595 -1.0312 -0.5919 -0.3806
 1325SOL     OW15610   0.623   1.795   3.602  0.5127 -0.2442 -0.0283
 1325SOL    HW115611   0.601   1.822   3.513  2.4554 -0.8486 -0.6963
 1325SOL    HW215612   0.600   1.876   3.648  1.9672 -0.2319  0.6987
 1326SOL     OW15613   3.857   3.451   5.982 -0.2006 -0.4171  0.3490
 1326SOL    HW115614   3.801   3.386   6.023 -0.0722 -1.3731 -0.9721
 1326SOL    HW215615   3.796   3.523   5.969 -0.5002 -0.9211 -0.9980
 1327SOL     OW15616   1.885   0.825   7.273 -0.3777 -0.0901 -0.3289
 1327SOL    HW115617   1.821   0.776   7.323  1.0910 -0.3393  1.3224
 1327SOL    HW215618   1.887   0.769   7.195 -2.4293 -0.0423 -0.4055
 1328SOL     OW15619   3.853   2.554   2.359 -0.6023 -0.1576  0.0122
 1328SOL    HW115620   3.778   2.543   2.418 -0.0730  0.1471  0.7427
 1328SOL    HW215621   3.883   2.641   2.385 -1.2289  0.5943 -1.7784
 1329SOL     OW15622   2.519   0.303   3.060  0.0092  0.0303 -0.2635
 1329SOL    HW115623   2.484   0.284   3.147  0.5154  1.7576  0.3181
 1329SOL    HW215624   2.590   0.365   3.075  2.6906 -3.2352  0.3111
 1330SOL     OW15625   3.793   0.488   3.004 -0.4036  0.1303 -0.0048
 1330SOL    HW115626   3.699   0.480   2.988  0.0406 -2.7228 -1.1402
 1330SOL    HW215627   3.794   0.499   3.099  2.2732  0.5621 -0.0746
 1331SOL     OW15628   0.820   4.618   5.453 -0.7159 -0.4801 -0.3751
 1331SOL    HW115629   0.862   4.610   5.368 -1.7164 -0.2686 -0.8891
 1331SOL    HW215630   0.746   4.557   5.456 -1.6627  0.6269 -1.1414
 1332SOL     OW15631   3.408   2.144   2.818  0.1073 -0.5794  0.4348
 1332SOL    HW115632   3.493   2.133   2.775 -0.5542 -2.6739 -0.3424
 1332SOL    HW215633   3.406   2.238   2.834  0.1993  0.2779 -4.5682
 1333SOL     OW15634   2.323   0.096  12.770 -0.0716  0.6590  0.0374
 1333SOL    HW115635   2.303   0.005  12.791  0.9288  0.2648 -0.7191
 1333SOL    HW215636   2.241   0.146  12.768 -1.2180 -1.2692 -0.8127
 1334SOL     OW15637   1.170   0.825   3.920  0.1297 -0.0399  0.0175
 1334SOL    HW115638   1.242   0.762   3.920 -0.3572 -0.5917  1.3723
 1334SOL    HW215639   1.197   0.876   3.997 -1.4705 -0.6183  0.9541
 1335SOL     OW15640   0.171   3.436   0.207  0.2661  0.2367  0.5453
 1335SOL    HW115641   0.172   3.506   0.273  2.2491  1.0054 -0.3049
 1335SOL    HW215642   0.130   3.484   0.135 -0.8591 -2.7286 -0.7613
 1336SOL     OW15643   1.937   2.818  17.676  0.3419 -0.3161  0.4847
 1336SOL    HW115644   1.906   2.906  17.655 -0.1645 -1.1245 -2.1523
 1336SOL    HW215645   1.921   2.765  17.598 -2.1945 -0.2151  0.9541
 1337SOL     OW15646   2.239   1.407  13.623 -0.1455  0.1272  0.2946
 1337SOL    HW115647   2.321   1.430  13.580 -1.2280  0.3958 -1.6484
 1337SOL    HW215648   2.182   1.480  13.598 -0.8388 -1.0305 -1.5263
 1338SOL     OW15649   2.717   0.229  10.582  0.1134  0.0004 -0.0690
 1338SOL    HW115650   2.654   0.298  10.560 -1.9322 -1.9293 -0.2504
 1338SOL    HW215651   2.643   0.169  10.591  0.8484 -0.8583  0.2480
 1339SOL     OW15652   4.693   2.697   3.578 -0.5759 -0.4736  0.3816
 1339SOL    HW115653   4.723   2.730   3.662 -1.3811 -0.9300  0.8516
 1339SOL    HW215654   0.034   2.658   3.543  0.7203  0.7796  1.9046
 1340SOL     OW15655   1.352   1.346   5.339 -0.0974 -0.0877 -0.4579
 1340SOL    HW115656   1.315   1.360   5.426  0.0562 -2.4709 -0.0130
 1340SOL    HW215657   1.309   1.423   5.304 -0.1016  0.0320 -0.1881
 1341SOL     OW15658   3.230   3.902   3.266  0.0267 -0.2759  0.2475
 1341SOL    HW115659   3.176   3.895   3.187 -0.6795 -0.3830  0.7322
 1341SOL    HW215660   3.227   3.998   3.266  0.8548 -0.2568  0.5543
 1342SOL     OW15661   2.628   0.867   3.091 -0.3197 -0.5135  0.0195
 1342SOL    HW115662   2.696   0.935   3.102 -1.4035  1.1774 -3.8185
 1342SOL    HW215663   2.582   0.872   3.175  1.1086 -1.9371  0.8909
 1343SOL     OW15664   2.112   0.278   2.104 -0.6386  0.3343  0.1592
 1343SOL    HW115665   2.146   0.329   2.178  0.7957 -2.6730  1.5561
 1343SOL    HW215666   2.084   0.350   2.047  2.0983  0.9560 -0.4195
 1344SOL     OW15667   4.056   1.363   8.507 -0.3782  0.3567  0.1473
 1344SOL    HW115668   4.143   1.389   8.479 -1.1484 -1.5877 -4.0594
 1344SOL    HW215669   4.033   1.412   8.586 -0.9673  0.4017 -0.0508
 1345SOL     OW15670   0.963   0.161   4.564  0.5615  0.1230 -0.3425
 1345SOL    HW115671   0.964   0.256   4.578  0.3679  0.0715  0.0219
 1345SOL    HW215672   1.055   0.143   4.580  0.2475 -0.2726  1.0103
 1346SOL     OW15673   1.815   3.990   3.936 -0.4933 -0.3153  0.2020
 1346SOL    HW115674   1.790   3.965   3.847 -0.8136 -0.3891  0.3132
 1346SOL    HW215675   1.748   4.056   3.951  0.3313  0.9560 -1.5861
 1347SOL     OW15676   2.355   0.248   1.636 -0.0219  0.1649 -0.0813
 1347SOL    HW115677   2.317   0.209   1.715  0.9726  0.3766  0.4937
 1347SOL    HW215678   2.274   0.241   1.584  0.0101 -0.3824 -0.0592
 1348SOL     OW15679   0.890   4.276   2.819  0.0860 -0.7843  0.5008
 1348SOL    HW115680   0.960   4.336   2.846 -1.0101  1.7175 -2.2206
 1348SOL    HW215681   0.926   4.193   2.852  0.3061 -1.2508 -0.9310
 1349SOL     OW15682   4.079   3.751   7.977  0.3521 -0.0845  0.1134
 1349SOL    HW115683   4.033   3.757   7.893  1.9136  1.7550 -0.6077
 1349SOL    HW215684   4.065   3.837   8.016  0.9187  0.5671 -1.1065
 1350SOL     OW15685   0.406   4.533  14.301 -0.0444 -0.5212 -0.6154
 1350SOL    HW115686   0.371   4.444  14.298  0.1476 -0.6392  0.7694
 1350SOL    HW215687   0.492   4.511  14.266  0.6934  0.3580  0.6464
 1351SOL     OW15688   2.117   1.380   4.385  0.0254  0.7879  0.0592
 1351SOL    HW115689   2.106   1.286   4.376 -0.8029  1.0519 -1.7062
 1351SOL    HW215690   2.211   1.381   4.400 -0.2106  1.0656  1.5108
 1352SOL     OW15691   2.993   0.179   7.901 -0.4823  0.8238  0.1306
 1352SOL    HW115692   3.047   0.168   7.822 -2.2080 -0.0643 -0.9309
 1352SOL    HW215693   2.903   0.184   7.868  0.1222 -2.3095 -1.9703
 1353SOL     OW15694   4.151   4.498   8.150  0.1414  0.2207  0.6909
 1353SOL    HW115695   4.203   4.439   8.204  0.0237  1.0988  1.7603
 1353SOL    HW215696   4.083   4.511   8.215 -1.1388 -0.1431 -0.5628
 1354SOL     OW15697   2.355   1.587   0.710 -0.1575 -0.7423  0.2234
 1354SOL    HW115698   2.306   1.644   0.770 -0.1958 -0.1494 -0.3783
 1354SOL    HW215699   2.387   1.520   0.770 -0.3844  1.7688  3.1543
 1355SOL     OW15700   4.143   1.363  14.535 -0.2943 -0.7900  0.2252
 1355SOL    HW115701   4.132   1.457  14.547  2.0967 -0.5233  0.2694
 1355SOL    HW215702   4.190   1.348  14.453 -0.5883 -1.0141  0.0976
 1356SOL     OW15703   3.346   4.575   8.847 -0.1469  0.7730  0.1392
 1356SOL    HW115704   3.384   4.571   8.759  0.7466  0.2660  0.5459
 1356SOL    HW215705   3.323   4.482   8.852  0.7340  0.5637  0.3825
 1357SOL     OW15706   2.218   1.384   6.938 -0.5689 -0.0308 -0.0271
 1357SOL    HW115707   2.236   1.336   7.019  2.9334 -0.9313 -1.3383
 1357SOL    HW215708   2.123   1.386   6.926 -0.3204  1.3682 -1.8253
 1358SOL     OW15709   1.420   0.245   6.668 -0.1858  0.1452 -0.3520
 1358SOL    HW115710   1.467   0.199   6.598 -0.1124  0.5361 -0.5560
 1358SOL    HW215711   1.337   0.273   6.629 -0.3900  0.0987  0.0545
 1359SOL     OW15712   0.617   1.941  10.779 -0.3472 -0.1635  0.2358
 1359SOL    HW115713   0.584   1.993  10.852 -0.3061  0.7262 -0.3791
 1359SOL    HW215714   0.539   1.929  10.724  1.1273  0.6792 -2.0036
 1360SOL     OW15715   2.149   0.891   7.439  0.0178  0.0935 -0.3108
 1360SOL    HW115716   2.074   0.906   7.381 -0.8622 -3.6980 -0.1950
 1360SOL    HW215717   2.155   0.798   7.418 -0.6670 -0.3605  1.4554
 1361SOL     OW15718   3.202   1.297   6.191  0.0451 -0.3554  0.2023
 1361SOL    HW115719   3.130   1.235   6.198 -1.3083  0.8791 -2.5160
 1361SOL    HW215720   3.173   1.368   6.248  0.9809  2.4079 -2.7068
 1362SOL     OW15721   2.547   4.601  17.654 -0.4653  0.5828  0.6067
 1362SOL    HW115722   2.483   4.672  17.663 -0.1622  0.8036  0.9762
 1362SOL    HW215723   2.502   4.543  17.592  0.9346  2.3240 -2.0313
 1363SOL     OW15724   1.391   0.716   1.862  0.1805  0.4470  0.2350
 1363SOL    HW115725   1.301   0.715   1.829  0.7030  2.1621 -1.2839
 1363SOL    HW215726   1.390   0.796   1.915  0.1075  1.2085 -0.8975
 1364SOL     OW15727   2.019   1.869   3.764 -0.1297  0.6474  0.6316
 1364SOL    HW115728   2.032   1.775   3.778 -0.5495  0.2252 -1.7628
 1364SOL    HW215729   1.976   1.861   3.679 -0.4556  2.6916  0.5961
 1365SOL     OW15730   0.410   1.121   5.002  0.1645 -0.6380 -0.1860
 1365SOL    HW115731   0.413   1.052   4.935  1.9126 -1.2403  0.5076
 1365SOL    HW215732   0.503   1.126   5.027 -0.0902  2.6761  0.1293
 1366SOL     OW15733   1.676   4.724  17.341  0.1835  0.4951 -0.2011
 1366SOL    HW115734   1.706   4.648  17.292  0.2985  0.6094 -0.3078
 1366SOL    HW215735   1.714   0.056  17.289  1.1625  0.8153  0.9531
 1367SOL     OW15736   2.608   3.411   5.175  0.3845 -0.1721  0.3115
 1367SOL    HW115737   2.655   3.399   5.257  0.6930  0.9659  0.3075
 1367SOL    HW215738   2.645   3.498   5.157  0.7324 -0.5946 -1.0063
 1368SOL     OW15739   0.574   2.106   1.174 -0.7071 -0.3742 -0.7201
 1368SOL    HW115740   0.542   2.176   1.118 -0.2971  0.4410  0.0755
 1368SOL    HW215741   0.584   2.036   1.109 -0.7582 -1.8384  0.8348
 1369SOL     OW15742   3.460   0.239   6.271  1.1051 -0.4345 -0.7389
 1369SOL    HW115743   3.476   0.305   6.203  1.4884  0.9151  0.6815
 1369SOL    HW215744   3.494   0.277   6.351 -0.7612  1.5184 -0.8897
 1370SOL     OW15745   2.431   2.889   4.898 -0.0723 -0.8658  0.2165
 1370SOL    HW115746   2.348   2.844   4.883  0.4105 -1.3286 -1.1355
 1370SOL    HW215747   2.466   2.893   4.809  2.4832  0.2704  1.2723
 1371SOL     OW15748   1.564   1.544   9.184 -0.2660  0.5678  0.1226
 1371SOL    HW115749   1.484   1.506   9.221 -0.1574  1.0234  0.8249
 1371SOL    HW215750   1.638   1.512   9.235  0.6658  0.6994 -1.1578
 1372SOL     OW15751   3.461   2.504   6.520 -0.3035  0.1455 -0.2666
 1372SOL    HW115752   3.472   2.577   6.580 -0.1773 -0.3813  0.3476
 1372SOL    HW215753   3.468   2.549   6.435 -0.2223 -0.0010 -0.3369
 1373SOL     OW15754   1.565   0.512   8.666 -0.0094 -0.1149 -0.3694
 1373SOL    HW115755   1.661   0.513   8.663  0.0674 -4.4368  0.6841
 1373SOL    HW215756   1.548   0.507   8.760 -1.3123 -0.8259 -0.6487
 1374SOL     OW15757   0.132   4.074   7.163 -0.3211 -0.4293 -0.6162
 1374SOL    HW115758   0.038   4.059   7.173 -0.5766  2.7454  1.8153
 1374SOL    HW215759   0.136   4.169   7.149 -2.0186 -0.6130 -2.3424
 1375SOL     OW15760   1.014   3.962   3.484  0.0490  0.1689 -0.3705
 1375SOL    HW115761   1.109   3.951   3.489  0.1298  1.9868  1.9626
 1375SOL    HW215762   0.993   3.890   3.424  0.9623 -0.3159 -0.1010
 1376SOL     OW15763   0.799   2.594   7.068  0.0164  0.5708  0.1654
 1376SOL    HW115764   0.731   2.653   7.033  0.8576 -0.5699 -3.3671
 1376SOL    HW215765   0.761   2.536   7.134 -2.1398  0.0255 -1.5407
 1377SOL     OW15766   0.816   3.767   6.441 -0.3172 -0.3331 -0.3115
 1377SOL    HW115767   0.877   3.829   6.481 -0.4042  0.2406 -1.0743
 1377SOL    HW215768   0.764   3.814   6.377 -0.7216  1.7896  1.5746
 1378SOL     OW15769   2.515   4.719   9.439  0.1365 -0.1530 -0.1915
 1378SOL    HW115770   2.555   0.066   9.454  2.1757 -0.8690 -1.4895
 1378SOL    HW215771   2.460   4.721   9.517  1.5181  0.8182  0.7696
 1379SOL     OW15772   1.076   1.210   5.834  0.1044 -0.3477  0.7081
 1379SOL    HW115773   1.135   1.175   5.900 -1.5783 -0.8697  1.9368
 1379SOL    HW215774   1.022   1.272   5.883  0.8522  0.7179  0.1936
 1380SOL     OW15775   0.124   0.637  13.286 -0.4376 -0.2195 -0.0136
 1380SOL    HW115776   0.100   0.728  13.305  2.6610  0.6830 -0.3690
 1380SOL    HW215777   0.219   0.654  13.285 -0.5126  0.1987 -0.0139
 1381SOL     OW15778   0.548   2.229   4.625  0.2636  0.4192  0.1785
 1381SOL    HW115779   0.552   2.265   4.713  1.7998  1.0101 -0.1423
 1381SOL    HW215780   0.616   2.283   4.585 -1.3056  1.0414 -1.6647
 1382SOL     OW15781   3.334   0.825  10.741  0.1909  0.4927  0.4506
 1382SOL    HW115782   3.294   0.912  10.748 -0.4168  0.2953 -0.5159
 1382SOL    HW215783   3.257   0.783  10.702  0.6324 -0.5152  0.6566
 1383SOL     OW15784   2.294   1.124   2.487  0.1418  0.0179  0.4988
 1383SOL    HW115785   2.227   1.124   2.557 -1.9235  0.5418 -1.4717
 1383SOL    HW215786   2.313   1.031   2.486  2.2580  0.5084 -2.5905
 1384SOL     OW15787   3.233   3.424   5.837  0.2940  0.5036  0.2615
 1384SOL    HW115788   3.246   3.382   5.922 -2.6269 -1.4118 -0.2085
 1384SOL    HW215789   3.325   3.430   5.813  0.0895  3.1192  0.2051
 1385SOL     OW15790   4.064   4.634   2.542 -0.6785 -0.0956 -0.1657
 1385SOL    HW115791   4.009   4.668   2.613  0.7008  0.2607  0.7350
 1385SOL    HW215792   4.106   4.556   2.577 -2.6018 -2.0222 -2.1911
 1386SOL     OW15793   4.587   1.552  10.865  0.2141 -0.2929  0.0979
 1386SOL    HW115794   4.572   1.644  10.886  0.1259  0.2963 -2.6184
 1386SOL    HW215795   4.525   1.544  10.793 -1.0078 -2.5979  1.4016
 1387SOL     OW15796   2.690   3.676   2.054 -0.1008 -0.1260 -0.0669
 1387SOL    HW115797   2.634   3.739   2.009 -0.3305  0.1334  0.5779
 1387SOL    HW215798   2.778   3.688   2.018  0.7346 -0.4363  1.8578
 1388SOL     OW15799   3.395   3.002   4.618 -0.5520 -0.1321 -0.0040
 1388SOL    HW115800   3.433   3.081   4.580 -0.1497 -0.8404 -1.0868
 1388SOL    HW215801   3.379   2.944   4.543 -1.3251 -0.6516  0.5699
 1389SOL     OW15802   4.554   2.567   4.055 -0.5139 -0.1671  0.1762
 1389SOL    HW115803   4.511   2.631   3.999  0.8598 -0.4685 -1.2125
 1389SOL    HW215804   4.614   2.533   3.989  0.8626 -3.5783  3.1796
 1390SOL     OW15805   1.078   0.227   3.093  0.5506  0.0916  0.0859
 1390SOL    HW115806   1.152   0.226   3.032 -1.7993 -0.2814 -2.8088
 1390SOL    HW215807   1.105   0.299   3.149  1.0544  0.2012 -0.2939
 1391SOL     OW15808   0.749   0.397  15.024  0.4810 -0.3761 -0.3409
 1391SOL    HW115809   0.693   0.475  15.022  1.4444  0.3108 -0.3541
 1391SOL    HW215810   0.679   0.335  15.003  1.5867 -1.7654  0.1285
 1392SOL     OW15811   1.620   3.656  14.338  0.8534  0.4126 -0.1286
 1392SOL    HW115812   1.686   3.658  14.408  1.4256  1.0502 -0.6864
 1392SOL    HW215813   1.629   3.747  14.311  0.5479  0.1711 -1.0538
 1393SOL     OW15814   2.961   0.059   5.069 -0.1747 -0.1364 -0.1659
 1393SOL    HW115815   2.921   0.140   5.101 -0.2653 -0.9635  1.7571
 1393SOL    HW215816   2.894   4.730   5.078  2.7164 -2.7865  1.1392
 1394SOL     OW15817   4.061   1.097   7.586  0.7311  0.1350  0.3287
 1394SOL    HW115818   4.141   1.114   7.535 -0.0380  0.7787 -0.6457
 1394SOL    HW215819   3.999   1.118   7.517  0.6422  1.2354  0.7495
 1395SOL     OW15820   4.224   1.137   0.360  0.3844  0.0620 -0.0286
 1395SOL    HW115821   4.284   1.212   0.367  0.4715 -0.2587  2.6651
 1395SOL    HW215822   4.240   1.089   0.440  1.2842  0.4353  0.0119
 1396SOL     OW15823   2.909   3.437   0.309 -0.7108  0.3306 -0.1113
 1396SOL    HW115824   2.892   3.423   0.403  1.4435  0.0744  0.2426
 1396SOL    HW215825   3.003   3.424   0.312 -0.6150  0.9788 -0.4119
 1397SOL     OW15826   3.896   0.470   2.520 -0.1240  0.2432 -0.3099
 1397SOL    HW115827   3.974   0.506   2.477  0.2116 -2.1193 -1.6530
 1397SOL    HW215828   3.877   0.397   2.462  0.4884 -2.0862  2.4430
 1398SOL     OW15829   1.499   2.726   1.807  0.6013  0.2318  0.3009
 1398SOL    HW115830   1.510   2.631   1.805 -2.5398 -0.1352  0.2202
 1398SOL    HW215831   1.404   2.728   1.797  0.5499 -0.7931  0.5829
 1399SOL     OW15832   2.755   0.208   7.801 -0.4154  0.1469 -0.1063
 1399SOL    HW115833   2.772   0.240   7.712  0.1188  0.6921  0.1882
 1399SOL    HW215834   2.690   0.269   7.837  1.4135  2.4152 -0.6026
 1400SOL     OW15835   1.857   2.709   6.499 -0.3929 -0.7332  0.1779
 1400SOL    HW115836   1.789   2.645   6.476  0.8975 -2.8398  2.1863
 1400SOL    HW215837   1.825   2.775   6.561  3.3096  0.3359  0.9839
 1401SOL     OW15838   0.109   3.161   8.342 -0.3612  0.4501  0.5646
 1401SOL    HW115839   0.203   3.174   8.338 -0.1822 -0.1837  2.6707
 1401SOL    HW215840   0.087   3.251   8.368  1.7044  0.1049  3.4607
 1402SOL     OW15841   2.220   0.821  10.751  0.2225  0.1629  0.6059
 1402SOL    HW115842   2.258   0.909  10.758 -0.3446  0.6129 -1.9148
 1402SOL    HW215843   2.235   0.796  10.842  0.2065 -1.2237  0.2277
 1403SOL     OW15844   3.107   3.050   0.330 -0.3714  0.8660 -0.5861
 1403SOL    HW115845   3.138   3.141   0.325  1.6356  0.2043 -0.0797
 1403SOL    HW215846   3.034   3.064   0.392  1.3843  2.1936  1.1814
 1404SOL     OW15847   1.991   4.545   8.679 -0.0297  0.0254  0.3936
 1404SOL    HW115848   2.068   4.492   8.656  0.5928  1.2600 -0.3765
 1404SOL    HW215849   1.998   4.557   8.774  0.1149 -1.3931  0.5633
 1405SOL     OW15850   3.421   1.821   6.878  0.2763 -0.3342  0.4920
 1405SOL    HW115851   3.375   1.739   6.893  2.5398 -2.0389 -1.7726
 1405SOL    HW215852   3.501   1.787   6.837 -0.0214  0.7043 -0.9353
 1406SOL     OW15853   1.322   2.005  16.746 -0.1669 -0.6859 -0.2071
 1406SOL    HW115854   1.380   2.075  16.717  0.7833 -1.8264 -1.0406
 1406SOL    HW215855   1.320   2.029  16.838  0.3818  0.1539 -0.4169
 1407SOL     OW15856   1.357   4.682   8.723  0.2094 -0.6955 -0.2582
 1407SOL    HW115857   1.316   4.611   8.772 -0.6098 -0.7986 -1.0930
 1407SOL    HW215858   1.341   0.017   8.783  0.0362  0.3278 -1.5504
 1408SOL     OW15859   0.589   4.486   9.332 -0.0436  0.2096 -0.4633
 1408SOL    HW115860   0.674   4.442   9.325  0.4476  0.9121  1.0174
 1408SOL    HW215861   0.623   4.575   9.321  1.0852  0.2607  3.3921
 1409SOL     OW15862   1.387   0.711   8.256  0.4490  0.0220  0.2553
 1409SOL    HW115863   1.360   0.699   8.347 -0.7388 -1.6554 -0.3246
 1409SOL    HW215864   1.371   0.623   8.223 -1.0646 -0.4559  2.3223
 1410SOL     OW15865   2.519   3.352  10.692 -0.4631 -0.6966 -0.1746
 1410SOL    HW115866   2.585   3.418  10.715 -0.3274 -1.1571  0.8003
 1410SOL    HW215867   2.562   3.311  10.617 -1.6951 -0.5936 -0.9335
 1411SOL     OW15868   1.296   1.625   5.228 -0.1103 -0.2374  0.4629
 1411SOL    HW115869   1.204   1.637   5.202 -0.5508  1.9709  3.0931
 1411SOL    HW215870   1.295   1.635   5.323  0.0255  0.3059  0.4087
 1412SOL     OW15871   0.665   2.075   6.113  0.2123  0.0243  0.5899
 1412SOL    HW115872   0.687   2.019   6.188  2.2797  2.1213  1.5546
 1412SOL    HW215873   0.732   2.056   6.047  1.7727  0.6619  1.9671
 1413SOL     OW15874   0.752   3.577   3.392 -0.1908 -0.2918  0.1300
 1413SOL    HW115875   0.713   3.524   3.461 -0.7911 -2.0945 -1.5907
 1413SOL    HW215876   0.682   3.642   3.381  0.4247  0.5133  0.9847
 1414SOL     OW15877   2.634   3.890   4.844 -0.2264  0.1233 -0.0576
 1414SOL    HW115878   2.605   3.830   4.913 -1.4972  0.0188 -0.6816
 1414SOL    HW215879   2.558   3.869   4.790 -0.3701 -0.1573  0.2481
 1415SOL     OW15880   1.534   1.617   1.679 -0.3825  0.6391  0.5772
 1415SOL    HW115881   1.521   1.706   1.645  1.8392  0.5707 -0.4306
 1415SOL    HW215882   1.462   1.602   1.741 -0.2783  1.4846  0.9077
 1416SOL     OW15883   3.875   2.562   7.505 -0.2112  0.1699  0.3682
 1416SOL    HW115884   3.923   2.645   7.506  1.7047 -0.9203 -0.8998
 1416SOL    HW215885   3.788   2.599   7.492 -0.7256  0.3384  4.2531
 1417SOL     OW15886   1.764   1.153  14.792 -0.1859  0.3475  0.3340
 1417SOL    HW115887   1.791   1.063  14.809  0.0575  0.4088  0.2719
 1417SOL    HW215888   1.701   1.182  14.858 -1.0179 -0.3195 -0.1756
 1418SOL     OW15889   3.477   0.759   1.249 -0.0568 -0.2599  0.3240
 1418SOL    HW115890   3.389   0.730   1.274  0.5085 -0.2784  2.2300
 1418SOL    HW215891   3.527   0.738   1.327  0.3396 -1.6646 -0.3113
 1419SOL     OW15892   3.252   1.970   3.231  0.1224 -0.1913 -0.3156
 1419SOL    HW115893   3.230   2.030   3.160  0.2373  1.0709  0.7264
 1419SOL    HW215894   3.270   1.888   3.185  0.8818 -0.5500  0.5947
 1420SOL     OW15895   3.228   0.238   2.082 -0.0243  0.3450  0.6319
 1420SOL    HW115896   3.309   0.187   2.081  0.3429  0.9968 -2.0158
 1420SOL    HW215897   3.242   0.297   2.008 -1.2107  0.4493  0.4897
 1421SOL     OW15898   3.211   0.638  16.093 -0.0016  0.2193 -0.4711
 1421SOL    HW115899   3.236   0.595  16.175  1.1536  0.1677 -0.8366
 1421SOL    HW215900   3.301   0.633  16.058  0.7098 -0.0022  1.4005
 1422SOL     OW15901   3.059   2.825   4.072 -0.4405 -0.5058  0.0643
 1422SOL    HW115902   3.064   2.872   3.988 -1.9087 -0.3797  0.0590
 1422SOL    HW215903   3.039   2.903   4.124 -1.2658 -1.1495  0.6915
 1423SOL     OW15904   3.548   2.712  10.210 -0.6898  0.3271 -0.4720
 1423SOL    HW115905   3.508   2.766  10.278  2.1265  0.5471  1.0122
 1423SOL    HW215906   3.530   2.772  10.137 -1.2210  2.2571  1.2505
 1424SOL     OW15907   3.438   2.343   8.152  0.2398  0.1746 -0.3112
 1424SOL    HW115908   3.409   2.366   8.240  0.2874 -1.5107  0.1499
 1424SOL    HW215909   3.407   2.418   8.100 -3.1752 -2.5630 -2.2111
 1425SOL     OW15910   4.121   0.558   7.648  0.0576 -0.0172  0.3187
 1425SOL    HW115911   4.159   0.590   7.731 -0.2695 -0.5615  0.6765
 1425SOL    HW215912   4.181   0.603   7.588  0.1511 -1.1147 -0.4029
 1426SOL     OW15913   2.509   4.281  12.278 -0.4266  0.5017 -0.2322
 1426SOL    HW115914   2.482   4.191  12.257  0.3236  0.4783 -1.1061
 1426SOL    HW215915   2.604   4.278  12.291 -0.5831 -0.0554  0.7798
 1427SOL     OW15916   0.260   0.821   1.098  0.0827 -0.4944 -0.1211
 1427SOL    HW115917   0.252   0.743   1.154  3.3153  0.2094  1.3012
 1427SOL    HW215918   0.352   0.831   1.077  0.3626  0.5427  1.6271
 1428SOL     OW15919   2.018   1.072   5.004 -0.7021 -0.1440  0.0359
 1428SOL    HW115920   1.947   1.134   5.022 -2.8709 -2.5883 -0.0780
 1428SOL    HW215921   2.038   1.035   5.090  1.2271  0.0221 -0.3463
 1429SOL     OW15922   3.074   0.772   5.605 -0.1330  0.1602 -0.0745
 1429SOL    HW115923   3.086   0.755   5.698 -0.5924 -0.9800 -0.2267
 1429SOL    HW215924   3.157   0.817   5.586 -0.2848 -0.1901 -1.5574
 1430SOL     OW15925   4.606   3.399  12.810  0.0235  0.1803  0.2271
 1430SOL    HW115926   4.544   3.422  12.741 -0.9888 -0.2977  0.9607
 1430SOL    HW215927   4.652   3.326  12.769  0.1092  0.8288 -0.8247
 1431SOL     OW15928   4.304   0.717  12.313 -0.0022 -0.5072  0.0569
 1431SOL    HW115929   4.217   0.712  12.352  0.7645  0.5634  1.9211
 1431SOL    HW215930   4.362   0.690  12.384  0.9878 -0.8752 -0.9005
 1432SOL     OW15931   1.638   0.132   7.795 -0.0910  0.1499 -1.0859
 1432SOL    HW115932   1.625   0.148   7.888 -1.4554 -0.3072 -1.2080
 1432SOL    HW215933   1.587   0.207   7.764 -0.8941  0.1562  0.2587
 1433SOL     OW15934   2.739   0.789   8.207  0.4714 -0.1442  0.0350
 1433SOL    HW115935   2.700   0.701   8.200 -0.1242  0.1655 -0.4899
 1433SOL    HW215936   2.808   0.793   8.140 -0.8726 -3.1724 -1.5290
 1434SOL     OW15937   4.367   3.920  11.290 -0.6348 -0.1360 -0.3762
 1434SOL    HW115938   4.402   3.963  11.367 -1.0310 -0.1355 -0.1942
 1434SOL    HW215939   4.327   3.843  11.330 -0.4760 -0.9922 -1.8652
 1435SOL     OW15940   4.522   3.351   4.908  0.3252  0.2745  0.1978
 1435SOL    HW115941   4.597   3.309   4.949 -0.3309  0.4629  1.5813
 1435SOL    HW215942   4.528   3.320   4.817 -2.1025  0.0084  0.1142
 1436SOL     OW15943   4.069   4.035   8.336  0.3371 -0.2225 -0.1891
 1436SOL    HW115944   4.152   3.989   8.318  0.2813 -0.3706 -0.0726
 1436SOL    HW215945   4.076   4.035   8.432  2.4762  2.8614 -0.3432
 1437SOL     OW15946   2.422   2.147   1.172 -0.1013 -0.0161 -0.2603
 1437SOL    HW115947   2.378   2.064   1.155 -0.8812  0.7007 -1.7197
 1437SOL    HW215948   2.493   2.110   1.224  0.3655 -0.9115 -1.5465
 1438SOL     OW15949   3.383   3.614   9.156 -0.2406  0.1196  0.0060
 1438SOL    HW115950   3.373   3.669   9.234  0.4375 -1.4854  1.2296
 1438SOL    HW215951   3.475   3.591   9.169 -0.4456  0.1292  1.5431
 1439SOL     OW15952   4.250   0.738   5.774 -0.2710 -0.6692  0.1691
 1439SOL    HW115953   4.155   0.731   5.761 -0.6291  0.4897  2.3121
 1439SOL    HW215954   4.258   0.714   5.866  1.7462 -1.8669 -0.3258
 1440SOL     OW15955   1.455   1.673  13.826  0.5007 -0.2208  0.5972
 1440SOL    HW115956   1.489   1.623  13.752 -1.1348 -0.7816  0.2359
 1440SOL    HW215957   1.477   1.764  13.805  1.1916 -0.1929  1.4201
 1441SOL     OW15958   0.768   2.919  10.010 -0.3448 -0.3464  0.1315
 1441SOL    HW115959   0.728   2.842  10.050 -0.0813  0.2204  1.4748
 1441SOL    HW215960   0.737   2.913   9.919  0.7078  0.0049 -0.2549
 1442SOL     OW15961   1.229   0.438   8.688 -0.2883  0.1883  0.0995
 1442SOL    HW115962   1.298   0.379   8.657  0.1256  0.9023 -0.3135
 1442SOL    HW215963   1.228   0.426   8.783  0.4747  2.1304  0.3325
 1443SOL     OW15964   0.504   0.248  11.664  0.3205  0.2909  0.0051
 1443SOL    HW115965   0.492   0.342  11.678 -0.5474  0.2402 -0.4080
 1443SOL    HW215966   0.466   0.232  11.578  1.6175  2.1185 -0.8998
 1444SOL     OW15967   4.641   4.481   3.880  0.0350  0.0198  0.6778
 1444SOL    HW115968   4.605   4.435   3.805 -0.7407  1.2853  0.2721
 1444SOL    HW215969   4.661   4.567   3.841 -0.2793 -0.5388 -0.7138
 1445SOL     OW15970   2.309   3.116   5.281  0.2499  0.7125 -0.5820
 1445SOL    HW115971   2.298   3.048   5.348  0.4962 -0.1404 -1.4071
 1445SOL    HW215972   2.380   3.075   5.232 -0.9550 -0.5793 -1.2543
 1446SOL     OW15973   2.103   0.958  13.670  0.1249 -0.0467 -0.1247
 1446SOL    HW115974   2.171   1.024  13.686 -1.4800  1.6244 -0.2756
 1446SOL    HW215975   2.138   0.934  13.584  1.3888 -0.2554  0.4448
 1447SOL     OW15976   2.835   2.074   2.422  0.0854 -0.0510 -0.8794
 1447SOL    HW115977   2.806   2.101   2.509  1.1906  0.0534 -0.5437
 1447SOL    HW215978   2.843   2.161   2.380  0.2405 -0.1136 -0.9812
 1448SOL     OW15979   1.484   2.975  16.476  0.0566  0.4003 -0.0067
 1448SOL    HW115980   1.425   3.047  16.457  0.1661  0.2075 -1.0997
 1448SOL    HW215981   1.431   2.898  16.454 -0.3668  0.8891 -0.6835
 1449SOL     OW15982   2.317   2.120   6.831  0.1259 -0.3832  0.0129
 1449SOL    HW115983   2.222   2.133   6.839  0.1479 -1.0593  1.3400
 1449SOL    HW215984   2.335   2.203   6.787  1.7435 -0.5163  0.4297
 1450SOL     OW15985   4.264   4.384   6.166 -0.5798 -0.5953  0.3491
 1450SOL    HW115986   4.280   4.355   6.255 -2.1020  2.9651  1.7831
 1450SOL    HW215987   4.173   4.415   6.163  0.5314  2.5107 -2.2922
 1451SOL     OW15988   3.189   4.262  10.585 -0.1289  0.0483 -0.0401
 1451SOL    HW115989   3.240   4.296  10.659  0.7903  0.6825 -0.9737
 1451SOL    HW215990   3.163   4.339  10.534  0.2203 -0.6883 -1.3301
 1452SOL     OW15991   2.348   0.150   6.376 -0.0899  0.1389 -0.1423
 1452SOL    HW115992   2.290   0.107   6.313 -0.1846  0.2014 -0.0979
 1452SOL    HW215993   2.296   0.170   6.454  2.2755  1.5758  1.0688
 1453SOL     OW15994   0.183   1.076   3.405 -0.3063  0.2201 -0.0311
 1453SOL    HW115995   0.247   1.023   3.358  0.5188 -0.5812  1.9548
 1453SOL    HW215996   0.127   1.088   3.329  1.2496  1.6242 -0.9376
 1454SOL     OW15997   4.114   0.146  13.891 -0.3093  0.1240 -0.6888
 1454SOL    HW115998   4.086   0.146  13.983  1.0435  1.8144 -0.2754
 1454SOL    HW215999   4.163   0.228  13.888 -1.8967  1.1225  0.2299
 1455SOL     OW16000   1.639   3.396   1.602 -0.6591 -0.5616 -0.2246
 1455SOL    HW116001   1.706   3.334   1.631 -0.9043 -1.2389 -1.1148
 1455SOL    HW216002   1.692   3.472   1.577  0.5534 -1.1702  0.5309
 1456SOL     OW16003   3.261   1.090   7.193 -0.3454 -0.3926 -0.5518
 1456SOL    HW116004   3.210   1.106   7.114  0.3758 -1.0388 -1.1469
 1456SOL    HW216005   3.193   1.110   7.258 -0.6022  0.2523 -1.0240
 1457SOL     OW16006   0.102   4.023   6.876 -0.0865  0.7191  0.2621
 1457SOL    HW116007   0.025   4.069   6.843  0.6294  0.5600 -1.6648
 1457SOL    HW216008   0.099   4.051   6.967 -0.6253 -1.7800  1.0003
 1458SOL     OW16009   0.306   4.303   6.516 -0.4003  0.3080  0.1779
 1458SOL    HW116010   0.401   4.298   6.506 -0.4565 -0.5958  0.0813
 1458SOL    HW216011   0.273   4.214   6.524 -2.4274  1.0498  0.1029
 1459SOL     OW16012   2.922   4.610   1.532 -0.1206  0.2155 -0.3956
 1459SOL    HW116013   2.852   4.548   1.553  1.0496 -0.4290  1.6166
 1459SOL    HW216014   2.888   4.685   1.483  0.5405  0.2190 -0.8600
 1460SOL     OW16015   2.641   3.097   1.696  0.5879  0.0354 -0.2376
 1460SOL    HW116016   2.645   3.113   1.790  1.9460 -0.4962 -0.2193
 1460SOL    HW216017   2.721   3.143   1.672  0.7396  0.1389  0.4947
 1461SOL     OW16018   4.567   3.046   3.588  0.3453  0.3729  0.5269
 1461SOL    HW116019   4.475   3.024   3.603  0.3481 -1.5029 -2.2329
 1461SOL    HW216020   4.587   3.091   3.670 -1.6335 -1.2072  1.8948
 1462SOL     OW16021   4.058   3.329   1.732  0.0593 -0.1723  0.5431
 1462SOL    HW116022   4.118   3.319   1.658 -1.4085  3.6236 -1.2055
 1462SOL    HW216023   4.040   3.238   1.752  2.6024 -0.7412  0.2127
 1463SOL     OW16024   1.670   0.621   7.369 -0.5528  0.1060 -0.2157
 1463SOL    HW116025   1.663   0.563   7.293 -1.6982 -0.9426  0.6753
 1463SOL    HW216026   1.678   0.557   7.440 -1.0887  0.0183 -0.2326
 1464SOL     OW16027   0.409   0.432   3.133  0.0099  0.2962  0.1214
 1464SOL    HW116028   0.498   0.421   3.101  0.0517 -1.3352  0.8208
 1464SOL    HW216029   0.401   0.527   3.121  0.6776  0.4828  1.1754
 1465SOL     OW16030   4.178   2.634   8.848  0.6263 -0.0038  0.5514
 1465SOL    HW116031   4.162   2.684   8.768 -1.2240 -2.0819 -0.3658
 1465SOL    HW216032   4.095   2.632   8.895  0.4583 -1.6414  0.1974
 1466SOL     OW16033   3.943   2.813   2.452 -0.4455 -0.0294  0.1422
 1466SOL    HW116034   4.001   2.811   2.529 -1.3627  0.6812  0.8515
 1466SOL    HW216035   3.934   2.906   2.432 -0.1095 -0.1442 -0.5224
 1467SOL     OW16036   0.777   3.906   5.497 -0.0119  0.3104 -0.2822
 1467SOL    HW116037   0.695   3.859   5.512 -0.5805  1.1417 -0.7622
 1467SOL    HW216038   0.762   3.995   5.529  1.4168  0.3546  0.2737
 1468SOL     OW16039   4.580   3.060   4.445 -0.3271 -0.4077  0.1647
 1468SOL    HW116040   4.531   3.035   4.524  2.8450 -1.3051  1.8417
 1468SOL    HW216041   4.546   2.991   4.388 -2.1724  0.2333  0.4868
 1469SOL     OW16042   3.514   2.815   8.344  0.0622  0.4131 -0.6520
 1469SOL    HW116043   3.529   2.745   8.280  0.5165 -1.1250  1.1268
 1469SOL    HW216044   3.470   2.872   8.281 -0.0467  1.2659  0.2079
 1470SOL     OW16045   2.837   2.793   6.310  0.5523  0.6204 -0.5406
 1470SOL    HW116046   2.784   2.714   6.322  1.8666 -0.1929 -0.0752
 1470SOL    HW216047   2.772   2.861   6.294 -0.6771 -0.7476 -1.3151
 1471SOL     OW16048   4.546   0.402  12.531  0.3571 -0.4885 -0.8910
 1471SOL    HW116049   4.574   0.311  12.523  0.1646 -0.7150  0.8728
 1471SOL    HW216050   4.631   0.441  12.512 -0.1056  1.0299  0.0849
 1472SOL     OW16051   3.281   1.001  13.790  0.0864 -0.1824  0.3955
 1472SOL    HW116052   3.343   1.011  13.863  1.9517 -2.0326 -0.9526
 1472SOL    HW216053   3.198   1.004  13.838  0.8166  2.0261  1.5383
 1473SOL     OW16054   3.108   2.472  11.183 -0.4184  0.6226 -0.3254
 1473SOL    HW116055   3.063   2.492  11.266 -0.0228  2.2164 -0.5040
 1473SOL    HW216056   3.112   2.377  11.191  0.8996  0.4888 -2.7598
 1474SOL     OW16057   0.476   4.140   1.928 -0.0881  0.6292 -0.0376
 1474SOL    HW116058   0.558   4.143   1.978 -0.0652  0.5244 -0.0678
 1474SOL    HW216059   0.403   4.148   1.988  0.6113 -0.0147  0.8867
 1475SOL     OW16060   0.940   4.280   8.512 -0.1234  0.1729 -0.0452
 1475SOL    HW116061   0.982   4.335   8.447 -3.4835  0.8805 -1.6077
 1475SOL    HW216062   1.007   4.217   8.540 -0.7434 -0.5283 -0.1217
 1476SOL     OW16063   3.416   1.361   0.203  0.4519  0.2934  0.7101
 1476SOL    HW116064   3.323   1.372   0.225  0.0453 -2.0814  0.1759
 1476SOL    HW216065   3.426   1.334   0.112  0.8151  1.3367  0.4424
 1477SOL     OW16066   3.069   1.905  14.258 -0.4953  0.8524 -0.1222
 1477SOL    HW116067   3.038   1.840  14.196  1.0652 -0.0483  0.0629
 1477SOL    HW216068   3.163   1.889  14.252 -1.0831 -2.5472 -0.1945
 1478SOL     OW16069   3.210   2.705   0.955  0.2266  0.5927 -0.4006
 1478SOL    HW116070   3.209   2.669   0.867  2.2751 -2.6419  0.8886
 1478SOL    HW216071   3.256   2.631   0.994 -1.3495 -1.2101 -1.9520
 1479SOL     OW16072   3.996   1.462   7.524 -0.1288  0.1274 -0.0401
 1479SOL    HW116073   3.984   1.557   7.528 -0.5471  0.1534 -2.2154
 1479SOL    HW216074   3.945   1.435   7.601  2.1977 -0.8456  1.1733
 1480SOL     OW16075   4.671   1.457  15.433 -0.3314 -0.0479  0.5041
 1480SOL    HW116076   4.592   1.455  15.488 -3.0898 -2.1032 -3.5346
 1480SOL    HW216077   4.736   1.481  15.499 -0.2759  1.3336 -0.0624
 1481SOL     OW16078   0.408   1.418  10.723 -0.1186  0.0565  0.3178
 1481SOL    HW116079   0.455   1.431  10.806 -0.3955 -1.5074  0.7122
 1481SOL    HW216080   0.460   1.474  10.665 -2.1095  0.9073 -0.6346
 1482SOL     OW16081   1.388   0.904   8.653  0.6706  0.1546  0.4856
 1482SOL    HW116082   1.452   0.877   8.719  0.1542  0.6047  1.1687
 1482SOL    HW216083   1.425   0.986   8.621  0.4078  0.3423  0.6675
 1483SOL     OW16084   3.320   2.420   1.667  0.3026 -0.2040  0.0861
 1483SOL    HW116085   3.287   2.358   1.601 -2.1280  1.3739 -0.1648
 1483SOL    HW216086   3.345   2.365   1.741 -0.0133  2.0695  1.8606
 1484SOL     OW16087   3.866   2.851   0.055  0.4818  0.3453  0.9916
 1484SOL    HW116088   3.775   2.841   0.027 -0.0145 -0.0626  2.7733
 1484SOL    HW216089   3.862   2.943   0.081  0.3898  0.5124  0.4070
 1485SOL     OW16090   1.923   3.974   2.700 -0.2693  0.1174 -0.4840
 1485SOL    HW116091   1.905   4.057   2.745 -0.7964 -0.1180 -0.2623
 1485SOL    HW216092   1.974   3.923   2.762 -0.0386 -0.2614 -0.9869
 1486SOL     OW16093   3.626   2.650   0.687  0.0853 -0.2243 -0.4133
 1486SOL    HW116094   3.670   2.728   0.722  0.6063 -1.2066  1.1445
 1486SOL    HW216095   3.550   2.680   0.639 -1.6070 -3.5111  0.2242
 1487SOL     OW16096   3.001   2.403  10.783 -0.2866  0.3379  0.0144
 1487SOL    HW116097   2.948   2.438  10.854  0.2478 -1.3899  1.2477
 1487SOL    HW216098   3.043   2.479  10.742  1.6999 -0.1645  1.0871
 1488SOL     OW16099   1.197   0.037   5.704  0.3095 -0.2475  0.3951
 1488SOL    HW116100   1.201   4.727   5.621  0.1632  1.0828 -0.4017
 1488SOL    HW216101   1.102   0.037   5.719  1.0917  1.2294  5.2550
 1489SOL     OW16102   3.080   2.379   5.952  0.1656  0.6196 -0.2654
 1489SOL    HW116103   3.054   2.377   5.859 -0.7584  0.6396 -0.0097
 1489SOL    HW216104   3.135   2.301   5.949  1.8239  1.8061 -1.0272
 1490SOL     OW16105   2.950   2.585   3.935 -0.5609  0.5302  0.1511
 1490SOL    HW116106   2.953   2.677   3.961  0.0513  0.8103 -0.8824
 1490SOL    HW216107   2.867   2.559   3.974 -1.8386  0.6179 -2.5166
 1491SOL     OW16108   0.465   1.942  12.318  0.0762  0.0498 -0.1915
 1491SOL    HW116109   0.416   1.864  12.343 -1.7782  1.1350 -0.4373
 1491SOL    HW216110   0.536   1.901  12.269  1.4976 -0.8671  2.6345
 1492SOL     OW16111   3.732   1.010  14.524  0.4123  0.1424  0.0845
 1492SOL    HW116112   3.638   1.009  14.541  0.6075 -1.4309  1.0357
 1492SOL    HW216113   3.721   1.040  14.434  0.1853 -1.2081 -0.3283
 1493SOL     OW16114   3.781   3.662  16.792 -0.2668  0.1160  0.0094
 1493SOL    HW116115   3.839   3.695  16.724 -0.0410  1.3553  0.8088
 1493SOL    HW216116   3.715   3.728  16.813 -1.3093 -0.9703  0.1640
 1494SOL     OW16117   4.013   1.225   2.180  0.0607  0.8127 -0.4286
 1494SOL    HW116118   4.045   1.158   2.241 -2.3769 -0.0924 -0.1279
 1494SOL    HW216119   3.959   1.169   2.123  2.3956 -0.0881 -1.7846
 1495SOL     OW16120   1.631   1.368   1.764 -0.1231 -0.5539  0.3861
 1495SOL    HW116121   1.615   1.454   1.724 -0.8269  0.0992  2.0962
 1495SOL    HW216122   1.540   1.344   1.779 -1.3511  2.9705 -1.3302
 1496SOL     OW16123   4.421   0.574   1.190  0.4211  0.4337  0.0671
 1496SOL    HW116124   4.516   0.567   1.179  0.3250 -0.1893 -0.3712
 1496SOL    HW216125   4.417   0.637   1.262 -1.8875 -1.8544  1.9137
 1497SOL     OW16126   0.633   1.574   2.384  0.1110  0.6902 -0.0458
 1497SOL    HW116127   0.633   1.556   2.290 -1.1359  1.7327 -0.2460
 1497SOL    HW216128   0.541   1.562   2.406  0.0443  2.2694  0.5503
 1498SOL     OW16129   1.135   4.540  13.482 -0.3079  0.3726  0.3625
 1498SOL    HW116130   1.083   4.514  13.558  0.6911  0.2918  1.0301
 1498SOL    HW216131   1.171   4.455  13.455 -0.5002 -0.5113  2.9089
 1499SOL     OW16132   0.441   4.014   6.464 -0.1660 -0.2374 -0.4744
 1499SOL    HW116133   0.355   3.975   6.447 -0.5117  0.8309 -1.1614
 1499SOL    HW216134   0.430   4.037   6.557  0.9216  0.6629 -0.5713
 1500SOL     OW16135   1.207   4.352   7.325 -0.0532 -0.0759  0.0378
 1500SOL    HW116136   1.159   4.379   7.404 -0.3942  2.1900 -0.9564
 1500SOL    HW216137   1.145   4.303   7.271 -1.3442 -0.6288  2.0139
 1501SOL     OW16138   3.964   0.582   5.534 -0.7901  0.2929  0.1394
 1501SOL    HW116139   3.986   0.576   5.627  0.5409 -1.4730 -0.2874
 1501SOL    HW216140   3.878   0.541   5.530 -1.5611  1.8492  0.5029
 1502SOL     OW16141   1.857   0.163   9.205 -0.1057 -0.2406 -0.4051
 1502SOL    HW116142   1.810   0.235   9.246 -1.7266 -1.2782 -0.4634
 1502SOL    HW216143   1.889   0.104   9.273 -2.5886 -1.8344 -0.6268
 1503SOL     OW16144   1.180   0.847  17.300 -0.4462 -0.0073  0.2518
 1503SOL    HW116145   1.102   0.892  17.268 -1.4072 -1.5339  0.4607
 1503SOL    HW216146   1.133   0.769  17.329  0.1196 -0.4232  0.0478
 1504SOL     OW16147   0.804   0.342   8.172 -0.1305 -0.8476  0.4208
 1504SOL    HW116148   0.811   0.357   8.266  0.2936 -0.2444  0.2915
 1504SOL    HW216149   0.787   0.248   8.161  1.7830 -1.1279 -0.2490
 1505SOL     OW16150   1.678   2.457   2.125  0.1785 -0.4080  0.2487
 1505SOL    HW116151   1.726   2.506   2.192 -2.3555 -0.6198  2.1927
 1505SOL    HW216152   1.709   2.494   2.043 -2.6690  1.5761  0.1105
 1506SOL     OW16153   0.879   1.938   5.397 -0.0237 -0.1164 -0.1409
 1506SOL    HW116154   0.833   1.905   5.474 -1.8798  0.4939 -0.9933
 1506SOL    HW216155   0.830   2.019   5.385 -0.2714 -0.0078  1.5558
 1507SOL     OW16156   1.886   3.288   2.448 -0.3884  0.0898  0.6693
 1507SOL    HW116157   1.853   3.211   2.494 -0.5607 -0.0251  0.3562
 1507SOL    HW216158   1.860   3.261   2.360  2.2905 -2.1230  0.5630
 1508SOL     OW16159   3.583   0.115   6.684  0.1419  0.0652 -0.2016
 1508SOL    HW116160   3.637   0.098   6.761 -3.4685  0.7705  2.5029
 1508SOL    HW216161   3.596   0.038   6.628  2.8276 -0.9009  1.7577
 1509SOL     OW16162   0.876   0.132   6.738  0.5237  0.1743 -0.2054
 1509SOL    HW116163   0.884   0.207   6.797  2.9940 -0.1530 -0.1265
 1509SOL    HW216164   0.850   0.170   6.654 -1.1256 -0.2819  0.0989
 1510SOL     OW16165   4.111   1.952   0.638 -0.7714  0.1935  0.2151
 1510SOL    HW116166   4.163   2.004   0.699  1.1952  1.5899 -2.6402
 1510SOL    HW216167   4.128   1.995   0.554 -0.0457  1.4171  1.0023
 1511SOL     OW16168   1.254   4.356   6.288  0.1464  0.7536 -0.1524
 1511SOL    HW116169   1.250   4.451   6.282 -1.4005  0.7446  0.7964
 1511SOL    HW216170   1.196   4.352   6.364  1.0535 -0.7019  0.4654
 1512SOL     OW16171   4.323   4.721   2.173 -0.6892 -0.1765  0.0651
 1512SOL    HW116172   4.393   0.030   2.128 -1.3132  0.7695  0.1149
 1512SOL    HW216173   4.285   0.045   2.233 -1.0091 -1.0957  0.8188
 1513SOL     OW16174   1.899   1.288   6.448 -0.0263 -0.8519 -0.2111
 1513SOL    HW116175   1.806   1.270   6.466 -0.1371  0.4479  0.5321
 1513SOL    HW216176   1.899   1.383   6.438 -0.2784 -0.7161  1.0793
 1514SOL     OW16177   0.643   0.029   7.340 -0.6007 -0.3341  0.0370
 1514SOL    HW116178   0.676   0.008   7.427  1.4613 -0.4168 -0.7738
 1514SOL    HW216179   0.570   4.706   7.333  0.6129 -1.9700  2.2721
 1515SOL     OW16180   1.895   2.282  13.040 -0.0255 -0.1111  0.1400
 1515SOL    HW116181   1.844   2.346  13.090  0.1327  0.3355 -0.2621
 1515SOL    HW216182   1.902   2.332  12.958 -1.1280 -1.9505 -1.0923
 1516SOL     OW16183   1.902   0.122   2.098  0.1098  0.1181  0.0997
 1516SOL    HW116184   1.976   0.182   2.099  1.0651 -1.0770  1.0726
 1516SOL    HW216185   1.886   0.090   2.010  1.0521 -0.4302  0.1282
 1517SOL     OW16186   1.897   3.766   2.514 -0.0044  0.1599 -0.2772
 1517SOL    HW116187   1.859   3.819   2.445 -1.8880  0.2400  0.8149
 1517SOL    HW216188   1.922   3.842   2.567  0.3107 -1.0091  1.2438
 1518SOL     OW16189   4.436   2.708   6.573 -0.2579 -0.6095  0.4505
 1518SOL    HW116190   4.463   2.619   6.597 -1.5056 -0.9492  0.5752
 1518SOL    HW216191   4.416   2.746   6.659  0.5516  4.4105 -1.5864
 1519SOL     OW16192   3.820   0.047   0.047 -0.4787  0.0788  0.2795
 1519SOL    HW116193   3.789   0.090  17.720 -0.2201  1.6238  0.9935
 1519SOL    HW216194   3.804   0.102   0.124  0.6281 -0.8488  1.1633
 1520SOL     OW16195   3.396   2.593   5.027 -0.4098 -0.5407  0.1181
 1520SOL    HW116196   3.301   2.590   5.037 -0.7512 -1.1663 -3.1566
 1520SOL    HW216197   3.414   2.574   4.935 -0.4842 -1.1367  0.2244
 1521SOL     OW16198   3.672   3.236   9.304  0.2803  0.2270 -0.4819
 1521SOL    HW116199   3.726   3.229   9.383  0.4238 -0.1203 -0.6077
 1521SOL    HW216200   3.591   3.191   9.329 -0.6774  1.5048 -1.2932
 1522SOL     OW16201   0.042   0.767   7.213 -0.2250 -0.1797 -0.5935
 1522SOL    HW116202   0.134   0.759   7.238 -0.4477  0.1939  0.3548
 1522SOL    HW216203   4.737   0.739   7.294 -0.5532 -0.7205 -0.9588
 1523SOL     OW16204   0.851   1.631   5.345 -0.1785  0.3334 -0.5517
 1523SOL    HW116205   0.875   1.663   5.432 -0.1850 -0.2504 -0.3369
 1523SOL    HW216206   0.927   1.649   5.289  0.8605  1.7125  1.3067
 1524SOL     OW16207   0.312   2.241   8.483 -0.2492  0.3247  0.2695
 1524SOL    HW116208   0.368   2.300   8.533  1.4284 -2.0573  1.1474
 1524SOL    HW216209   0.240   2.299   8.457  0.0814  0.3168 -0.6590
 1525SOL     OW16210   0.810   3.964   7.673  0.3643  0.1065 -0.3544
 1525SOL    HW116211   0.837   3.886   7.722  2.3048 -0.0476 -1.6681
 1525SOL    HW216212   0.757   4.009   7.739  0.9622  0.4132 -0.0912
 1526SOL     OW16213   1.166   4.583   5.511  0.0855  0.5351 -0.4093
 1526SOL    HW116214   1.166   4.497   5.552 -0.4967  1.2959  1.2106
 1526SOL    HW216215   1.101   4.575   5.442 -1.2033  3.4639  0.4276
 1527SOL     OW16216   3.101   3.667   7.421 -0.3098  0.0309 -0.9196
 1527SOL    HW116217   3.132   3.745   7.467 -0.1541 -1.3598  1.3540
 1527SOL    HW216218   3.136   3.680   7.333  0.5654 -1.7533 -0.8273
 1528SOL     OW16219   3.014   1.595   7.754  0.0713  0.2393  1.3097
 1528SOL    HW116220   2.928   1.637   7.756 -0.1548 -0.1011 -1.4532
 1528SOL    HW216221   3.072   1.665   7.723  1.2998 -0.6892  1.4941
 1529SOL     OW16222   1.468   2.386   7.577  0.3599  0.0851 -0.3740
 1529SOL    HW116223   1.456   2.428   7.491  1.1977 -0.6964 -0.8697
 1529SOL    HW216224   1.563   2.393   7.582  0.3152 -0.1198  0.6285
 1530SOL     OW16225   4.167   2.524   9.173 -0.5437 -0.4943 -0.4918
 1530SOL    HW116226   4.247   2.522   9.122 -0.4842  0.9423 -0.4764
 1530SOL    HW216227   4.147   2.617   9.158  0.6479  0.1367  1.8776
 1531SOL     OW16228   2.537   3.136  12.142 -0.0463  0.1401 -0.6721
 1531SOL    HW116229   2.458   3.154  12.090 -1.3356 -0.7726  0.9712
 1531SOL    HW216230   2.605   3.163  12.081  2.1118  0.0734  1.7329
 1532SOL     OW16231   2.192   3.354  17.011 -0.2154 -0.3020  0.0077
 1532SOL    HW116232   2.257   3.421  16.991  2.1529 -2.9109 -1.0239
 1532SOL    HW216233   2.160   3.378  17.098 -1.3501 -3.2479  0.4071
 1533SOL     OW16234   0.988   4.039  10.699 -0.8991  0.0919 -0.4306
 1533SOL    HW116235   0.900   4.065  10.672 -1.0277 -0.5090 -0.5913
 1533SOL    HW216236   1.004   4.107  10.764 -0.8361 -0.8746  0.5732
 1534SOL     OW16237   0.854   2.090  16.919  0.1836  0.3423 -0.1150
 1534SOL    HW116238   0.917   2.096  16.846 -2.7419 -0.0350 -2.6628
 1534SOL    HW216239   0.807   2.173  16.916 -1.1217 -0.4131 -0.2990
 1535SOL     OW16240   4.248   4.726  17.717  0.0985 -0.0209 -0.3701
 1535SOL    HW116241   4.178   0.035   0.007  1.2306  2.1580 -0.9135
 1535SOL    HW216242   4.274   4.662   0.030  0.5727  0.7374  0.1882
 1536SOL     OW16243   1.354   2.489   6.698  0.1239  0.2261 -0.9526
 1536SOL    HW116244   1.413   2.439   6.641  0.0136 -1.5541  0.4965
 1536SOL    HW216245   1.393   2.574   6.717  2.2666 -0.7734 -0.8857
 1537SOL     OW16246   3.310   0.834   0.966 -0.1162 -0.9245 -0.3178
 1537SOL    HW116247   3.313   0.767   0.898 -1.4380 -1.7830  0.4818
 1537SOL    HW216248   3.401   0.830   0.994  0.3696  2.6533 -1.4275
 1538SOL     OW16249   2.070   0.897  13.155 -0.2247  0.5727  0.0633
 1538SOL    HW116250   2.029   0.911  13.241 -1.4976 -2.6236 -0.0214
 1538SOL    HW216251   2.114   0.981  13.147 -0.8562  0.8441 -0.5489
 1539SOL     OW16252   2.347   2.010   7.535 -0.2358 -0.0679 -0.3038
 1539SOL    HW116253   2.409   1.980   7.601  0.5483 -2.9276 -2.3456
 1539SOL    HW216254   2.300   2.069   7.595 -1.9384 -1.0441 -0.6774
 1540SOL     OW16255   1.799   2.605  10.304 -0.1736  0.1409 -0.4960
 1540SOL    HW116256   1.796   2.698  10.278 -1.0858  0.0646 -0.6527
 1540SOL    HW216257   1.860   2.565  10.241  1.2241  0.6478  0.5389
 1541SOL     OW16258   1.590   1.457  13.082  0.0288  0.2890  0.1014
 1541SOL    HW116259   1.659   1.479  13.144  2.0126 -0.0948 -1.9908
 1541SOL    HW216260   1.640   1.422  13.008 -1.1639 -3.3797  0.9948
 1542SOL     OW16261   1.110   0.512  15.077  0.2405  0.3032 -0.4358
 1542SOL    HW116262   1.102   0.515  15.172 -0.9916  0.8573 -0.5660
 1542SOL    HW216263   1.052   0.579  15.041  1.9499  1.9638 -0.0857
 1543SOL     OW16264   3.157   4.160   5.298  0.5876 -0.2394  0.1958
 1543SOL    HW116265   3.201   4.243   5.282  0.2118 -0.4823 -2.0864
 1543SOL    HW216266   3.216   4.112   5.240  2.0038  1.3082  0.3704
 1544SOL     OW16267   2.555   1.516  17.411 -0.6679 -0.3351 -0.3429
 1544SOL    HW116268   2.546   1.565  17.329 -0.5700  0.2235 -0.0163
 1544SOL    HW216269   2.576   1.588  17.471 -1.1997  0.8740 -1.6113
 1545SOL     OW16270   1.123   0.228   2.553 -0.2212 -0.0820  0.3298
 1545SOL    HW116271   1.200   0.281   2.531 -0.5406  0.0706 -0.4307
 1545SOL    HW216272   1.058   0.298   2.550 -1.2907 -1.0531  1.0839
 1546SOL     OW16273   4.432   0.192   7.943  0.4888 -0.5711  0.0711
 1546SOL    HW116274   4.386   0.117   7.981 -0.1323 -0.2248  0.0183
 1546SOL    HW216275   4.505   0.215   8.000  0.0709  2.3506 -0.5954
 1547SOL     OW16276   0.770   0.108   8.777  0.4511 -0.2003  0.4163
 1547SOL    HW116277   0.772   0.151   8.862 -1.8014  1.1014 -0.1663
 1547SOL    HW216278   0.753   0.028   8.826  0.4799  0.2315  1.1374
 1548SOL     OW16279   3.334   0.509  11.750  0.3638 -0.2214  0.7632
 1548SOL    HW116280   3.426   0.522  11.771  0.4018  0.3464  0.2493
 1548SOL    HW216281   3.332   0.478  11.660 -2.0098  0.0983  0.7022
 1549SOL     OW16282   1.291   1.105   5.991 -0.2609 -0.6619 -0.4242
 1549SOL    HW116283   1.380   1.119   5.957  0.0247  0.6766  0.8921
 1549SOL    HW216284   1.304   1.067   6.078  0.6486  0.9058  0.1295
 1550SOL     OW16285   2.019   2.049  12.779  0.5990  0.6375 -0.5836
 1550SOL    HW116286   1.962   1.988  12.732  0.5406 -0.7930  1.3843
 1550SOL    HW216287   1.973   2.051  12.862 -2.1643  0.2547 -2.1161
 1551SOL     OW16288   2.669   3.809   2.324  0.3195 -0.2930 -0.0792
 1551SOL    HW116289   2.752   3.803   2.372 -0.3931 -1.2480  1.0468
 1551SOL    HW216290   2.706   3.807   2.236  0.7195 -0.8566  0.1022
 1552SOL     OW16291   3.691   3.024   0.988  0.0383  0.6352  0.1441
 1552SOL    HW116292   3.774   3.032   1.036  1.3037 -0.2118 -1.8885
 1552SOL    HW216293   3.628   3.032   1.060 -1.0807  0.1393 -0.7796
 1553SOL     OW16294   4.675   1.290   4.892 -0.5168 -0.1617 -0.1844
 1553SOL    HW116295   4.669   1.314   4.799  1.2967 -0.7618 -0.4717
 1553SOL    HW216296   0.008   1.227   4.882 -1.4516 -1.4032  0.9534
 1554SOL     OW16297   3.357   0.330  15.832  0.1638 -0.0176 -0.1355
 1554SOL    HW116298   3.413   0.404  15.856 -0.0301  0.5235 -1.3253
 1554SOL    HW216299   3.420   0.265  15.802 -0.6401 -0.7453 -0.2433
 1555SOL     OW16300   3.394   2.336   5.401 -0.2235 -0.2619  0.1858
 1555SOL    HW116301   3.396   2.267   5.468  2.3044  0.8023  1.1875
 1555SOL    HW216302   3.418   2.288   5.322 -1.0499 -2.6830  1.3777
 1556SOL     OW16303   1.031   4.596   1.732  0.0028 -0.4307 -0.0314
 1556SOL    HW116304   1.011   4.640   1.649 -0.1504  1.4990  1.0225
 1556SOL    HW216305   1.076   4.670   1.774  2.7148 -1.7245 -0.7016
 1557SOL     OW16306   2.901   4.288   4.128  0.1160 -0.8748  1.1255
 1557SOL    HW116307   2.948   4.217   4.084 -0.4026 -0.1640 -0.5787
 1557SOL    HW216308   2.811   4.269   4.100  0.2099  0.0273  0.2011
 1558SOL     OW16309   1.447   1.097   5.447  0.0914  0.1294  0.4161
 1558SOL    HW116310   1.417   1.176   5.402 -0.2378 -1.3873 -2.0173
 1558SOL    HW216311   1.538   1.095   5.419  0.2657 -1.1077  1.0644
 1559SOL     OW16312   3.231   1.571   0.605 -1.1651 -0.3757 -0.3766
 1559SOL    HW116313   3.168   1.499   0.596  0.7673 -2.1412  0.3169
 1559SOL    HW216314   3.166   1.640   0.594 -0.2646  0.4975 -0.1235
 1560SOL     OW16315   0.273   2.520   1.777  0.2840  0.0508 -0.2083
 1560SOL    HW116316   0.331   2.519   1.853 -0.0363 -0.5454  0.0245
 1560SOL    HW216317   0.337   2.494   1.711 -0.1577  0.0478 -0.6377
 1561SOL     OW16318   1.189   3.741   6.725  0.2912  1.0893 -0.3455
 1561SOL    HW116319   1.149   3.687   6.657  2.3704  1.2309 -1.6682
 1561SOL    HW216320   1.280   3.712   6.723 -0.2508 -0.9429  3.6034
 1562SOL     OW16321   0.282   4.576   4.036 -0.0045 -0.1868 -0.4841
 1562SOL    HW116322   0.329   4.657   4.053 -0.5445  0.2198 -0.9287
 1562SOL    HW216323   0.190   4.601   4.034  0.5710  1.7825 -2.4676
 1563SOL     OW16324   1.435   1.434   7.133  0.7287  0.3172 -0.3348
 1563SOL    HW116325   1.344   1.413   7.152  1.0111 -1.5535 -1.0939
 1563SOL    HW216326   1.436   1.527   7.108  0.3698  0.3632 -0.1802
 1564SOL     OW16327   3.795   0.694   2.638 -0.0201  0.2385  0.1456
 1564SOL    HW116328   3.708   0.666   2.607  0.5990 -1.1514 -0.3543
 1564SOL    HW216329   3.848   0.615   2.624 -1.9322 -1.0891  0.3368
 1565SOL     OW16330   4.197   0.276   5.662  0.3603 -0.0387 -0.2991
 1565SOL    HW116331   4.268   0.319   5.710 -0.1047 -0.0842  0.4283
 1565SOL    HW216332   4.165   0.348   5.607  0.8314  1.4554  1.3893
 1566SOL     OW16333   1.032   1.333   5.429  0.1716  0.3426  0.2374
 1566SOL    HW116334   1.116   1.327   5.476  0.6748 -0.9351 -0.8237
 1566SOL    HW216335   0.982   1.275   5.487  0.5839  0.5382  0.7872
 1567SOL     OW16336   2.782   4.003   5.926 -0.2686  0.0307 -0.3028
 1567SOL    HW116337   2.851   4.052   5.972 -1.3230  0.6427  0.6367
 1567SOL    HW216338   2.836   3.967   5.857  2.7159  0.9683  1.5321
 1568SOL     OW16339   2.771   4.213   9.143  0.3723  0.2836 -0.1924
 1568SOL    HW116340   2.763   4.288   9.085 -1.1347 -0.5683 -1.1122
 1568SOL    HW216341   2.805   4.259   9.220  2.5084  0.5435 -1.3233
 1569SOL     OW16342   3.919   2.349   2.187  0.1233  0.3391  0.6426
 1569SOL    HW116343   3.842   2.303   2.221 -1.9449  1.6756 -2.1595
 1569SOL    HW216344   3.919   2.431   2.236  0.8536 -0.0647  1.3065
 1570SOL     OW16345   0.082   4.561  16.618 -0.2474  0.8534  0.3449
 1570SOL    HW116346   0.112   4.587  16.531 -1.3760  0.3748 -0.1919
 1570SOL    HW216347   0.121   4.633  16.667  1.9708 -0.8614  1.0939
 1571SOL     OW16348   2.753   3.059   9.840 -0.9355 -0.4858 -0.5360
 1571SOL    HW116349   2.820   3.043   9.773 -0.2405 -4.2430  1.0707
 1571SOL    HW216350   2.763   3.154   9.838  1.6493 -0.7622  0.6055
 1572SOL     OW16351   0.316   2.564  13.930 -0.5059 -0.0461  0.6063
 1572SOL    HW116352   0.223   2.575  13.951 -0.6354  1.2910 -0.6811
 1572SOL    HW216353   0.330   2.625  13.858  1.2092  1.0612  1.8745
 1573SOL     OW16354   3.905   2.453   1.718 -0.6063 -0.7550  0.0381
 1573SOL    HW116355   3.924   2.546   1.723  2.1101 -1.3843  1.2492
 1573SOL    HW216356   3.921   2.442   1.624 -1.4791 -0.4777 -0.1367
 1574SOL     OW16357   1.571   1.668   3.809  0.2556  0.2475  0.0112
 1574SOL    HW116358   1.560   1.693   3.900  2.2991  1.4678 -0.0757
 1574SOL    HW216359   1.587   1.575   3.821  2.0185  0.7002  1.0921
 1575SOL     OW16360   2.485   1.643   1.822  0.2860  0.3697  0.6121
 1575SOL    HW116361   2.575   1.674   1.826  0.3144  0.4812 -1.1382
 1575SOL    HW216362   2.493   1.555   1.783 -1.7637  1.0583 -1.3638
 1576SOL     OW16363   1.646   4.399  13.559  0.0225 -0.1564  0.2465
 1576SOL    HW116364   1.590   4.322  13.571  2.1660 -1.9018 -0.7838
 1576SOL    HW216365   1.680   4.383  13.471  0.3910 -2.3851  0.7770
 1577SOL     OW16366   0.440   3.896   7.872  0.0245  0.2923 -0.6064
 1577SOL    HW116367   0.396   3.912   7.789 -0.2376  0.2556 -0.4726
 1577SOL    HW216368   0.366   3.886   7.931  0.4885  0.5023  0.0096
 1578SOL     OW16369   3.733   3.129   4.710  0.3577 -0.4562  0.2401
 1578SOL    HW116370   3.748   3.085   4.794 -2.1353 -0.5713  0.6086
 1578SOL    HW216371   3.685   3.058   4.668 -0.2975 -0.0789  0.3622
 1579SOL     OW16372   4.325   1.797   7.183  0.0775  0.8137 -0.0945
 1579SOL    HW116373   4.383   1.816   7.257 -0.6235 -1.3498  0.9947
 1579SOL    HW216374   4.236   1.806   7.218 -1.1015  1.9159 -3.4609
 1580SOL     OW16375   3.384   3.250   1.378 -0.7826 -0.2502  0.1135
 1580SOL    HW116376   3.377   3.345   1.371  0.1185 -0.1840  0.0502
 1580SOL    HW216377   3.302   3.222   1.419 -1.2979  1.5604  0.3036
 1581SOL     OW16378   3.130   2.111   2.741 -0.1934  0.1149  0.1749
 1581SOL    HW116379   3.086   2.038   2.785  1.2616  0.1612  1.7100
 1581SOL    HW216380   3.216   2.106   2.784 -0.4312  0.1983  0.6577
 1582SOL     OW16381   2.075   3.549  16.754 -0.0042 -0.0449  0.0668
 1582SOL    HW116382   2.158   3.536  16.800 -0.0048 -2.9479 -0.7515
 1582SOL    HW216383   2.060   3.641  16.772 -2.2422 -0.9338  2.6297
 1583SOL     OW16384   2.375   3.794   2.985 -0.4942  0.5616 -0.6784
 1583SOL    HW116385   2.373   3.889   2.977  1.2447  0.5985 -0.6446
 1583SOL    HW216386   2.347   3.779   2.895 -1.1662 -2.9102  0.1070
 1584SOL     OW16387   4.284   0.782   6.066 -0.8727 -0.8290  0.0722
 1584SOL    HW116388   4.313   0.873   6.064  0.3518 -1.2748 -2.1938
 1584SOL    HW216389   4.366   0.740   6.091 -0.0088  1.0873  0.3708
 1585SOL     OW16390   0.119   2.489   4.383  0.1987 -0.4653 -0.1377
 1585SOL    HW116391   0.165   2.571   4.400 -2.0769  0.6913  0.3934
 1585SOL    HW216392   0.184   2.422   4.361  0.8896 -0.2587  1.3317
 1586SOL     OW16393   2.929   3.048  12.614 -0.4374 -0.4143  0.1151
 1586SOL    HW116394   2.938   3.135  12.652  1.7896 -0.4201 -0.4206
 1586SOL    HW216395   2.959   2.978  12.672  0.1022 -0.2591  0.0260
 1587SOL     OW16396   0.750   2.434   3.932  0.1147 -0.0024 -0.3089
 1587SOL    HW116397   0.798   2.444   3.850  0.9681 -0.3148  0.1552
 1587SOL    HW216398   0.821   2.451   3.994 -0.9896 -0.3691  1.0546
 1588SOL     OW16399   3.561   0.727  10.565  0.1260 -0.6510  0.0431
 1588SOL    HW116400   3.570   0.729  10.470  0.1130 -0.2078  0.0529
 1588SOL    HW216401   3.477   0.764  10.589  1.1871  1.1592  0.9830
 1589SOL     OW16402   2.736   1.525   2.678  0.5435 -0.0382 -0.4809
 1589SOL    HW116403   2.758   1.610   2.715  0.3687 -0.3366  0.3181
 1589SOL    HW216404   2.823   1.486   2.677  0.7698  0.4313  1.4387
 1590SOL     OW16405   2.705   3.549   3.817  0.1478 -0.5973  0.3449
 1590SOL    HW116406   2.635   3.576   3.757  0.7910 -2.2122 -1.1414
 1590SOL    HW216407   2.697   3.455   3.801 -0.8907 -0.4837  0.2512
 1591SOL     OW16408   1.147   1.293   3.969 -0.0408 -0.0617  0.1127
 1591SOL    HW116409   1.075   1.238   3.937  1.7850 -1.7424 -1.1499
 1591SOL    HW216410   1.158   1.350   3.893 -0.0949 -1.2631 -0.8148
 1592SOL     OW16411   3.471   2.447   5.754 -0.0791 -0.1787  0.5330
 1592SOL    HW116412   3.392   2.495   5.729 -0.1317 -1.0592 -0.9472
 1592SOL    HW216413   3.466   2.365   5.704  0.9446 -0.6191  1.1657
 1593SOL     OW16414   4.107   2.186   4.599  0.5552  0.1486  0.1424
 1593SOL    HW116415   4.127   2.096   4.624  1.2725 -0.1293 -1.4763
 1593SOL    HW216416   4.063   2.211   4.681  0.8305 -0.5885  0.5147
 1594SOL     OW16417   4.662   0.781   4.524 -0.9050  0.3444  0.0946
 1594SOL    HW116418   0.007   0.789   4.478 -0.0209 -1.6367  1.3822
 1594SOL    HW216419   4.655   0.870   4.558  4.2150  1.0338 -0.6513
 1595SOL     OW16420   1.332   3.992  16.824  0.0535  0.3807  0.3223
 1595SOL    HW116421   1.266   4.021  16.887  1.0051  1.1523  0.9748
 1595SOL    HW216422   1.334   3.898  16.839  2.2605  0.5967  1.3584
 1596SOL     OW16423   1.495   1.666   9.785 -0.1964 -0.3187  0.4969
 1596SOL    HW116424   1.456   1.753   9.774 -1.1365 -0.6552  1.2092
 1596SOL    HW216425   1.532   1.675   9.873 -1.6120 -0.0396  1.0567
 1597SOL     OW16426   3.425   3.460   0.885  0.0021 -0.2198  0.0934
 1597SOL    HW116427   3.441   3.368   0.906 -0.2153 -0.0469  1.0062
 1597SOL    HW216428   3.387   3.490   0.968 -1.0593  2.2340 -1.2543
 1598SOL     OW16429   1.914   4.688   4.646 -0.7007  0.4208  0.3359
 1598SOL    HW116430   2.008   4.685   4.664 -0.7749  1.9091  1.0459
 1598SOL    HW216431   1.898   0.031   4.694 -1.8803 -0.2898  1.1603
 1599SOL     OW16432   2.162   4.041   7.522  0.1289 -0.5159  0.0164
 1599SOL    HW116433   2.225   4.090   7.574 -1.6290  0.9506  0.7878
 1599SOL    HW216434   2.228   3.987   7.478  1.1925  0.4851  0.3839
 1600SOL     OW16435   4.320   2.337   8.636 -0.4725  0.1038  0.4329
 1600SOL    HW116436   4.264   2.410   8.610 -0.3838 -0.5749 -1.7172
 1600SOL    HW216437   4.298   2.330   8.729  3.4752 -0.1299  1.3377
 1601SOL     OW16438   4.441   4.220   3.361  0.0587  0.2481 -0.3260
 1601SOL    HW116439   4.463   4.311   3.342 -3.8540  0.6614 -2.9137
 1601SOL    HW216440   4.514   4.161   3.343  0.0109  0.5779 -1.5995
 1602SOL     OW16441   0.610   3.464  15.437  0.4567 -0.3847 -0.6216
 1602SOL    HW116442   0.584   3.376  15.463  0.6444 -0.7630 -1.7487
 1602SOL    HW216443   0.586   3.464  15.345 -1.8874  0.8119 -0.0291
 1603SOL     OW16444   0.970   4.281  11.261 -0.0657  0.9055 -0.0884
 1603SOL    HW116445   0.968   4.354  11.200 -2.1792  0.6037 -0.3857
 1603SOL    HW216446   0.893   4.296  11.317  1.4385 -0.9080  2.4744
 1604SOL     OW16447   1.528   1.106  11.316  0.0451 -0.1696 -0.2339
 1604SOL    HW116448   1.585   1.156  11.375 -0.5124 -0.0804  0.2346
 1604SOL    HW216449   1.596   1.087  11.251  0.9049 -0.9910  0.8886
 1605SOL     OW16450   2.585   2.618  10.278  0.4451 -0.1000  0.1834
 1605SOL    HW116451   2.660   2.655  10.324  0.0180  1.9232 -0.7563
 1605SOL    HW216452   2.618   2.533  10.247  1.0950  0.3818 -0.4643
 1606SOL     OW16453   0.839   3.522   5.335  0.7475  0.1970  0.2147
 1606SOL    HW116454   0.802   3.586   5.274  1.1334  0.2085 -0.0068
 1606SOL    HW216455   0.931   3.545   5.349  0.6833  0.5197  0.1098
 1607SOL     OW16456   2.024   0.936  11.004  0.2163 -0.1503 -0.0979
 1607SOL    HW116457   2.003   0.909  11.094 -0.8433  0.8364 -0.0568
 1607SOL    HW216458   2.096   0.876  10.981  1.5508  0.8304  1.4799
 1608SOL     OW16459   2.612   3.963   3.670  0.1011 -0.1604  0.8327
 1608SOL    HW116460   2.621   3.912   3.589  1.1669 -1.7416  1.9755
 1608SOL    HW216461   2.563   4.040   3.641 -1.9140 -2.0060 -0.7045
 1609SOL     OW16462   4.140   2.832   0.120 -0.1005  0.1681  0.0494
 1609SOL    HW116463   4.142   2.924   0.093  0.1203  0.4671  1.0652
 1609SOL    HW216464   4.051   2.809   0.097 -0.6641  0.9322  1.4327
 1610SOL     OW16465   3.382   1.152  15.267 -0.6590  0.1394 -0.3273
 1610SOL    HW116466   3.322   1.220  15.298  2.0518  1.2650  2.3504
 1610SOL    HW216467   3.438   1.142  15.343  0.9880  0.8534 -1.4446
 1611SOL     OW16468   3.758   2.696  17.089 -0.1855  0.0195 -0.0494
 1611SOL    HW116469   3.847   2.726  17.104  0.2036 -0.2772 -1.7519
 1611SOL    HW216470   3.713   2.780  17.081 -0.9458 -0.4244 -0.4765
 1612SOL     OW16471   2.879   1.858   8.676  0.5811  1.0014 -0.2807
 1612SOL    HW116472   2.875   1.826   8.586 -0.2547 -0.8581  0.4181
 1612SOL    HW216473   2.809   1.814   8.724  2.2207 -0.1776  1.0595
 1613SOL     OW16474   2.482   0.940   2.865  0.1864 -0.0834  0.2890
 1613SOL    HW116475   2.452   1.029   2.884 -0.2932 -0.3510  0.7933
 1613SOL    HW216476   2.507   0.909   2.952  0.8307  1.0137  0.4956
 1614SOL     OW16477   3.462   0.580   1.657  0.2852  0.2312  0.2462
 1614SOL    HW116478   3.527   0.616   1.717  0.6458 -1.3819  0.7976
 1614SOL    HW216479   3.501   0.615   1.577  1.2721  1.7060  1.3855
 1615SOL     OW16480   0.990   1.968   0.582  0.0142  0.2375  0.1831
 1615SOL    HW116481   1.079   1.943   0.608  0.2500 -0.7116 -1.5551
 1615SOL    HW216482   0.976   1.909   0.508  0.1542  0.6300 -0.1568
 1616SOL     OW16483   2.992   0.965  16.670 -0.1283  0.2357  0.1951
 1616SOL    HW116484   3.044   0.944  16.592 -0.3611 -0.5629  0.2452
 1616SOL    HW216485   2.950   0.884  16.699  2.1167 -0.8117  0.5354
 1617SOL     OW16486   2.797   4.389   2.220  0.2289  0.2811 -0.4085
 1617SOL    HW116487   2.884   4.379   2.182  0.1423  2.1353 -1.0580
 1617SOL    HW216488   2.790   4.304   2.264  0.7293 -0.7127 -2.2452
 1618SOL     OW16489   3.456   3.133  11.606  0.5038  0.1890  0.0959
 1618SOL    HW116490   3.541   3.129  11.562 -0.0879 -0.7497 -0.9799
 1618SOL    HW216491   3.410   3.185  11.539 -2.3087 -2.4169 -0.0037
 1619SOL     OW16492   0.278   2.193  17.082  0.1838 -0.3408  0.3561
 1619SOL    HW116493   0.264   2.203  17.176 -0.2982  0.4353  0.1982
 1619SOL    HW216494   0.231   2.112  17.062 -0.3823  0.0295  0.2197
 1620SOL     OW16495   0.800   3.027   7.107  0.3369  0.5355  0.1082
 1620SOL    HW116496   0.825   3.005   7.197 -0.2312  0.2040  0.1821
 1620SOL    HW216497   0.833   3.117   7.098 -1.4002  1.1903  0.3028
 1621SOL     OW16498   4.201   1.675  11.927  0.1629 -0.0782  0.2320
 1621SOL    HW116499   4.289   1.699  11.956 -0.4645  1.3190  0.9507
 1621SOL    HW216500   4.185   1.728  11.849 -0.6401 -0.8482 -0.1390
 1622SOL     OW16501   3.942   2.990   0.352  0.4569  0.6404 -0.1204
 1622SOL    HW116502   3.859   3.034   0.333  0.8589  1.2749 -0.4083
 1622SOL    HW216503   3.913   2.917   0.407  0.4164  1.2221  0.6196
 1623SOL     OW16504   0.088   4.029  12.592 -0.0493  0.4690  0.3158
 1623SOL    HW116505   0.016   3.982  12.634  0.0682 -0.0179 -0.0279
 1623SOL    HW216506   0.129   3.952  12.553 -1.3929 -0.2906  0.3893
 1624SOL     OW16507   2.548   1.647   2.449  0.1997 -1.0961  0.0206
 1624SOL    HW116508   2.588   1.636   2.535  0.7399  0.3709 -0.0529
 1624SOL    HW216509   2.510   1.560   2.433  1.5848 -1.4234 -1.5664
 1625SOL     OW16510   4.062   4.422  13.432  0.3442  1.0944 -0.2038
 1625SOL    HW116511   4.013   4.350  13.392  1.5629  2.0210 -3.4180
 1625SOL    HW216512   4.083   4.467  13.350 -1.9479 -0.3608 -1.5891
 1626SOL     OW16513   4.144   1.556   3.367  0.2194  0.4145  0.1850
 1626SOL    HW116514   4.220   1.513   3.329  1.0531 -0.1776  2.5004
 1626SOL    HW216515   4.183   1.638   3.396 -0.9200  1.7162 -1.9632
 1627SOL     OW16516   4.617   2.455   6.197  0.4582 -0.1219 -0.0350
 1627SOL    HW116517   4.705   2.444   6.233  0.2052  0.3335  0.7129
 1627SOL    HW216518   4.596   2.546   6.218 -1.5772 -0.4671 -0.5240
 1628SOL     OW16519   0.215   2.816   5.018 -0.4802 -0.4433  0.1273
 1628SOL    HW116520   0.177   2.755   4.955  0.6227 -1.3543  0.3594
 1628SOL    HW216521   0.150   2.885   5.034  0.7297  0.1547  2.5079
 1629SOL     OW16522   4.610   0.597   0.600  0.0261  0.1242 -0.4295
 1629SOL    HW116523   4.700   0.604   0.631 -0.6609 -0.1823  1.6727
 1629SOL    HW216524   4.611   0.522   0.540 -2.2515  0.4392 -0.8774
 1630SOL     OW16525   0.385   3.855   4.695 -0.2106  0.7221  0.8572
 1630SOL    HW116526   0.412   3.763   4.693 -0.5946  0.6472 -0.7612
 1630SOL    HW216527   0.421   3.895   4.616 -1.7859 -0.3648 -0.3967
 1631SOL     OW16528   3.138   0.206   7.242  0.2071 -0.4606 -0.1858
 1631SOL    HW116529   3.140   0.294   7.279  1.6031  0.4124 -2.3893
 1631SOL    HW216530   3.096   0.161   7.316 -1.0879 -1.1820 -1.3459
 1632SOL     OW16531   2.783   4.552   3.281 -0.6287 -0.2724  0.5853
 1632SOL    HW116532   2.825   4.627   3.239  0.2235 -1.2766 -0.3677
 1632SOL    HW216533   2.768   4.585   3.370 -0.7679 -0.6986  0.7223
 1633SOL     OW16534   4.606   2.385   1.441  0.1592 -0.2839 -0.5939
 1633SOL    HW116535   4.671   2.406   1.507  1.1450 -0.6926 -1.4283
 1633SOL    HW216536   4.535   2.429   1.487 -0.7220 -0.0776 -2.1478
 1634SOL     OW16537   1.328   4.474   4.753 -0.1840  0.4019  0.1344
 1634SOL    HW116538   1.330   4.496   4.660 -0.6389  0.4974  0.1455
 1634SOL    HW216539   1.414   4.503   4.782  0.5098  1.6533 -3.2417
 1635SOL     OW16540   1.393   0.024   5.358  0.6146  0.1200 -0.6371
 1635SOL    HW116541   1.428   4.726   5.439  3.9245 -0.1750 -2.2141
 1635SOL    HW216542   1.311   4.714   5.361  0.7217  0.0036  0.2557
 1636SOL     OW16543   1.009   4.381   3.464  0.3182 -0.0073 -0.5320
 1636SOL    HW116544   0.955   4.438   3.518 -0.5087 -1.3024  0.0005
 1636SOL    HW216545   1.051   4.444   3.406  0.4902  1.3986  1.1366
 1637SOL     OW16546   0.115   2.739  12.593  0.4488 -0.1939 -0.0963
 1637SOL    HW116547   0.186   2.799  12.570 -0.2344  0.2083 -1.1403
 1637SOL    HW216548   0.161   2.665  12.634  0.4140  0.4195  1.0557
 1638SOL     OW16549   1.150   3.237   0.098 -0.3090  0.8023 -0.3607
 1638SOL    HW116550   1.141   3.156   0.149 -0.9534  0.5391 -0.8956
 1638SOL    HW216551   1.149   3.211   0.006 -0.7205  1.1109 -0.4440
 1639SOL     OW16552   3.535   2.085  11.798  0.3034 -0.2460  0.2370
 1639SOL    HW116553   3.483   2.059  11.723 -0.4322  1.4623  0.1548
 1639SOL    HW216554   3.481   2.057  11.872 -0.1748 -0.6726 -0.2819
 1640SOL     OW16555   4.112   3.595  14.679 -0.4859 -0.1971 -0.0867
 1640SOL    HW116556   4.129   3.688  14.664 -1.7294 -0.3426 -2.3733
 1640SOL    HW216557   4.097   3.577  14.772  0.2695 -2.2317 -0.3441
 1641SOL     OW16558   2.585   0.976  17.223  0.0339  0.2396 -0.3153
 1641SOL    HW116559   2.559   1.065  17.198 -1.5995 -0.0776  0.2487
 1641SOL    HW216560   2.502   0.930  17.214  0.9363 -1.7520  1.5870
 1642SOL     OW16561   0.818   1.164  14.082  0.1820  0.1403  0.0265
 1642SOL    HW116562   0.827   1.213  14.000  1.3793  0.2167  0.2161
 1642SOL    HW216563   0.724   1.167  14.100 -0.3577 -0.6209 -2.6937
 1643SOL     OW16564   2.282   3.664   7.831  0.2033 -0.1677 -0.1879
 1643SOL    HW116565   2.372   3.645   7.860 -0.6361  1.9606  3.7895
 1643SOL    HW216566   2.284   3.636   7.740  3.0817  1.4692 -0.6609
 1644SOL     OW16567   1.412   0.519   2.068 -0.4881  0.0379 -0.4722
 1644SOL    HW116568   1.477   0.573   2.022  0.3821 -0.3371  0.3018
 1644SOL    HW216569   1.331   0.537   2.021 -0.1414  0.5050 -0.8875
 1645SOL     OW16570   4.083   2.088   5.363 -0.0472 -0.3638 -0.4176
 1645SOL    HW116571   4.096   2.024   5.433  0.0882  2.0544  1.7973
 1645SOL    HW216572   4.136   2.162   5.395 -0.7572 -0.3086  0.6645
 1646SOL     OW16573   3.779   1.335  15.040  0.8656  0.2549 -1.0514
 1646SOL    HW116574   3.847   1.309  14.978  3.9912  2.7090  1.3773
 1646SOL    HW216575   3.698   1.293  15.011  0.8292 -0.4867  0.1224
 1647SOL     OW16576   1.372   3.532  15.522 -0.2879 -0.0156  0.3640
 1647SOL    HW116577   1.421   3.579  15.589  1.1015 -1.1422  0.1354
 1647SOL    HW216578   1.305   3.600  15.512 -2.1635 -2.1228 -1.3933
 1648SOL     OW16579   2.106   0.466   4.356 -0.5349  0.0706  0.9370
 1648SOL    HW116580   2.195   0.493   4.330 -0.7480 -0.8533 -0.7476
 1648SOL    HW216581   2.083   0.398   4.293 -1.4717  0.4088  0.9151
 1649SOL     OW16582   3.517   3.771   7.691  0.2453 -0.7152  0.8138
 1649SOL    HW116583   3.569   3.712   7.636  0.6577 -1.2982  1.8246
 1649SOL    HW216584   3.450   3.706   7.712  1.0389 -1.8670 -0.2282
 1650SOL     OW16585   4.001   1.946   5.789  0.0616 -0.2528  0.1999
 1650SOL    HW116586   4.085   1.944   5.745  0.9837  3.3200  1.8071
 1650SOL    HW216587   3.993   1.865   5.840  2.4652  1.0753  2.7097
 1651SOL     OW16588   3.203   3.486   9.013 -0.1135  0.1366 -1.0069
 1651SOL    HW116589   3.132   3.542   9.045  0.6135  0.4714  0.0298
 1651SOL    HW216590   3.278   3.532   9.052  2.9991 -4.3244 -1.7107
 1652SOL     OW16591   3.931   0.605   4.564 -0.1327  0.6841  0.3602
 1652SOL    HW116592   3.968   0.578   4.648 -1.2443 -0.8403  0.3666
 1652SOL    HW216593   3.992   0.677   4.551 -0.0393  0.3022 -1.3206
 1653SOL     OW16594   4.610   0.488   0.189 -0.5039  0.0407 -0.8973
 1653SOL    HW116595   4.595   0.451   0.103 -0.7118 -0.9574 -0.4286
 1653SOL    HW216596   4.519   0.514   0.208  0.0117 -1.4875  3.6895
 1654SOL     OW16597   3.824   3.031  11.204  0.0853  0.0538  0.6042
 1654SOL    HW116598   3.782   2.986  11.130 -0.1841  1.2742  0.0210
 1654SOL    HW216599   3.840   2.954  11.258 -0.3887 -0.1343  0.4733
 1655SOL     OW16600   1.209   2.939   5.366 -0.0202 -0.2540 -0.2178
 1655SOL    HW116601   1.252   2.942   5.281 -1.0333  1.0043 -0.6837
 1655SOL    HW216602   1.125   2.899   5.342 -1.5837  2.3394  0.8635
 1656SOL     OW16603   1.956   1.759   9.681 -0.1253 -0.3145 -0.5314
 1656SOL    HW116604   1.896   1.764   9.755  1.4242 -1.3520  0.8039
 1656SOL    HW216605   1.912   1.783   9.599  1.7405  1.1260 -1.1270
 1657SOL     OW16606   1.499   0.793   7.040  0.0620 -0.2310  0.2412
 1657SOL    HW116607   1.475   0.706   7.009  0.4734 -0.4300  0.4823
 1657SOL    HW216608   1.535   0.834   6.961 -1.6346  1.3197  0.2595
 1658SOL     OW16609   4.155   4.096  11.060 -0.2906  0.4050 -0.6268
 1658SOL    HW116610   4.246   4.068  11.049 -0.4662 -0.2842 -0.3696
 1658SOL    HW216611   4.154   4.188  11.035  2.8240  0.4498 -0.5931
 1659SOL     OW16612   3.512   3.988   6.060  0.0398  0.1098  0.3698
 1659SOL    HW116613   3.607   3.992   6.051 -0.0387  1.7988  0.1376
 1659SOL    HW216614   3.491   4.031   6.144  2.2652  0.3380  0.8063
 1660SOL     OW16615   1.169   0.031   6.498 -0.1888 -0.3471 -0.4597
 1660SOL    HW116616   1.231   0.015   6.427  0.7023 -1.6361  0.5868
 1660SOL    HW216617   1.162   0.125   6.484 -0.7589  0.0368  2.3455
 1661SOL     OW16618   1.227   3.679  15.148  0.1337  0.1468  0.1314
 1661SOL    HW116619   1.185   3.602  15.111 -0.6034 -0.1452  1.5900
 1661SOL    HW216620   1.236   3.734  15.070 -1.1381  2.2396  1.4473
 1662SOL     OW16621   1.988   2.112  13.413  0.4029  0.4282 -0.0679
 1662SOL    HW116622   1.990   2.073  13.501  3.5290 -1.6366 -1.0674
 1662SOL    HW216623   2.001   2.205  13.434 -1.3658  0.6131  0.2113
 1663SOL     OW16624   1.024   3.485   5.840 -0.4342 -0.0116 -0.3202
 1663SOL    HW116625   0.989   3.569   5.810  0.5928  0.6610  0.3482
 1663SOL    HW216626   1.017   3.442   5.755 -1.3160  2.3333 -1.4305
 1664SOL     OW16627   2.751   0.341   7.558 -0.0656 -0.0415  0.0977
 1664SOL    HW116628   2.659   0.367   7.544 -0.1187  0.1522  0.8105
 1664SOL    HW216629   2.806   0.389   7.496  0.0891  0.7849  0.8809
 1665SOL     OW16630   3.168   0.866   7.019 -0.7176  0.4203 -0.0295
 1665SOL    HW116631   3.216   0.802   7.070 -0.6313 -0.3518 -1.0665
 1665SOL    HW216632   3.084   0.821   7.010 -0.8085  0.6114 -0.1462
 1666SOL     OW16633   1.721   1.676   6.334 -0.0006  0.4167  0.6462
 1666SOL    HW116634   1.716   1.684   6.429 -0.4395  2.3075  0.4716
 1666SOL    HW216635   1.814   1.695   6.329  0.7771 -3.3673  0.9034
 1667SOL     OW16636   2.568   1.287  17.233 -0.0539  0.5432 -0.0975
 1667SOL    HW116637   2.547   1.354  17.297  0.9221 -1.5037  2.3810
 1667SOL    HW216638   2.489   1.234  17.222 -1.6524  3.3086 -1.6835
 1668SOL     OW16639   0.859   4.428   2.378 -0.1041 -0.0948 -0.4933
 1668SOL    HW116640   0.837   4.482   2.454  2.7056 -0.9919  0.9929
 1668SOL    HW216641   0.871   4.501   2.316 -1.9382 -0.2442 -1.0155
 1669SOL     OW16642   3.035   2.536   6.671 -0.6676 -0.3841  0.1215
 1669SOL    HW116643   2.972   2.465   6.658  2.4012 -3.3564  1.4414
 1669SOL    HW216644   3.122   2.495   6.675 -0.1646  0.5785 -0.6009
 1670SOL     OW16645   4.419   1.632   7.631  0.2582 -0.1050 -0.4675
 1670SOL    HW116646   4.437   1.647   7.538 -0.1329 -0.5213 -0.6110
 1670SOL    HW216647   4.324   1.639   7.638  0.1303 -1.5277 -0.7854
 1671SOL     OW16648   2.662   1.861   4.356 -0.0857  0.0679  0.5524
 1671SOL    HW116649   2.602   1.854   4.282  1.7209 -0.8448 -0.7965
 1671SOL    HW216650   2.617   1.939   4.389  1.0128  0.8599  0.1896
 1672SOL     OW16651   2.946   3.000   7.240  0.4334 -0.0246 -0.4338
 1672SOL    HW116652   2.924   2.959   7.323 -1.9697  2.9286  0.3692
 1672SOL    HW216653   2.889   2.956   7.177 -0.7701 -0.6515  1.1028
 1673SOL     OW16654   1.099   0.639   5.241  0.1256  0.2923  0.4298
 1673SOL    HW116655   1.166   0.702   5.267 -0.0413  1.1626 -1.2633
 1673SOL    HW216656   1.141   0.563   5.281  1.2136  1.5493  1.7134
 1674SOL     OW16657   0.317   4.562   3.246 -0.7317 -0.1765  0.5546
 1674SOL    HW116658   0.363   4.488   3.285  1.4720  0.3950 -0.9804
 1674SOL    HW216659   0.232   4.522   3.227 -0.2063 -0.5960 -0.8695
 1675SOL     OW16660   3.049   3.188  11.898  0.2671 -0.2303 -0.1614
 1675SOL    HW116661   3.122   3.130  11.920 -1.8670 -2.3944  1.3503
 1675SOL    HW216662   3.019   3.142  11.819 -0.8924 -0.6838  0.5366
 1676SOL     OW16663   2.884   0.237   8.407  0.5599  0.5463  0.6272
 1676SOL    HW116664   2.839   0.179   8.468 -0.2089  0.8221  0.3331
 1676SOL    HW216665   2.863   0.313   8.462  1.8518  0.6648  0.9423
 1677SOL     OW16666   1.697   2.857   5.538 -0.2955 -0.3113  0.7306
 1677SOL    HW116667   1.743   2.809   5.607  1.1410  1.8282  1.2499
 1677SOL    HW216668   1.757   2.930   5.526  0.5856 -1.4231 -1.5417
 1678SOL     OW16669   2.097   0.046   9.566  0.0060 -0.0637 -0.0205
 1678SOL    HW116670   2.020   0.001   9.532 -0.6170 -1.0473  2.7518
 1678SOL    HW216671   2.069   0.138   9.565 -2.1214 -0.7421 -2.3159
 1679SOL     OW16672   1.881   2.838  10.946 -0.0165 -0.0666 -0.0041
 1679SOL    HW116673   1.875   2.744  10.927 -0.1723  0.0012 -0.3032
 1679SOL    HW216674   1.975   2.844  10.930 -0.4499  4.1948 -0.9578
 1680SOL     OW16675   1.158   1.057   9.664  0.0033  0.0749 -0.4304
 1680SOL    HW116676   1.179   1.001   9.589 -2.2531 -0.4057 -0.7312
 1680SOL    HW216677   1.098   1.006   9.719 -1.2943  1.8410 -0.2081
 1681SOL     OW16678   2.874   0.651   2.175  0.1943 -0.2086  0.5253
 1681SOL    HW116679   2.862   0.668   2.082  1.5469 -0.2362  0.3541
 1681SOL    HW216680   2.818   0.577   2.200 -1.1770  0.9588  0.9517
 1682SOL     OW16681   4.634   0.223   6.553 -0.5274 -0.3074  0.0559
 1682SOL    HW116682   4.687   0.258   6.624  1.7533 -4.0116  0.1839
 1682SOL    HW216683   4.642   0.295   6.490 -1.9146 -1.6474 -1.6515
 1683SOL     OW16684   3.619   4.520   3.209 -0.1505  0.0802  0.1052
 1683SOL    HW116685   3.690   4.492   3.151  0.6009  0.6255  0.7659
 1683SOL    HW216686   3.615   4.434   3.250 -0.9967  1.4487  2.8778
 1684SOL     OW16687   1.212   3.952   5.549 -0.5294 -0.2740  0.2402
 1684SOL    HW116688   1.302   3.963   5.582 -0.8895 -0.2025  1.2111
 1684SOL    HW216689   1.195   3.870   5.595 -2.7551  0.3904  0.6309
 1685SOL     OW16690   3.082   1.147   7.380  0.8225 -0.3731  0.1370
 1685SOL    HW116691   3.135   1.113   7.452  1.5374 -0.9858 -0.6730
 1685SOL    HW216692   2.997   1.114   7.411 -0.7099  3.5372  0.1436
 1686SOL     OW16693   3.842   1.098   5.157 -0.0245  0.6473 -0.0037
 1686SOL    HW116694   3.902   1.023   5.154  0.4106  0.9396  1.2477
 1686SOL    HW216695   3.790   1.073   5.081  0.9004  0.3569 -0.5458
 1687SOL     OW16696   2.521   4.097   6.461  0.5940 -0.6666 -0.4261
 1687SOL    HW116697   2.512   4.148   6.381  0.1205  0.9172  0.6348
 1687SOL    HW216698   2.592   4.143   6.505  0.1020 -1.1759  0.8991
 1688SOL     OW16699   1.631   2.984   4.467  0.4442 -0.2291 -0.3653
 1688SOL    HW116700   1.696   3.049   4.443  0.0206 -0.1398 -1.2738
 1688SOL    HW216701   1.639   2.921   4.395  1.1326 -1.3211  0.6575
 1689SOL     OW16702   3.332   4.359  10.852  0.2982 -0.3947  0.0832
 1689SOL    HW116703   3.283   4.437  10.828 -0.5119 -1.5506 -2.0581
 1689SOL    HW216704   3.419   4.397  10.866  0.8708 -1.9840  0.8255
 1690SOL     OW16705   1.867   4.500   3.553  0.8475  0.5164 -0.2936
 1690SOL    HW116706   1.831   4.412   3.558  1.5957  0.2093 -0.3174
 1690SOL    HW216707   1.797   4.562   3.573 -0.0655 -0.6332  0.0590
 1691SOL     OW16708   3.864   0.802   3.907  0.5419  0.3898  0.7082
 1691SOL    HW116709   3.839   0.894   3.894 -1.1444 -0.6369 -3.2340
 1691SOL    HW216710   3.847   0.790   4.001  1.4341  0.5909  0.8957
 1692SOL     OW16711   2.255   1.745   7.391  0.2066 -0.2165 -0.2375
 1692SOL    HW116712   2.345   1.714   7.381 -0.2989 -2.2159  1.2768
 1692SOL    HW216713   2.272   1.829   7.433 -0.4652 -0.7809  1.1999
 1693SOL     OW16714   0.229   0.248   9.743 -0.2887  0.9592 -0.5043
 1693SOL    HW116715   0.145   0.214   9.713  0.9407 -0.1391 -2.6895
 1693SOL    HW216716   0.208   0.266   9.835  2.2993 -0.1503  0.3334
 1694SOL     OW16717   4.158   1.427   6.207 -0.4857 -0.3051 -0.3927
 1694SOL    HW116718   4.220   1.451   6.276 -0.4204  0.0304 -0.5704
 1694SOL    HW216719   4.104   1.353   6.236 -1.7188  0.2855 -1.1599
 1695SOL     OW16720   1.885   3.260   1.631  0.1713 -0.1911  0.0554
 1695SOL    HW116721   1.848   3.172   1.623 -1.8544  0.6836 -0.0822
 1695SOL    HW216722   1.945   3.263   1.706  0.5690  0.8350 -0.3013
 1696SOL     OW16723   3.903   4.079  13.417  0.4885  0.1984 -0.3974
 1696SOL    HW116724   3.820   4.092  13.371 -0.9201  1.1572  2.4667
 1696SOL    HW216725   3.943   4.024  13.349  1.5734 -0.9073  1.1296
 1697SOL     OW16726   1.236   3.548   3.066  0.0877 -0.4350  0.3690
 1697SOL    HW116727   1.287   3.494   3.126  2.0821  1.0919  0.0313
 1697SOL    HW216728   1.297   3.584   3.002 -1.0690  0.2810 -0.3334
 1698SOL     OW16729   2.044   1.448  11.539 -0.2133  0.4557 -0.0800
 1698SOL    HW116730   1.964   1.463  11.488 -0.5255 -0.1516  0.2359
 1698SOL    HW216731   2.090   1.388  11.480  4.8727  3.3979  0.9554
 1699SOL     OW16732   3.405   3.539   5.257  0.4744 -0.5415 -0.5184
 1699SOL    HW116733   3.387   3.502   5.344  1.8180  0.4463  0.1800
 1699SOL    HW216734   3.488   3.497   5.236 -0.0815 -1.0053 -1.8025
 1700SOL     OW16735   3.671   2.918   3.440 -0.4968  0.3006  0.0147
 1700SOL    HW116736   3.758   2.880   3.430 -1.5907 -2.6739  2.1617
 1700SOL    HW216737   3.627   2.842   3.478 -1.7837  1.1814  0.2835
 1701SOL     OW16738   0.831   2.769   0.464  0.1160 -0.4059  0.1722
 1701SOL    HW116739   0.780   2.735   0.391 -1.4015 -0.6930  1.3745
 1701SOL    HW216740   0.767   2.836   0.488 -2.4608 -2.0772 -2.0342
 1702SOL     OW16741   3.992   4.690   4.609 -0.4276 -0.1801  0.7892
 1702SOL    HW116742   3.990   0.040   4.574 -1.5119 -0.3470  0.4163
 1702SOL    HW216743   3.978   4.633   4.534  1.4680  2.5133 -1.5878
 1703SOL     OW16744   3.712   4.261   7.674 -0.5257  0.1290 -0.1024
 1703SOL    HW116745   3.622   4.286   7.692 -0.4234 -0.4491  1.2481
 1703SOL    HW216746   3.765   4.325   7.722 -0.2594  0.2529 -0.5573
 1704SOL     OW16747   1.890   3.184   3.712 -0.1770 -0.1578  0.2254
 1704SOL    HW116748   1.927   3.271   3.694  1.9520 -1.4260 -1.5284
 1704SOL    HW216749   1.884   3.185   3.807  0.3401 -0.2416  0.2585
 1705SOL     OW16750   2.844   4.144   4.674 -0.1796 -0.3654 -0.2699
 1705SOL    HW116751   2.818   4.157   4.765 -1.1891  2.4707 -0.9314
 1705SOL    HW216752   2.925   4.193   4.662  0.1137 -1.4769 -2.8287
 1706SOL     OW16753   2.212   1.765   4.592 -0.2863 -0.0504 -0.5347
 1706SOL    HW116754   2.171   1.831   4.648 -1.1332  0.2833 -1.5370
 1706SOL    HW216755   2.134   1.714   4.571 -0.5063  0.7764 -1.7474
 1707SOL     OW16756   0.988   3.734   4.704  0.2539 -0.4392  0.4932
 1707SOL    HW116757   1.080   3.757   4.697 -0.2605  1.9236  1.4758
 1707SOL    HW216758   0.998   3.646   4.668 -1.3545 -0.4349  0.0100
 1708SOL     OW16759   2.316   0.269  17.116  0.2429 -0.6152  0.4975
 1708SOL    HW116760   2.372   0.276  17.038 -0.0996  0.5528  0.3616
 1708SOL    HW216761   2.236   0.229  17.081  0.2017 -1.5093  1.6076
 1709SOL     OW16762   3.228   2.531  12.139 -0.1692  0.0400  0.3900
 1709SOL    HW116763   3.268   2.529  12.226 -0.5706  2.1110  0.6139
 1709SOL    HW216764   3.301   2.514  12.079  0.1535  0.8471  0.5607
 1710SOL     OW16765   1.712   3.784   3.086  0.4663 -0.0336  0.3321
 1710SOL    HW116766   1.789   3.841   3.088 -0.1379  0.7879  0.0776
 1710SOL    HW216767   1.751   3.696   3.095  0.2272 -0.1073  0.6521
 1711SOL     OW16768   2.979   1.323   1.739  0.1238  0.7374  0.2736
 1711SOL    HW116769   2.994   1.229   1.733  1.7476  0.9906  0.1891
 1711SOL    HW216770   2.894   1.329   1.697  0.8181 -0.1371 -1.2399
 1712SOL     OW16771   2.424   1.074   2.182  0.1232 -0.8213 -1.1338
 1712SOL    HW116772   2.475   1.092   2.103  3.3017  0.2495  1.1593
 1712SOL    HW216773   2.366   1.009   2.142 -1.5454 -0.4062  0.6439
 1713SOL     OW16774   3.804   0.467   8.333  0.5302  0.0598 -0.1028
 1713SOL    HW116775   3.715   0.435   8.320 -0.3741  1.5922  2.2787
 1713SOL    HW216776   3.851   0.442   8.253  0.2991 -1.1237  0.1368
 1714SOL     OW16777   3.487   0.988   2.617  0.0376  0.1988 -0.0843
 1714SOL    HW116778   3.570   0.993   2.568 -0.1698 -4.2877 -0.8425
 1714SOL    HW216779   3.422   0.973   2.548  0.2798  0.2658 -0.3283
 1715SOL     OW16780   1.732   4.139  14.370 -0.1594 -0.0050 -0.3230
 1715SOL    HW116781   1.768   4.192  14.299  0.8056 -0.0522  0.1385
 1715SOL    HW216782   1.703   4.197  14.441 -0.7439 -0.0766 -0.5011
 1716SOL     OW16783   0.608   1.663   7.849  0.1445  0.3936 -0.1485
 1716SOL    HW116784   0.681   1.606   7.874 -0.6902 -1.1196 -1.1535
 1716SOL    HW216785   0.543   1.621   7.906  0.3682  1.6962  1.0662
 1717SOL     OW16786   3.955   4.074   1.018 -0.3168 -0.4001  0.5628
 1717SOL    HW116787   3.868   4.108   1.039 -0.6602 -0.7771 -0.2509
 1717SOL    HW216788   4.005   4.108   1.092 -0.9258  1.4103  0.1607
 1718SOL     OW16789   1.627   0.904  16.711  0.2386 -0.3525  0.2668
 1718SOL    HW116790   1.577   0.933  16.787  2.1581  1.2115  0.9429
 1718SOL    HW216791   1.664   0.984  16.675 -0.5044 -1.2997 -2.6136
 1719SOL     OW16792   2.972   4.454   4.821 -0.0268  0.7574  0.3257
 1719SOL    HW116793   2.889   4.467   4.868 -0.2926 -0.5787  0.2342
 1719SOL    HW216794   2.997   4.363   4.836 -1.3144 -0.1191 -2.9916
 1720SOL     OW16795   1.232   3.260   8.457 -0.3706 -0.4744 -0.2887
 1720SOL    HW116796   1.247   3.293   8.369  1.8941  0.6159  0.4988
 1720SOL    HW216797   1.319   3.263   8.496 -0.9490 -1.8366  1.0998
 1721SOL     OW16798   0.047   4.224  11.551  0.0508 -0.8947  0.0933
 1721SOL    HW116799   0.009   4.280  11.484  0.1378  0.3716  1.0956
 1721SOL    HW216800   0.121   4.187  11.503 -0.4839  0.6698 -1.8968
 1722SOL     OW16801   0.853   4.730   3.260 -0.0065 -0.1317 -0.2096
 1722SOL    HW116802   0.855   4.682   3.177  1.3188 -1.1087  0.3870
 1722SOL    HW216803   0.945   0.016   3.274 -0.1591  0.4823 -0.2735
 1723SOL     OW16804   3.213   3.810   8.926 -0.4149  0.1525  0.2934
 1723SOL    HW116805   3.235   3.834   9.016 -1.0200 -1.3553  0.8610
 1723SOL    HW216806   3.153   3.743   8.960 -0.4494 -0.1077 -0.2822
 1724SOL     OW16807   1.099   0.983   5.383  0.0891 -0.4395 -0.0466
 1724SOL    HW116808   1.019   1.025   5.350 -1.6976 -2.0225  2.2500
 1724SOL    HW216809   1.068   0.947   5.466  0.1671 -1.1222 -0.3167
 1725SOL     OW16810   1.721   1.415   8.920  0.4141  0.7104 -0.0155
 1725SOL    HW116811   1.726   1.500   8.963  2.0853  0.0398  1.1244
 1725SOL    HW216812   1.710   1.438   8.828  0.1589 -1.2236 -0.4781
 1726SOL     OW16813   3.460   1.827   8.051  0.0318 -0.2162  0.0814
 1726SOL    HW116814   3.480   1.797   7.962 -0.8349 -2.3217  0.5933
 1726SOL    HW216815   3.432   1.918   8.044  2.5036  0.4901 -0.8343
 1727SOL     OW16816   3.327   4.666  15.973  0.0925 -0.2948  0.1817
 1727SOL    HW116817   3.249   4.711  15.940  0.5633  2.0681  2.2560
 1727SOL    HW216818   3.306   4.576  15.949 -1.5948  0.7642 -2.2489
 1728SOL     OW16819   0.599   4.408  16.226 -0.8317 -0.2936 -0.1956
 1728SOL    HW116820   0.672   4.348  16.240 -1.3545 -1.0025 -0.4873
 1728SOL    HW216821   0.589   4.419  16.131  0.4866 -1.1738 -0.4208
 1729SOL     OW16822   3.757   3.758   3.579  0.2545 -0.6890  0.7965
 1729SOL    HW116823   3.809   3.681   3.556  0.3728 -0.9344  1.8980
 1729SOL    HW216824   3.704   3.784   3.504  0.9232 -1.2384  0.1264
 1730SOL     OW16825   2.779   1.843   5.779  0.2698  0.3477 -0.5271
 1730SOL    HW116826   2.747   1.798   5.701 -2.5410  1.5121 -0.0157
 1730SOL    HW216827   2.701   1.823   5.831  1.8497 -0.2778  1.6162
 1731SOL     OW16828   4.566   3.143   2.608  0.7963 -0.0311 -0.0529
 1731SOL    HW116829   4.599   3.054   2.588  1.4148 -0.0016  0.8379
 1731SOL    HW216830   4.647   3.192   2.595  0.3498  0.3328 -1.4952
 1732SOL     OW16831   1.651   0.753   5.874  0.4935 -0.8330  0.9265
 1732SOL    HW116832   1.724   0.812   5.893 -1.0293  0.8097  1.5955
 1732SOL    HW216833   1.593   0.808   5.822  1.9099 -1.1380 -0.9827
 1733SOL     OW16834   0.087   1.246   8.101  0.2112 -0.0805 -0.7263
 1733SOL    HW116835   0.171   1.200   8.107 -0.1197 -0.5052  0.4916
 1733SOL    HW216836   0.045   1.183   8.160 -0.2200  0.8871 -0.0005
 1734SOL     OW16837   2.742   3.819   6.783  0.5266  0.2086  0.2780
 1734SOL    HW116838   2.759   3.829   6.690  0.1968 -0.1599  0.1815
 1734SOL    HW216839   2.656   3.860   6.783  0.5951  0.3721  1.7140
 1735SOL     OW16840   2.334   1.112  16.265  0.0161  0.1088  0.6213
 1735SOL    HW116841   2.426   1.100  16.287 -0.5364 -0.3837  2.6887
 1735SOL    HW216842   2.331   1.061  16.184 -2.4816  2.0133 -0.4864
 1736SOL     OW16843   2.717   3.696   5.125 -0.1853 -0.6645  0.0850
 1736SOL    HW116844   2.708   3.786   5.157  1.8542  0.3620 -2.2222
 1736SOL    HW216845   2.757   3.707   5.039 -0.0483 -1.1888  0.0811
 1737SOL     OW16846   0.873   1.509   1.224  0.1892 -0.5625 -0.3842
 1737SOL    HW116847   0.855   1.586   1.169  0.0477 -0.9466 -0.8809
 1737SOL    HW216848   0.849   1.549   1.307  0.1407 -3.0872  0.7891
 1738SOL     OW16849   0.333   1.145   8.154 -0.0310  0.1713  0.0498
 1738SOL    HW116850   0.380   1.135   8.072 -0.1644 -0.4339  0.0493
 1738SOL    HW216851   0.413   1.135   8.205 -0.4727 -0.9106  0.5350
 1739SOL     OW16852   4.168   2.627   3.023 -0.1278 -0.1504 -0.1817
 1739SOL    HW116853   4.121   2.611   2.941  0.7459 -0.1539 -0.6779
 1739SOL    HW216854   4.190   2.536   3.044 -0.9988 -0.3168  0.0106
 1740SOL     OW16855   4.438   4.709  17.081  0.1658 -0.0995  0.6100
 1740SOL    HW116856   4.374   4.641  17.062  1.2300 -0.1970 -2.5314
 1740SOL    HW216857   4.429   0.001  17.172 -1.4287 -0.1074  0.4662
 1741SOL     OW16858   2.044   3.857   6.196  0.4496  0.0061  0.6662
 1741SOL    HW116859   2.137   3.837   6.204  0.6381  1.5164  2.2803
 1741SOL    HW216860   2.050   3.916   6.121  0.2589 -0.2240  0.4688
 1742SOL     OW16861   3.327   1.404   7.948  0.1128  0.3619  0.0359
 1742SOL    HW116862   3.281   1.353   8.015  2.0261 -3.6905 -1.7003
 1742SOL    HW216863   3.419   1.392   7.971  0.4199 -1.6756 -2.2731
 1743SOL     OW16864   0.303   2.086   3.390  0.5230 -0.5523  0.2879
 1743SOL    HW116865   0.241   2.013   3.395  2.3180 -2.1832 -1.1866
 1743SOL    HW216866   0.250   2.159   3.422  0.2888 -1.1039  1.1614
 1744SOL     OW16867   4.248   4.680   8.797 -0.3732 -0.1422 -0.4112
 1744SOL    HW116868   4.270   0.029   8.830 -1.0818  0.0177 -0.3628
 1744SOL    HW216869   4.332   4.648   8.762  0.1343 -2.3446  2.8101
 1745SOL     OW16870   3.434   0.452   5.439 -0.3069  0.0563  0.3033
 1745SOL    HW116871   3.354   0.441   5.387 -2.5114  1.7824  3.2989
 1745SOL    HW216872   3.453   0.358   5.443 -0.3803  0.0072 -0.4700
 1746SOL     OW16873   2.158   4.028   6.947  0.1285  0.3583 -0.2931
 1746SOL    HW116874   2.063   4.036   6.936  0.3962 -0.5014 -3.1308
 1746SOL    HW216875   2.166   3.974   6.868  0.3258  3.7223 -2.5705
 1747SOL     OW16876   1.836   1.710   7.388 -0.0673  0.1095 -0.7879
 1747SOL    HW116877   1.783   1.787   7.365 -0.3614  0.2524  0.3922
 1747SOL    HW216878   1.776   1.641   7.358  0.6200 -1.3670  1.2545
 1748SOL     OW16879   4.174   1.350   3.926  0.1613 -0.0105 -0.2422
 1748SOL    HW116880   4.242   1.413   3.951 -0.0431  0.3458 -0.5881
 1748SOL    HW216881   4.225   1.270   3.916  1.7057  0.8389  0.7985
 1749SOL     OW16882   4.208   2.302   1.703  0.0211  0.4093  0.1952
 1749SOL    HW116883   4.180   2.305   1.795  0.4925  0.3933  0.3426
 1749SOL    HW216884   4.294   2.260   1.701  0.1263  0.6055  0.5009
 1750SOL     OW16885   0.466   2.869   3.418 -0.0872  0.0005  0.1982
 1750SOL    HW116886   0.527   2.942   3.427  0.1740 -0.0648 -1.0303
 1750SOL    HW216887   0.379   2.909   3.422  0.5188  1.2777  0.4701
 1751SOL     OW16888   4.180   0.328   4.218  0.9580 -0.1210  0.3116
 1751SOL    HW116889   4.143   0.410   4.252 -0.4410 -0.1589 -1.1082
 1751SOL    HW216890   4.274   0.348   4.214  0.4939  1.7504 -1.3317
 1752SOL     OW16891   4.541   1.784   6.606  0.1067 -0.4868  0.0546
 1752SOL    HW116892   4.458   1.832   6.600  0.0124 -0.6249  0.2569
 1752SOL    HW216893   4.594   1.855   6.643 -0.3199  0.4738 -1.2099
 1753SOL     OW16894   2.357   3.337   3.910 -0.3856 -0.0732  0.3408
 1753SOL    HW116895   2.307   3.256   3.917 -1.1586  0.6500  3.4643
 1753SOL    HW216896   2.440   3.315   3.953 -0.2658  0.0666  0.1752
 1754SOL     OW16897   3.522   2.409  11.503 -0.8391  0.1958  0.1515
 1754SOL    HW116898   3.614   2.388  11.517 -1.3106 -1.1590  1.2641
 1754SOL    HW216899   3.527   2.461  11.423 -2.6423 -0.2241 -0.2292
 1755SOL     OW16900   2.339   1.662   5.364  0.3995  0.3150 -0.7989
 1755SOL    HW116901   2.298   1.596   5.307  1.4934 -2.0545  1.1569
 1755SOL    HW216902   2.311   1.642   5.453  1.9740  0.8746 -0.1839
 1756SOL     OW16903   3.732   1.889  14.938  0.7193  0.3424  0.1049
 1756SOL    HW116904   3.765   1.800  14.940  0.9824  0.4553  0.5577
 1756SOL    HW216905   3.644   1.881  14.975  0.9071  0.2262  0.5153
 1757SOL     OW16906   4.074   3.062  10.400  0.5195  0.0197 -0.5082
 1757SOL    HW116907   4.144   3.069  10.466  0.7866 -0.1775 -0.7702
 1757SOL    HW216908   4.089   2.973  10.369 -2.2372 -1.0633  1.2217
 1758SOL     OW16909   2.981   1.770   5.608  0.4364 -0.6531 -0.1361
 1758SOL    HW116910   2.956   1.836   5.672  0.2744 -0.3837 -0.4745
 1758SOL    HW216911   3.070   1.799   5.586  0.4981  0.3011  1.4039
 1759SOL     OW16912   0.311   2.724  13.718  0.4271 -0.0622 -0.4481
 1759SOL    HW116913   0.349   2.719  13.631  0.3155  4.7579 -0.7371
 1759SOL    HW216914   0.221   2.693  13.712  1.0694 -1.9129 -0.4651
 1760SOL     OW16915   2.698   1.724   0.403 -0.0414 -0.0361  0.4292
 1760SOL    HW116916   2.630   1.753   0.464  0.0859  2.1270 -0.4614
 1760SOL    HW216917   2.700   1.629   0.412  1.3903 -0.2498 -2.0679
 1761SOL     OW16918   1.898   0.954  15.760  0.4521  0.3214  0.3106
 1761SOL    HW116919   1.869   1.031  15.809  0.9406  0.3142  0.6140
 1761SOL    HW216920   1.819   0.901  15.754  0.4531  0.2759  0.7086
 1762SOL     OW16921   4.673   1.022   6.527 -0.3901  0.1558 -0.8496
 1762SOL    HW116922   4.659   1.098   6.470 -1.9960 -0.8545 -1.7939
 1762SOL    HW216923   4.630   1.053   6.607  1.0082 -1.0188  0.3611
 1763SOL     OW16924   4.621   0.480   5.609  0.0783  0.0498  0.0591
 1763SOL    HW116925   4.571   0.506   5.686  0.8164  1.2929  0.1244
 1763SOL    HW216926   4.646   0.567   5.579 -0.1666 -0.2798 -1.1048
 1764SOL     OW16927   3.300   4.155   3.128  0.3103  0.4554 -0.0730
 1764SOL    HW116928   3.307   4.250   3.139  0.5935  0.0096  3.6949
 1764SOL    HW216929   3.223   4.155   3.186 -0.6129  0.7528 -1.2971
 1765SOL     OW16930   4.588   1.000   3.321  0.1644  0.1552 -0.0343
 1765SOL    HW116931   4.589   1.084   3.365  0.7563 -0.6817  1.5436
 1765SOL    HW216932   4.663   1.022   3.265 -0.3842 -1.1539 -1.2809
 1766SOL     OW16933   1.755   4.648   6.277 -0.2629 -0.0285  0.2242
 1766SOL    HW116934   1.686   4.635   6.211  0.2469 -0.4617 -0.2276
 1766SOL    HW216935   1.735   4.571   6.330  0.7918 -0.2161  0.3459
 1767SOL     OW16936   4.064   0.292   7.620 -0.2675 -0.2543 -0.1230
 1767SOL    HW116937   4.079   0.306   7.527 -2.2346  0.0768 -0.3812
 1767SOL    HW216938   4.095   0.375   7.656 -1.6512 -0.3473  1.2569
 1768SOL     OW16939   2.412   0.871   6.459  0.4785 -0.3251 -0.5344
 1768SOL    HW116940   2.435   0.932   6.388  0.2670 -2.0896 -2.1088
 1768SOL    HW216941   2.395   0.788   6.415  0.0829  0.2110 -1.4026
 1769SOL     OW16942   1.699   3.836  11.444 -0.0078  0.7919  0.7577
 1769SOL    HW116943   1.788   3.834  11.411 -0.2429  0.2436  0.1675
 1769SOL    HW216944   1.715   3.812  11.535 -0.3976 -1.4698  0.2238
 1770SOL     OW16945   2.822   0.278   8.796  0.2647  0.3764 -0.1612
 1770SOL    HW116946   2.767   0.200   8.808 -0.1883  0.4782 -1.6471
 1770SOL    HW216947   2.903   0.249   8.839  0.5959 -0.4212 -1.3265
 1771SOL     OW16948   0.468   4.452   3.426 -0.1022 -0.1864 -0.3753
 1771SOL    HW116949   0.418   4.461   3.507 -0.0954  2.5902 -0.6678
 1771SOL    HW216950   0.537   4.518   3.432  0.2293 -0.6050  0.4236
 1772SOL     OW16951   0.359   3.692  12.256 -0.8614  0.3593 -0.0778
 1772SOL    HW116952   0.397   3.651  12.334  0.2906  1.1150 -0.2480
 1772SOL    HW216953   0.301   3.625  12.221  0.2735 -0.1170 -1.0478
 1773SOL     OW16954   2.767   0.469  17.059  0.2285  0.0341  0.0104
 1773SOL    HW116955   2.789   0.533  16.991  2.3892 -0.1687  0.5232
 1773SOL    HW216956   2.732   0.522  17.130 -0.0937 -0.3524  0.1454
 1774SOL     OW16957   3.387   0.981   1.904  0.3746 -0.2268  0.2950
 1774SOL    HW116958   3.350   0.987   1.992  0.5024  0.9981  0.2706
 1774SOL    HW216959   3.375   1.067   1.864 -3.8322 -1.6855 -1.6046
 1775SOL     OW16960   3.728   3.365   3.649  0.3514 -1.0542  0.2213
 1775SOL    HW116961   3.751   3.273   3.634  0.5082 -0.7575 -1.2953
 1775SOL    HW216962   3.760   3.408   3.570 -0.3904 -0.1526  0.4112
 1776SOL     OW16963   1.980   3.004   7.510  0.7875  0.5339 -0.3445
 1776SOL    HW116964   2.064   3.042   7.535  0.7877  0.3106 -0.0032
 1776SOL    HW216965   2.003   3.000   7.417 -0.9773 -2.1604 -0.6664
 1777SOL     OW16966   3.058   3.319  13.706 -0.0583 -0.4066 -0.1366
 1777SOL    HW116967   3.016   3.243  13.665  1.5433 -1.0239 -0.6639
 1777SOL    HW216968   3.002   3.330  13.783  0.4159  1.6460 -0.0794
 1778SOL     OW16969   1.400   1.703   8.253 -0.3110 -0.2894  0.7679
 1778SOL    HW116970   1.472   1.738   8.201  0.6277 -3.8099 -0.2877
 1778SOL    HW216971   1.344   1.781   8.248 -0.0945 -0.0763  1.7631
 1779SOL     OW16972   0.983   4.490   1.253  0.2908 -0.1731  0.1148
 1779SOL    HW116973   0.993   4.434   1.175  0.7310  1.5413 -1.0552
 1779SOL    HW216974   0.906   4.531   1.215  1.6208  0.1032 -2.3228
 1780SOL     OW16975   1.639   1.563   6.081 -0.3083 -0.2898 -0.0704
 1780SOL    HW116976   1.573   1.603   6.137 -0.7426  1.3664 -1.7450
 1780SOL    HW216977   1.713   1.585   6.137 -0.5338 -1.3099  0.6105
 1781SOL     OW16978   0.957   2.462   3.398 -0.2004 -0.1580 -0.1932
 1781SOL    HW116979   0.936   2.408   3.473  2.2592  1.0032  1.3523
 1781SOL    HW216980   0.954   2.553   3.428  0.6112 -1.0723  2.6320
 1782SOL     OW16981   3.644   3.123   7.973  0.1950 -0.1671  0.2223
 1782SOL    HW116982   3.686   3.119   7.887 -0.9269 -0.5844 -0.3137
 1782SOL    HW216983   3.553   3.121   7.942  0.0279 -2.0576  0.8870
 1783SOL     OW16984   2.647   4.530   9.902 -0.8487  0.3231 -0.1499
 1783SOL    HW116985   2.593   4.460   9.938 -1.0341  0.3255 -0.4232
 1783SOL    HW216986   2.723   4.473   9.889 -0.5081  0.8695 -0.5415
 1784SOL     OW16987   4.421   4.493   0.822 -0.1971 -0.7438  0.1915
 1784SOL    HW116988   4.424   4.554   0.895 -2.3338  0.0097 -0.3575
 1784SOL    HW216989   4.506   4.511   0.782 -0.4804 -1.6573 -0.8171
 1785SOL     OW16990   3.432   2.878   3.896 -0.7756 -0.2947  0.4911
 1785SOL    HW116991   3.376   2.909   3.967 -1.2305 -1.3843  0.6068
 1785SOL    HW216992   3.383   2.900   3.817  1.7388  0.1108 -0.9619
 1786SOL     OW16993   1.661   3.682   5.261 -0.4380 -0.2684  0.5879
 1786SOL    HW116994   1.617   3.736   5.195 -0.2500 -0.2230  0.4993
 1786SOL    HW216995   1.709   3.618   5.210 -1.5477 -0.1325 -0.6202
 1787SOL     OW16996   3.569   2.711  11.805 -0.6455 -0.2887 -0.0033
 1787SOL    HW116997   3.534   2.630  11.842 -0.0298 -0.0801  1.0339
 1787SOL    HW216998   3.603   2.758  11.882  0.8262 -0.0083 -0.8209
 1788SOL     OW16999   3.430   3.400   8.509 -0.4408 -0.6075  0.1415
 1788SOL    HW117000   3.440   3.420   8.602 -0.4581 -1.0237  0.2331
 1788SOL    HW217001   3.389   3.313   8.509  0.4979 -1.0663 -2.0856
 1789SOL     OW17002   3.748   3.182   3.425  0.3599  0.4782  0.4755
 1789SOL    HW117003   3.702   3.099   3.439  0.0661  0.7737  1.3097
 1789SOL    HW217004   3.716   3.216   3.342  0.4381  1.2920  0.7758
 1790SOL     OW17005   0.762   1.634   9.690 -0.5375  0.3566  0.3295
 1790SOL    HW117006   0.844   1.589   9.708 -0.6115  0.4391  0.8501
 1790SOL    HW217007   0.727   1.571   9.627  1.1106 -0.2258  0.0035
 1791SOL     OW17008   1.959   1.995   3.438  0.2887  0.7703  0.1628
 1791SOL    HW117009   1.917   2.067   3.392  0.9960  1.1294  0.0723
 1791SOL    HW217010   2.047   1.986   3.400 -0.1276 -1.1350 -0.3352
 1792SOL     OW17011   2.374   0.713   3.954  0.0190  0.1910  0.1532
 1792SOL    HW117012   2.300   0.765   3.922 -0.6281  0.5049  2.1375
 1792SOL    HW217013   2.423   0.779   4.005 -0.7201  2.0364 -1.5347
 1793SOL     OW17014   2.183   3.831   6.749 -0.5403 -0.2680 -0.3169
 1793SOL    HW117015   2.143   3.745   6.761 -0.8035 -0.0247  0.5105
 1793SOL    HW217016   2.165   3.851   6.657 -1.5124 -0.6026 -0.2006
 1794SOL     OW17017   1.011   4.532   6.429  0.2669 -0.0456  0.2231
 1794SOL    HW117018   1.061   4.606   6.463 -1.0496  0.8797  0.1879
 1794SOL    HW217019   1.019   4.566   6.339 -2.0643  0.9478  0.3834
 1795SOL     OW17020   3.428   1.907   1.113 -0.3695  0.2434 -0.6185
 1795SOL    HW117021   3.406   1.921   1.021  0.9350  0.4757 -0.8911
 1795SOL    HW217022   3.471   1.991   1.129  0.9957  0.0196 -3.0974
 1796SOL     OW17023   4.265   1.238   2.463  0.5508  0.2150  0.1454
 1796SOL    HW117024   4.309   1.232   2.378  1.1394 -0.2779  0.4860
 1796SOL    HW217025   4.213   1.319   2.455 -0.3676 -0.2125  1.7068
 1797SOL     OW17026   1.968   3.420   9.281 -0.6629  0.0572  0.3290
 1797SOL    HW117027   2.028   3.372   9.224 -0.8132 -2.0829  2.0044
 1797SOL    HW217028   1.922   3.353   9.330  1.4848 -3.1573 -2.0894
 1798SOL     OW17029   3.184   1.411   9.141  0.5712 -0.7181 -0.3343
 1798SOL    HW117030   3.119   1.414   9.070  0.3618  0.4068 -0.0996
 1798SOL    HW217031   3.133   1.437   9.218  0.1956  0.3926 -0.9550
 1799SOL     OW17032   0.383   1.936  14.482  0.4217 -0.0959  0.0809
 1799SOL    HW117033   0.377   1.962  14.574  0.5505  1.2656 -0.2897
 1799SOL    HW217034   0.450   1.868  14.484  0.7994  0.3262  2.4091
 1800SOL     OW17035   0.793   2.717   3.827  0.4094  0.3257  0.2903
 1800SOL    HW117036   0.701   2.689   3.834  0.0975  1.7120  1.7887
 1800SOL    HW217037   0.797   2.771   3.906  1.6236  1.0609 -0.2766
 1801SOL     OW17038   3.030   0.071   2.977  0.2090 -0.0717  0.1438
 1801SOL    HW117039   2.955   0.096   3.031  0.4915 -0.2451  0.6124
 1801SOL    HW217040   3.097   0.035   3.035  0.3513 -1.3230 -0.7993
 1802SOL     OW17041   1.199   2.247  12.517 -0.0470  0.4651  0.1127
 1802SOL    HW117042   1.275   2.203  12.554 -0.5349 -1.1041 -0.7665
 1802SOL    HW217043   1.156   2.177  12.468  1.1127 -0.9242  1.0802
 1803SOL     OW17044   0.156   1.221  17.595  0.1735 -0.2143 -0.1827
 1803SOL    HW117045   0.210   1.280  17.648  3.2160 -0.0832 -3.3989
 1803SOL    HW217046   0.081   1.209  17.654 -2.0138 -1.3282 -3.1656
 1804SOL     OW17047   3.332   4.172   3.476  0.3040 -0.3576 -0.3844
 1804SOL    HW117048   3.307   4.177   3.569  1.1491 -0.9848 -0.1257
 1804SOL    HW217049   3.247   4.174   3.431 -0.4742 -0.7745  1.0481
 1805SOL     OW17050   1.009   4.271   7.165 -0.6446  0.7412 -0.0848
 1805SOL    HW117051   0.983   4.323   7.088  1.2525  2.0563  0.1757
 1805SOL    HW217052   0.928   4.294   7.210 -0.9210  0.4942 -0.4541
 1806SOL     OW17053   2.043   2.968   4.613  0.2951  0.0396 -0.4773
 1806SOL    HW117054   1.965   2.926   4.649  0.7648 -1.0767 -0.7662
 1806SOL    HW217055   2.035   2.947   4.520 -3.0012 -2.0567  0.2920
 1807SOL     OW17056   3.956   3.575   1.803  0.1473 -0.3420  0.0141
 1807SOL    HW117057   3.990   3.611   1.721  1.3143 -1.9117 -0.1906
 1807SOL    HW217058   3.973   3.486   1.774  0.2735 -1.0145  2.1387
 1808SOL     OW17059   0.952   1.865   7.183 -0.2947  0.4295  0.4595
 1808SOL    HW117060   0.909   1.940   7.144  1.3730  0.9361 -0.4196
 1808SOL    HW217061   0.925   1.871   7.274 -0.5847 -1.8023  0.5236
 1809SOL     OW17062   2.990   4.466   6.423  0.2092 -0.1951 -0.0299
 1809SOL    HW117063   3.067   4.521   6.419  0.8301 -1.1478 -1.1696
 1809SOL    HW217064   3.037   4.383   6.410  2.0541  0.9364 -0.4368
 1810SOL     OW17065   2.497   2.992   3.344 -0.0265  0.0074  0.0209
 1810SOL    HW117066   2.535   2.982   3.257 -1.4555  0.2915 -0.6367
 1810SOL    HW217067   2.413   3.020   3.309  0.5663  0.4548 -1.0496
 1811SOL     OW17068   2.503   2.471   6.877 -0.8907 -0.1964  0.5455
 1811SOL    HW117069   2.593   2.452   6.901 -0.5286 -1.1376 -1.5976
 1811SOL    HW217070   2.502   2.566   6.863 -0.9721 -0.3172 -0.2891
 1812SOL     OW17071   2.771   4.414   7.348  0.5110  0.8962 -0.2594
 1812SOL    HW117072   2.708   4.366   7.295  0.1898  0.5978  0.3923
 1812SOL    HW217073   2.707   4.455   7.406  2.6010 -1.2506  3.5637
 1813SOL     OW17074   3.777   2.838   1.225 -0.0611  0.8067 -0.4685
 1813SOL    HW117075   3.811   2.924   1.199  0.8545  0.4377 -0.4671
 1813SOL    HW217076   3.759   2.852   1.319 -1.2255  0.3244 -0.6226
 1814SOL     OW17077   4.657   2.871   4.176 -0.0406  0.7221  0.5824
 1814SOL    HW117078   4.690   2.839   4.092 -1.1391  0.5871  0.2030
 1814SOL    HW217079   4.566   2.843   4.177  1.0267 -2.8248  0.1307
 1815SOL     OW17080   4.514   0.880   5.245  0.4642  0.3890  0.1206
 1815SOL    HW117081   4.571   0.918   5.312  0.2816 -2.1990  1.7501
 1815SOL    HW217082   4.447   0.949   5.245  0.6085  0.5441 -2.1130
 1816SOL     OW17083   3.912   1.250   3.555  0.0335  0.0005 -0.0572
 1816SOL    HW117084   4.007   1.247   3.569 -0.1764  1.4116  1.6268
 1816SOL    HW217085   3.899   1.343   3.574 -0.6141 -0.0300 -0.3424
 1817SOL     OW17086   4.488   0.333   1.017 -0.3503 -0.3291 -0.0263
 1817SOL    HW117087   4.440   0.412   0.996  1.7326  0.7130 -0.9212
 1817SOL    HW217088   4.470   0.324   1.111 -0.0312 -1.7852 -0.0939
 1818SOL     OW17089   2.713   0.094   9.196 -0.4782 -0.2688 -0.3182
 1818SOL    HW117090   2.739   0.092   9.104 -1.4320 -3.7021 -0.5229
 1818SOL    HW217091   2.753   0.174   9.228 -1.7295  0.3574 -0.2923
 1819SOL     OW17092   4.212   0.660   3.262  0.2494 -0.1050  0.0318
 1819SOL    HW117093   4.128   0.694   3.292 -0.6478 -2.2390 -0.1096
 1819SOL    HW217094   4.243   0.725   3.199  1.1485  0.0676  0.6469
 1820SOL     OW17095   3.154   2.601  10.669 -0.7334  0.4224  0.0866
 1820SOL    HW117096   3.229   2.640  10.715  0.2639 -0.9683 -0.3529
 1820SOL    HW217097   3.145   2.661  10.595  0.7711  1.2590  0.5706
 1821SOL     OW17098   4.517   0.983  16.540 -0.4304  0.1168 -0.8959
 1821SOL    HW117099   4.554   1.017  16.622  0.1123 -3.1653  0.2006
 1821SOL    HW217100   4.458   1.052  16.508  2.9749  3.6937  0.5009
 1822SOL     OW17101   1.987   1.069  11.495 -0.5404  0.3134  0.0592
 1822SOL    HW117102   1.898   1.103  11.504 -0.3306  1.2543 -1.4470
 1822SOL    HW217103   2.048   1.136  11.464  0.0253  0.2691  1.0705
 1823SOL     OW17104   3.084   3.952   4.520 -0.6373  0.1586  0.1703
 1823SOL    HW117105   3.079   4.046   4.538 -2.6489  0.2620 -1.0384
 1823SOL    HW217106   3.150   3.927   4.585  1.0253  0.5165 -1.3747
 1824SOL     OW17107   2.959   1.406   7.251 -0.1403  0.1268 -0.2623
 1824SOL    HW117108   2.895   1.413   7.322 -1.6879 -0.7857 -1.5759
 1824SOL    HW217109   3.033   1.435   7.304 -0.7525  1.0394  0.1010
 1825SOL     OW17110   1.611   0.742  15.246  0.2916 -0.4155 -0.0378
 1825SOL    HW117111   1.664   0.812  15.283  0.4220 -0.2037 -0.6307
 1825SOL    HW217112   1.630   0.737  15.153  0.5578 -3.2706  0.1689
 1826SOL     OW17113   3.636   3.866  16.972  0.0557  0.0000 -0.1207
 1826SOL    HW117114   3.596   3.918  17.041 -1.0757  0.9261 -1.4771
 1826SOL    HW217115   3.626   3.780  17.012  1.6553  0.3199  1.0052
 1827SOL     OW17116   0.798   1.589   7.650  0.6921  0.4111 -0.1682
 1827SOL    HW117117   0.728   1.524   7.653 -0.3996  1.5595 -0.2946
 1827SOL    HW217118   0.751   1.661   7.607  0.2980 -0.0652 -0.5268
 1828SOL     OW17119   4.141   2.447   6.072 -0.4719  0.6659  0.1831
 1828SOL    HW117120   4.143   2.357   6.040 -0.7767  0.7229 -0.0008
 1828SOL    HW217121   4.132   2.426   6.165  0.3543  3.1773  0.8264
 1829SOL     OW17122   4.682   1.131   0.564 -0.6284  0.2853 -0.4881
 1829SOL    HW117123   4.656   1.039   0.565  0.1839  0.0325 -2.6646
 1829SOL    HW217124   4.654   1.163   0.650  1.3344  0.4755  0.0909
 1830SOL     OW17125   3.579   4.575  16.836 -0.0791  0.2307  0.4421
 1830SOL    HW117126   3.514   4.563  16.767  1.6519 -0.0353 -1.1742
 1830SOL    HW217127   3.616   4.488  16.850 -1.0140 -0.1784  0.3334
 1831SOL     OW17128   4.499   4.445  11.910 -0.0662 -0.0537 -0.1235
 1831SOL    HW117129   4.585   4.475  11.879 -1.3649  1.2457 -2.4650
 1831SOL    HW217130   4.513   4.353  11.889 -3.1497 -0.2833 -1.1158
 1832SOL     OW17131   1.454   1.108   0.392  0.1872  0.5484  0.6257
 1832SOL    HW117132   1.528   1.161   0.364  2.8941 -3.2529  0.5643
 1832SOL    HW217133   1.438   1.066   0.307  0.2737 -0.5257  1.1320
 1833SOL     OW17134   3.129   4.306   9.031  0.4661 -0.4314 -0.5456
 1833SOL    HW117135   3.213   4.260   9.033  0.3141 -0.6537  0.6101
 1833SOL    HW217136   3.084   4.254   9.098 -0.7369 -0.1729 -1.1479
 1834SOL     OW17137   4.525   0.105  16.529  0.2838  0.5349 -0.6326
 1834SOL    HW117138   4.453   0.167  16.533  0.6623  1.0338 -1.5291
 1834SOL    HW217139   4.551   0.116  16.437 -1.7080 -1.9572 -1.4887
 1835SOL     OW17140   0.066   3.746   5.487  0.3483 -0.0802  0.6764
 1835SOL    HW117141   0.043   3.653   5.497 -1.0189  0.3618  1.5645
 1835SOL    HW217142   0.073   3.744   5.392  1.8751 -0.6746  0.7992
 1836SOL     OW17143   3.534   0.874   2.131 -0.5289 -0.4777 -0.2362
 1836SOL    HW117144   3.515   0.967   2.121  0.0050 -0.1069  2.3814
 1836SOL    HW217145   3.443   0.847   2.146 -0.5211  0.1790  0.9145
 1837SOL     OW17146   4.163   0.081  10.579 -0.3770  0.3141 -0.1044
 1837SOL    HW117147   4.068   0.083  10.565 -0.0021  0.1852 -2.7015
 1837SOL    HW217148   4.177   0.166  10.621 -3.6885  0.7190  0.1591
 1838SOL     OW17149   1.456   1.414  15.224 -0.0329 -0.0139  0.2805
 1838SOL    HW117150   1.525   1.399  15.160 -0.4436 -0.5569 -0.0239
 1838SOL    HW217151   1.429   1.504  15.207  1.1923 -0.0178 -1.5595
 1839SOL     OW17152   1.712   2.257   4.263  0.1895 -0.4348 -0.3013
 1839SOL    HW117153   1.764   2.302   4.196 -1.1901  1.1765 -0.2730
 1839SOL    HW217154   1.628   2.299   4.246  0.0610  0.4619  2.3951
 1840SOL     OW17155   0.645   1.917   8.322 -0.1582  0.2740  0.7453
 1840SOL    HW117156   0.634   1.890   8.231  0.6411 -0.4804  0.8675
 1840SOL    HW217157   0.674   1.830   8.350  1.3652  0.5066 -0.1303
 1841SOL     OW17158   0.110   3.679   3.944 -0.3104  0.3793 -0.6605
 1841SOL    HW117159   0.054   3.604   3.960  1.2149 -0.7094 -0.4027
 1841SOL    HW217160   0.058   3.750   3.981 -0.9449  0.3576 -1.5070
 1842SOL     OW17161   2.690   0.537   4.757  0.1924 -0.0582 -0.2462
 1842SOL    HW117162   2.718   0.628   4.766 -0.1780  0.1998 -1.8361
 1842SOL    HW217163   2.745   0.502   4.686  1.9634  2.3539 -0.0434
 1843SOL     OW17164   0.339   2.810  12.822 -0.5847  0.8425 -0.6360
 1843SOL    HW117165   0.397   2.877  12.858 -0.3335 -1.4845  3.2726
 1843SOL    HW217166   0.255   2.838  12.858 -0.5620  0.5475 -0.3507
 1844SOL     OW17167   3.109   1.745   8.272  0.3871  0.4567 -0.1460
 1844SOL    HW117168   3.158   1.684   8.326  0.9037  1.2575  0.2851
 1844SOL    HW217169   3.081   1.681   8.206  0.4944 -0.1996  0.4386
 1845SOL     OW17170   1.631   0.454   4.812 -0.7314 -0.0887  0.2304
 1845SOL    HW117171   1.715   0.499   4.824 -1.4021  0.7003  1.9309
 1845SOL    HW217172   1.567   0.513   4.773 -1.2255 -0.1814  0.9031
 1846SOL     OW17173   2.172   3.561  11.442  0.2229 -0.0760  0.2883
 1846SOL    HW117174   2.198   3.649  11.416  0.3296 -0.1427  0.1666
 1846SOL    HW217175   2.135   3.577  11.529 -1.4618 -0.9680 -0.2555
 1847SOL     OW17176   0.674   2.644   3.088  0.1901  0.2753  0.3137
 1847SOL    HW117177   0.697   2.584   3.158  0.4430  0.0315  0.0218
 1847SOL    HW217178   0.718   2.610   3.010 -3.0672 -1.8905 -0.5403
 1848SOL     OW17179   3.735   2.869  16.132  0.3361  0.1307 -0.0870
 1848SOL    HW117180   3.718   2.953  16.175 -1.3823  0.2993 -1.1125
 1848SOL    HW217181   3.831   2.864  16.133  0.2609 -0.9948  1.0386
 1849SOL     OW17182   2.584   3.419   0.419 -0.0892  0.3384  0.1402
 1849SOL    HW117183   2.608   3.460   0.503 -1.7605 -0.6912  1.1171
 1849SOL    HW217184   2.502   3.373   0.435  0.3447 -0.1757  0.9180
 1850SOL     OW17185   0.518   1.060   0.694 -0.1177 -0.4380 -0.2329
 1850SOL    HW117186   0.611   1.037   0.690  0.2558  1.0961 -0.5850
 1850SOL    HW217187   0.479   1.023   0.615 -2.7220  0.8171  0.4824
 1851SOL     OW17188   1.778   2.634   9.579  0.3559  0.2367 -0.5816
 1851SOL    HW117189   1.873   2.626   9.586  0.2386 -0.6837  0.0113
 1851SOL    HW217190   1.746   2.591   9.659  2.8575  1.3048  0.9889
 1852SOL     OW17191   0.394   2.558   6.324 -0.5665  0.4556  0.0708
 1852SOL    HW117192   0.433   2.616   6.390 -1.2159  1.9729 -0.8808
 1852SOL    HW217193   0.371   2.619   6.255  1.5777  1.6400  0.3711
 1853SOL     OW17194   2.476   4.251  16.735 -0.2869 -0.6033 -0.0947
 1853SOL    HW117195   2.381   4.237  16.740 -0.0870 -1.5629  0.9190
 1853SOL    HW217196   2.514   4.288  16.814  1.6493 -1.5200 -0.6042
 1854SOL     OW17197   2.824   0.742  11.218  0.3319  0.3637 -0.5365
 1854SOL    HW117198   2.768   0.686  11.272 -1.3021  2.3148 -0.1895
 1854SOL    HW217199   2.890   0.677  11.196  0.7211 -0.1131  2.0122
 1855SOL     OW17200   2.155   3.345   3.601 -0.3634  0.3397  0.3491
 1855SOL    HW117201   2.216   3.274   3.583  1.8578  2.2005  0.6392
 1855SOL    HW217202   2.210   3.422   3.610 -0.1894  0.4778 -1.8643
 1856SOL     OW17203   0.532   3.354   8.899 -0.0355  0.0605 -0.0945
 1856SOL    HW117204   0.505   3.262   8.901 -0.8771  0.3099  0.0359
 1856SOL    HW217205   0.610   3.355   8.954  1.0280  0.6849 -1.6109
 1857SOL     OW17206   0.759   2.794   9.199 -0.3128  0.6259 -0.2294
 1857SOL    HW117207   0.671   2.755   9.193 -0.1915  0.4771 -1.0611
 1857SOL    HW217208   0.793   2.748   9.123 -0.8784 -1.9382  1.0516
 1858SOL     OW17209   0.642   4.606   2.525  0.0888 -0.8162  0.1621
 1858SOL    HW117210   0.643   4.687   2.576 -2.3422 -1.2717  0.9401
 1858SOL    HW217211   0.654   4.536   2.589  0.2594 -1.4926 -0.6102
 1859SOL     OW17212   3.003   0.723  16.284  0.0246  0.0674  0.0003
 1859SOL    HW117213   3.050   0.789  16.335  0.3042  1.4516 -2.0829
 1859SOL    HW217214   3.059   0.706  16.208  0.7796  0.5911  0.4349
 1860SOL     OW17215   4.009   2.346  15.070 -0.4043  0.3565 -0.1260
 1860SOL    HW117216   3.916   2.325  15.067 -0.0525 -0.8232 -3.0962
 1860SOL    HW217217   4.020   2.384  15.157  0.2850 -1.3910  0.5445
 1861SOL     OW17218   3.688   3.866   5.609 -0.2472  0.3229 -0.3894
 1861SOL    HW117219   3.615   3.807   5.626 -1.2699  1.9262  0.7813
 1861SOL    HW217220   3.706   3.845   5.517 -1.9654 -0.8330 -0.4526
 1862SOL     OW17221   1.289   3.912   3.522  0.0518 -0.0140  0.0743
 1862SOL    HW117222   1.330   3.825   3.524  1.5496  0.7032  0.4933
 1862SOL    HW217223   1.363   3.968   3.544  0.0464 -0.5770  1.5056
 1863SOL     OW17224   3.912   4.378   8.592  0.4120 -0.0172 -0.0377
 1863SOL    HW117225   3.986   4.318   8.577  0.8011  0.4778 -0.0904
 1863SOL    HW217226   3.836   4.320   8.585 -0.2803  0.7311  1.1769
 1864SOL     OW17227   3.963   1.941   6.993  0.0496  0.2741  0.3379
 1864SOL    HW117228   3.894   1.989   6.946 -0.3882  0.6878  1.3888
 1864SOL    HW217229   3.969   1.871   6.928  3.0784  0.2905  0.6129
 1865SOL     OW17230   2.981   2.517   2.079  0.0392  0.1011  0.1696
 1865SOL    HW117231   2.921   2.566   2.023  1.1093 -0.5699 -1.5488
 1865SOL    HW217232   2.964   2.553   2.166  2.5428  1.5806  0.0398
 1866SOL     OW17233   4.233   3.253   4.782 -0.1411 -0.4244  0.1733
 1866SOL    HW117234   4.260   3.212   4.699  1.1740  0.4510  0.1661
 1866SOL    HW217235   4.267   3.188   4.845 -0.4754 -0.3066  0.4742
 1867SOL     OW17236   1.897   4.416   6.788 -0.1682  0.8562  0.4143
 1867SOL    HW117237   1.932   4.327   6.792  0.3057  1.0370  0.3688
 1867SOL    HW217238   1.802   4.412   6.797 -0.4987  2.5228 -2.1071
 1868SOL     OW17239   3.327   1.360  15.933 -0.2924 -0.2017 -0.1132
 1868SOL    HW117240   3.383   1.313  15.871  0.2112  0.2600  0.0048
 1868SOL    HW217241   3.340   1.305  16.010  0.1290 -0.8862 -0.6758
 1869SOL     OW17242   3.217   2.224   2.495 -0.2992  0.2746  0.7439
 1869SOL    HW117243   3.312   2.218   2.503 -0.2926  0.2740  0.6719
 1869SOL    HW217244   3.183   2.179   2.572  0.7293 -2.6847 -0.5316
 1870SOL     OW17245   0.121   0.816   8.909 -0.1179  0.1596 -0.5347
 1870SOL    HW117246   0.121   0.821   8.814  2.9607  2.0672 -0.4533
 1870SOL    HW217247   0.060   0.889   8.923 -0.0956 -0.0646  0.7945
 1871SOL     OW17248   2.398   4.279   3.041 -0.2893 -0.0305 -0.0026
 1871SOL    HW117249   2.402   4.296   3.135 -0.8680  1.8626 -0.3150
 1871SOL    HW217250   2.358   4.360   3.010 -0.3118 -1.2193 -3.1771
 1872SOL     OW17251   1.370   2.858   7.225 -0.0170 -0.0117  0.1843
 1872SOL    HW117252   1.411   2.793   7.283 -0.9355 -0.3178  0.5004
 1872SOL    HW217253   1.343   2.798   7.155  0.0786 -0.8744  0.8878
 1873SOL     OW17254   1.291   2.194   5.177 -0.1514 -0.2096  0.4708
 1873SOL    HW117255   1.196   2.202   5.188 -0.2119  2.0250 -1.4801
 1873SOL    HW217256   1.336   2.256   5.234 -1.6315  1.6447 -0.3597
 1874SOL     OW17257   1.232   4.672  16.795  0.0235  0.1053  0.0577
 1874SOL    HW117258   1.277   0.001  16.745 -0.2724  0.7851  0.7240
 1874SOL    HW217259   1.293   4.599  16.789  0.5115  0.7872 -3.2395
 1875SOL     OW17260   1.107   4.066   4.121 -0.6220 -0.4060 -0.4305
 1875SOL    HW117261   1.077   3.989   4.073 -2.3141 -0.0513  0.0594
 1875SOL    HW217262   1.026   4.117   4.126  0.9120  2.2148 -2.4367
 1876SOL     OW17263   0.300   4.538  15.306 -0.5375 -0.2306 -0.3465
 1876SOL    HW117264   0.232   4.606  15.305  0.5092  0.8464  0.2905
 1876SOL    HW217265   0.342   4.571  15.227  1.4530 -0.6261  0.5471
 1877SOL     OW17266   0.827   2.373   2.122  0.0255  0.6971 -0.1588
 1877SOL    HW117267   0.880   2.347   2.197 -0.7387 -1.0481 -0.2263
 1877SOL    HW217268   0.822   2.468   2.129 -0.6588  0.4741  2.2287
 1878SOL     OW17269   3.343   0.955  14.954 -0.4757 -0.2203 -0.0287
 1878SOL    HW117270   3.425   0.908  14.942 -0.6520 -0.6222  0.3581
 1878SOL    HW217271   3.308   0.905  15.028 -2.1753 -1.7727 -1.8626
 1879SOL     OW17272   1.174   1.008   0.214  0.0139 -0.1097  0.1293
 1879SOL    HW117273   1.128   0.940   0.165 -0.2048  0.1632 -0.0416
 1879SOL    HW217274   1.185   1.063   0.137  0.2729 -0.2054  0.0976
 1880SOL     OW17275   4.246   0.884  13.695 -0.0520 -0.2443  0.0090
 1880SOL    HW117276   4.251   0.979  13.704  1.0188 -0.1234 -1.7790
 1880SOL    HW217277   4.299   0.849  13.767 -1.6390  0.2116  1.4161
 1881SOL     OW17278   3.910   0.994  10.176 -0.4696 -0.1493  0.0655
 1881SOL    HW117279   4.003   0.971  10.177 -0.9470 -2.1684 -0.2346
 1881SOL    HW217280   3.883   0.994  10.085 -0.4269 -0.6891  0.0487
 1882SOL     OW17281   2.300   4.069   4.119 -0.0697 -0.4996  0.5532
 1882SOL    HW117282   2.323   3.976   4.125  0.9561 -0.1699  1.6123
 1882SOL    HW217283   2.205   4.071   4.123 -0.0927  1.7139 -1.1003
 1883SOL     OW17284   1.939   1.429  15.091 -0.0852  0.1696 -0.4140
 1883SOL    HW117285   2.028   1.453  15.065 -0.1004 -0.2460 -0.8531
 1883SOL    HW217286   1.906   1.512  15.127 -0.1116 -0.6563  1.4286
 1884SOL     OW17287   4.726   4.164   3.344  0.3193 -0.6725 -0.0530
 1884SOL    HW117288   0.033   4.225   3.286  0.5158 -0.7081  0.0618
 1884SOL    HW217289   4.713   4.089   3.287 -2.8267 -0.2741  0.1810
 1885SOL     OW17290   3.920   1.754   3.640 -0.1729 -0.3108  0.0029
 1885SOL    HW117291   3.847   1.753   3.578 -0.7047  2.0215  0.5875
 1885SOL    HW217292   3.988   1.788   3.581 -0.4088 -1.2696 -0.8391
 1886SOL     OW17293   0.919   0.912  17.207  0.3261 -0.6756 -0.2920
 1886SOL    HW117294   0.921   0.986  17.147 -2.0267 -0.5130 -0.1644
 1886SOL    HW217295   0.864   0.854  17.155  0.6356 -1.5224  0.3204
 1887SOL     OW17296   0.798   1.645   6.068  0.1667 -0.0134 -0.0292
 1887SOL    HW117297   0.707   1.617   6.063 -0.2656  1.6732 -1.7241
 1887SOL    HW217298   0.794   1.732   6.109  1.1917  0.2387 -0.4647
 1888SOL     OW17299   0.490   1.796   1.788 -0.1920  0.4267 -0.5082
 1888SOL    HW117300   0.454   1.830   1.706 -3.1850 -1.8073 -0.1392
 1888SOL    HW217301   0.414   1.797   1.847 -1.1939  1.7200 -1.7921
 1889SOL     OW17302   2.162   2.640  11.393 -0.4625 -0.0871  0.3143
 1889SOL    HW117303   2.109   2.691  11.332 -2.0963 -0.6114  1.2881
 1889SOL    HW217304   2.152   2.696  11.471  0.4223 -1.1598  1.1923
 1890SOL     OW17305   2.075   2.087   9.809 -0.1802  0.2957  0.0653
 1890SOL    HW117306   2.065   2.065   9.902 -1.1716  0.0446 -0.1023
 1890SOL    HW217307   2.119   2.008   9.778 -1.5549 -0.9938  1.3628
 1891SOL     OW17308   1.287   1.965   3.863  0.2906  0.1480 -0.0547
 1891SOL    HW117309   1.372   2.009   3.857  0.1270  0.3070 -1.1421
 1891SOL    HW217310   1.270   1.979   3.956  1.7021  0.5442  0.1520
 1892SOL     OW17311   3.234   3.898   9.185  0.5831 -0.0836 -0.3075
 1892SOL    HW117312   3.274   3.871   9.268 -1.0592  1.0354  0.8316
 1892SOL    HW217313   3.307   3.955   9.159 -0.4794  1.9966  1.2892
 1893SOL     OW17314   3.063   2.979   4.489 -0.3403  0.5055  0.0882
 1893SOL    HW117315   3.050   2.912   4.556 -0.8430  1.3980  0.8790
 1893SOL    HW217316   3.128   2.938   4.433  0.4943  1.2595  0.4997
 1894SOL     OW17317   4.585   4.335   8.499  0.3312  0.1929 -0.1006
 1894SOL    HW117318   4.559   4.359   8.410 -3.5369  0.3018  1.0152
 1894SOL    HW217319   4.676   4.360   8.510  0.5701 -0.8976  0.3784
 1895SOL     OW17320   4.289   3.487  11.579 -0.2500  0.6045  0.5431
 1895SOL    HW117321   4.339   3.406  11.586 -0.6005  0.6262  3.2545
 1895SOL    HW217322   4.314   3.533  11.659  1.3197  2.7908 -1.2186
 1896SOL     OW17323   2.917   0.895   4.283 -0.5642  0.3659  0.2502
 1896SOL    HW117324   2.887   0.825   4.341  1.6460 -0.8558 -0.1036
 1896SOL    HW217325   3.008   0.904   4.311  0.3051 -0.2318 -2.3381
 1897SOL     OW17326   0.585   3.570   6.096 -0.5981  0.5309 -0.1325
 1897SOL    HW117327   0.500   3.603   6.127 -0.9940  0.0893 -0.7503
 1897SOL    HW217328   0.591   3.598   6.005 -0.3730 -0.1828 -0.3392
 1898SOL     OW17329   4.318   4.697   1.743 -0.6466 -0.2884  0.6254
 1898SOL    HW117330   4.401   4.650   1.742 -0.7071 -0.3975  0.9268
 1898SOL    HW217331   4.266   4.652   1.810  0.2988 -2.8709 -0.3665
 1899SOL     OW17332   0.455   0.881   5.443  0.5155  0.2207 -0.1981
 1899SOL    HW117333   0.457   0.828   5.364 -2.2582 -1.3890  0.8329
 1899SOL    HW217334   0.497   0.965   5.423  1.6784 -0.2021  0.4350
 1900SOL     OW17335   1.801   4.678   8.234  0.5534 -0.4193 -0.3789
 1900SOL    HW117336   1.845   4.721   8.307 -0.7525 -1.0894  0.7987
 1900SOL    HW217337   1.717   4.715   8.262  2.1309  1.7757  1.4985
 1901SOL     OW17338   0.990   3.519   2.962 -0.1886  0.2334  0.5961
 1901SOL    HW117339   0.989   3.585   2.894 -1.8769  0.3962  0.7784
 1901SOL    HW217340   1.083   3.510   2.985 -0.1578 -2.3789 -0.4658
 1902SOL     OW17341   1.539   1.598  14.477  0.1995  0.2725  0.2518
 1902SOL    HW117342   1.470   1.545  14.438 -1.0586  1.6703  0.5944
 1902SOL    HW217343   1.541   1.664  14.408 -0.3024 -0.3130 -0.3180
 1903SOL     OW17344   1.783   2.869   3.134 -0.3813 -0.6341 -0.2431
 1903SOL    HW117345   1.784   2.961   3.106 -2.1461  0.5149  3.4516
 1903SOL    HW217346   1.696   2.835   3.114 -1.4424  0.9487  1.7008
 1904SOL     OW17347   0.356   3.396  10.411 -0.3961  0.4616  0.2320
 1904SOL    HW117348   0.425   3.342  10.375  0.6883  0.5660  2.1408
 1904SOL    HW217349   0.384   3.403  10.503 -2.8760 -1.0872  1.1079
 1905SOL     OW17350   3.645   3.901   2.599  0.0513  0.0764 -0.1822
 1905SOL    HW117351   3.706   3.833   2.572  0.3112 -0.2532  1.2482
 1905SOL    HW217352   3.608   3.938   2.519 -0.1463  0.8303  0.2535
 1906SOL     OW17353   1.320   4.243   4.422  0.1736 -0.0569  0.1654
 1906SOL    HW117354   1.302   4.149   4.416 -0.9668  0.0771  1.3709
 1906SOL    HW217355   1.240   4.268   4.376  1.0055  0.5097 -0.9458
 1907SOL     OW17356   2.155   1.274  16.413 -0.3912  0.5015 -0.0564
 1907SOL    HW117357   2.164   1.235  16.500  1.9851  1.2318  0.0213
 1907SOL    HW217358   2.225   1.230  16.365  0.7571  2.3478 -0.0844
 1908SOL     OW17359   2.631   1.230   5.291 -0.4430  0.3392  0.0874
 1908SOL    HW117360   2.696   1.300   5.296  0.0923 -0.0992 -0.6393
 1908SOL    HW217361   2.689   1.157   5.268 -0.5547 -0.2272  1.5913
 1909SOL     OW17362   1.304   4.467  15.953  0.4870  0.1973  0.5532
 1909SOL    HW117363   1.252   4.546  15.939 -0.5038 -0.7719 -1.1649
 1909SOL    HW217364   1.262   4.430  16.030 -2.1363  2.8519  0.3758
 1910SOL     OW17365   4.047   3.068   8.605  0.3099  0.0037  0.1276
 1910SOL    HW117366   4.023   3.085   8.696  0.2629 -1.0981  0.3245
 1910SOL    HW217367   3.960   3.075   8.567 -0.3105 -0.0084  1.5514
 1911SOL     OW17368   3.913   0.908   0.593  0.0633  0.0338 -0.3297
 1911SOL    HW117369   3.989   0.867   0.552  0.1624 -1.1345  1.0177
 1911SOL    HW217370   3.862   0.942   0.520  1.6779 -0.1263 -1.5198
 1912SOL     OW17371   1.983   0.201  10.303  0.0041 -0.2698 -0.2371
 1912SOL    HW117372   2.071   0.235  10.289 -0.3156 -0.5265 -2.9127
 1912SOL    HW217373   1.998   0.110  10.278 -2.0460 -1.0629  1.4501
 1913SOL     OW17374   3.244   1.477   9.501  0.0491 -0.2319 -0.0020
 1913SOL    HW117375   3.266   1.385   9.483  1.7837  0.3936 -1.0173
 1913SOL    HW217376   3.180   1.507   9.437  2.4914  0.8421 -1.9266
 1914SOL     OW17377   3.977   2.697  15.944 -0.3296  0.8183  0.4965
 1914SOL    HW117378   3.949   2.669  15.857  2.0522 -1.2072  0.4061
 1914SOL    HW217379   4.063   2.657  15.958 -0.7593 -0.4334 -0.4997
 1915SOL     OW17380   2.514   0.178   6.917 -0.6053 -0.3064 -0.3209
 1915SOL    HW117381   2.524   0.266   6.879 -0.3682 -0.6194 -0.9790
 1915SOL    HW217382   2.424   0.179   6.951 -0.6394 -1.4623 -0.3985
 1916SOL     OW17383   0.377   0.422   8.528  0.6675  0.1169 -0.1073
 1916SOL    HW117384   0.358   0.328   8.537  0.0279  0.1503 -1.1981
 1916SOL    HW217385   0.291   0.455   8.501  1.5530  1.9912 -0.5975
 1917SOL     OW17386   0.306   2.716   4.311  0.4561 -0.3458  0.0947
 1917SOL    HW117387   0.323   2.644   4.250 -0.7436 -0.7269  0.2207
 1917SOL    HW217388   0.385   2.765   4.287  1.4705 -2.1798 -0.3165
 1918SOL     OW17389   2.403   0.466   8.652 -0.5333 -0.3573  0.0982
 1918SOL    HW117390   2.428   0.388   8.702 -2.1224 -1.4211 -0.7767
 1918SOL    HW217391   2.346   0.512   8.714  1.8030 -0.3564  2.2786
 1919SOL     OW17392   3.461   4.162   6.284  0.1864  0.2470  0.0603
 1919SOL    HW117393   3.536   4.146   6.342  0.4473 -2.5424 -1.0635
 1919SOL    HW217394   3.397   4.114   6.336  0.0088  0.3790 -0.0368
 1920SOL     OW17395   1.656   3.908  15.767  0.8915  0.0768  0.1943
 1920SOL    HW117396   1.631   3.855  15.843 -1.1032  2.3543  1.1548
 1920SOL    HW217397   1.640   3.996  15.802  1.0397  0.7297 -1.4217
 1921SOL     OW17398   3.002   2.676  12.256  0.8375 -0.6180 -0.0524
 1921SOL    HW117399   3.068   2.634  12.201 -1.0849 -0.1149 -2.7333
 1921SOL    HW217400   3.010   2.764  12.222  2.5353 -0.6208  0.3642
 1922SOL     OW17401   0.990   1.449  14.972 -0.1784 -0.1520  0.1110
 1922SOL    HW117402   0.898   1.423  14.975 -0.2667 -0.0769 -2.0912
 1922SOL    HW217403   1.021   1.363  14.942  0.9555  0.4256 -0.3556
 1923SOL     OW17404   0.549   0.704   3.046  0.5572  0.0566  0.4546
 1923SOL    HW117405   0.604   0.677   3.120  0.9959  0.1861  0.1809
 1923SOL    HW217406   0.590   0.641   2.986  0.0114 -0.2628  0.4212
 1924SOL     OW17407   4.372   4.638   8.395  0.1059  0.0783 -0.4825
 1924SOL    HW117408   4.440   4.586   8.350  0.5063  1.0383 -0.9934
 1924SOL    HW217409   4.350   4.576   8.465  3.3603  1.0866  1.4383
 1925SOL     OW17410   2.890   4.238   7.910 -0.5320  0.2601 -0.1697
 1925SOL    HW117411   2.981   4.268   7.910 -0.5703  0.3465  1.7419
 1925SOL    HW217412   2.850   4.268   7.828 -2.3664 -2.7724 -0.4088
 1926SOL     OW17413   4.656   3.312   2.228 -0.5801  0.1228  0.3393
 1926SOL    HW117414   4.608   3.338   2.150 -1.5064  0.8597  1.1514
 1926SOL    HW217415   4.728   3.372   2.209 -0.2848 -0.3392  0.0026
 1927SOL     OW17416   1.795   2.063   5.613  0.8705 -0.1463  0.7303
 1927SOL    HW117417   1.800   2.152   5.648  1.1391  1.6697 -3.8306
 1927SOL    HW217418   1.806   2.069   5.518 -0.5683 -0.9148  0.5171
 1928SOL     OW17419   2.618   0.399   8.412 -0.1671 -0.4438  0.8023
 1928SOL    HW117420   2.621   0.473   8.473 -1.3697  1.0690 -0.9718
 1928SOL    HW217421   2.591   0.333   8.476 -1.3984  1.6878  2.4965
 1929SOL     OW17422   1.042   1.598   9.303  0.0613  0.1542  0.1328
 1929SOL    HW117423   1.130   1.635   9.302  0.5424 -1.0075 -0.2797
 1929SOL    HW217424   1.059   1.516   9.258 -0.8882  0.9657 -1.6885
 1930SOL     OW17425   1.610   2.959  12.875  0.1814  0.1465  0.3006
 1930SOL    HW117426   1.684   2.903  12.897  0.9583  1.5349  1.2116
 1930SOL    HW217427   1.663   3.015  12.818  0.4171 -1.2026 -0.7806
 1931SOL     OW17428   2.055   2.833   2.234 -0.3952 -0.5391  0.4445
 1931SOL    HW117429   2.050   2.885   2.153 -0.3090 -0.9829  0.1572
 1931SOL    HW217430   2.145   2.852   2.258 -0.4267 -0.3532  0.4168
 1932SOL     OW17431   4.719   3.602   4.835 -0.3228 -0.2427  0.2155
 1932SOL    HW117432   4.669   3.548   4.896  1.0471 -0.6620  0.9516
 1932SOL    HW217433   4.656   3.673   4.823 -0.3886 -0.1211  1.3322
 1933SOL     OW17434   3.016   0.177  17.317  0.6134  0.0175 -0.2814
 1933SOL    HW117435   3.001   0.211  17.229  0.3131 -1.3025 -0.7406
 1933SOL    HW217436   3.065   0.097  17.298  0.8077  0.7428 -2.9135
 1934SOL     OW17437   0.095   3.250   7.286 -0.1884  0.1284 -0.4727
 1934SOL    HW117438   0.072   3.263   7.378  1.5935 -0.1701  0.0151
 1934SOL    HW217439   0.129   3.339   7.274  3.0062 -0.8207  1.5982
 1935SOL     OW17440   2.690   2.771  15.300 -0.1593  0.1199 -0.1927
 1935SOL    HW117441   2.745   2.706  15.257 -0.0184  1.7904 -2.5432
 1935SOL    HW217442   2.726   2.855  15.270 -0.5231 -0.2105 -1.5849
 1936SOL     OW17443   0.558   0.178  11.410 -0.2383  0.1173 -0.2041
 1936SOL    HW117444   0.616   0.246  11.377  1.0555 -0.0416  1.7988
 1936SOL    HW217445   0.615   0.101  11.410 -1.5264 -0.8508 -0.7666
 1937SOL     OW17446   1.092   2.939  11.291 -0.3326  0.4773 -0.2840
 1937SOL    HW117447   1.089   2.874  11.221  1.9856  1.4006 -1.2113
 1937SOL    HW217448   0.997   2.940  11.304 -0.8347 -0.5294 -3.9464
 1938SOL     OW17449   2.412   0.280   8.863  0.0369  0.4184 -0.5895
 1938SOL    HW117450   2.464   0.225   8.922  0.0620  1.5585  0.4647
 1938SOL    HW217451   2.365   0.327   8.933 -2.4405 -0.6473 -1.5373
 1939SOL     OW17452   0.464   1.790  15.952  0.4161 -0.2801 -0.0964
 1939SOL    HW117453   0.416   1.867  15.921 -0.1300 -1.4572 -2.1814
 1939SOL    HW217454   0.515   1.770  15.873  0.8991 -0.1459  0.1819
 1940SOL     OW17455   2.856   3.202   8.969 -0.5473 -0.5296  0.5596
 1940SOL    HW117456   2.808   3.128   9.007 -0.6466 -0.5950  0.3089
 1940SOL    HW217457   2.867   3.152   8.888 -0.6909  3.2638 -1.8235
 1941SOL     OW17458   1.095   4.112   7.635  0.1594  0.0337  0.1176
 1941SOL    HW117459   1.140   4.040   7.591 -0.6829  1.9474 -3.8997
 1941SOL    HW217460   1.011   4.078   7.665  0.0346 -1.2627 -1.7459
 1942SOL     OW17461   1.081   0.596   2.470 -0.0553 -0.3519 -0.8789
 1942SOL    HW117462   1.098   0.555   2.385  1.4141  1.9980 -1.7149
 1942SOL    HW217463   1.086   0.691   2.465  0.5465 -0.3805 -0.8274
 1943SOL     OW17464   0.820   2.314   3.095  0.5402  0.1633  0.4938
 1943SOL    HW117465   0.776   2.240   3.137  0.5026 -1.0631 -1.6897
 1943SOL    HW217466   0.882   2.353   3.157  0.3896  0.9884  0.1185
 1944SOL     OW17467   3.396   1.347  10.610 -0.0382  0.1242 -0.0566
 1944SOL    HW117468   3.436   1.336  10.524 -0.2908 -1.7306  0.0550
 1944SOL    HW217469   3.303   1.327  10.595 -0.3118  1.8414 -0.6945
 1945SOL     OW17470   4.052   0.654  12.569  0.4745 -0.0355 -0.0367
 1945SOL    HW117471   3.969   0.610  12.589  1.4634 -1.4687  0.9390
 1945SOL    HW217472   4.021   0.682  12.483  1.6121 -0.3156 -0.5313
 1946SOL     OW17473   4.643   0.858   0.504 -0.2163 -0.3524  0.2233
 1946SOL    HW117474   4.629   0.767   0.530 -0.9104 -0.5828 -0.9330
 1946SOL    HW217475   4.635   0.845   0.409 -4.2755 -0.1030  0.5659
 1947SOL     OW17476   1.778   1.562   7.084 -0.7464  0.3615 -0.2414
 1947SOL    HW117477   1.867   1.527   7.074 -0.0734  2.9434 -3.1298
 1947SOL    HW217478   1.744   1.487   7.133  1.9802 -1.0238 -0.5008
 1948SOL     OW17479   0.904   1.627   4.916 -0.1880  0.4656  0.3572
 1948SOL    HW117480   0.899   1.573   4.837 -1.7616  0.0065  0.7722
 1948SOL    HW217481   0.826   1.614   4.970 -1.0880  1.2991 -0.7202
 1949SOL     OW17482   3.618   1.303  11.061 -0.5016 -0.6486  0.6758
 1949SOL    HW117483   3.618   1.332  10.970 -0.6124  2.1379  1.5437
 1949SOL    HW217484   3.534   1.258  11.061 -0.0030 -1.5544  4.5299
 1950SOL     OW17485   4.648   2.895  14.990 -0.3697  0.6845 -0.6818
 1950SOL    HW117486   4.712   2.917  14.922  0.7539 -0.8498 -0.1128
 1950SOL    HW217487   4.587   2.859  14.926  0.1387  0.8118 -1.2439
 1951SOL     OW17488   1.479   1.002   3.971  0.0942 -0.0885  0.1358
 1951SOL    HW117489   1.467   1.075   3.910  0.5530  0.2452  0.4430
 1951SOL    HW217490   1.494   0.933   3.906  1.8323  1.5228 -1.2051
 1952SOL     OW17491   3.495   4.704   9.044  0.5197  0.0877 -0.1408
 1952SOL    HW117492   3.451   4.635   8.995  0.4849  0.9437 -1.3121
 1952SOL    HW217493   3.543   0.011   8.976  0.8868 -0.7202 -0.4245
 1953SOL     OW17494   2.049   2.561  13.179 -1.0187  0.5596 -0.5129
 1953SOL    HW117495   2.007   2.596  13.258  0.0676  2.4781 -0.7641
 1953SOL    HW217496   2.137   2.548  13.214 -0.9551 -1.7069 -1.5405
 1954SOL     OW17497   0.433   2.636   2.919  0.5130 -0.5288 -0.5340
 1954SOL    HW117498   0.400   2.549   2.897  0.2363 -0.8766  1.3176
 1954SOL    HW217499   0.431   2.635   3.014  2.0325 -1.1063 -0.5176
 1955SOL     OW17500   0.931   4.564   3.668 -0.1823  0.4835  0.8268
 1955SOL    HW117501   0.859   4.512   3.703 -0.1282  0.2528  0.5891
 1955SOL    HW217502   0.902   4.653   3.688 -0.1407  0.4911  0.8547
 1956SOL     OW17503   4.523   4.308   5.795 -0.5414  0.3582  0.6542
 1956SOL    HW117504   4.487   4.221   5.811 -0.5792  0.4310  0.9536
 1956SOL    HW217505   4.598   4.303   5.855  0.1213 -2.8646 -0.4162
 1957SOL     OW17506   3.282   0.256   8.232 -0.4447 -0.0174  0.6021
 1957SOL    HW117507   3.284   0.162   8.217 -1.6127  0.2771 -1.3953
 1957SOL    HW217508   3.314   0.259   8.323  0.3034  2.7841  0.2520
 1958SOL     OW17509   2.583   3.181   4.813 -0.3277  0.1946 -0.0110
 1958SOL    HW117510   2.514   3.229   4.859 -1.9231  0.3234 -2.5864
 1958SOL    HW217511   2.651   3.180   4.880 -0.0958 -0.5002 -0.2570
 1959SOL     OW17512   0.716   4.180  16.436  0.0528 -0.4240  0.2647
 1959SOL    HW117513   0.793   4.210  16.485 -0.3640 -1.4583  1.5463
 1959SOL    HW217514   0.681   4.105  16.485  1.2801  1.1734  3.5929
 1960SOL     OW17515   3.185   2.417   1.237  0.0486  0.3588 -0.4951
 1960SOL    HW117516   3.254   2.444   1.175 -0.7842 -0.6312 -1.8360
 1960SOL    HW217517   3.112   2.381   1.188 -0.5684  1.1427 -0.1554
 1961SOL     OW17518   0.169   2.208  10.368  0.0614 -0.3701 -0.2974
 1961SOL    HW117519   0.119   2.230  10.446  1.0436  1.7864 -0.2912
 1961SOL    HW217520   0.131   2.267  10.304  1.4878  1.0741  0.2021
 1962SOL     OW17521   2.644   1.710   9.737  0.4745 -0.2778 -0.5475
 1962SOL    HW117522   2.702   1.663   9.797  0.3521 -0.4272 -0.5486
 1962SOL    HW217523   2.560   1.679   9.769  0.4996 -0.0472 -0.2656
 1963SOL     OW17524   3.424   3.327  11.116 -0.6260 -0.6106 -0.5290
 1963SOL    HW117525   3.470   3.313  11.199 -0.3419  1.1231 -0.3783
 1963SOL    HW217526   3.488   3.307  11.048  1.1304  1.8576  0.3908
 1964SOL     OW17527   4.460   1.231   5.105  0.0386  0.0430 -0.1049
 1964SOL    HW117528   4.544   1.215   5.060 -0.1740  1.0466 -0.8672
 1964SOL    HW217529   4.399   1.193   5.043  0.1821  0.5292 -0.5538
 1965SOL     OW17530   2.093   3.014   5.801  0.8317  0.0962  0.2485
 1965SOL    HW117531   2.086   3.086   5.864  0.3472  0.0330  0.2677
 1965SOL    HW217532   2.124   3.060   5.723 -1.1449 -0.6789 -0.9760
 1966SOL     OW17533   4.359   1.148   6.954 -0.1090  0.6508 -0.1008
 1966SOL    HW117534   4.276   1.107   6.931 -0.3260  1.2877 -0.4540
 1966SOL    HW217535   4.421   1.078   6.932 -2.1721 -2.0588  2.6017
 1967SOL     OW17536   4.163   1.175  14.976 -0.2120  0.0898 -0.1203
 1967SOL    HW117537   4.254   1.195  14.953  0.3082 -0.2650  1.6097
 1967SOL    HW217538   4.146   1.097  14.923  0.2988  0.0207 -0.1885
 1968SOL     OW17539   3.298   2.599  15.154  0.0260  0.4157  0.3259
 1968SOL    HW117540   3.352   2.673  15.125  0.6055  0.7614  2.2646
 1968SOL    HW217541   3.275   2.546  15.078  3.1743  1.5749 -1.4153
 1969SOL     OW17542   4.251   1.884   6.636 -0.7021  0.2815  0.1492
 1969SOL    HW117543   4.186   1.954   6.633 -0.6197  0.2784 -1.4512
 1969SOL    HW217544   4.214   1.830   6.567 -0.4169  0.2979 -0.0160
 1970SOL     OW17545   3.672   3.877   2.025  0.2244  0.0462  0.6537
 1970SOL    HW117546   3.593   3.892   2.075 -0.9783 -1.1478 -0.8643
 1970SOL    HW217547   3.738   3.932   2.066  0.8982  0.7758 -1.4208
 1971SOL     OW17548   0.185   1.405   3.077 -0.2307 -0.5964 -0.0016
 1971SOL    HW117549   0.242   1.332   3.051 -0.5852 -0.6866 -0.5042
 1971SOL    HW217550   0.137   1.361   3.148 -0.6521  2.7774  1.8029
 1972SOL     OW17551   4.685   1.238   2.915  0.2261  0.4026  0.5822
 1972SOL    HW117552   4.700   1.328   2.883 -0.2306 -0.1459 -1.1667
 1972SOL    HW217553   4.591   1.233   2.901 -0.1419  1.8141  2.5944
 1973SOL     OW17554   0.724   1.681   3.272  0.3751 -0.9000  0.1974
 1973SOL    HW117555   0.641   1.721   3.298  0.8769  0.1817  0.1156
 1973SOL    HW217556   0.728   1.609   3.335 -0.2888 -0.6258  0.5547
 1974SOL     OW17557   0.407   2.024   3.119  0.4899  0.5275 -0.0155
 1974SOL    HW117558   0.340   1.997   3.057 -0.4557 -0.6438  1.5464
 1974SOL    HW217559   0.356   2.078   3.179 -1.6060 -0.3770 -1.0195
 1975SOL     OW17560   3.932   2.793   3.436 -0.6325  0.3653 -0.0070
 1975SOL    HW117561   4.017   2.750   3.449  0.6263  1.8637 -3.4960
 1975SOL    HW217562   3.940   2.807   3.342  0.5570  1.0644  0.2093
 1976SOL     OW17563   1.518   2.546   1.082  0.3022 -0.1579  0.2028
 1976SOL    HW117564   1.543   2.530   1.173 -2.7466 -0.6588  0.9489
 1976SOL    HW217565   1.431   2.508   1.070  0.1893  0.5081 -1.1281
 1977SOL     OW17566   4.198   4.370  16.830 -0.5290  0.2841 -0.4326
 1977SOL    HW117567   4.182   4.352  16.737 -0.5980  0.6280 -0.4849
 1977SOL    HW217568   4.269   4.308  16.844 -1.3128 -0.9191 -1.7121
 1978SOL     OW17569   4.146   0.637  10.095 -0.2541  0.6580 -0.2867
 1978SOL    HW117570   4.082   0.679  10.152 -0.1267 -1.3066  1.3307
 1978SOL    HW217571   4.226   0.687  10.112  0.3453  0.8547 -3.6387
 1979SOL     OW17572   2.268   1.592   7.693  0.0610 -0.2759 -0.1037
 1979SOL    HW117573   2.215   1.565   7.618  0.2184  3.4274 -1.5125
 1979SOL    HW217574   2.204   1.614   7.761 -0.5703  0.0994 -0.8219
 1980SOL     OW17575   2.462   3.471   1.562 -0.0240 -0.1467  0.4709
 1980SOL    HW117576   2.536   3.446   1.617  0.8100  2.0239  0.2975
 1980SOL    HW217577   2.403   3.504   1.630 -2.1891 -0.6554 -1.1486
 1981SOL     OW17578   4.219   0.325   6.067 -0.0524  0.0315 -0.0347
 1981SOL    HW117579   4.267   0.359   5.992  0.6794 -0.7826  0.0699
 1981SOL    HW217580   4.198   0.239   6.031 -1.1668  1.0119 -1.7355
 1982SOL     OW17581   2.128   0.362   7.439 -0.1832  1.1541  0.4527
 1982SOL    HW117582   2.109   0.456   7.442 -0.4411  1.1594 -1.3435
 1982SOL    HW217583   2.136   0.337   7.347 -1.5614 -0.2291  0.7034
 1983SOL     OW17584   1.335   3.249   3.689 -0.2678  0.0524 -0.3234
 1983SOL    HW117585   1.416   3.237   3.737  1.0624  1.4511 -2.2009
 1983SOL    HW217586   1.350   3.325   3.634  2.3469  1.0068  1.7400
 1984SOL     OW17587   2.588   2.217   4.694  0.8261  0.0933 -0.3955
 1984SOL    HW117588   2.503   2.249   4.725  1.2541 -0.9888  1.9315
 1984SOL    HW217589   2.571   2.124   4.679  0.4066  0.0537  0.3339
 1985SOL     OW17590   3.548   2.299   8.569  0.5006  0.0876 -0.1184
 1985SOL    HW117591   3.484   2.299   8.640 -0.5672 -2.0833 -1.0484
 1985SOL    HW217592   3.630   2.295   8.617  0.1895  2.2204  0.5803
 1986SOL     OW17593   2.980   3.133   6.403  0.2977 -0.0180  0.5116
 1986SOL    HW117594   3.024   3.133   6.488 -0.5822  1.6920  0.9536
 1986SOL    HW217595   3.028   3.066   6.354  1.0707 -0.0380  1.2948
 1987SOL     OW17596   3.818   4.731   9.001 -0.7217  0.3839 -0.5293
 1987SOL    HW117597   3.886   4.699   8.942 -1.5709 -1.3536 -0.5585
 1987SOL    HW217598   3.742   4.716   8.944 -0.7071  0.5424 -0.5900
 1988SOL     OW17599   4.005   3.492   8.474  0.4461 -0.4580 -0.4192
 1988SOL    HW117600   4.045   3.519   8.557  0.7553  0.2271 -0.7987
 1988SOL    HW217601   3.931   3.552   8.461  0.2866 -0.5593  0.0139
 1989SOL     OW17602   0.105   2.656   3.287 -0.2325  0.0854 -0.3805
 1989SOL    HW117603   0.190   2.659   3.242  0.4743 -0.5604  0.9214
 1989SOL    HW217604   0.126   2.624   3.375  0.1329  0.1746 -0.4357
 1990SOL     OW17605   0.933   1.121   5.624 -0.8384  0.1380  0.5283
 1990SOL    HW117606   0.955   1.028   5.629  1.7387  0.6659 -0.8465
 1990SOL    HW217607   0.973   1.156   5.703 -1.1556 -1.0989  1.2336
 1991SOL     OW17608   2.103   0.899   4.629  0.5610 -0.0403 -0.2320
 1991SOL    HW117609   2.012   0.910   4.656  0.5633  0.3816 -0.3978
 1991SOL    HW217610   2.132   0.987   4.651 -0.3725 -0.0688  1.0837
 1992SOL     OW17611   0.820   2.020  12.060  0.1442 -0.4671  0.2848
 1992SOL    HW117612   0.823   2.022  11.964  0.2626 -1.4796  0.2723
 1992SOL    HW217613   0.795   2.111  12.076 -0.4420 -0.7612  1.0542
 1993SOL     OW17614   0.588   3.334   2.750  0.1613  0.1759 -0.0967
 1993SOL    HW117615   0.550   3.257   2.706 -1.3956  0.0047  1.5458
 1993SOL    HW217616   0.513   3.362   2.802 -0.2954  1.3209 -1.3719
 1994SOL     OW17617   3.717   3.576   7.623 -0.0052  0.4876 -0.6104
 1994SOL    HW117618   3.698   3.502   7.680 -0.3481 -0.5694 -2.1018
 1994SOL    HW217619   3.696   3.537   7.538  3.2246 -2.7743  0.0943
 1995SOL     OW17620   4.571   2.809   2.954  0.1551  0.3336  0.6915
 1995SOL    HW117621   4.600   2.743   2.891  2.1083  2.8276 -0.9945
 1995SOL    HW217622   4.588   2.893   2.913  0.2682  0.2338  0.5343
 1996SOL     OW17623   2.618   2.517   2.465  0.6112 -0.2897  0.2058
 1996SOL    HW117624   2.555   2.478   2.405  1.0453  0.0573 -0.4736
 1996SOL    HW217625   2.619   2.607   2.431 -0.3390 -0.9469 -1.5519
 1997SOL     OW17626   2.666   2.909   7.406 -0.3031 -0.2075 -0.6733
 1997SOL    HW117627   2.605   2.861   7.462  2.2726 -1.2371  1.2559
 1997SOL    HW217628   2.709   2.833   7.365  1.0896  0.7273 -0.9474
 1998SOL     OW17629   3.727   4.651   2.426  0.3686  0.4145  0.0470
 1998SOL    HW117630   3.738   4.642   2.331 -0.5312  0.0910 -0.0376
 1998SOL    HW217631   3.635   4.625   2.437 -0.8609  3.4814 -2.8629
 1999SOL     OW17632   1.787   4.632  14.301 -0.2029  0.2314  0.1711
 1999SOL    HW117633   1.786   4.722  14.268  0.4341 -0.5709 -1.9994
 1999SOL    HW217634   1.750   4.646  14.389  2.9950 -0.7609  1.6793
 2000SOL     OW17635   0.785   0.152  16.978 -0.2917 -0.1325  0.0010
 2000SOL    HW117636   0.700   0.133  16.940 -0.6630 -1.0043  1.3005
 2000SOL    HW217637   0.823   0.067  17.000 -0.5279 -0.0649  0.6614
 2001SOL     OW17638   2.963   1.967  13.423  0.2177  0.1446 -0.3726
 2001SOL    HW117639   3.030   1.914  13.380  0.4256 -0.5947  0.8355
 2001SOL    HW217640   2.883   1.916  13.412 -0.0261  0.5349 -0.3891
 2002SOL     OW17641   1.560   3.318   5.477 -0.3958  0.2912 -0.4411
 2002SOL    HW117642   1.590   3.273   5.398 -1.4867 -0.1502 -0.6026
 2002SOL    HW217643   1.496   3.374   5.434 -2.6702 -2.3228 -0.4897
 2003SOL     OW17644   4.128   4.735   6.230  0.5806  0.1491  0.0993
 2003SOL    HW117645   4.148   4.711   6.320  0.5790  2.1387  0.6407
 2003SOL    HW217646   4.032   4.728   6.229  0.4413  2.0603 -0.2804
 2004SOL     OW17647   4.738   4.418   6.698  0.8431 -0.2361  0.4847
 2004SOL    HW117648   4.681   4.480   6.745 -0.6216 -1.2760  0.0812
 2004SOL    HW217649   4.702   4.333   6.725  0.4007 -0.0193  0.5822
 2005SOL     OW17650   4.071   3.958   5.256 -1.0447  0.7373  0.8112
 2005SOL    HW117651   4.161   3.991   5.253 -1.5940  2.4830  3.3944
 2005SOL    HW217652   4.081   3.882   5.314  1.9332  1.1638  0.8781
 2006SOL     OW17653   2.244   3.322  10.713  0.0766  0.5832 -0.2201
 2006SOL    HW117654   2.327   3.346  10.673  0.2961  0.9806  0.4763
 2006SOL    HW217655   2.260   3.239  10.758  0.4359  0.2185 -1.0096
 2007SOL     OW17656   1.734   0.371  14.917 -0.1527  0.1512  0.2553
 2007SOL    HW117657   1.749   0.371  15.011 -0.4422 -0.0315  0.3008
 2007SOL    HW217658   1.648   0.413  14.908 -0.5935 -0.3657  2.0653
 2008SOL     OW17659   0.181   0.002  16.808  0.2162  0.3092  0.4514
 2008SOL    HW117660   0.109   0.054  16.773  1.1629  1.4012  0.1270
 2008SOL    HW217661   0.227   0.076  16.848  0.5411 -0.3753  1.3316
 2009SOL     OW17662   1.566   1.419   2.409  0.5340 -0.2149 -0.6768
 2009SOL    HW117663   1.548   1.512   2.395  0.7737  0.1084  1.1742
 2009SOL    HW217664   1.512   1.376   2.343 -1.5421 -0.6082  1.3138
 2010SOL     OW17665   4.521   3.285   8.418  0.6111 -0.0916  0.1860
 2010SOL    HW117666   4.455   3.354   8.424  0.4278 -0.2581  0.1132
 2010SOL    HW217667   4.603   3.333   8.429  0.6026 -0.0028 -0.1423
 2011SOL     OW17668   3.187   2.349   3.199  0.3895 -0.0681  0.2412
 2011SOL    HW117669   3.123   2.293   3.154  0.3413 -1.0306  1.5041
 2011SOL    HW217670   3.263   2.340   3.141 -0.1149  1.0676 -0.5913
 2012SOL     OW17671   0.058   1.233  14.993  0.2439  0.0780 -0.7769
 2012SOL    HW117672   0.017   1.167  14.938  0.4755 -1.4331  0.8419
 2012SOL    HW217673   0.088   1.173  15.062 -0.4722 -0.8847 -1.3048
 2013SOL     OW17674   0.155   4.087  15.613 -0.0589  0.1361 -0.8300
 2013SOL    HW117675   0.160   4.154  15.545 -2.0973  0.4238 -0.6971
 2013SOL    HW217676   0.196   4.014  15.567  0.0465 -0.1420 -0.2981
 2014SOL     OW17677   1.770   4.355   6.362  0.0109 -0.2795 -0.1786
 2014SOL    HW117678   1.737   4.286   6.305 -1.0338  0.2856 -0.2520
 2014SOL    HW217679   1.857   4.319   6.379  0.9567  2.9265  1.9641
 2015SOL     OW17680   3.195   3.082   0.868 -1.1105  0.1865 -0.9741
 2015SOL    HW117681   3.212   3.066   0.960 -0.2738 -0.8530 -1.3056
 2015SOL    HW217682   3.112   3.037   0.853 -0.9652 -1.0426  1.9326
 2016SOL     OW17683   4.361   0.191   6.259  0.1393 -0.3040 -0.3976
 2016SOL    HW117684   4.412   0.130   6.207  0.5452 -1.3651  1.2513
 2016SOL    HW217685   4.319   0.237   6.186 -2.6003 -1.9336  0.1397
 2017SOL     OW17686   3.426   1.275  15.686  0.9799  0.1260  0.3310
 2017SOL    HW117687   3.461   1.322  15.610 -1.5215 -1.1564 -1.5770
 2017SOL    HW217688   3.349   1.230  15.652  1.5891  0.1951 -1.1361
 2018SOL     OW17689   4.600   1.002   2.841  0.2909 -0.1778  0.0310
 2018SOL    HW117690   4.651   1.083   2.849 -0.4229  0.0416  2.3019
 2018SOL    HW217691   4.673   0.942   2.826 -1.0478 -1.2417 -2.2645
 2019SOL     OW17692   2.228   3.371  14.733  0.9642  0.2620 -0.2831
 2019SOL    HW117693   2.178   3.355  14.812  0.5202 -1.5037 -0.9189
 2019SOL    HW217694   2.279   3.290  14.729 -0.7215 -0.7772 -0.3185
 2020SOL     OW17695   3.704   4.160   5.301  0.3335 -0.3245  0.3817
 2020SOL    HW117696   3.771   4.214   5.344 -1.0833  1.4153  0.4030
 2020SOL    HW217697   3.759   4.127   5.231  0.5443  0.4207  0.2000
 2021SOL     OW17698   3.627   3.098   9.024  0.0023 -0.2908  0.1576
 2021SOL    HW117699   3.595   3.032   9.084  1.5981  0.2786  1.6237
 2021SOL    HW217700   3.547   3.134   8.985 -0.9723  0.3715  2.7884
 2022SOL     OW17701   0.944   3.286   1.692 -0.7034  0.1091  0.4192
 2022SOL    HW117702   0.998   3.310   1.617 -0.2254  0.9942  1.0517
 2022SOL    HW217703   0.860   3.309   1.651 -1.7375  0.8536  2.9520
 2023SOL     OW17704   0.890   1.286   5.206  0.3437  0.0485 -0.2723
 2023SOL    HW117705   0.943   1.310   5.282 -0.5140  0.5803  0.1644
 2023SOL    HW217706   0.949   1.310   5.135  2.3853 -1.4515  0.9135
 2024SOL     OW17707   0.442   2.865   1.285  0.4519  0.1999  0.2351
 2024SOL    HW117708   0.478   2.873   1.374 -0.6805  1.0161  0.6235
 2024SOL    HW217709   0.508   2.806   1.250  1.5996  1.7572 -0.2038
 2025SOL     OW17710   0.300   2.438  16.888 -0.1355  0.0349 -0.4426
 2025SOL    HW117711   0.211   2.473  16.880 -0.3183 -0.0437  1.1581
 2025SOL    HW217712   0.295   2.387  16.969 -0.1318  1.1394  0.2590
 2026SOL     OW17713   0.329   0.484  16.497 -0.1641  0.5625 -0.0485
 2026SOL    HW117714   0.340   0.390  16.480  0.7721  0.6753 -0.0454
 2026SOL    HW217715   0.349   0.495  16.590  0.1246  1.9080 -0.2707
 2027SOL     OW17716   1.171   0.410  16.181  0.1886 -1.1122 -0.2568
 2027SOL    HW117717   1.254   0.456  16.170 -2.7437  3.8858 -1.4194
 2027SOL    HW217718   1.191   0.328  16.226  1.3767  0.2875  1.7860
 2028SOL     OW17719   2.430   4.310   3.306 -0.2466 -0.2718 -0.1869
 2028SOL    HW117720   2.504   4.257   3.337  1.3001  0.9792 -1.7551
 2028SOL    HW217721   2.405   4.344   3.392 -0.3089  0.1439 -0.3693
 2029SOL     OW17722   3.013   2.833   7.498 -0.4620  0.3381  0.4758
 2029SOL    HW117723   2.976   2.822   7.585  2.3179  1.0988  1.7692
 2029SOL    HW217724   2.952   2.784   7.444 -2.3544  0.6751  2.3315
 2030SOL     OW17725   4.377   3.497   0.794  0.0408 -0.3594  0.5740
 2030SOL    HW117726   4.417   3.545   0.867  0.4381  0.7980 -0.4009
 2030SOL    HW217727   4.283   3.509   0.801 -0.0135 -1.2539  1.3485
 2031SOL     OW17728   1.932   0.542   1.754  0.8135 -0.5402  0.1831
 2031SOL    HW117729   1.957   0.450   1.746 -2.0366 -1.3232  0.4734
 2031SOL    HW217730   2.019   0.579   1.770  1.0267 -0.2901 -1.5602
 2032SOL     OW17731   3.018   0.208   5.312 -0.0200  0.3520 -0.0709
 2032SOL    HW117732   3.086   0.196   5.379 -0.6836  1.1131  0.7466
 2032SOL    HW217733   2.943   0.161   5.350  0.6432  0.9147  1.9613
 2033SOL     OW17734   1.610   1.996   3.095 -0.3248  0.4231 -0.5049
 2033SOL    HW117735   1.519   1.969   3.100 -0.2418  0.4119  0.9865
 2033SOL    HW217736   1.617   2.053   3.018 -1.9502  0.6822 -0.4643
 2034SOL     OW17737   4.620   2.154   8.675  0.1246  0.3973  0.3481
 2034SOL    HW117738   4.617   2.237   8.628 -0.9165  0.4374  0.4855
 2034SOL    HW217739   4.683   2.164   8.746  0.5689 -0.2220  0.0392
 2035SOL     OW17740   2.741   2.475   7.012  0.5891 -0.1429  0.7076
 2035SOL    HW117741   2.779   2.544   6.958 -1.8955  0.7929  0.1295
 2035SOL    HW217742   2.808   2.451   7.075  0.8580  0.5921  0.6959
 2036SOL     OW17743   1.386   4.552   7.287  0.1651 -0.0210  0.0333
 2036SOL    HW117744   1.405   4.558   7.380 -1.6234 -0.4786  0.4371
 2036SOL    HW217745   1.325   4.478   7.285 -2.3401  2.0378 -1.7274
 2037SOL     OW17746   0.063   2.015   4.741  0.6715 -0.3460  0.3352
 2037SOL    HW117747   4.719   1.978   4.772  0.8466  1.1392  2.5820
 2037SOL    HW217748   0.037   2.049   4.655 -1.5648 -0.8108  0.8153
 2038SOL     OW17749   3.309   4.193   7.254  0.4158 -0.2632  0.4509
 2038SOL    HW117750   3.308   4.192   7.350 -0.7239  2.8021  0.4598
 2038SOL    HW217751   3.217   4.186   7.227  0.3067 -1.0693  1.0237
 2039SOL     OW17752   0.852   0.387  14.242  0.0372  0.9354  0.2021
 2039SOL    HW117753   0.834   0.354  14.330 -1.5976 -1.1467 -0.9196
 2039SOL    HW217754   0.940   0.426  14.244 -0.5349  2.1695  1.4385
 2040SOL     OW17755   2.149   2.054   5.332 -0.3268  0.7204  0.4363
 2040SOL    HW117756   2.166   2.033   5.240  3.2578  0.2599  1.2181
 2040SOL    HW217757   2.112   2.140   5.310  1.4311  0.9278 -1.7315
 2041SOL     OW17758   4.622   4.536  17.349  0.1491  0.1415 -0.1723
 2041SOL    HW117759   4.642   4.624  17.379 -1.3200  1.1421 -2.0913
 2041SOL    HW217760   4.676   4.492  17.415  0.4518  1.4539  0.4386
 2042SOL     OW17761   2.445   0.151   9.172 -0.2137 -0.2410  0.0555
 2042SOL    HW117762   2.436   0.225   9.231  0.6398 -1.0675  1.2140
 2042SOL    HW217763   2.533   0.115   9.186  0.2806  1.2799  0.7665
 2043SOL     OW17764   4.260   3.304   7.936 -0.4237  0.0605 -0.4791
 2043SOL    HW117765   4.353   3.294   7.915 -0.2357 -1.7001  1.2032
 2043SOL    HW217766   4.264   3.273   8.026 -1.1960  3.0562  0.5991
 2044SOL     OW17767   0.114   3.929   4.644 -0.3414  0.3938 -0.1428
 2044SOL    HW117768   0.126   4.023   4.661 -0.8416  0.4314  0.0158
 2044SOL    HW217769   0.199   3.892   4.667  0.2762  1.8642 -0.0443
 2045SOL     OW17770   3.259   2.626   6.066 -0.1912  0.7257 -0.4374
 2045SOL    HW117771   3.270   2.541   6.025 -0.5506  0.3087  0.3254
 2045SOL    HW217772   3.332   2.675   6.028  1.2664 -0.9240  0.2093
 2046SOL     OW17773   2.732   3.570   6.288  0.5085  0.6407 -0.4897
 2046SOL    HW117774   2.660   3.608   6.237 -0.8101 -1.8006 -0.4211
 2046SOL    HW217775   2.716   3.481   6.259  1.8785 -0.5080  2.3265
 2047SOL     OW17776   4.181   3.878  13.602  0.1287  1.2028 -1.1265
 2047SOL    HW117777   4.194   3.901  13.510  0.2157  1.8633 -0.9519
 2047SOL    HW217778   4.271   3.863  13.630 -0.0783  0.6766 -0.7383
 2048SOL     OW17779   1.775   1.167   2.257 -0.3045 -0.4543  0.0681
 2048SOL    HW117780   1.700   1.225   2.249 -2.1200 -2.9626 -1.2800
 2048SOL    HW217781   1.803   1.196   2.343  0.0178 -0.2016 -0.1224
 2049SOL     OW17782   3.961   2.919   2.937 -0.2483  0.4168 -0.0349
 2049SOL    HW117783   3.980   2.988   3.001  0.1949  0.6155 -0.3789
 2049SOL    HW217784   3.907   2.859   2.988  1.4978 -1.4183 -0.3735
 2050SOL     OW17785   0.048   0.911  14.385  1.0651  0.6393  0.1857
 2050SOL    HW117786   0.058   0.855  14.308 -0.5553 -0.0268  0.4593
 2050SOL    HW217787   4.722   0.981  14.380 -0.3119 -0.8190 -2.2622
 2051SOL     OW17788   2.329   2.486   4.907  0.0688 -0.0605 -0.2459
 2051SOL    HW117789   2.388   2.543   4.858 -0.0065  1.2155  1.1430
 2051SOL    HW217790   2.278   2.549   4.958 -1.5832 -0.2486 -1.6337
 2052SOL     OW17791   1.969   2.814   9.195 -0.2050  0.0811 -0.0638
 2052SOL    HW117792   2.052   2.781   9.162  0.4027 -0.1701  1.6862
 2052SOL    HW217793   2.000   2.898   9.228  1.0465  0.6136 -2.6235
 2053SOL     OW17794   1.352   3.171   6.698  0.3438 -0.2064 -0.2900
 2053SOL    HW117795   1.297   3.247   6.717 -2.4644 -2.2303 -0.4014
 2053SOL    HW217796   1.421   3.215   6.647  0.1458  1.0777  0.5345
 2054SOL     OW17797   0.207   4.212   3.645  0.6861  0.1210  0.2778
 2054SOL    HW117798   0.263   4.268   3.699  1.9859  0.9977 -1.9997
 2054SOL    HW217799   0.186   4.146   3.711 -4.0365  0.0837 -1.2556
 2055SOL     OW17800   2.961   2.366   7.437  0.0408 -0.0854  0.0271
 2055SOL    HW117801   2.974   2.380   7.343 -0.8665 -0.7586 -0.1943
 2055SOL    HW217802   2.865   2.363   7.434 -0.0158  1.9350 -0.4751
 2056SOL     OW17803   4.604   1.278   5.633  0.0127  0.8777  0.1305
 2056SOL    HW117804   4.687   1.289   5.679  0.2826 -1.8318  0.2975
 2056SOL    HW217805   4.546   1.342   5.675 -0.3084  1.1289 -0.6848
 2057SOL     OW17806   2.316   0.297   2.371 -0.3060  0.3521 -0.4522
 2057SOL    HW117807   2.265   0.286   2.451  0.1230  0.5981 -0.1441
 2057SOL    HW217808   2.269   0.365   2.323 -0.0536 -0.7654 -2.3151
 2058SOL     OW17809   0.783   3.665   7.570 -0.6171  0.0863 -0.0569
 2058SOL    HW117810   0.748   3.626   7.651  1.0891  1.1341  1.1701
 2058SOL    HW217811   0.877   3.651   7.582 -0.2374  1.7536 -1.0914
 2059SOL     OW17812   4.098   3.605   2.653  0.4477  0.7538  0.1724
 2059SOL    HW117813   4.132   3.613   2.742  0.8334 -1.0275  0.1846
 2059SOL    HW217814   4.177   3.574   2.609 -1.5587 -0.7351 -2.3756
 2060SOL     OW17815   2.713   2.209   3.093 -0.5671 -0.2676  0.2515
 2060SOL    HW117816   2.758   2.276   3.146  0.2440 -0.4733 -0.1827
 2060SOL    HW217817   2.638   2.263   3.066 -0.1877 -0.4585 -1.1726
 2061SOL     OW17818   3.851   1.114   8.157  0.3450 -0.1181  0.2170
 2061SOL    HW117819   3.905   1.188   8.187  0.3102 -0.9555  2.2669
 2061SOL    HW217820   3.781   1.146   8.213 -2.1034 -1.1745 -2.2362
 2062SOL     OW17821   0.948   2.339   6.112  0.0765  0.1741  0.1813
 2062SOL    HW117822   0.887   2.411   6.092  1.0871  1.1275  0.5208
 2062SOL    HW217823   0.897   2.294   6.179  0.0617 -1.9803 -1.2871
 2063SOL     OW17824   0.034   0.377  14.051  0.4513 -0.7376 -0.0508
 2063SOL    HW117825   0.109   0.360  13.994  1.0607  0.5780  0.3560
 2063SOL    HW217826   0.077   0.430  14.118  1.7873 -0.1703 -1.3600
 2064SOL     OW17827   1.049   3.432  13.176  0.2445 -0.1740  0.7515
 2064SOL    HW117828   1.043   3.369  13.247 -0.1739 -0.1536  0.7344
 2064SOL    HW217829   1.007   3.505  13.222  0.3593  0.5804 -0.3263
 2065SOL     OW17830   2.988   3.677  10.795  0.1642 -0.1996  0.2991
 2065SOL    HW117831   2.933   3.738  10.746 -0.6791 -0.5784  0.7865
 2065SOL    HW217832   2.961   3.684  10.886 -1.3325 -0.6464 -0.1197
 2066SOL     OW17833   3.399   1.729   0.452  0.1522 -0.5092 -0.1974
 2066SOL    HW117834   3.450   1.664   0.405 -0.2975 -0.2971 -0.9802
 2066SOL    HW217835   3.334   1.676   0.498 -1.4450  0.2466 -1.5940
 2067SOL     OW17836   3.009   1.505   9.768 -0.1031  0.0717 -0.1114
 2067SOL    HW117837   2.930   1.529   9.719 -0.7468  1.7158  1.7274
 2067SOL    HW217838   3.074   1.545   9.711 -0.5281  0.7539 -0.1173
 2068SOL     OW17839   2.067   1.320   0.499  0.1880  0.2086  0.2722
 2068SOL    HW117840   2.109   1.235   0.510  0.0781 -0.1822 -2.2289
 2068SOL    HW217841   2.069   1.320   0.403 -0.4061  3.4349  0.2690
 2069SOL     OW17842   4.268   3.125   4.292  0.0661 -0.6663 -0.2878
 2069SOL    HW117843   4.279   3.211   4.331  1.0949 -1.6784  1.6428
 2069SOL    HW217844   4.247   3.070   4.367  2.2782  0.3597  1.0733
 2070SOL     OW17845   1.672   4.060   2.537 -0.0852 -0.3131 -0.9182
 2070SOL    HW117846   1.719   4.016   2.467  2.3898 -1.4290  1.4468
 2070SOL    HW217847   1.742   4.049   2.601 -1.7309  0.8182  1.0861
 2071SOL     OW17848   1.702   0.523   2.086  0.3188  0.0425  0.1813
 2071SOL    HW117849   1.680   0.490   2.173 -3.8786  0.6864 -0.6592
 2071SOL    HW217850   1.689   0.449   2.026  2.4639 -1.1910  1.2440
 2072SOL     OW17851   2.320   2.450   6.423  0.0563 -0.3649 -0.0634
 2072SOL    HW117852   2.380   2.465   6.349  0.5919  0.4088  0.5257
 2072SOL    HW217853   2.241   2.416   6.383  0.0084  0.5497 -0.7573
 2073SOL     OW17854   2.070   1.136   5.646 -0.2361  0.6201  0.4482
 2073SOL    HW117855   2.126   1.201   5.603 -1.0497  0.3776 -0.9723
 2073SOL    HW217856   2.031   1.173   5.726 -0.6630  1.6723 -0.2541
 2074SOL     OW17857   4.725   3.608   7.554 -0.2682  0.2435 -0.5311
 2074SOL    HW117858   0.066   3.634   7.508 -0.4753  2.0380  0.1396
 2074SOL    HW217859   4.656   3.658   7.512 -0.2759  0.1028 -0.6867
 2075SOL     OW17860   0.509   2.525   0.925  0.5020  0.8057 -0.2921
 2075SOL    HW117861   0.520   2.431   0.907  1.1772  0.2963  2.7494
 2075SOL    HW217862   0.461   2.557   0.849  3.6083  2.0311 -1.6963
 2076SOL     OW17863   1.222   1.051   7.627 -0.0222  0.5949 -0.6136
 2076SOL    HW117864   1.232   1.016   7.715  0.2194 -0.1757 -0.9456
 2076SOL    HW217865   1.155   1.118   7.641 -1.7590 -1.2228 -0.1648
 2077SOL     OW17866   1.825   1.843   5.039  0.1316  0.1358  0.2371
 2077SOL    HW117867   1.919   1.834   5.027 -0.1344 -2.3535  0.0177
 2077SOL    HW217868   1.826   1.841   5.135 -0.6318 -0.2602  0.2361
 2078SOL     OW17869   0.475   1.163  14.445 -0.3451 -0.5616  0.1993
 2078SOL    HW117870   0.456   1.257  14.441  0.7347 -0.3211  0.5759
 2078SOL    HW217871   0.412   1.125  14.383  0.2474 -0.5371 -0.4194
 2079SOL     OW17872   3.192   3.341  17.162  0.5517 -0.3061 -0.1045
 2079SOL    HW117873   3.282   3.358  17.135  0.0482  2.1354 -0.2452
 2079SOL    HW217874   3.187   3.246  17.149 -0.0850 -0.0083 -2.0054
 2080SOL     OW17875   1.228   3.360   8.753  0.1679 -0.1356 -0.0653
 2080SOL    HW117876   1.209   3.281   8.703  1.2992 -0.1514 -0.4643
 2080SOL    HW217877   1.304   3.394   8.706  0.9678  0.0608  1.3694
 2081SOL     OW17878   0.872   2.682  16.374  0.6656 -0.2656 -0.4896
 2081SOL    HW117879   0.805   2.634  16.421  1.8515 -2.1767 -0.7369
 2081SOL    HW217880   0.841   2.684  16.283  1.0215  0.5908 -0.5909
 2082SOL     OW17881   4.517   3.085   1.945 -0.0428  0.4137 -0.0922
 2082SOL    HW117882   4.508   3.006   1.999  2.8962 -0.2651 -0.6241
 2082SOL    HW217883   4.551   3.065   1.858 -1.7686  2.8130 -1.3078
 2083SOL     OW17884   0.603   0.252   7.834  0.1535 -0.3577 -0.3239
 2083SOL    HW117885   0.540   0.313   7.872  0.8120  0.1634 -0.0637
 2083SOL    HW217886   0.644   0.210   7.910 -1.5062  0.9690  1.3261
 2084SOL     OW17887   3.390   2.629  11.072  0.3450 -0.1603 -0.8485
 2084SOL    HW117888   3.437   2.689  11.129 -0.9502  0.0773 -0.0341
 2084SOL    HW217889   3.317   2.613  11.131  0.7023  1.2515 -0.0364
 2085SOL     OW17890   1.592   2.676   3.994 -0.5838  0.3796  0.1104
 2085SOL    HW117891   1.589   2.641   3.906 -1.1460 -0.4856  0.4679
 2085SOL    HW217892   1.497   2.689   3.998 -0.4649  1.2920 -0.2161
 2086SOL     OW17893   3.316   3.189   7.377  0.4206 -0.1242  0.6147
 2086SOL    HW117894   3.272   3.121   7.326  0.2021 -1.1736  2.2120
 2086SOL    HW217895   3.377   3.207   7.305 -1.0206 -1.1730 -0.8757
 2087SOL     OW17896   2.861   1.048   2.855  0.9364  0.0930  0.1238
 2087SOL    HW117897   2.769   1.055   2.831  0.6771 -2.6502  0.3497
 2087SOL    HW217898   2.903   1.014   2.777 -1.0160  2.7836 -2.0923
 2088SOL     OW17899   0.575   4.410   1.900  0.3377 -0.2645 -0.0223
 2088SOL    HW117900   0.667   4.422   1.924 -0.0475  0.2461  1.2277
 2088SOL    HW217901   0.571   4.314   1.904 -1.8601 -0.1444  0.5644
 2089SOL     OW17902   0.427   0.319   6.155  0.4874  0.2782  0.3823
 2089SOL    HW117903   0.492   0.258   6.119  0.4370 -0.5928  1.7774
 2089SOL    HW217904   0.486   0.374   6.207  1.2982 -0.5827  0.3718
 2090SOL     OW17905   3.638   1.459   0.957  0.3931  0.1635 -0.1811
 2090SOL    HW117906   3.648   1.531   0.895  1.7540  0.1785  0.0533
 2090SOL    HW217907   3.573   1.489   1.021  2.2421  3.6222  0.0471
 2091SOL     OW17908   4.446   0.470   2.328  0.0435  0.3423 -0.0251
 2091SOL    HW117909   4.352   0.460   2.311 -0.2588  2.0728  0.5921
 2091SOL    HW217910   4.447   0.481   2.424  0.8640  1.1652 -0.1312
 2092SOL     OW17911   3.643   3.239   4.288 -0.4714 -0.2613 -0.1551
 2092SOL    HW117912   3.668   3.301   4.220 -0.5783 -2.0829 -1.8560
 2092SOL    HW217913   3.711   3.172   4.295 -0.5106 -0.5366 -2.4846
 2093SOL     OW17914   1.093   3.394   6.133  0.2867  0.0017 -0.1218
 2093SOL    HW117915   1.034   3.432   6.199  0.6565 -0.7263  0.6266
 2093SOL    HW217916   1.064   3.435   6.052 -0.2914  0.6301  0.3926
 2094SOL     OW17917   0.134   0.342   1.494 -0.3619  0.4135 -0.5874
 2094SOL    HW117918   0.061   0.359   1.435 -2.2473  1.3425  2.0618
 2094SOL    HW217919   0.132   0.247   1.489  0.6069  0.4879 -2.4096
 2095SOL     OW17920   2.371   2.846  11.324  0.3390 -0.1098  0.1175
 2095SOL    HW117921   2.433   2.871  11.392 -0.3083  1.5363  0.1125
 2095SOL    HW217922   2.332   2.763  11.353 -0.4567  0.8053  1.6791
 2096SOL     OW17923   4.558   4.353   7.098 -0.3878  0.5827 -0.0815
 2096SOL    HW117924   4.562   4.303   7.180  0.2032  0.5803 -0.1108
 2096SOL    HW217925   4.592   4.440   7.114  0.4013 -0.3472  3.2533
 2097SOL     OW17926   1.171   1.990   7.773  0.3015  0.2864  0.2095
 2097SOL    HW117927   1.210   1.907   7.745 -0.6934 -0.8865  2.3714
 2097SOL    HW217928   1.202   2.019   7.859  1.3065  1.4047 -0.5257
 2098SOL     OW17929   1.421   3.597   4.456 -0.0943 -0.2935 -0.4849
 2098SOL    HW117930   1.340   3.589   4.407  0.1372 -0.1385 -0.8889
 2098SOL    HW217931   1.372   3.568   4.533  0.7448  1.2036  0.6071
 2099SOL     OW17932   3.419   2.502   0.305 -0.3045  0.2138  0.3386
 2099SOL    HW117933   3.352   2.434   0.293 -1.5679  1.3144  1.2139
 2099SOL    HW217934   3.491   2.454   0.264 -0.7588  0.3345 -0.6173
 2100SOL     OW17935   1.026   4.112   8.224 -0.3821  0.2249 -0.2260
 2100SOL    HW117936   1.069   4.073   8.300  0.1909 -0.0223 -0.6773
 2100SOL    HW217937   0.954   4.049   8.214  1.0217 -1.6068  1.1919
 2101SOL     OW17938   1.161   3.053  16.718  0.5065 -0.0983 -0.6512
 2101SOL    HW117939   1.185   3.054  16.626  0.0983 -2.2717 -0.7688
 2101SOL    HW217940   1.203   2.969  16.733 -2.0906 -1.4761 -1.0317
 2102SOL     OW17941   4.501   4.171  16.531  0.0991  0.0459  0.3019
 2102SOL    HW117942   4.479   4.216  16.612 -2.3935 -0.6158 -0.0032
 2102SOL    HW217943   4.580   4.221  16.511  1.1170 -0.5004  2.9817
 2103SOL     OW17944   3.501   3.051   1.197 -0.3081 -0.0506  0.0312
 2103SOL    HW117945   3.460   3.112   1.258  2.6464  1.7010  0.2855
 2103SOL    HW217946   3.506   2.978   1.259 -0.2937  1.6011  1.9844
 2104SOL     OW17947   4.416   1.265  14.871 -0.1267  0.2066 -0.3798
 2104SOL    HW117948   4.392   1.190  14.817 -3.9775 -0.0395  1.6405
 2104SOL    HW217949   4.421   1.335  14.806 -1.3490 -0.0618 -0.7725
 2105SOL     OW17950   4.312   3.505  13.528 -0.5411 -0.2592 -0.1616
 2105SOL    HW117951   4.381   3.536  13.586 -0.8668 -1.5346  0.8970
 2105SOL    HW217952   4.244   3.499  13.595 -1.4476  0.6504 -1.0051
 2106SOL     OW17953   4.166   0.271   6.464  0.3914 -0.7763 -0.1432
 2106SOL    HW117954   4.218   0.220   6.403  0.8730  0.4607 -0.7736
 2106SOL    HW217955   4.183   0.355   6.420 -0.7462 -0.8579 -0.7470
 2107SOL     OW17956   2.279   3.815   0.895 -0.1428 -1.0899  0.3059
 2107SOL    HW117957   2.325   3.733   0.873 -0.3366 -1.0708 -0.1822
 2107SOL    HW217958   2.291   3.860   0.811  1.2835 -2.7516 -0.3851
 2108SOL     OW17959   2.581   4.327  15.090 -0.0677 -0.0186 -0.4283
 2108SOL    HW117960   2.535   4.248  15.119  0.1131  0.6039  1.5171
 2108SOL    HW217961   2.516   4.362  15.028  0.6435 -1.6068 -2.0665
 2109SOL     OW17962   3.271   1.206   9.512  0.4081 -0.7342 -0.1588
 2109SOL    HW117963   3.193   1.236   9.558  0.9573 -0.2525  0.4671
 2109SOL    HW217964   3.315   1.139   9.564  1.2996  0.5189  0.7161
 2110SOL     OW17965   0.014   0.660   5.925  0.3331 -0.1852  0.1798
 2110SOL    HW117966   0.082   0.654   5.992  0.1039 -1.7074  0.2640
 2110SOL    HW217967   0.047   0.733   5.872 -1.7292  0.7920  0.2276
 2111SOL     OW17968   2.788   2.863   5.541 -0.2250  0.3512  0.8879
 2111SOL    HW117969   2.844   2.930   5.581  0.0033  2.1152 -2.3861
 2111SOL    HW217970   2.836   2.818   5.472 -0.6096 -2.1226  2.2389
 2112SOL     OW17971   1.959   4.669   7.350  0.3836  0.4188 -0.7847
 2112SOL    HW117972   1.933   4.604   7.415  0.1355  0.2582 -1.0476
 2112SOL    HW217973   1.943   4.611   7.276  0.1951 -2.3497  1.4198
 2113SOL     OW17974   1.873   3.946   5.251 -0.5721  0.1428 -0.8385
 2113SOL    HW117975   1.783   3.914   5.244 -0.2358 -0.9542 -0.2223
 2113SOL    HW217976   1.914   3.862   5.229 -1.4849 -0.1512 -1.4342
 2114SOL     OW17977   4.120   4.621   2.863  0.6167  0.6442 -0.6204
 2114SOL    HW117978   4.048   4.565   2.835  1.3686 -0.9621  0.6406
 2114SOL    HW217979   4.081   4.658   2.943 -1.0496 -1.7609 -0.3333
 2115SOL     OW17980   0.992   0.111   4.938 -0.0793  0.3543 -0.4034
 2115SOL    HW117981   1.047   0.110   5.017  1.0391  0.6769 -1.1785
 2115SOL    HW217982   1.011   0.030   4.891  1.1438  1.1226 -1.2334
 2116SOL     OW17983   1.419   0.501  11.192  0.3329 -0.6655  0.2445
 2116SOL    HW117984   1.445   0.511  11.283  0.0982 -0.5175  0.2953
 2116SOL    HW217985   1.324   0.488  11.200  0.0533  0.6763 -0.8734
 2117SOL     OW17986   1.579   4.453   3.985  0.3236  0.1471 -0.0551
 2117SOL    HW117987   1.518   4.444   4.058  0.4290  0.2394  0.0454
 2117SOL    HW217988   1.659   4.477   4.032 -0.5900 -0.0787  1.6153
 2118SOL     OW17989   3.999   3.135  13.675 -0.3615  0.7969  0.3153
 2118SOL    HW117990   3.986   3.131  13.770 -1.1593  1.7922  0.2504
 2118SOL    HW217991   3.921   3.091  13.640 -0.6943  1.2306  0.5015
 2119SOL     OW17992   3.421   3.731   3.646  0.3305  0.2600 -0.2325
 2119SOL    HW117993   3.492   3.756   3.587  0.0482  0.7461 -0.3597
 2119SOL    HW217994   3.396   3.816   3.680 -1.0335  0.2684 -1.2813
 2120SOL     OW17995   4.731   4.429   4.186 -0.1249  0.7991  0.2478
 2120SOL    HW117996   0.033   4.488   4.123  2.7418 -0.5906  0.8157
 2120SOL    HW217997   4.724   4.345   4.141 -0.2430  1.5423 -1.1185
 2121SOL     OW17998   1.173   4.047   0.039  0.3134  0.6543 -0.1664
 2121SOL    HW117999   1.189   4.007  17.706 -0.8743 -0.2525  0.0397
 2121SOL    HW218000   1.085   4.011   0.052  1.2249 -1.1844  0.8949
 2122SOL     OW18001   4.647   2.314  12.329 -0.1720 -0.0672 -0.4311
 2122SOL    HW118002   4.669   2.372  12.403 -1.5882  0.0220 -0.0775
 2122SOL    HW218003   4.690   2.366  12.260  2.7611  1.4530  2.5028
 2123SOL     OW18004   3.614   0.368   4.032 -0.7546  0.2721  0.0380
 2123SOL    HW118005   3.537   0.366   4.089 -2.1511  3.9372 -1.7387
 2123SOL    HW218006   3.666   0.291   4.058 -0.8488  0.0865 -0.3262
 2124SOL     OW18007   4.615   1.640   3.992 -0.4296  0.4926 -0.8093
 2124SOL    HW118008   4.541   1.614   3.939 -2.1424 -1.1524  2.3990
 2124SOL    HW218009   4.645   1.718   3.945  1.5932 -0.4033 -1.0144
 2125SOL     OW18010   4.205   0.617   7.046 -0.3686 -0.3220  0.1020
 2125SOL    HW118011   4.172   0.601   7.134  2.3831  1.3350  1.4220
 2125SOL    HW218012   4.177   0.540   6.996  0.4284  0.2209 -1.2027
 2126SOL     OW18013   1.352   4.037   2.923  0.2662  0.2200  0.3261
 2126SOL    HW118014   1.403   3.960   2.897  0.4934  1.0776 -1.8138
 2126SOL    HW218015   1.408   4.113   2.905 -0.6658  0.8806  0.2497
 2127SOL     OW18016   3.414   1.597   7.618  0.2113  0.4657 -0.0026
 2127SOL    HW118017   3.347   1.534   7.643 -0.8514  0.7210 -2.2692
 2127SOL    HW218018   3.474   1.546   7.563  1.3706 -0.2951  1.9702
 2128SOL     OW18019   3.854   2.780   5.760 -0.5897  0.1810  0.4233
 2128SOL    HW118020   3.857   2.724   5.838  0.0053  1.2634  1.1685
 2128SOL    HW218021   3.877   2.726   5.684  0.3225 -0.1312  0.9245
 2129SOL     OW18022   1.130   3.522   3.939 -0.1759 -0.1629  0.1318
 2129SOL    HW118023   1.114   3.428   3.953  0.3741 -0.5300 -1.7142
 2129SOL    HW218024   1.039   3.551   3.931 -1.2216 -3.6212 -0.8991
 2130SOL     OW18025   2.188   0.876   3.613 -0.6381 -0.3924 -0.0962
 2130SOL    HW118026   2.262   0.822   3.583  1.2068  2.0666  0.0723
 2130SOL    HW218027   2.181   0.928   3.533 -0.4853  0.2199  0.2958
 2131SOL     OW18028   0.671   1.845  15.747 -0.4882  0.1037 -0.2984
 2131SOL    HW118029   0.754   1.890  15.765 -0.7962  0.5930 -0.1107
 2131SOL    HW218030   0.705   1.756  15.736 -3.2927 -0.8951 -0.9556
 2132SOL     OW18031   1.429   1.300   7.436 -0.1080 -0.7689 -0.1216
 2132SOL    HW118032   1.400   1.391   7.424  1.3710 -0.5616 -2.0303
 2132SOL    HW218033   1.378   1.258   7.367  0.4457 -0.5438 -0.6681
 2133SOL     OW18034   3.441   1.776   3.701  0.0686 -0.4900 -0.4683
 2133SOL    HW118035   3.371   1.841   3.692 -0.2843 -0.6761  0.9620
 2133SOL    HW218036   3.388   1.700   3.675 -1.8300 -0.4402  3.2397
 2134SOL     OW18037   1.840   1.271  17.499 -0.4557 -0.2824 -0.3663
 2134SOL    HW118038   1.916   1.304  17.547 -1.3576 -1.3724  1.7936
 2134SOL    HW218039   1.820   1.198  17.558 -3.8956  1.9391  1.1774
 2135SOL     OW18040   1.410   2.371  17.567  0.3712  0.4011  0.2259
 2135SOL    HW118041   1.381   2.455  17.604  1.4050 -0.3153  2.7074
 2135SOL    HW218042   1.504   2.366  17.581  0.6259  0.4355 -1.5501
 2136SOL     OW18043   3.124   0.665   0.357  0.4475 -0.1204  0.4809
 2136SOL    HW118044   3.168   0.616   0.288  2.5600 -0.3676  1.9930
 2136SOL    HW218045   3.040   0.621   0.366  1.4610 -2.1838 -0.0888
 2137SOL     OW18046   3.614   3.459   5.133 -0.3219  0.9714  0.2486
 2137SOL    HW118047   3.580   3.432   5.048  1.1045 -2.1243  0.6570
 2137SOL    HW218048   3.707   3.477   5.120 -0.0671 -1.6507 -1.6025
 2138SOL     OW18049   2.196   3.889   5.014 -0.7709  0.6636 -0.1460
 2138SOL    HW118050   2.206   3.794   5.022  0.2495  1.0164  2.8209
 2138SOL    HW218051   2.274   3.901   4.960 -0.0221 -0.6802  0.6546
 2139SOL     OW18052   4.651   1.465   6.204 -0.5205  0.0658 -0.8179
 2139SOL    HW118053   4.654   1.553   6.241  2.9055 -0.0341 -0.8798
 2139SOL    HW218054   4.564   1.472   6.164 -0.1417  2.4749 -1.2089
 2140SOL     OW18055   0.922   0.506  11.413  0.5429  0.2293  0.3163
 2140SOL    HW118056   0.976   0.441  11.457  2.0805  1.3163  0.0247
 2140SOL    HW218057   0.955   0.582  11.461  1.5109 -0.0926  0.1607
 2141SOL     OW18058   1.224   0.013   9.534 -0.0825 -0.1066  0.1088
 2141SOL    HW118059   1.175   4.734   9.454 -0.8144  0.6987  0.3854
 2141SOL    HW218060   1.173   4.705   9.600 -1.9047  0.6918 -0.7414
 2142SOL     OW18061   4.051   1.403   4.881 -0.3378  0.2833  0.1598
 2142SOL    HW118062   3.977   1.432   4.827 -0.5308  0.0610  0.3029
 2142SOL    HW218063   4.125   1.381   4.826 -0.2598  0.4387  0.2030
 2143SOL     OW18064   4.536   4.050   8.489  0.1418  0.1170 -0.7408
 2143SOL    HW118065   4.556   4.141   8.470  0.7723  0.2386  0.5098
 2143SOL    HW218066   4.625   4.016   8.481 -0.1075 -0.5333 -0.7698
 2144SOL     OW18067   1.705   1.237   0.116  0.2798 -0.4376  0.0292
 2144SOL    HW118068   1.634   1.301   0.105  0.3772 -0.4888 -0.9213
 2144SOL    HW218069   1.737   1.255   0.028  0.7273 -0.4351  0.1969
 2145SOL     OW18070   1.030   2.518   4.524  0.4312 -0.3343 -0.1063
 2145SOL    HW118071   1.107   2.494   4.576 -0.0208  0.6178  1.0257
 2145SOL    HW218072   1.025   2.435   4.477 -2.1729  0.5502 -1.3457
 2146SOL     OW18073   1.011   2.131   2.512  0.4587  0.1154  0.2255
 2146SOL    HW118074   0.968   2.074   2.576  3.7324 -1.2685  1.1587
 2146SOL    HW218075   1.077   2.073   2.476 -0.4271 -1.8230  1.6984
 2147SOL     OW18076   2.877   4.393   7.652  0.4008  0.2547  0.0827
 2147SOL    HW118077   2.823   4.378   7.574  0.4842  4.2292 -0.7418
 2147SOL    HW218078   2.832   4.472   7.681 -0.2437 -0.1688  0.2340
 2148SOL     OW18079   3.141   2.077   5.216 -0.1522 -0.7380  0.0089
 2148SOL    HW118080   3.194   1.999   5.231 -1.3260 -1.4395  0.5372
 2148SOL    HW218081   3.219   2.127   5.193 -0.8821  1.2982  1.9468
 2149SOL     OW18082   2.037   2.097   4.560 -0.1976 -0.2235  0.2505
 2149SOL    HW118083   2.007   2.059   4.643 -0.1162  0.7233  0.7151
 2149SOL    HW218084   1.974   2.170   4.551  3.0447  2.6865  1.3023
 2150SOL     OW18085   3.151   1.856   3.729 -0.0920 -0.1763 -0.0845
 2150SOL    HW118086   3.116   1.931   3.777  0.9505  0.8048 -0.8615
 2150SOL    HW218087   3.081   1.844   3.665  1.0346 -2.4466 -0.8588
 2151SOL     OW18088   3.441   0.655  13.575 -0.2397  0.4740  0.2003
 2151SOL    HW118089   3.361   0.685  13.532  0.7980 -0.5329 -2.4219
 2151SOL    HW218090   3.424   0.563  13.595 -1.5767  0.6146 -0.2771
 2152SOL     OW18091   2.100   1.479   2.445  0.4158 -0.1197 -0.1333
 2152SOL    HW118092   2.055   1.537   2.383  0.4978 -0.8945 -0.9343
 2152SOL    HW218093   2.165   1.526   2.496  0.3467 -0.5992  0.3954
 2153SOL     OW18094   0.889   0.410   2.573 -0.3130  0.0867 -0.3160
 2153SOL    HW118095   0.884   0.447   2.661 -2.6715 -1.8282  0.3734
 2153SOL    HW218096   0.935   0.472   2.516  1.2787  0.5295  1.4593
 2154SOL     OW18097   3.395   0.657   7.926 -0.0373 -0.6934 -0.2081
 2154SOL    HW118098   3.352   0.607   7.995 -3.0413  0.3714 -1.3277
 2154SOL    HW218099   3.340   0.657   7.848  0.8134  0.2357 -0.8185
 2155SOL     OW18100   1.249   0.222  11.676 -1.1946 -0.4278 -0.2238
 2155SOL    HW118101   1.342   0.229  11.696 -1.1202 -1.3120 -0.2502
 2155SOL    HW218102   1.211   0.256  11.757 -2.1514  0.3248 -0.9816
 2156SOL     OW18103   4.287   2.346  16.792 -0.1454  0.3038 -0.2160
 2156SOL    HW118104   4.211   2.300  16.828 -1.7511  2.7688 -0.4935
 2156SOL    HW218105   4.330   2.383  16.869  1.2274  1.2188 -1.4376
 2157SOL     OW18106   0.978   2.795   6.468 -0.3989  0.0113  0.1795
 2157SOL    HW118107   0.936   2.754   6.544 -1.7160  0.8940 -0.0726
 2157SOL    HW218108   1.022   2.720   6.427  1.0678 -0.0791  1.9465
 2158SOL     OW18109   1.278   1.961   8.274  0.2206  0.1234 -0.4865
 2158SOL    HW118110   1.309   2.047   8.301 -0.8117  0.5580 -0.6578
 2158SOL    HW218111   1.185   1.974   8.255 -0.3449 -2.8132  0.2077
 2159SOL     OW18112   0.251   0.720  16.239 -0.1678 -0.2680 -0.1143
 2159SOL    HW118113   0.163   0.704  16.273  0.5264 -0.1160  1.7451
 2159SOL    HW218114   0.247   0.710  16.144  0.0598 -0.0642 -0.1469
 2160SOL     OW18115   2.512   2.329   8.155 -0.6560 -0.0137  0.0221
 2160SOL    HW118116   2.586   2.269   8.159 -0.6028  0.0049 -0.6782
 2160SOL    HW218117   2.551   2.412   8.182 -2.9015  1.0185  0.1124
 2161SOL     OW18118   1.063   4.503   0.240 -0.3290  0.1895 -0.4325
 2161SOL    HW118119   1.087   4.460   0.322 -0.9280 -1.6821 -1.2471
 2161SOL    HW218120   1.112   4.453   0.174  1.2531  2.5066 -1.0453
 2162SOL     OW18121   2.224   0.121  11.784  0.0260  0.1466  0.1383
 2162SOL    HW118122   2.236   0.074  11.866  1.9654 -1.2313 -0.9386
 2162SOL    HW218123   2.313   0.110  11.751 -0.0723  1.9958 -0.7654
 2163SOL     OW18124   1.298   3.409   7.888  0.5409 -0.3382  0.3718
 2163SOL    HW118125   1.245   3.402   7.808  0.5359  1.5758  0.2089
 2163SOL    HW218126   1.326   3.318   7.893  0.8747 -0.3392 -1.3600
 2164SOL     OW18127   4.052   1.417  14.902 -0.0934 -0.5805 -0.0951
 2164SOL    HW118128   4.066   1.340  14.957  1.2553 -1.0154 -1.0307
 2164SOL    HW218129   4.104   1.391  14.826 -1.4619  2.5099 -2.0545
 2165SOL     OW18130   3.042   2.313   8.651  0.0597 -0.1070  0.7761
 2165SOL    HW118131   3.083   2.255   8.587  0.8373  1.6267 -0.3065
 2165SOL    HW218132   3.022   2.250   8.720  0.0077 -2.4020 -1.3262
 2166SOL     OW18133   1.924   4.726   8.000 -0.0523  0.4700  0.2336
 2166SOL    HW118134   1.867   4.708   8.075  0.9367 -0.9733  0.6555
 2166SOL    HW218135   1.908   4.658   7.935  0.4468 -1.4675  2.1214
 2167SOL     OW18136   1.066   3.177   1.906 -0.4634 -0.6411 -0.2794
 2167SOL    HW118137   1.033   3.194   1.817  2.1534 -1.0334 -1.3273
 2167SOL    HW218138   1.088   3.264   1.940 -1.8972 -1.0770  1.7335
 2168SOL     OW18139   3.335   0.577   7.179 -0.1929  0.3598  0.3713
 2168SOL    HW118140   3.296   0.523   7.110  0.2197  0.3728  0.1272
 2168SOL    HW218141   3.282   0.539   7.249  1.6357 -2.9685 -0.0636
 2169SOL     OW18142   2.653   0.692   5.613 -0.2952  0.6222  0.4309
 2169SOL    HW118143   2.630   0.683   5.705 -2.6721 -0.1952 -0.2310
 2169SOL    HW218144   2.578   0.650   5.570 -0.8948  1.1150  0.9966
 2170SOL     OW18145   3.818   1.826  15.481 -0.4777  0.0741 -0.4377
 2170SOL    HW118146   3.730   1.851  15.452  0.2714  1.3059 -1.6486
 2170SOL    HW218147   3.808   1.810  15.575 -1.6194 -1.5693 -0.8382
 2171SOL     OW18148   3.813   0.994   2.788 -0.0304 -0.9095 -0.0453
 2171SOL    HW118149   3.863   1.076   2.795 -0.8436 -0.4562  0.4945
 2171SOL    HW218150   3.877   0.939   2.834  0.1467 -1.4956 -1.0108
 2172SOL     OW18151   0.061   1.332  13.160  0.0402 -0.0599  0.0145
 2172SOL    HW118152   0.121   1.258  13.166  0.0991  0.0962  1.3784
 2172SOL    HW218153   4.729   1.288  13.112  1.5847 -3.2031  0.6297
 2173SOL     OW18154   3.401   1.462   1.418  0.0135  0.3314  0.2572
 2173SOL    HW118155   3.342   1.474   1.492 -1.8270 -2.9375 -0.6704
 2173SOL    HW218156   3.334   1.436   1.355 -0.1600 -0.2469  0.6817
 2174SOL     OW18157   1.176   4.665   3.692  0.1093  0.4110  0.2076
 2174SOL    HW118158   1.187   4.632   3.782  1.3175 -1.3186 -0.5601
 2174SOL    HW218159   1.097   4.620   3.664 -0.2982  0.5353  1.1498
 2175SOL     OW18160   0.540   0.584   1.286  0.4924 -0.4640  0.0866
 2175SOL    HW118161   0.490   0.510   1.320  2.0569 -0.8225  1.6285
 2175SOL    HW218162   0.526   0.562   1.194  2.3147  0.6754 -0.4736
 2176SOL     OW18163   3.956   0.597   9.502  0.3814 -0.6477  0.4523
 2176SOL    HW118164   4.043   0.565   9.529  0.7622  1.0432  1.2126
 2176SOL    HW218165   3.981   0.664   9.439  2.4233 -1.3476  0.5049
 2177SOL     OW18166   2.722   1.654  11.207 -0.6839 -0.2436  0.0011
 2177SOL    HW118167   2.659   1.709  11.254  1.6129 -0.0064  2.8389
 2177SOL    HW218168   2.665   1.588  11.168  1.0576 -1.9645  0.3637
 2178SOL     OW18169   2.699   3.210  11.950 -0.2094  0.0749 -0.2603
 2178SOL    HW118170   2.786   3.186  11.981 -0.6161 -1.5287 -0.3212
 2178SOL    HW218171   2.719   3.270  11.878  0.0155 -0.1815 -0.4116
 2179SOL     OW18172   3.200   4.238  13.591  0.1180  0.1477 -0.0504
 2179SOL    HW118173   3.220   4.329  13.613  1.8228 -0.0316 -0.8463
 2179SOL    HW218174   3.120   4.225  13.641  0.8618 -0.8276  0.9039
 2180SOL     OW18175   1.423   2.068  17.406  0.1916 -0.5093  0.0701
 2180SOL    HW118176   1.375   2.116  17.339 -1.6997 -0.8484  1.1843
 2180SOL    HW218177   1.357   2.012  17.446 -1.0745  1.3453  0.5469
 2181SOL     OW18178   0.812   2.494   0.090  0.0265 -0.2413 -0.1907
 2181SOL    HW118179   0.826   2.434   0.163  0.9667  2.7996  2.1376
 2181SOL    HW218180   0.745   2.446   0.042  0.8077 -0.7747 -0.7524
 2182SOL     OW18181   4.214   3.221   8.468  0.1759  0.1881  0.2384
 2182SOL    HW118182   4.172   3.146   8.509  1.1329  0.2713  1.3587
 2182SOL    HW218183   4.251   3.275   8.538 -1.6661  1.6769  0.0724
 2183SOL     OW18184   1.629   1.589   5.522 -0.3621 -0.3673  0.4465
 2183SOL    HW118185   1.708   1.637   5.548  0.0132 -0.4607 -0.5140
 2183SOL    HW218186   1.571   1.658   5.491  1.4377  1.2255  0.6038
 2184SOL     OW18187   3.568   3.423  14.846 -0.2298  0.1758 -0.3931
 2184SOL    HW118188   3.651   3.471  14.842  1.0194 -1.9012  1.3051
 2184SOL    HW218189   3.604   3.337  14.825 -2.1004 -0.4263 -1.1269
 2185SOL     OW18190   1.618   1.280   5.293 -0.2525  0.3964  0.1304
 2185SOL    HW118191   1.661   1.351   5.341  1.0176  0.9334 -1.8102
 2185SOL    HW218192   1.529   1.315   5.283 -0.0029  0.7461 -0.8548
 2186SOL     OW18193   0.714   0.571   6.472 -0.2658 -0.9811  0.4056
 2186SOL    HW118194   0.736   0.529   6.555 -1.9647  1.9206  2.3184
 2186SOL    HW218195   0.718   0.665   6.488 -0.6396 -0.8984  0.0078
 2187SOL     OW18196   2.356   1.893  11.949  0.0531  0.2817 -0.1721
 2187SOL    HW118197   2.416   1.967  11.954  1.5905 -0.9033 -0.8293
 2187SOL    HW218198   2.404   1.825  11.902  1.6590  1.3672 -0.1114
 2188SOL     OW18199   0.193   0.958   6.631 -0.0663  0.4394 -1.2626
 2188SOL    HW118200   0.193   1.053   6.646  2.5266  0.1273  0.6883
 2188SOL    HW218201   0.100   0.949   6.611 -0.1456 -1.4459  0.0175
 2189SOL     OW18202   4.219   2.684  17.508  0.2239  0.2832  0.5189
 2189SOL    HW118203   4.234   2.678  17.603 -2.4189  0.4729  0.9543
 2189SOL    HW218204   4.269   2.612  17.470  1.1039  1.4943 -0.5876
 2190SOL     OW18205   1.862   1.052   4.059  0.3668 -0.0318 -0.3889
 2190SOL    HW118206   1.838   0.981   4.119  2.1438 -0.3839 -0.0812
 2190SOL    HW218207   1.849   1.126   4.119  1.3423  0.5358 -0.8760
 2191SOL     OW18208   1.198   0.868   4.599 -0.1594 -0.1188 -0.1586
 2191SOL    HW118209   1.290   0.861   4.572  0.2568  1.3313  0.8931
 2191SOL    HW218210   1.216   0.802   4.666  0.1964 -0.0319 -0.1710
 2192SOL     OW18211   3.183   3.508   4.621 -0.3057 -0.0444  0.9735
 2192SOL    HW118212   3.203   3.414   4.616  0.3538  0.1996 -1.0996
 2192SOL    HW218213   3.161   3.523   4.529 -0.6847 -1.8000  0.7630
 2193SOL     OW18214   3.884   4.379  13.207 -0.5347  0.3856 -0.3743
 2193SOL    HW118215   3.830   4.301  13.193 -0.2909  1.0284 -4.8529
 2193SOL    HW218216   3.840   4.430  13.275  1.7781 -0.5617  1.8018
 2194SOL     OW18217   0.154   3.835  14.965  0.3073 -0.0321  0.6875
 2194SOL    HW118218   0.134   3.928  14.976  0.3357  0.3386 -2.4344
 2194SOL    HW218219   0.126   3.806  14.878  1.5229 -1.6480  0.8276
 2195SOL     OW18220   4.211   0.863   2.171 -0.2574 -0.3844 -0.2783
 2195SOL    HW118221   4.207   0.903   2.258  2.4009  1.0089 -0.8007
 2195SOL    HW218222   4.118   0.874   2.150 -0.1395  0.1140 -0.5369
 2196SOL     OW18223   3.645   0.737   4.615  0.1192 -0.1885  0.0950
 2196SOL    HW118224   3.637   0.687   4.696  1.7053 -0.5236  0.0533
 2196SOL    HW218225   3.740   0.750   4.613 -0.0358  1.0439  0.5926
 2197SOL     OW18226   2.519   0.678  14.648 -0.0564  0.1845  0.0008
 2197SOL    HW118227   2.500   0.769  14.625  0.4052  0.1936 -0.3476
 2197SOL    HW218228   2.614   0.688  14.658  0.1817 -2.4512  0.3832
 2198SOL     OW18229   3.528   3.779   5.852  0.6017  1.4358  0.2392
 2198SOL    HW118230   3.439   3.757   5.824  1.1777 -2.4100  1.3185
 2198SOL    HW218231   3.547   3.858   5.802  0.0719  0.9673 -0.6975
 2199SOL     OW18232   4.465   4.713   3.691 -0.8351 -0.1965  0.2599
 2199SOL    HW118233   4.504   4.645   3.636 -1.3333  0.4584 -0.8802
 2199SOL    HW218234   4.554   0.005   3.711 -0.9274  1.0785 -1.2978
 2200SOL     OW18235   4.348   1.031  11.851  0.4808 -0.5896 -0.2354
 2200SOL    HW118236   4.331   1.123  11.873 -1.4285 -0.8178 -0.8030
 2200SOL    HW218237   4.316   0.985  11.929  0.6366 -1.5116 -0.7147
 2201SOL     OW18238   2.550   2.395   0.877  0.4762  0.3323 -0.7047
 2201SOL    HW118239   2.583   2.464   0.820  0.1965  0.0575 -1.2024
 2201SOL    HW218240   2.622   2.331   0.874 -0.0412 -0.1645 -2.5120
 2202SOL     OW18241   0.596   2.356   5.398  0.6853  0.6349 -0.2968
 2202SOL    HW118242   0.524   2.299   5.424  0.5517 -0.5603 -3.3100
 2202SOL    HW218243   0.557   2.436   5.435 -0.6349 -0.2952  0.3097
 2203SOL     OW18244   1.645   1.612  14.062  0.0447 -0.2588  0.1301
 2203SOL    HW118245   1.607   1.658  13.987  4.7784 -1.7669 -3.1696
 2203SOL    HW218246   1.635   1.521  14.035  1.2812 -0.2561 -0.3618
 2204SOL     OW18247   3.552   3.973   3.003  0.2991 -0.0775  0.1254
 2204SOL    HW118248   3.500   3.942   2.929  0.2588 -2.6049  1.1926
 2204SOL    HW218249   3.487   4.026   3.048  0.6205 -0.3975  0.9595
 2205SOL     OW18250   3.194   1.743   8.616 -0.0590 -0.2388 -0.2369
 2205SOL    HW118251   3.177   1.676   8.550  0.6817 -1.0897  0.4345
 2205SOL    HW218252   3.249   1.811   8.575 -0.3546  0.8500  1.1724
 2206SOL     OW18253   0.936   1.844  15.707 -0.2761 -0.1056  0.1785
 2206SOL    HW118254   1.007   1.811  15.761  1.4714  1.6558 -1.0411
 2206SOL    HW218255   0.984   1.892  15.640  0.6212  1.0532  1.6618
 2207SOL     OW18256   2.620   3.189  10.494 -0.3567  0.2401  0.0802
 2207SOL    HW118257   2.641   3.237  10.413  3.3437 -2.2537 -0.4607
 2207SOL    HW218258   2.679   3.114  10.489  0.0677  0.6215 -0.8209
 2208SOL     OW18259   2.173   1.900   8.372 -0.1249  0.5287 -0.0167
 2208SOL    HW118260   2.110   1.964   8.406 -0.4588  0.0775  0.2149
 2208SOL    HW218261   2.135   1.882   8.286  0.4529 -0.8198  0.0108
 2209SOL     OW18262   0.914   0.496  13.870  0.1309  0.2141 -0.5560
 2209SOL    HW118263   1.004   0.469  13.890 -0.2796  0.0023  0.9547
 2209SOL    HW218264   0.915   0.583  13.911  0.8529 -1.0444  2.0593
 2210SOL     OW18265   1.456   3.236   4.453 -0.3650 -0.2534 -0.2365
 2210SOL    HW118266   1.486   3.153   4.491  2.4875  0.2089 -1.4716
 2210SOL    HW218267   1.371   3.246   4.496 -1.1880  0.1858 -1.9458
 2211SOL     OW18268   2.657   3.813   1.735 -0.5113 -0.4218 -0.3234
 2211SOL    HW118269   2.702   3.897   1.724 -0.0617 -0.6514 -0.2344
 2211SOL    HW218270   2.581   3.854   1.778 -0.7055 -2.5058  1.3012
 2212SOL     OW18271   3.586   2.043   5.498 -0.2084 -0.2299  0.9965
 2212SOL    HW118272   3.636   1.995   5.564  0.3109 -0.3259  0.5374
 2212SOL    HW218273   3.513   2.075   5.549 -0.3260  1.3083 -0.1450
 2213SOL     OW18274   3.326   3.693  16.532  0.2115  0.3520 -0.1122
 2213SOL    HW118275   3.389   3.746  16.581 -1.7010  0.7165  1.9546
 2213SOL    HW218276   3.254   3.691  16.594  0.5179  1.2787  0.2703
 2214SOL     OW18277   1.510   3.613  16.363 -0.2187  0.1818  0.4059
 2214SOL    HW118278   1.491   3.704  16.388 -3.9794  0.2525 -2.9068
 2214SOL    HW218279   1.578   3.629  16.297  0.4842 -0.0800  1.0677
 2215SOL     OW18280   3.212   1.304   9.785 -0.2053 -0.1428  0.1729
 2215SOL    HW118281   3.228   1.209   9.785 -1.2554 -0.3124  0.6548
 2215SOL    HW218282   3.146   1.325   9.720  0.4021 -0.6616 -0.6199
 2216SOL     OW18283   1.101   0.828  10.783  0.3713 -0.3061  0.5296
 2216SOL    HW118284   1.006   0.828  10.794 -0.0055  1.0425 -2.8617
 2216SOL    HW218285   1.126   0.738  10.803 -1.9944 -1.0363  0.2166
 2217SOL     OW18286   2.338   1.498   3.479 -0.1161  0.2473 -0.1721
 2217SOL    HW118287   2.256   1.481   3.526  0.6829 -1.5840  0.5581
 2217SOL    HW218288   2.309   1.576   3.431 -1.6441 -1.6227 -2.2438
 2218SOL     OW18289   2.217   2.528   2.257 -0.1498  0.3280 -0.3025
 2218SOL    HW118290   2.304   2.493   2.275  0.1497  0.4632 -1.4798
 2218SOL    HW218291   2.162   2.481   2.321 -0.7777 -1.1315 -1.9102
 2219SOL     OW18292   4.626   0.429  16.521  0.2510  0.0369 -0.1516
 2219SOL    HW118293   4.601   0.499  16.581  0.8827  1.0895 -1.1225
 2219SOL    HW218294   4.538   0.403  16.492  0.6899 -1.3369 -0.2368
 2220SOL     OW18295   3.094   0.749   4.906 -0.8289 -0.6930 -0.1857
 2220SOL    HW118296   3.051   0.802   4.840 -0.3969 -0.3155 -0.1640
 2220SOL    HW218297   3.106   0.669   4.855  0.2332 -0.5500 -0.1630
 2221SOL     OW18298   0.106   0.603   6.731  0.2829 -0.2571 -0.2710
 2221SOL    HW118299   0.109   0.529   6.791  2.1409  1.2875  1.5500
 2221SOL    HW218300   0.043   0.656   6.780  0.6134  0.2350 -0.3729
 2222SOL     OW18301   3.810   1.528  10.014  0.0768 -0.2147  0.4042
 2222SOL    HW118302   3.744   1.591   9.986 -1.0052 -1.6608 -0.2975
 2222SOL    HW218303   3.803   1.528  10.110  3.0157 -0.1226  0.5960
 2223SOL     OW18304   0.308   0.549   4.211 -0.7299  0.2435  0.1490
 2223SOL    HW118305   0.280   0.494   4.138  1.8039 -2.9322  1.6197
 2223SOL    HW218306   0.357   0.619   4.168  1.5431  0.2933  2.8224
 2224SOL     OW18307   0.126   4.502  13.569  0.1119 -0.1442  0.7403
 2224SOL    HW118308   0.202   4.539  13.525  1.8251 -3.1467  1.2118
 2224SOL    HW218309   0.114   4.571  13.635 -0.2640 -0.1181  0.6486
 2225SOL     OW18310   3.486   1.967  15.093 -0.1670  0.1288  0.8482
 2225SOL    HW118311   3.553   2.021  15.135  0.9874 -0.7916  0.1887
 2225SOL    HW218312   3.467   1.900  15.158  0.9808 -0.4355  0.6016
 2226SOL     OW18313   1.190   3.903  17.545  0.4132  0.4817 -0.2342
 2226SOL    HW118314   1.107   3.882  17.504  0.3000  0.2356  0.1258
 2226SOL    HW218315   1.234   3.941  17.469 -1.7119  2.0093 -0.6791
 2227SOL     OW18316   3.033   3.406  16.531 -0.1382  0.0206 -0.1298
 2227SOL    HW118317   3.000   3.316  16.531  2.6186 -0.9806 -1.9511
 2227SOL    HW218318   2.987   3.435  16.609 -1.3203  2.2542 -1.6584
 2228SOL     OW18319   0.982   2.841   5.715  0.4814  0.1907  0.2317
 2228SOL    HW118320   0.955   2.923   5.675 -0.0099  0.4541  1.1131
 2228SOL    HW218321   1.070   2.868   5.741  0.1523 -0.7443  2.3034
 2229SOL     OW18322   0.151   0.807   5.263  0.6733  0.3012 -0.1461
 2229SOL    HW118323   0.242   0.776   5.257  0.8474  0.3207  2.7369
 2229SOL    HW218324   0.111   0.734   5.310 -0.5198  0.8474 -0.3115
 2230SOL     OW18325   1.980   0.968  13.403  0.7363 -0.4693 -0.5236
 2230SOL    HW118326   1.944   1.057  13.403  2.7608  0.3421 -1.3621
 2230SOL    HW218327   1.954   0.929  13.486  1.5801  0.8281  0.3381
 2231SOL     OW18328   3.687   0.632   4.854  0.4756  0.1434 -0.1652
 2231SOL    HW118329   3.774   0.599   4.875 -0.5206 -2.0888  0.5449
 2231SOL    HW218330   3.651   0.649   4.941 -0.7262 -0.5836 -0.5162
 2232SOL     OW18331   2.814   2.798   7.082  0.1569 -0.3436 -0.0036
 2232SOL    HW118332   2.851   2.750   7.008  1.1969  0.0221  0.2797
 2232SOL    HW218333   2.730   2.824   7.043 -0.7168 -0.0567  2.0592
 2233SOL     OW18334   2.189   3.126   3.851 -0.8453  0.0748  0.1413
 2233SOL    HW118335   2.243   3.077   3.788 -0.4471 -1.0963  1.4011
 2233SOL    HW218336   2.107   3.134   3.802 -1.5667 -1.8902  1.0144
 2234SOL     OW18337   1.092   3.017   6.944 -0.1981  0.0868 -0.0159
 2234SOL    HW118338   1.096   2.933   6.991 -1.4340  0.1208  0.1555
 2234SOL    HW218339   1.098   3.083   7.013  2.5427  0.5023 -0.6356
 2235SOL     OW18340   4.319   3.135   6.968  0.2424  0.0322 -0.0710
 2235SOL    HW118341   4.363   3.191   6.904 -0.4476  1.5903  0.8135
 2235SOL    HW218342   4.395   3.111   7.020  0.8113  2.3952  0.1835
 2236SOL     OW18343   0.192   4.206   8.008 -0.5831 -0.5889  0.2060
 2236SOL    HW118344   0.272   4.256   7.993 -1.2452  0.8498  1.4807
 2236SOL    HW218345   0.129   4.242   7.945  0.8885  2.9673  0.8128
 2237SOL     OW18346   1.257   3.388   8.196  0.7505 -0.1303  0.1975
 2237SOL    HW118347   1.201   3.344   8.131  0.0211  2.0826 -0.6804
 2237SOL    HW218348   1.338   3.403   8.147  0.8707 -0.3575  0.3315
 2238SOL     OW18349   3.704   0.393   3.753  1.0112 -0.0467  0.6489
 2238SOL    HW118350   3.706   0.297   3.754  4.7210  0.0194 -2.2118
 2238SOL    HW218351   3.702   0.418   3.846  0.9603 -0.5691  0.7895
 2239SOL     OW18352   1.131   0.812   2.977 -0.0741 -0.2034  0.1804
 2239SOL    HW118353   1.202   0.874   2.958  0.6524 -0.8064  0.9265
 2239SOL    HW218354   1.094   0.855   3.054 -0.8308  1.1409 -0.9339
 2240SOL     OW18355   4.571   0.983   6.825  0.2022  0.3380 -0.3938
 2240SOL    HW118356   4.632   0.924   6.869 -1.0639 -0.1201  0.7283
 2240SOL    HW218357   4.515   0.921   6.777 -0.2693  0.8879 -0.5480
 2241SOL     OW18358   3.438   3.519   6.213  0.6399 -0.3206  0.0283
 2241SOL    HW118359   3.478   3.471   6.286  2.5210  1.5320  0.2313
 2241SOL    HW218360   3.494   3.596   6.207  0.4332 -0.0738  1.1842
 2242SOL     OW18361   1.258   2.927   8.062 -0.1421 -0.4285  0.2928
 2242SOL    HW118362   1.264   2.834   8.087  0.8997 -1.0745 -2.3097
 2242SOL    HW218363   1.172   2.958   8.088 -0.1681  0.9781 -1.4802
 2243SOL     OW18364   2.987   1.398   6.594  0.4586  0.4670 -0.2798
 2243SOL    HW118365   2.912   1.339   6.586  0.6238  0.1495  0.4725
 2243SOL    HW218366   3.033   1.397   6.510 -1.9327  1.3297 -1.5813
 2244SOL     OW18367   0.041   3.899   3.139  0.1318 -0.7706  0.0163
 2244SOL    HW118368   0.037   3.805   3.122 -2.2600 -0.7937  0.7251
 2244SOL    HW218369   4.737   3.941   3.064  0.1029  2.5129  1.8688
 2245SOL     OW18370   2.666   4.728   5.217 -0.4222 -0.6709  0.0846
 2245SOL    HW118371   2.574   4.726   5.190 -0.5595  1.0138  0.3996
 2245SOL    HW218372   2.691   0.076   5.183 -1.6528  0.2427  1.5060
 2246SOL     OW18373   0.374   3.146  15.138  0.0908  0.2381 -0.6283
 2246SOL    HW118374   0.377   3.173  15.046  1.5177  0.5752 -0.4817
 2246SOL    HW218375   0.376   3.051  15.128 -0.7342  0.1375  0.1751
 2247SOL     OW18376   2.343   3.797   2.102 -0.1731  0.0403  0.2640
 2247SOL    HW118377   2.333   3.795   2.007 -1.9688  0.4232  0.4409
 2247SOL    HW218378   2.250   3.791   2.123 -0.7395  0.9393 -1.9830
 2248SOL     OW18379   0.008   0.963   3.613 -0.2304 -0.5941  0.4127
 2248SOL    HW118380   4.703   1.039   3.651  0.3412 -0.1122  0.0920
 2248SOL    HW218381   0.073   1.006   3.559 -0.3134 -0.6498  0.2662
 2249SOL     OW18382   3.417   3.087   8.231  0.3164  0.0407 -0.5466
 2249SOL    HW118383   3.505   3.118   8.253 -0.3790  0.5284  1.5732
 2249SOL    HW218384   3.397   3.128   8.147 -0.7366  0.9485  0.1427
 2250SOL     OW18385   0.661   0.434   0.593 -0.0453  0.4448  0.2332
 2250SOL    HW118386   0.669   0.391   0.678  0.7406  0.6699  0.2714
 2250SOL    HW218387   0.748   0.423   0.554  1.0433  1.0444  2.4606
 2251SOL     OW18388   0.097   1.474   2.506  0.1114 -0.3696  0.0268
 2251SOL    HW118389   0.036   1.403   2.489  0.5831 -1.1536  1.6247
 2251SOL    HW218390   0.065   1.539   2.443 -0.3630 -0.3944  0.2429
 2252SOL     OW18391   2.240   1.304  16.949  0.4791 -0.0786  0.1879
 2252SOL    HW118392   2.187   1.383  16.945  0.2338 -0.3781 -2.6318
 2252SOL    HW218393   2.229   1.282  16.857  1.6685 -1.0873  0.2895
 2253SOL     OW18394   0.159   0.501  14.301  0.0721  1.2010  0.8177
 2253SOL    HW118395   0.240   0.497  14.352 -1.4517 -3.0517  2.8573
 2253SOL    HW218396   0.123   0.423  14.342  2.4805 -0.3199  0.0798
 2254SOL     OW18397   4.537   2.688   7.646  0.4194  0.4056 -0.4266
 2254SOL    HW118398   4.559   2.641   7.565  0.2667  0.7608 -0.6766
 2254SOL    HW218399   4.442   2.680   7.655  0.6682 -1.7538  0.0907
 2255SOL     OW18400   4.687   2.942   6.839 -0.3681 -0.1804  0.6426
 2255SOL    HW118401   4.739   2.990   6.903  0.4503  0.9248 -0.8523
 2255SOL    HW218402   4.597   2.945   6.873 -0.6964  1.5615 -0.3900
 2256SOL     OW18403   4.686   1.966  11.330  0.5042 -0.2417 -0.1003
 2256SOL    HW118404   4.736   1.928  11.402  1.4116  2.6068  0.7511
 2256SOL    HW218405   4.690   2.057  11.358  0.0035  0.9996 -4.0063
 2257SOL     OW18406   2.545   3.577   7.875 -0.0567  0.1848  0.2797
 2257SOL    HW118407   2.566   3.500   7.928 -2.4071  1.0894  2.5256
 2257SOL    HW218408   2.632   3.580   7.835 -1.3831  1.4671 -2.5413
 2258SOL     OW18409   3.252   2.910  15.087  0.6914 -0.1015 -0.4886
 2258SOL    HW118410   3.211   2.881  15.006 -2.8529 -0.2835  1.3637
 2258SOL    HW218411   3.346   2.893  15.075  0.5577 -0.7755 -0.6048
 2259SOL     OW18412   3.203   1.464   1.640  0.7195  0.2488 -0.2731
 2259SOL    HW118413   3.183   1.552   1.611  1.7326  0.3053 -0.7877
 2259SOL    HW218414   3.118   1.430   1.669 -0.3074  2.4558 -0.7354
 2260SOL     OW18415   3.623   2.328   6.156 -0.3773 -0.3088 -0.0791
 2260SOL    HW118416   3.641   2.413   6.195  0.7789  0.1638 -1.6327
 2260SOL    HW218417   3.528   2.329   6.155 -0.4104 -1.7598  2.7254
 2261SOL     OW18418   4.288   0.690   7.457  0.0562  0.1510 -0.0977
 2261SOL    HW118419   4.304   0.777   7.420  0.2905  0.1876  0.0941
 2261SOL    HW218420   4.373   0.653   7.481  0.4831  1.9817  1.2280
 2262SOL     OW18421   4.555   2.180   4.858 -0.2892  0.2313  0.7472
 2262SOL    HW118422   4.460   2.183   4.850 -0.3336 -2.6376  0.1588
 2262SOL    HW218423   4.580   2.244   4.791 -1.8797 -0.1440 -0.1964
 2263SOL     OW18424   4.674   0.090   4.469 -0.5633  0.0248  0.5633
 2263SOL    HW118425   0.028   0.108   4.484 -0.6119 -0.2339  1.1723
 2263SOL    HW218426   4.673   4.736   4.491 -1.3378  0.3192  1.7689
 2264SOL     OW18427   3.869   3.075  11.813 -0.1241  0.8993 -0.1670
 2264SOL    HW118428   3.856   2.982  11.797 -1.0027  0.7492  1.4646
 2264SOL    HW218429   3.813   3.081  11.890  0.2107 -0.8120  0.1940
 2265SOL     OW18430   3.331   1.867  14.212  0.3465  0.2773 -0.1024
 2265SOL    HW118431   3.418   1.895  14.183  0.6643  0.6828  1.2376
 2265SOL    HW218432   3.337   1.773  14.197  0.6120  0.5331 -1.5825
 2266SOL     OW18433   0.716   1.045   7.088  0.0344  0.5290 -0.5548
 2266SOL    HW118434   0.736   1.000   7.006 -0.5938  0.0415 -0.4367
 2266SOL    HW218435   0.776   1.120   7.079 -0.8265  1.3575  0.7059
 2267SOL     OW18436   0.465   1.421  13.809  0.2558 -0.0709 -0.7528
 2267SOL    HW118437   0.457   1.493  13.746  0.8890  1.5519  1.0332
 2267SOL    HW218438   0.376   1.412  13.841  0.7312 -0.9191  0.3352
 2268SOL     OW18439   1.645   0.217   4.446 -0.1380 -0.0286 -0.6103
 2268SOL    HW118440   1.618   0.215   4.538  0.1670  3.8008 -0.4197
 2268SOL    HW218441   1.674   0.129   4.422 -0.6513 -0.4860  0.4810
 2269SOL     OW18442   2.394   3.825   1.384  0.1327  0.2909 -0.5569
 2269SOL    HW118443   2.344   3.849   1.306 -2.0491 -1.5968  0.2500
 2269SOL    HW218444   2.309   3.823   1.428  0.2084  0.6979 -0.3976
 2270SOL     OW18445   0.561   3.831   3.394  0.0245 -0.4342  0.3086
 2270SOL    HW118446   0.496   3.803   3.329 -1.4396  0.6102  1.3049
 2270SOL    HW218447   0.596   3.910   3.352  1.1433 -0.0322  1.9815
 2271SOL     OW18448   1.408   2.982   4.619 -0.1285 -0.3626 -0.3102
 2271SOL    HW118449   1.478   2.941   4.570 -0.4046 -2.2692  0.9058
 2271SOL    HW218450   1.330   2.950   4.574 -0.7058 -0.7912  0.9892
 2272SOL     OW18451   0.314   0.420  17.162  0.0970 -0.0230  0.0363
 2272SOL    HW118452   0.377   0.371  17.108  1.6364 -0.2751  2.0298
 2272SOL    HW218453   0.319   0.500  17.110  1.6562  0.4518  0.9120
 2273SOL     OW18454   4.647   3.929  10.730 -0.5657  0.0450 -0.4927
 2273SOL    HW118455   4.656   3.990  10.804  0.3646  0.3522 -0.8623
 2273SOL    HW218456   4.585   3.974  10.674 -1.7887  0.4867  1.2007
 2274SOL     OW18457   1.736   2.895   1.817  0.9259 -0.5735 -0.2402
 2274SOL    HW118458   1.742   2.946   1.737  1.5427  0.1489  0.2777
 2274SOL    HW218459   1.666   2.829   1.811  0.1676  0.0581  1.8089
 2275SOL     OW18460   3.408   3.346   4.794 -0.2510  0.0597  0.3000
 2275SOL    HW118461   3.446   3.285   4.858 -0.4253 -0.3906 -0.0298
 2275SOL    HW218462   3.355   3.290   4.738  0.1977  0.9281 -0.9772
 2276SOL     OW18463   3.018   0.650  10.901 -0.0202  0.1049  0.0951
 2276SOL    HW118464   3.056   0.719  10.955 -0.4691 -1.2966  2.1866
 2276SOL    HW218465   2.955   0.699  10.848 -1.1056 -2.4846 -0.9953
 2277SOL     OW18466   1.695   4.263   7.388  0.2061  0.2606  0.6534
 2277SOL    HW118467   1.627   4.231   7.447  1.6830 -0.6819  1.8587
 2277SOL    HW218468   1.712   4.191   7.328 -1.0139  0.7197 -0.2464
 2278SOL     OW18469   2.127   3.094  10.382 -0.5068  0.7929  0.4016
 2278SOL    HW118470   2.076   3.071  10.460  2.2867  2.3584  2.7241
 2278SOL    HW218471   2.124   3.014  10.331 -0.2061  2.0714 -1.5917
 2279SOL     OW18472   3.833   0.566   0.544  0.7326  0.3112 -0.7068
 2279SOL    HW118473   3.922   0.567   0.506  1.0119  1.5139 -0.0151
 2279SOL    HW218474   3.837   0.638   0.606  0.1150 -0.6550  0.4406
 2280SOL     OW18475   1.414   4.349   9.808  0.3917 -0.2833 -0.3124
 2280SOL    HW118476   1.484   4.414   9.799 -0.6666  0.5710 -2.4959
 2280SOL    HW218477   1.450   4.268   9.773  1.5897  0.4517 -0.7757
 2281SOL     OW18478   3.194   4.278   5.833 -0.2452  0.4123 -0.0237
 2281SOL    HW118479   3.133   4.263   5.760 -0.9462 -0.5918  0.7889
 2281SOL    HW218480   3.275   4.258   5.785 -0.3858  1.9539 -0.9155
 2282SOL     OW18481   3.114   2.959   9.349 -0.1963 -0.5166  0.2011
 2282SOL    HW118482   3.113   2.908   9.268  0.8936  0.4567 -0.4243
 2282SOL    HW218483   3.174   2.909   9.404 -0.7817  1.0292  2.2277
 2283SOL     OW18484   2.212   2.390   2.611  0.2115  0.0889 -0.5289
 2283SOL    HW118485   2.183   2.333   2.539 -0.7728  0.0115 -0.0735
 2283SOL    HW218486   2.182   2.330   2.679  0.2243 -0.6794 -1.2088
 2284SOL     OW18487   3.160   3.135   2.923 -0.8490  0.5489 -0.4221
 2284SOL    HW118488   3.124   3.196   2.988  2.9782 -0.5763  2.7316
 2284SOL    HW218489   3.195   3.193   2.855  1.2031 -0.0913  0.1032
 2285SOL     OW18490   2.162   2.807   3.969  0.5700 -0.4627 -0.2037
 2285SOL    HW118491   2.140   2.881   4.026  1.1308  2.3042 -3.6325
 2285SOL    HW218492   2.254   2.791   3.990  0.0040 -1.9111  1.1414
 2286SOL     OW18493   1.755   0.411   3.298 -0.1867  0.0329  0.1771
 2286SOL    HW118494   1.740   0.495   3.340  1.4022  0.1935  0.4107
 2286SOL    HW218495   1.816   0.419   3.225 -1.5723 -0.7662 -1.0802
 2287SOL     OW18496   1.765   1.894   3.888 -0.1795 -0.6875 -0.2386
 2287SOL    HW118497   1.849   1.875   3.845  1.4283 -0.7718  2.8977
 2287SOL    HW218498   1.699   1.871   3.824 -0.3180  2.1461 -1.1198
 2288SOL     OW18499   0.639   2.626  13.302  0.3433 -0.1558 -0.0392
 2288SOL    HW118500   0.713   2.565  13.299  0.1629 -0.4713  1.7326
 2288SOL    HW218501   0.624   2.629  13.208 -1.0342  0.2146  0.1935
 2289SOL     OW18502   1.045   2.403  15.789  0.1533  0.3336  0.2639
 2289SOL    HW118503   0.966   2.453  15.771 -0.6272 -1.2302 -0.5805
 2289SOL    HW218504   1.053   2.412  15.884  1.4403  0.4082  0.1550
 2290SOL     OW18505   4.130   3.630  12.949  0.2976 -0.3757  0.1354
 2290SOL    HW118506   4.217   3.653  12.979  1.0170  0.4233 -2.6015
 2290SOL    HW218507   4.135   3.535  12.965 -1.1558 -0.4189  0.3836
 2291SOL     OW18508   2.073   0.975   7.695  0.1167  0.5335  0.4122
 2291SOL    HW118509   2.118   1.059   7.685  2.0433 -0.7338 -1.4721
 2291SOL    HW218510   2.058   0.957   7.603  0.5796  0.4365  0.3560
 2292SOL     OW18511   0.815   2.746  16.133 -0.7796 -0.3852 -0.1063
 2292SOL    HW118512   0.739   2.773  16.082 -0.8279  1.4814  0.9387
 2292SOL    HW218513   0.868   2.824  16.115  0.8545 -1.4694 -0.0331
 2293SOL     OW18514   2.834   2.906   6.751  0.3080  0.0633  0.0867
 2293SOL    HW118515   2.842   2.846   6.825 -1.3695  1.1914  1.1718
 2293SOL    HW218516   2.797   2.845   6.686  0.2670 -1.4152  1.5030
 2294SOL     OW18517   0.303   4.070  10.474  0.7583  0.6402 -0.0729
 2294SOL    HW118518   0.209   4.057  10.463  0.5713  0.4585  1.8033
 2294SOL    HW218519   0.343   3.985  10.453 -0.1918  0.6517 -1.9552
 2295SOL     OW18520   0.294   0.626   6.295 -0.1277  0.2699  0.0628
 2295SOL    HW118521   0.269   0.552   6.350  0.3342  0.0598 -0.0106
 2295SOL    HW218522   0.387   0.606   6.292 -0.2333 -0.2824  0.6161
 2296SOL     OW18523   3.277   0.451   3.503  0.3526  0.3115  0.7710
 2296SOL    HW118524   3.323   0.531   3.480 -0.2949  0.2251 -0.8093
 2296SOL    HW218525   3.322   0.387   3.449  1.3749  1.7228 -0.0383
 2297SOL     OW18526   4.204   1.930   4.317 -0.2963 -0.0782  0.3120
 2297SOL    HW118527   4.185   1.837   4.322  0.2640 -0.2547 -0.9111
 2297SOL    HW218528   4.275   1.929   4.381 -2.1650 -0.9018  2.3636
 2298SOL     OW18529   3.782   1.632   3.145 -0.9071 -0.5981  0.3784
 2298SOL    HW118530   3.812   1.595   3.063 -2.2018  1.2065 -0.9178
 2298SOL    HW218531   3.761   1.724   3.129 -1.3192 -0.7687 -0.0853
 2299SOL     OW18532   3.160   3.317   7.810 -0.1655 -0.1386 -0.1906
 2299SOL    HW118533   3.096   3.338   7.878 -0.6829 -0.5694 -0.5436
 2299SOL    HW218534   3.160   3.394   7.754  2.0344 -1.8954 -2.5589
 2300SOL     OW18535   3.765   1.269  15.309 -0.2651  0.2514 -0.0510
 2300SOL    HW118536   3.753   1.286  15.215  1.2159 -2.7809 -0.8073
 2300SOL    HW218537   3.721   1.184  15.313 -0.4312  0.3311 -0.1644
 2301SOL     OW18538   3.459   3.034   1.665  0.0298 -0.3274 -0.0508
 2301SOL    HW118539   3.519   3.108   1.670  1.7813 -1.7809  0.3716
 2301SOL    HW218540   3.394   3.053   1.733  0.0907  0.6125 -0.2607
 2302SOL     OW18541   0.743   0.653   5.841  0.2140  0.2415  0.0259
 2302SOL    HW118542   0.676   0.612   5.895  0.7256  0.1736  0.6130
 2302SOL    HW218543   0.817   0.653   5.901 -0.1823  2.5596  0.5036
 2303SOL     OW18544   2.128   1.014   0.965  0.2969 -0.1955 -0.3398
 2303SOL    HW118545   2.052   0.956   0.970  0.1492 -0.1647 -2.2290
 2303SOL    HW218546   2.120   1.055   1.051 -0.2461  2.1862 -1.5175
 2304SOL     OW18547   0.304   2.242   4.528 -0.0449  0.1074 -0.6167
 2304SOL    HW118548   0.312   2.269   4.437  0.9267  0.7872 -0.3261
 2304SOL    HW218549   0.395   2.234   4.558  0.2901  0.2676 -1.5885
 2305SOL     OW18550   0.175   2.003  12.507 -0.0321  0.3494 -0.9962
 2305SOL    HW118551   0.232   2.016  12.583  0.1828 -0.5665 -1.0112
 2305SOL    HW218552   0.091   2.031  12.542  0.7522 -1.8208  2.5732
 2306SOL     OW18553   3.406   0.492   4.604  0.1782 -0.3141  0.0453
 2306SOL    HW118554   3.496   0.464   4.619  0.4324  1.2305  1.4227
 2306SOL    HW218555   3.372   0.422   4.548  1.1988 -1.4028  0.7889
 2307SOL     OW18556   3.227   2.137  11.698  0.4324 -0.4417 -0.0283
 2307SOL    HW118557   3.172   2.086  11.639  0.4528  0.7045 -1.0505
 2307SOL    HW218558   3.240   2.077  11.771  0.1734 -0.0088  0.3766
 2308SOL     OW18559   4.474   0.648   1.842 -0.1465 -0.5208  0.6398
 2308SOL    HW118560   4.549   0.601   1.878  0.5021  0.7713  1.0156
 2308SOL    HW218561   4.506   0.738   1.828 -1.2214 -0.1103  0.8432
 2309SOL     OW18562   3.862   4.222   4.298  0.3635 -0.1985 -0.1860
 2309SOL    HW118563   3.937   4.217   4.238 -0.8033 -2.8962 -1.4362
 2309SOL    HW218564   3.789   4.199   4.241  0.5521 -0.5693 -0.2763
 2310SOL     OW18565   0.953   1.815  12.521 -0.5531 -0.1626  0.3490
 2310SOL    HW118566   0.977   1.892  12.469 -0.6042 -0.7776 -0.5699
 2310SOL    HW218567   1.035   1.794  12.567 -0.9497 -2.5421 -0.0331
 2311SOL     OW18568   0.790   4.618   3.970 -0.4433  0.0928 -0.3600
 2311SOL    HW118569   0.744   4.693   3.933 -0.1176  1.1765  1.4448
 2311SOL    HW218570   0.761   4.548   3.912  0.1885 -1.9934  1.8257
 2312SOL     OW18571   0.513   2.944   3.758  0.5787 -0.0803 -0.3034
 2312SOL    HW118572   0.594   2.995   3.757  0.9191 -0.6297 -1.7988
 2312SOL    HW218573   0.521   2.917   3.849 -1.0076  0.9633  0.1499
 2313SOL     OW18574   2.558   0.066   7.513 -0.1277 -0.2917  0.1321
 2313SOL    HW118575   2.603   0.143   7.478 -2.8140  0.0126 -2.5896
 2313SOL    HW218576   2.469   0.091   7.489  0.1988  1.7232  1.0713
 2314SOL     OW18577   2.269   3.016   2.076 -0.5616  0.2653 -0.4723
 2314SOL    HW118578   2.254   3.106   2.048 -1.0642 -0.0330 -1.1541
 2314SOL    HW218579   2.303   2.977   1.996 -1.0401 -0.2729 -0.4095
 2315SOL     OW18580   2.033   0.898   8.158 -0.2164 -0.2841 -0.1474
 2315SOL    HW118581   2.054   0.835   8.227 -0.0840 -2.0618 -1.8102
 2315SOL    HW218582   1.991   0.972   8.203  1.1124 -0.1867  0.9472
 2316SOL     OW18583   3.700   0.223   3.389  0.1907  0.4783  0.2618
 2316SOL    HW118584   3.627   0.207   3.449  0.7919 -0.9049  0.6042
 2316SOL    HW218585   3.769   0.260   3.444 -1.8717  0.1668  3.0379
 2317SOL     OW18586   0.331   0.155   1.204  0.4998 -0.5789  0.7012
 2317SOL    HW118587   0.357   0.117   1.288  0.1004 -1.6384  0.3499
 2317SOL    HW218588   0.369   0.086   1.149  0.1396 -0.9670  0.9285
 2318SOL     OW18589   4.678   0.783   8.601  0.2883  0.3055 -0.0531
 2318SOL    HW118590   4.702   0.738   8.521  0.0239 -0.3419  0.2332
 2318SOL    HW218591   0.002   0.855   8.608 -0.0675  0.7278 -1.2675
 2319SOL     OW18592   1.911   4.499   2.717  0.1857 -0.4502 -0.3750
 2319SOL    HW118593   1.874   4.454   2.641  2.3678  0.2134 -1.8651
 2319SOL    HW218594   1.968   4.563   2.673 -1.6512 -0.0404 -2.1889
 2320SOL     OW18595   2.230   0.514   2.244  0.2535 -0.6063 -0.0346
 2320SOL    HW118596   2.150   0.537   2.196  0.6276 -0.0300 -0.3800
 2320SOL    HW218597   2.281   0.590   2.214 -2.2788  0.8738 -0.6576
 2321SOL     OW18598   1.601   3.959   5.193  0.0137 -0.1549 -0.3474
 2321SOL    HW118599   1.569   3.929   5.108 -1.2390  2.1044 -0.6557
 2321SOL    HW218600   1.573   4.050   5.196  0.1263 -0.1545  0.8502
 2322SOL     OW18601   1.985   0.693  15.477 -0.6010  0.0494  0.0743
 2322SOL    HW118602   1.955   0.651  15.558  1.2850  1.1440  1.3209
 2322SOL    HW218603   1.928   0.768  15.460  1.0659  1.2941  0.0844
 2323SOL     OW18604   0.832   2.462   5.771  0.2683 -0.1847 -0.1582
 2323SOL    HW118605   0.837   2.512   5.689 -1.1701  3.8229  2.2062
 2323SOL    HW218606   0.738   2.445   5.780  0.1671  1.2606  1.4520
 2324SOL     OW18607   3.971   3.164   6.918 -0.3011 -0.6650  0.0547
 2324SOL    HW118608   3.893   3.215   6.896 -0.4166 -2.4730 -3.6505
 2324SOL    HW218609   4.034   3.197   6.854  0.9621  0.3589  1.7872
 2325SOL     OW18610   0.707   1.123   4.777 -0.0022 -0.0994 -0.4486
 2325SOL    HW118611   0.802   1.111   4.785 -0.0514  0.4343  1.0247
 2325SOL    HW218612   0.695   1.176   4.699 -2.0451  0.1178  0.0277
 2326SOL     OW18613   3.611   4.514   0.188  0.0099 -0.1912  0.3438
 2326SOL    HW118614   3.609   4.594   0.242  1.1935  1.1151 -1.5553
 2326SOL    HW218615   3.677   4.534   0.122 -1.2017 -0.8662 -1.0471
 2327SOL     OW18616   0.626   2.508  11.213  0.0222 -0.1522  0.1605
 2327SOL    HW118617   0.658   2.543  11.130 -0.3264  0.3431  0.2355
 2327SOL    HW218618   0.709   2.499  11.259  0.3193 -0.3200 -0.4038
 2328SOL     OW18619   2.433   0.789   6.142  0.2301  0.1872  0.1468
 2328SOL    HW118620   2.358   0.846   6.162  0.1268  0.7709 -1.8009
 2328SOL    HW218621   2.426   0.714   6.200  0.0689 -1.4806 -2.0453
 2329SOL     OW18622   1.524   3.497   7.223 -0.2108 -0.2052  0.1092
 2329SOL    HW118623   1.469   3.493   7.301 -0.3982 -0.7543 -0.0495
 2329SOL    HW218624   1.585   3.428   7.249  0.2474  0.2737  0.3043
 2330SOL     OW18625   0.594   0.545   3.741  0.3676  0.0465  0.1403
 2330SOL    HW118626   0.529   0.598   3.788  0.2498 -0.8276  0.9727
 2330SOL    HW218627   0.568   0.559   3.650 -1.3541 -1.6957  0.3423
 2331SOL     OW18628   2.245   4.078   6.503 -0.2636 -0.0485  0.4331
 2331SOL    HW118629   2.252   4.118   6.590  0.0351  1.3647 -0.2524
 2331SOL    HW218630   2.339   4.070   6.484 -0.4222  0.2325 -0.4705
 2332SOL     OW18631   3.099   4.264   3.602  0.1419 -0.3187  0.0077
 2332SOL    HW118632   3.099   4.270   3.697 -1.5459 -2.1390  0.1282
 2332SOL    HW218633   3.029   4.199   3.589 -1.7602  2.3020 -2.9602
 2333SOL     OW18634   2.440   3.634   8.817  0.0258 -0.7072  0.7846
 2333SOL    HW118635   2.431   3.611   8.909 -2.3680  0.3487  0.8196
 2333SOL    HW218636   2.534   3.648   8.807 -0.3195  1.2752  0.2905
 2334SOL     OW18637   0.099   2.277  15.953 -0.5452  0.2759  0.2468
 2334SOL    HW118638   0.157   2.316  16.019 -0.2799 -0.9827  0.7679
 2334SOL    HW218639   0.010   2.295  15.984 -0.5352 -0.4353  0.6965
 2335SOL     OW18640   1.522   3.300   2.494 -0.0620  0.1393 -0.0624
 2335SOL    HW118641   1.528   3.280   2.400  1.4669 -1.0708  0.2864
 2335SOL    HW218642   1.528   3.211   2.530 -0.7055  0.2053  0.2096
 2336SOL     OW18643   0.291   3.446   7.243 -0.0158  0.3413  0.0823
 2336SOL    HW118644   0.271   3.493   7.161  1.1758 -1.8349 -1.4487
 2336SOL    HW218645   0.360   3.507   7.266  0.9653 -0.3794 -0.9357
 2337SOL     OW18646   2.948   3.708   3.775  0.4245 -0.1089 -0.0046
 2337SOL    HW118647   2.984   3.620   3.762 -0.0054  0.1817 -3.2069
 2337SOL    HW218648   2.908   3.708   3.862  0.1687  1.5582 -0.1300
 2338SOL     OW18649   1.935   0.167  12.101  0.2615  0.3352  0.5500
 2338SOL    HW118650   1.841   0.165  12.117  0.1057  0.2444 -0.3774
 2338SOL    HW218651   1.964   0.226  12.170 -0.6550  0.4804  0.8167
 2339SOL     OW18652   3.975   0.420   6.129  0.3151  0.3715 -0.6854
 2339SOL    HW118653   3.984   0.509   6.094 -3.4277  1.6547  1.5480
 2339SOL    HW218654   4.055   0.371   6.115 -0.1173 -0.5154 -0.0009
 2340SOL     OW18655   3.663   1.004   3.414 -0.5391 -0.1592 -0.6197
 2340SOL    HW118656   3.594   1.013   3.349 -1.8659 -0.0167  0.8034
 2340SOL    HW218657   3.666   1.089   3.457 -0.2203 -0.8274  0.6775
 2341SOL     OW18658   2.290   1.621  16.554  0.4252 -0.5249 -0.3690
 2341SOL    HW118659   2.321   1.530  16.548 -0.5010 -0.9372  1.2002
 2341SOL    HW218660   2.293   1.657  16.465 -0.4792 -1.0653 -0.6216
 2342SOL     OW18661   4.592   2.806   3.257 -0.3054  0.4458  0.3200
 2342SOL    HW118662   4.600   2.823   3.164 -1.7888  0.2975  0.1618
 2342SOL    HW218663   4.653   2.734   3.274 -2.2354 -0.6609  2.6142
 2343SOL     OW18664   0.340   3.788  10.421 -0.0865  0.0440 -0.9107
 2343SOL    HW118665   0.406   3.753  10.481 -1.8462  0.6089  1.3113
 2343SOL    HW218666   0.380   3.768  10.336 -2.1044  1.0135 -2.0990
 2344SOL     OW18667   3.136   1.460   0.213 -0.5322 -0.3061 -0.5747
 2344SOL    HW118668   3.086   1.461   0.295  0.4499 -1.4799  0.0322
 2344SOL    HW218669   3.090   1.534   0.174  0.0344 -0.2624 -1.1458
 2345SOL     OW18670   2.871   1.729   2.882 -0.0600 -0.3166  0.1577
 2345SOL    HW118671   2.782   1.761   2.866 -0.5765 -1.3902  0.8703
 2345SOL    HW218672   2.852   1.677   2.960  1.7369 -1.7424 -0.3721
 2346SOL     OW18673   0.437   0.270   8.792 -0.4393 -0.0552  0.5545
 2346SOL    HW118674   0.341   0.264   8.790 -0.3255 -1.8570  0.4966
 2346SOL    HW218675   0.462   0.221   8.713 -0.6938  1.2530 -0.3309
 2347SOL     OW18676   3.330   3.691   1.958  0.2347 -0.5625 -0.2334
 2347SOL    HW118677   3.394   3.732   1.901 -0.3567  1.1751  0.3496
 2347SOL    HW218678   3.254   3.744   1.933  1.4227  2.0782  1.7527
 2348SOL     OW18679   1.083   3.520  12.884  0.1200 -0.0159 -0.4252
 2348SOL    HW118680   1.080   3.428  12.861 -0.6882  0.0099 -0.4514
 2348SOL    HW218681   1.102   3.507  12.977  1.9269  2.0268 -0.5022
 2349SOL     OW18682   3.566   2.201   2.413  0.6370  0.3673 -0.7976
 2349SOL    HW118683   3.565   2.107   2.396  0.4356  0.8102 -3.3485
 2349SOL    HW218684   3.590   2.235   2.326 -1.0161  0.8432 -1.0736
 2350SOL     OW18685   1.035   3.462   2.527 -0.1945  0.0748  0.1561
 2350SOL    HW118686   0.978   3.416   2.466  0.7568  1.1896 -1.5969
 2350SOL    HW218687   1.021   3.429   2.616  2.0382 -1.1238  0.0599
 2351SOL     OW18688   0.364   0.699  10.854  0.1130 -0.0279 -0.0061
 2351SOL    HW118689   0.329   0.612  10.837  0.3423  0.0078 -0.6857
 2351SOL    HW218690   0.294   0.751  10.893 -0.6667 -0.8258 -0.3569
 2352SOL     OW18691   3.483   0.884   4.819 -0.1191  0.2271  0.1110
 2352SOL    HW118692   3.436   0.889   4.903 -3.2940 -0.4838 -1.6376
 2352SOL    HW218693   3.467   0.790   4.809  1.4085  0.1492 -1.5688
 2353SOL     OW18694   0.109   0.517  11.912 -0.5476 -0.6105  0.3210
 2353SOL    HW118695   0.080   0.498  11.823 -0.8945  0.4372  0.2044
 2353SOL    HW218696   0.120   0.426  11.940 -1.0385 -0.2751  1.6188
 2354SOL     OW18697   1.537   2.107   8.958  0.0650  0.3725 -0.3872
 2354SOL    HW118698   1.485   2.092   8.879  0.0044 -3.5048  0.3921
 2354SOL    HW218699   1.543   2.017   8.989  0.0172  0.1171 -1.1139
 2355SOL     OW18700   4.533   1.810   3.254 -0.2268 -0.1383 -0.4961
 2355SOL    HW118701   4.462   1.837   3.196  0.1499  2.6221  0.3274
 2355SOL    HW218702   4.532   1.717   3.231 -1.0074 -0.0472 -0.8312
 2356SOL     OW18703   3.542   1.643   8.420  0.0972 -0.6957  0.0383
 2356SOL    HW118704   3.624   1.682   8.390 -0.3490 -0.8826 -1.4181
 2356SOL    HW218705   3.521   1.699   8.494  0.0443 -0.6096 -0.0413
 2357SOL     OW18706   4.724   1.596   4.232  0.3582 -0.6085 -0.3464
 2357SOL    HW118707   0.069   1.641   4.224  0.7631 -0.9416  1.8288
 2357SOL    HW218708   4.703   1.603   4.139  0.6000 -0.5456 -0.3966
 2358SOL     OW18709   3.428   2.062   6.409  0.0281  0.0527 -0.2524
 2358SOL    HW118710   3.512   2.086   6.448 -0.4034 -0.4872  1.0160
 2358SOL    HW218711   3.373   2.138   6.427  0.4847  0.1588  0.7197
 2359SOL     OW18712   3.455   4.283   8.553 -0.3319 -0.1830 -0.9357
 2359SOL    HW118713   3.440   4.191   8.530  4.1052 -0.2975 -3.3770
 2359SOL    HW218714   3.381   4.307   8.609  1.0756  2.0337 -0.0324
 2360SOL     OW18715   0.879   2.043  14.738  0.0443 -0.0808 -0.9407
 2360SOL    HW118716   0.898   2.000  14.821 -2.3756 -2.6313 -1.6945
 2360SOL    HW218717   0.853   1.977  14.673  0.9878 -0.3971 -1.0034
 2361SOL     OW18718   3.655   1.745   2.784 -0.1281  0.3899 -0.0289
 2361SOL    HW118719   3.664   1.706   2.697 -1.1896 -1.4083  0.6661
 2361SOL    HW218720   3.608   1.681   2.838 -1.1553  0.2166 -1.1219
 2362SOL     OW18721   4.225   3.815  10.904 -0.1533  0.2595  0.8292
 2362SOL    HW118722   4.232   3.842  10.812  1.5305  0.2600  0.9587
 2362SOL    HW218723   4.291   3.864  10.953  0.2819  1.9057 -1.3841
 2363SOL     OW18724   1.561   4.550  10.478 -0.5556 -0.0333 -0.4270
 2363SOL    HW118725   1.604   4.552  10.393  1.2150  1.5487  0.5195
 2363SOL    HW218726   1.593   4.467  10.514 -0.3638  0.8855  1.5211
 2364SOL     OW18727   2.283   4.045   2.977 -0.3277  0.0349  0.0974
 2364SOL    HW118728   2.223   4.059   2.904 -0.1475 -2.2533 -0.4631
 2364SOL    HW218729   2.328   4.127   2.999  0.7409 -0.7887  0.9693
 2365SOL     OW18730   0.858   1.939   1.301 -0.3336 -0.4203  0.1895
 2365SOL    HW118731   0.844   1.917   1.209  4.2719 -1.1961 -0.3523
 2365SOL    HW218732   0.838   2.032   1.306  0.1613 -0.2700 -0.5501
 2366SOL     OW18733   0.482   3.630   5.033 -0.0402  0.0768 -0.4391
 2366SOL    HW118734   0.567   3.663   5.063 -0.2768 -0.4451  0.7995
 2366SOL    HW218735   0.417   3.685   5.078  2.3733  0.5173  2.5359
 2367SOL     OW18736   0.660   3.874  12.854 -0.5043  0.1678  1.2752
 2367SOL    HW118737   0.700   3.802  12.902 -0.3457  0.5620  1.7347
 2367SOL    HW218738   0.729   3.939  12.868 -0.7889  0.9435 -1.0394
 2368SOL     OW18739   3.043   0.419   1.275  0.4786 -0.1995 -0.3549
 2368SOL    HW118740   3.048   0.327   1.249  0.5705 -0.5749  1.0002
 2368SOL    HW218741   2.980   0.408   1.346  0.7514  2.2637  0.2597
 2369SOL     OW18742   0.804   2.878   4.066  0.3175 -0.1206 -0.5811
 2369SOL    HW118743   0.759   2.959   4.088 -0.7736 -1.2305  1.3467
 2369SOL    HW218744   0.898   2.892   4.077  0.2867 -1.0883  0.9182
 2370SOL     OW18745   1.503   1.082   3.538  0.6292  0.2115 -0.0930
 2370SOL    HW118746   1.462   1.159   3.498 -1.4939 -0.9210 -0.0786
 2370SOL    HW218747   1.502   1.121   3.626 -1.6995 -0.1031  0.0168
 2371SOL     OW18748   1.875   2.853   0.177 -0.2070  0.2848  0.0323
 2371SOL    HW118749   1.895   2.838   0.085 -2.4978  0.2659 -0.4571
 2371SOL    HW218750   1.953   2.900   0.206 -0.4924  1.7412 -1.5516
 2372SOL     OW18751   1.535   3.263  16.633  0.3206 -0.2632  0.2970
 2372SOL    HW118752   1.588   3.274  16.712 -0.3416 -0.2301  0.7310
 2372SOL    HW218753   1.470   3.332  16.646  2.6268  1.4687  2.6580
 2373SOL     OW18754   2.886   2.207  12.327 -0.3803  0.1011 -0.4703
 2373SOL    HW118755   2.968   2.166  12.300  0.2344  1.5071 -0.7590
 2373SOL    HW218756   2.875   2.279  12.264 -1.0781 -1.2288 -1.8576
 2374SOL     OW18757   0.395   4.055   8.811  0.4546  0.0998 -0.5971
 2374SOL    HW118758   0.377   4.133   8.863 -0.7219  0.1348 -1.0441
 2374SOL    HW218759   0.340   4.064   8.733 -2.7781 -0.6139  1.6164
 2375SOL     OW18760   4.020   0.715   3.459  0.0173 -0.8760 -0.2992
 2375SOL    HW118761   3.999   0.670   3.541 -1.9905  2.0663  0.8108
 2375SOL    HW218762   3.938   0.754   3.430 -0.4841 -0.8122  1.1899
 2376SOL     OW18763   2.827   1.163   8.198  1.1803  0.4951 -0.6579
 2376SOL    HW118764   2.872   1.080   8.214 -3.6277 -1.9895 -0.0715
 2376SOL    HW218765   2.789   1.182   8.283 -0.3430  0.4082 -1.3202
 2377SOL     OW18766   3.844   2.565   6.320  0.5073 -0.1121  0.2175
 2377SOL    HW118767   3.927   2.522   6.335 -0.7709 -2.7594 -0.4379
 2377SOL    HW218768   3.852   2.640   6.380 -1.8044 -0.6603  1.2301
 2378SOL     OW18769   3.934   4.525   0.333 -0.3820 -0.2540 -0.2589
 2378SOL    HW118770   3.948   4.526   0.238  0.8544  2.2223 -0.0465
 2378SOL    HW218771   3.922   4.431   0.346 -0.8850 -0.2514 -0.7133
 2379SOL     OW18772   1.302   0.221   5.149 -0.6029  0.0985 -0.5624
 2379SOL    HW118773   1.336   0.155   5.209 -0.9035  0.3405 -0.1289
 2379SOL    HW218774   1.376   0.227   5.089  0.4004 -1.3141  0.5494
 2380SOL     OW18775   3.774   3.118  12.094  0.1688 -0.5069  0.0195
 2380SOL    HW118776   3.691   3.159  12.116  0.0571  0.7743 -2.7227
 2380SOL    HW218777   3.807   3.077  12.174  0.9052  1.0451  0.5186
 2381SOL     OW18778   2.550   3.416  14.988  0.0764  0.1904 -0.5190
 2381SOL    HW118779   2.559   3.458  15.074 -2.8135 -0.6668  0.1985
 2381SOL    HW218780   2.630   3.443  14.943  1.0951  0.1996  1.3043
 2382SOL     OW18781   3.160   2.744  14.564  0.0170 -0.0899  0.2231
 2382SOL    HW118782   3.125   2.659  14.588 -2.7761  0.3216 -2.3912
 2382SOL    HW218783   3.206   2.726  14.482 -1.7269  2.2323 -1.2680
 2383SOL     OW18784   0.834   1.386  17.586 -0.2828  0.4590  0.0299
 2383SOL    HW118785   0.801   1.315  17.640  3.3779 -2.0968 -1.1438
 2383SOL    HW218786   0.753   1.398  17.535 -0.1192  0.2556 -0.2747
 2384SOL     OW18787   3.343   0.892   8.048 -0.5511  0.2130 -0.3470
 2384SOL    HW118788   3.377   0.805   8.029  0.7646  0.0110  2.9695
 2384SOL    HW218789   3.262   0.882   7.997 -0.4766  0.5215 -0.5294
 2385SOL     OW18790   1.134   4.080   8.606  0.6570 -0.2985 -0.0990
 2385SOL    HW118791   1.175   4.046   8.526 -0.3587 -0.6951 -0.4533
 2385SOL    HW218792   1.093   4.003   8.644 -1.6177  2.2091  2.5531
 2386SOL     OW18793   2.088   0.471   4.981 -0.0214 -0.3285 -0.1459
 2386SOL    HW118794   2.026   0.488   4.910 -0.3864  0.8930  0.4593
 2386SOL    HW218795   2.080   0.554   5.029 -1.0301 -0.4237 -0.1457
 2387SOL     OW18796   2.135   1.161   6.447 -0.3130 -0.2451 -0.3864
 2387SOL    HW118797   2.050   1.198   6.423  0.0911  1.3823  0.7871
 2387SOL    HW218798   2.184   1.242   6.454  2.0924 -1.6792 -0.4668
 2388SOL     OW18799   1.635   1.344  13.970 -0.3221 -0.7042  0.6794
 2388SOL    HW118800   1.545   1.328  13.940  0.2111 -0.2588 -1.1600
 2388SOL    HW218801   1.693   1.326  13.896 -0.4434  0.2110  0.3650
 2389SOL     OW18802   0.092   1.078   4.796 -0.4729  0.2787  0.4808
 2389SOL    HW118803   0.160   1.057   4.732  0.2280  1.4601  0.8435
 2389SOL    HW218804   0.127   1.039   4.876 -0.2004  2.4755  1.4507
 2390SOL     OW18805   2.830   4.576  13.972  0.3811 -0.1331  0.4929
 2390SOL    HW118806   2.857   4.649  13.917  0.5669 -0.0048  0.7580
 2390SOL    HW218807   2.892   4.504  13.962  1.3967  0.9767 -1.2645
 2391SOL     OW18808   1.979   1.616  16.378 -0.0855 -0.1716  0.2253
 2391SOL    HW118809   1.991   1.707  16.404  0.4169 -0.1094 -0.2406
 2391SOL    HW218810   2.069   1.589  16.362 -0.9583  0.5179 -5.7917
 2392SOL     OW18811   4.030   2.954   4.205 -0.7459 -0.5966 -0.1914
 2392SOL    HW118812   4.065   2.874   4.167 -0.7578 -0.4662 -0.4731
 2392SOL    HW218813   4.100   2.995   4.255 -1.1467  0.4354 -0.4735
 2393SOL     OW18814   3.645   1.856   3.524  0.0862 -0.2974 -0.0032
 2393SOL    HW118815   3.576   1.813   3.573  0.9364 -1.1624  0.4353
 2393SOL    HW218816   3.644   1.801   3.446  0.8750 -0.2552 -0.0446
 2394SOL     OW18817   4.737   1.072   4.430 -0.7262  0.5171 -0.6797
 2394SOL    HW118818   0.005   1.164   4.403 -0.2176  0.7007  0.0760
 2394SOL    HW218819   0.021   1.073   4.523  2.1541  0.3791 -1.3627
 2395SOL     OW18820   2.088   2.093  11.467 -0.1048  0.0384 -0.6803
 2395SOL    HW118821   2.093   2.163  11.402  1.0031 -0.9183 -1.6226
 2395SOL    HW218822   2.175   2.053  11.460  0.1573  0.0992  2.3035
 2396SOL     OW18823   3.245   3.336   5.068  0.2115  0.1432 -1.3338
 2396SOL    HW118824   3.210   3.304   4.985  0.3906 -0.2555 -1.2512
 2396SOL    HW218825   3.332   3.299   5.054  0.2146  0.3539 -1.9179
 2397SOL     OW18826   0.774   3.678  13.810 -0.2908 -0.1560  0.3477
 2397SOL    HW118827   0.823   3.749  13.769 -1.5500  0.1923 -0.5354
 2397SOL    HW218828   0.741   3.725  13.886  0.5902  0.0117  0.6358
 2398SOL     OW18829   2.088   1.964  11.882 -0.3242  0.1812 -0.3100
 2398SOL    HW118830   2.177   1.944  11.912 -0.1971  0.9653 -0.1679
 2398SOL    HW218831   2.082   1.912  11.802 -2.1610  1.0756 -0.7506
 2399SOL     OW18832   3.466   3.887  10.038 -0.1422  0.1939 -0.1152
 2399SOL    HW118833   3.524   3.921  10.106  0.0908  1.1659 -0.8103
 2399SOL    HW218834   3.479   3.943   9.961  1.3516  0.1684  0.1287
 2400SOL     OW18835   1.092   1.991   8.839 -0.5082 -0.5092 -0.1682
 2400SOL    HW118836   1.035   2.009   8.914  0.1480  0.4722  0.0984
 2400SOL    HW218837   1.123   1.906   8.869  2.6863  0.1821 -1.5619
 2401SOL     OW18838   1.373   2.441  11.661 -0.2133 -0.3126  0.2071
 2401SOL    HW118839   1.460   2.410  11.633 -0.4139 -0.2380 -0.4983
 2401SOL    HW218840   1.397   2.525  11.701 -2.4136 -0.4205  1.7588
 2402SOL     OW18841   2.246   4.399   5.855  0.0628  0.4493  0.0139
 2402SOL    HW118842   2.291   4.333   5.908 -0.9985 -0.6356 -0.4430
 2402SOL    HW218843   2.153   4.379   5.854  0.6335 -2.3936  1.9535
 2403SOL     OW18844   1.807   3.293   8.962  0.1608  0.5031  0.4801
 2403SOL    HW118845   1.712   3.296   8.973 -0.0571 -1.6573 -0.9198
 2403SOL    HW218846   1.821   3.248   8.879  1.2839  2.0745 -0.2017
 2404SOL     OW18847   2.521   1.840   1.357 -0.2332 -1.0530  0.6263
 2404SOL    HW118848   2.456   1.886   1.411 -0.9640  0.4557 -1.5764
 2404SOL    HW218849   2.602   1.872   1.397  1.1196 -1.7690 -1.5678
 2405SOL     OW18850   0.704   1.566   5.094  0.2490  0.3694 -0.4113
 2405SOL    HW118851   0.730   1.577   5.185 -0.7801  0.4413 -0.1298
 2405SOL    HW218852   0.640   1.496   5.104 -1.2327  1.9219  0.8913
 2406SOL     OW18853   2.440   2.787   7.250  0.5443  0.2384 -0.3199
 2406SOL    HW118854   2.432   2.879   7.223 -0.2409  0.1122 -0.4859
 2406SOL    HW218855   2.412   2.801   7.341  0.0264  0.3551 -0.5023
 2407SOL     OW18856   3.519   1.870  11.515 -0.8607  0.1721  0.4181
 2407SOL    HW118857   3.430   1.841  11.536 -1.3839  2.3924  1.2375
 2407SOL    HW218858   3.505   1.961  11.491 -1.5597 -0.0024  0.1580
 2408SOL     OW18859   3.642   0.625   4.369  0.6353 -0.1496  0.6000
 2408SOL    HW118860   3.663   0.661   4.456  1.1633 -0.5776  0.6524
 2408SOL    HW218861   3.662   0.704   4.318  0.3536 -0.4451  0.0389
 2409SOL     OW18862   1.100   2.671   7.923 -0.6349 -0.0066  0.5530
 2409SOL    HW118863   1.172   2.710   7.873 -1.8970  1.6983  0.0798
 2409SOL    HW218864   1.039   2.745   7.917  0.9112  1.2645  0.4455
 2410SOL     OW18865   3.482   4.610   6.067 -0.4516  0.2412  0.4103
 2410SOL    HW118866   3.451   4.520   6.078 -1.0258  0.2662 -0.9782
 2410SOL    HW218867   3.544   4.586   5.998 -1.1225 -0.3536  0.0206
 2411SOL     OW18868   3.361   2.488  10.286  0.3449 -0.0963 -0.2301
 2411SOL    HW118869   3.368   2.401  10.326  1.1652  0.1502  0.1442
 2411SOL    HW218870   3.382   2.538  10.365 -1.7516 -0.8530  0.8232
 2412SOL     OW18871   2.540   2.648  17.461 -0.4590 -0.7285  0.9627
 2412SOL    HW118872   2.629   2.617  17.443 -1.3895 -2.5656 -0.4501
 2412SOL    HW218873   2.554   2.702  17.538  1.3636  1.5263 -0.9531
 2413SOL     OW18874   0.759   0.930   1.764 -0.3521 -0.2991 -0.4331
 2413SOL    HW118875   0.772   0.868   1.835 -1.1665  1.9799  1.6865
 2413SOL    HW218876   0.665   0.944   1.774 -0.7032 -1.2606 -2.2889
 2414SOL     OW18877   4.716   4.312   3.552 -0.2496 -0.0916 -0.0100
 2414SOL    HW118878   0.056   4.271   3.588 -0.6851  0.2216  1.3271
 2414SOL    HW218879   4.696   4.249   3.483 -1.1581 -0.7919  0.8833
 2415SOL     OW18880   3.694   1.494   2.599  0.2852  0.3176 -0.0119
 2415SOL    HW118881   3.722   1.463   2.685  0.0929  1.4519  0.4471
 2415SOL    HW218882   3.762   1.471   2.535 -1.3150 -1.2274 -1.1539
 2416SOL     OW18883   2.808   4.697  10.575 -0.0286  0.7703  0.1599
 2416SOL    HW118884   2.767   0.044  10.575  0.5528  1.0533  1.3862
 2416SOL    HW218885   2.811   4.675  10.482 -1.6046 -0.8236  0.4899
 2417SOL     OW18886   0.186   3.585   9.823  0.3203 -0.2439  0.2390
 2417SOL    HW118887   0.163   3.670   9.785 -2.5432 -1.6279 -1.1382
 2417SOL    HW218888   0.228   3.547   9.746 -1.2726 -0.8344 -0.3331
 2418SOL     OW18889   3.154   1.798  13.337  0.4180 -0.3521 -0.0588
 2418SOL    HW118890   3.200   1.773  13.417  0.6188  0.8558  0.1933
 2418SOL    HW218891   3.197   1.736  13.279  0.1188 -1.1665  0.5760
 2419SOL     OW18892   2.367   1.366   5.876 -0.1390 -0.5866  0.2726
 2419SOL    HW118893   2.442   1.408   5.834  0.2926 -1.9724 -0.3249
 2419SOL    HW218894   2.336   1.438   5.931 -0.4190 -1.5145  1.3326
 2420SOL     OW18895   0.463   2.142   7.076  0.1225  0.2002 -0.0946
 2420SOL    HW118896   0.538   2.144   7.017  0.2578  0.2267  0.0779
 2420SOL    HW218897   0.506   2.135   7.162  1.3007  0.8203 -0.6300
 2421SOL     OW18898   2.267   3.948   7.865 -0.1635 -0.1099  0.4504
 2421SOL    HW118899   2.308   3.867   7.897  0.3152  0.3963  1.1204
 2421SOL    HW218900   2.310   4.020   7.911  0.3751  0.6194 -1.1943
 2422SOL     OW18901   3.003   3.030  13.192  0.0921 -0.4224 -0.0447
 2422SOL    HW118902   2.920   3.065  13.162 -0.3365  0.5834  2.3400
 2422SOL    HW218903   3.035   2.985  13.114 -2.5942  0.0254 -1.3600
 2423SOL     OW18904   3.624   2.248  13.610 -0.3806  0.3229  0.4905
 2423SOL    HW118905   3.533   2.232  13.636 -0.8982 -0.3851 -1.8151
 2423SOL    HW218906   3.653   2.302  13.684  0.5235 -1.7540  1.6497
 2424SOL     OW18907   0.023   3.586   3.158  0.1602  0.1710  0.3693
 2424SOL    HW118908   4.699   3.528   3.114  1.3049 -0.3824 -0.5220
 2424SOL    HW218909   4.739   3.575   3.251  0.2985 -1.9727  0.1482
 2425SOL     OW18910   0.515   4.463   6.874  0.0872  0.0145  0.3852
 2425SOL    HW118911   0.562   4.466   6.957  1.7847 -0.1739 -0.5563
 2425SOL    HW218912   0.515   4.555   6.848  0.5947 -0.9544 -3.0728
 2426SOL     OW18913   3.872   2.134   7.698 -0.2966  0.4510  0.1178
 2426SOL    HW118914   3.944   2.185   7.733  0.1215 -1.2464  1.7301
 2426SOL    HW218915   3.814   2.202   7.665  1.2908  2.0916  0.7475
 2427SOL     OW18916   1.552   1.505   3.467 -0.2036  0.0961  0.5450
 2427SOL    HW118917   1.563   1.438   3.400 -0.0475 -0.7331  1.3944
 2427SOL    HW218918   1.549   1.577   3.404  1.6615 -0.7099 -0.4487
 2428SOL     OW18919   1.340   0.140  11.117 -0.7492  0.0898 -0.0445
 2428SOL    HW118920   1.395   0.109  11.189 -0.8668  5.2594  2.2500
 2428SOL    HW218921   1.398   0.173  11.049  1.3335  1.0584  2.1915
 2429SOL     OW18922   1.606   0.207   0.584 -0.2028  0.0621 -0.5105
 2429SOL    HW118923   1.586   0.298   0.606  1.8659  0.2618  0.4685
 2429SOL    HW218924   1.539   0.157   0.631  0.0244  1.7018  1.5286
 2430SOL     OW18925   0.449   1.927  10.572  0.0877  0.5857 -0.8079
 2430SOL    HW118926   0.511   1.891  10.509 -0.2716 -1.3864 -0.0204
 2430SOL    HW218927   0.368   1.905  10.526 -0.4493  3.0624 -1.0841
 2431SOL     OW18928   0.791   3.221   8.373 -0.4808  0.1680 -0.0967
 2431SOL    HW118929   0.796   3.145   8.314  1.6122  0.8073 -0.7369
 2431SOL    HW218930   0.701   3.254   8.370 -0.6597 -0.2947  0.1698
 2432SOL     OW18931   1.289   0.790   5.782  0.4043  0.3268 -0.3356
 2432SOL    HW118932   1.372   0.837   5.772  0.1062  0.8186 -0.4911
 2432SOL    HW218933   1.320   0.717   5.835 -0.4371 -0.2470 -0.6302
 2433SOL     OW18934   3.426   2.567   6.942  0.6396 -0.1404  0.3380
 2433SOL    HW118935   3.400   2.475   6.953 -1.4068  0.3630 -0.1914
 2433SOL    HW218936   3.521   2.560   6.935  0.6254  0.7622 -0.7388
 2434SOL     OW18937   1.781   4.113   4.774 -0.0001  0.7384 -0.7691
 2434SOL    HW118938   1.839   4.089   4.846  0.0210  1.1701 -0.6403
 2434SOL    HW218939   1.728   4.181   4.816 -0.0380  0.2979 -0.1026
 2435SOL     OW18940   3.326   3.552  15.579 -0.2613 -0.0002  0.0860
 2435SOL    HW118941   3.359   3.516  15.661 -0.2117  1.7070  0.8232
 2435SOL    HW218942   3.410   3.558  15.535  0.0400 -0.2162  0.6304
 2436SOL     OW18943   1.005   1.343   3.484  1.2201  0.2035  0.1647
 2436SOL    HW118944   1.080   1.395   3.453  0.6376  0.5121 -0.7341
 2436SOL    HW218945   1.031   1.329   3.575 -1.3299 -0.0273  0.8406
 2437SOL     OW18946   4.676   3.727   3.715 -0.0574 -0.8240 -0.0685
 2437SOL    HW118947   4.589   3.760   3.697 -0.0313 -1.4876 -1.3948
 2437SOL    HW218948   4.682   3.755   3.806 -1.1346  1.2501 -0.6512
 2438SOL     OW18949   3.198   4.630   5.221  0.4111  0.3687  0.2979
 2438SOL    HW118950   3.126   4.654   5.162 -2.9357 -3.3571  2.8229
 2438SOL    HW218951   3.264   4.697   5.204  0.0349  0.6715  0.0288
 2439SOL     OW18952   4.696   0.085   5.784 -0.3430 -0.2236 -0.3630
 2439SOL    HW118953   0.022   0.022   5.816 -1.4041 -1.7328 -1.1986
 2439SOL    HW218954   4.633   0.018   5.758 -0.3970 -0.8767  1.4191
 2440SOL     OW18955   4.235   3.908   1.714 -0.8640 -0.5044 -0.2419
 2440SOL    HW118956   4.209   3.907   1.622  1.7389  1.1755 -1.0169
 2440SOL    HW218957   4.300   3.978   1.723  0.3451 -1.9223  1.9814
 2441SOL     OW18958   0.692   1.527   3.903  0.3167 -0.0379 -0.1902
 2441SOL    HW118959   0.701   1.608   3.953  1.0093 -0.9252  1.1019
 2441SOL    HW218960   0.767   1.537   3.844 -0.5010 -1.2810 -1.4577
 2442SOL     OW18961   1.380   0.255   5.685  0.2467  0.3058  0.1779
 2442SOL    HW118962   1.352   0.166   5.707 -1.0890  0.9211  0.9807
 2442SOL    HW218963   1.329   0.277   5.607 -0.3221 -1.0734  0.1496
 2443SOL     OW18964   1.093   4.702   5.232  0.2460 -0.0594  0.4669
 2443SOL    HW118965   1.000   4.678   5.234  0.3552 -0.2975  2.2073
 2443SOL    HW218966   1.119   4.637   5.166 -0.7350  3.0647 -2.9756
 2444SOL     OW18967   1.056   2.736   6.982  0.4223  0.2772  0.2686
 2444SOL    HW118968   1.045   2.655   6.933  1.3152  1.7437 -2.4230
 2444SOL    HW218969   0.968   2.744   7.017  0.5533 -0.8692  0.8401
 2445SOL     OW18970   2.480   3.559   6.597 -0.0950  0.0232  0.0735
 2445SOL    HW118971   2.429   3.639   6.580 -0.9973 -0.4862  0.3630
 2445SOL    HW218972   2.465   3.513   6.515  0.6834 -0.9330  0.4774
 2446SOL     OW18973   2.101   0.877  12.871 -0.0036 -0.3746  0.3336
 2446SOL    HW118974   2.099   0.879  12.966  0.2788 -3.3123  0.4068
 2446SOL    HW218975   2.013   0.909  12.852  0.1370  0.4344  1.1001
 2447SOL     OW18976   0.105   1.598   5.761 -0.1206  0.3263 -0.0893
 2447SOL    HW118977   0.157   1.599   5.842 -1.2504 -0.4705  0.6462
 2447SOL    HW218978   0.059   1.515   5.766  0.1092  0.1854 -0.3017
 2448SOL     OW18979   4.551   0.853  17.593  0.1777 -0.3439  0.0481
 2448SOL    HW118980   4.612   0.786  17.562  0.0004  0.0821 -1.2059
 2448SOL    HW218981   4.603   0.895  17.661 -2.7535  2.1600  0.7683
 2449SOL     OW18982   3.411   3.657  10.804  0.2240  0.0800 -0.4858
 2449SOL    HW118983   3.339   3.720  10.813 -0.1743 -0.3223 -0.8227
 2449SOL    HW218984   3.390   3.623  10.716 -1.1316  1.2207 -0.6040
 2450SOL     OW18985   1.160   4.061   5.065  0.0098  0.2779  0.0476
 2450SOL    HW118986   1.104   4.137   5.050 -1.3943 -1.0114 -1.2473
 2450SOL    HW218987   1.231   4.082   5.004 -2.8271 -0.6886 -3.6118
 2451SOL     OW18988   1.620   4.446   4.573 -0.1037  0.1862  0.1689
 2451SOL    HW118989   1.546   4.385   4.583  0.5064 -0.3290  1.6064
 2451SOL    HW218990   1.664   4.439   4.658  0.5001 -2.1446 -0.3514
 2452SOL     OW18991   1.128   3.118   3.571 -0.0770 -0.4612 -0.7674
 2452SOL    HW118992   1.206   3.167   3.595  0.0040 -0.5187 -0.9092
 2452SOL    HW218993   1.068   3.183   3.607  2.5474  1.4674  0.0841
 2453SOL     OW18994   4.144   2.645   3.492  0.2690 -0.8209  0.5896
 2453SOL    HW118995   4.227   2.683   3.521  0.2173 -0.8156  0.7313
 2453SOL    HW218996   4.158   2.551   3.506  0.8078 -0.9805 -0.9881
 2454SOL     OW18997   0.732   0.562   4.651  0.2318 -0.2252 -0.1218
 2454SOL    HW118998   0.801   0.615   4.690 -0.4872  0.0687  0.7553
 2454SOL    HW218999   0.768   0.527   4.569 -0.6179  0.1479 -0.6508
 2455SOL     OW19000   2.719   3.008   7.876  0.1054  0.1423  0.2066
 2455SOL    HW119001   2.743   3.100   7.864  1.2428 -0.2726 -0.6223
 2455SOL    HW219002   2.748   2.996   7.966  0.7547 -0.8844 -0.1490
 2456SOL     OW19003   3.519   1.764   8.664  0.2442 -0.4261 -0.3911
 2456SOL    HW119004   3.582   1.705   8.707 -1.3791 -1.6340  0.3459
 2456SOL    HW219005   3.438   1.730   8.702  0.3607 -1.8540 -1.3978
 2457SOL     OW19006   3.499   0.911   8.602 -0.1200 -0.0132  0.2634
 2457SOL    HW119007   3.405   0.894   8.597 -0.2502 -0.0636  2.8806
 2457SOL    HW219008   3.504   0.974   8.673 -1.4046  0.1845  0.1772
 2458SOL     OW19009   0.681   0.473   0.040 -0.1620 -0.0234  0.0599
 2458SOL    HW119010   0.764   0.425   0.042  0.9429  1.8510 -1.3862
 2458SOL    HW219011   0.624   0.410   0.085 -1.0020  0.3471 -0.4876
 2459SOL     OW19012   4.258   1.066   1.974  0.5274 -0.2675 -0.2807
 2459SOL    HW119013   4.292   1.019   2.051  0.6038 -1.9734 -1.3381
 2459SOL    HW219014   4.173   1.024   1.964  0.2580 -0.1475  1.4491
 2460SOL     OW19015   2.305   1.654   5.990  0.3356  0.1188 -0.3921
 2460SOL    HW119016   2.304   1.643   6.085 -0.6657 -1.3442 -0.5760
 2460SOL    HW219017   2.238   1.716   5.963  0.6593  0.1880 -1.0271
 2461SOL     OW19018   1.881   0.816   6.875  0.0616 -0.7280  0.6316
 2461SOL    HW119019   1.919   0.897   6.908 -1.4140  0.2511 -0.1022
 2461SOL    HW219020   1.789   0.835   6.857  0.7284  0.2199 -1.6888
 2462SOL     OW19021   0.380   1.257  17.229 -0.7659  0.7259  0.6572
 2462SOL    HW119022   0.293   1.236  17.261 -0.4278 -0.5335  0.7284
 2462SOL    HW219023   0.379   1.241  17.135  0.5729 -2.0647  1.1318
 2463SOL     OW19024   3.720   0.486   5.532 -0.2291 -0.0271  0.0485
 2463SOL    HW119025   3.705   0.398   5.565  2.1843 -0.5159 -0.1645
 2463SOL    HW219026   3.644   0.500   5.474  0.3933  0.2903 -0.6867
 2464SOL     OW19027   3.261   2.733   7.423  0.0411 -0.3875 -0.4484
 2464SOL    HW119028   3.172   2.768   7.433  0.1027  0.0853 -1.6302
 2464SOL    HW219029   3.237   2.642   7.440 -2.0873  0.4268  0.8515
 2465SOL     OW19030   1.144   3.198  11.294 -0.5230 -0.0593 -0.4062
 2465SOL    HW119031   1.140   3.105  11.272 -0.4659  0.4927 -2.7753
 2465SOL    HW219032   1.152   3.188  11.389  0.1903 -0.2068 -0.4798
 2466SOL     OW19033   3.060   2.988  14.616  0.0715 -0.3259 -0.4901
 2466SOL    HW119034   3.115   2.913  14.597 -0.3119 -1.1561  1.6599
 2466SOL    HW219035   2.974   2.948  14.631  0.2022 -0.1989  0.5992
 2467SOL     OW19036   0.447   0.801  16.827  0.1025 -0.0488  0.2707
 2467SOL    HW119037   0.367   0.794  16.775  0.9908 -2.3474 -0.7552
 2467SOL    HW219038   0.476   0.890  16.806  0.1221 -0.9237 -3.3639
 2468SOL     OW19039   0.615   0.690   8.106 -0.2072  0.4264 -0.3551
 2468SOL    HW119040   0.675   0.677   8.032 -0.2209 -1.1121 -0.0921
 2468SOL    HW219041   0.564   0.610   8.093 -2.2011  1.6853 -0.2744
 2469SOL     OW19042   3.171   0.413   2.309  0.4113  0.0244  0.4341
 2469SOL    HW119043   3.160   0.341   2.247 -1.3370 -0.8021  1.6974
 2469SOL    HW219044   3.120   0.381   2.383 -1.0124  3.1655  0.8554
 2470SOL     OW19045   1.988   4.443   0.465  0.1912 -0.1108  0.6781
 2470SOL    HW119046   2.066   4.498   0.470 -0.7587  1.0918  2.3965
 2470SOL    HW219047   2.026   4.356   0.455 -1.0545 -0.5186 -0.5641
 2471SOL     OW19048   4.403   4.411   5.608 -0.0031 -0.6463  0.1961
 2471SOL    HW119049   4.401   4.350   5.534 -0.1043  2.1348 -2.0726
 2471SOL    HW219050   4.422   4.347   5.677 -1.3371 -2.7134 -1.3640
 2472SOL     OW19051   1.152   3.644   0.750  0.6291 -0.3546  0.5779
 2472SOL    HW119052   1.243   3.627   0.773  1.1418  3.1467  1.1620
 2472SOL    HW219053   1.104   3.568   0.782  2.7911 -2.9656 -2.3859
 2473SOL     OW19054   0.286   3.189   4.346 -0.6560  0.1147  0.2206
 2473SOL    HW119055   0.242   3.274   4.354 -1.1061 -0.3687  2.8757
 2473SOL    HW219056   0.213   3.128   4.335  0.3116 -0.9298 -0.3870
 2474SOL     OW19057   0.083   4.027   4.220  0.1197 -0.0423  0.0402
 2474SOL    HW119058   0.036   4.078   4.154  1.6174 -0.3105 -1.2306
 2474SOL    HW219059   0.170   4.066   4.222 -0.1445  0.6453 -2.6280
 2475SOL     OW19060   0.650   3.887  12.576  0.3338 -0.6319 -0.2944
 2475SOL    HW119061   0.697   3.967  12.600  2.1976 -1.8648  0.0833
 2475SOL    HW219062   0.679   3.837  12.652  2.1399 -0.9097 -1.1679
 2476SOL     OW19063   1.682   2.016   4.534  0.5981  0.4443  0.3818
 2476SOL    HW119064   1.716   2.068   4.606  2.0231 -0.5702  0.4407
 2476SOL    HW219065   1.735   1.938   4.550 -2.8893 -2.3861 -1.5121
 2477SOL     OW19066   1.233   3.090   2.977 -0.4827  0.1468  0.7045
 2477SOL    HW119067   1.151   3.125   3.012 -0.1919  0.4614  1.0708
 2477SOL    HW219068   1.251   3.156   2.909 -0.4965  1.1840  1.7098
 2478SOL     OW19069   4.171   3.465   5.382  0.1149  0.2495 -0.2807
 2478SOL    HW119070   4.202   3.391   5.434  0.6950 -0.5644 -1.7875
 2478SOL    HW219071   4.202   3.438   5.295 -0.4875  2.5333 -1.2039
 2479SOL     OW19072   0.770   2.904  13.060  0.1244  0.2926 -0.1799
 2479SOL    HW119073   0.748   2.997  13.071  0.5004 -0.0003  3.0650
 2479SOL    HW219074   0.860   2.907  13.027 -0.3721  2.1096 -1.4176
 2480SOL     OW19075   4.576   1.985  16.812  0.3999  0.2534  0.0715
 2480SOL    HW119076   4.492   1.981  16.767  0.8917 -0.0020 -0.8140
 2480SOL    HW219077   4.627   1.922  16.760  0.6869  2.0580 -1.8226
 2481SOL     OW19078   4.518   0.374   5.377  0.2291  0.1267 -0.2971
 2481SOL    HW119079   4.571   0.343   5.450  1.4687  1.0720 -0.7826
 2481SOL    HW219080   4.483   0.456   5.410  1.2416  0.5042 -0.1361
 2482SOL     OW19081   1.188   3.803   6.316 -0.1326 -0.5841  0.0409
 2482SOL    HW119082   1.124   3.755   6.369  0.9245 -0.7958  1.1381
 2482SOL    HW219083   1.148   3.890   6.305 -0.8701 -1.0210 -0.6579
 2483SOL     OW19084   0.193   2.084   2.488 -0.3726  0.6285 -0.7683
 2483SOL    HW119085   0.124   2.040   2.538 -1.6142  2.5696 -0.7488
 2483SOL    HW219086   0.259   2.107   2.554  0.3497 -1.1507 -0.8853
 2484SOL     OW19087   2.609   0.839   4.770 -0.2060 -0.3997 -0.5439
 2484SOL    HW119088   2.591   0.827   4.864 -0.5282  1.3874 -0.3763
 2484SOL    HW219089   2.532   0.878   4.728 -0.6942 -0.1645  0.5694
 2485SOL     OW19090   0.762   0.530   7.932  1.4377 -0.3834  0.2478
 2485SOL    HW119091   0.769   0.465   8.002 -0.5094 -0.3093  0.4886
 2485SOL    HW219092   0.796   0.478   7.859 -1.2880 -0.3094 -1.0589
 2486SOL     OW19093   0.602   0.062   3.830 -0.2210  0.1779  0.1956
 2486SOL    HW119094   0.560   0.147   3.815  0.2246 -0.0924 -2.4450
 2486SOL    HW219095   0.670   0.068   3.763 -0.2068 -1.6468  0.0332
 2487SOL     OW19096   3.799   1.509   5.711  0.0462 -0.6104  0.4259
 2487SOL    HW119097   3.835   1.421   5.696  0.8864 -0.6157  2.4688
 2487SOL    HW219098   3.881   1.557   5.701  1.0329 -2.3973 -0.2591
 2488SOL     OW19099   2.274   1.811   0.833  0.6524 -0.1469  0.1275
 2488SOL    HW119100   2.328   1.848   0.903 -0.5520  0.7897  0.5680
 2488SOL    HW219101   2.254   1.882   0.772 -0.1919 -0.7322 -0.2804
 2489SOL     OW19102   0.482   2.951  11.555  0.0743 -0.2877 -0.0302
 2489SOL    HW119103   0.558   2.992  11.597 -1.0635 -1.3109  2.9927
 2489SOL    HW219104   0.525   2.885  11.501  2.6934  0.6590  0.8709
 2490SOL     OW19105   1.368   1.946   9.742  0.4915 -0.7070 -0.0155
 2490SOL    HW119106   1.413   1.969   9.823  0.6658  3.6765 -1.3766
 2490SOL    HW219107   1.276   1.960   9.765  0.7952 -0.2255  0.8886
 2491SOL     OW19108   4.727   0.455   4.770 -0.3258  0.1061  0.6718
 2491SOL    HW119109   4.700   0.372   4.809 -1.4877  0.8030  1.3436
 2491SOL    HW219110   4.638   0.475   4.740 -0.2650  1.5460  1.4558
 2492SOL     OW19111   0.159   0.819   1.755  0.2482 -0.1383 -0.6245
 2492SOL    HW119112   0.085   0.812   1.695  2.0333 -0.1909 -2.8154
 2492SOL    HW219113   0.205   0.737   1.736 -1.3274 -1.1564 -0.0668
 2493SOL     OW19114   0.895   3.102   6.778 -0.6821  0.3776 -0.3451
 2493SOL    HW119115   0.969   3.068   6.828 -1.7585 -0.5864  0.5836
 2493SOL    HW219116   0.939   3.133   6.699 -2.0162  0.9987 -0.8312
 2494SOL     OW19117   1.604   0.717  11.088 -0.2663 -0.0260 -0.5739
 2494SOL    HW119118   1.662   0.668  11.147 -1.5469 -1.2461 -0.3139
 2494SOL    HW219119   1.529   0.660  11.105  2.2691 -2.5744  2.1133
 2495SOL     OW19120   2.826   4.213  12.163 -0.1495  0.0379 -0.4126
 2495SOL    HW119121   2.879   4.156  12.218 -0.8005  0.7409  0.9315
 2495SOL    HW219122   2.877   4.220  12.082 -2.9051  0.7613 -2.1157
 2496SOL     OW19123   2.957   1.193   5.170 -0.3169  0.3252 -0.2098
 2496SOL    HW119124   2.954   1.106   5.132 -0.7117  0.6024 -0.8247
 2496SOL    HW219125   2.916   1.176   5.255 -0.0880  0.4754 -0.0704
 2497SOL     OW19126   2.544   1.801   3.905  0.3460 -0.1433 -0.2362
 2497SOL    HW119127   2.516   1.710   3.905  0.7426 -0.2654 -0.4969
 2497SOL    HW219128   2.522   1.814   3.997 -0.2501 -0.8751 -0.2760
 2498SOL     OW19129   1.006   4.047   5.399  0.1594  0.3788 -0.4011
 2498SOL    HW119130   1.068   4.059   5.471  0.5764 -1.5821 -0.4308
 2498SOL    HW219131   0.956   3.972   5.431 -0.7518  0.0703 -2.5498
 2499SOL     OW19132   3.091   0.095   4.825 -0.5345 -0.5553 -0.4605
 2499SOL    HW119133   3.030   0.086   4.898 -1.9784 -3.4230 -2.0459
 2499SOL    HW219134   3.144   0.016   4.829 -0.0629 -0.2401 -0.4930
 2500SOL     OW19135   3.935   0.975   5.826  0.0469  0.5619  0.6224
 2500SOL    HW119136   3.937   0.880   5.823 -1.5518  0.5669 -0.4754
 2500SOL    HW219137   3.851   0.984   5.869 -0.7045  0.1605 -0.7562
 2501SOL     OW19138   1.251   2.002   5.795 -0.9643  0.2141 -0.1902
 2501SOL    HW119139   1.270   2.015   5.702 -0.2520  1.1778  0.0848
 2501SOL    HW219140   1.205   2.084   5.816 -0.5142  0.5264 -0.4160
 2502SOL     OW19141   1.735   0.379   1.852 -0.2881  0.0339  0.3722
 2502SOL    HW119142   1.766   0.446   1.791 -3.5017  0.5126 -0.6951
 2502SOL    HW219143   1.807   0.315   1.853  0.5822  1.0066  0.5842
 2503SOL     OW19144   0.500   0.220  10.565 -0.0534 -0.2923 -0.2063
 2503SOL    HW119145   0.587   0.257  10.576 -0.2357 -0.4536  1.6815
 2503SOL    HW219146   0.496   0.170  10.646 -0.0026  0.2335  0.1170
 2504SOL     OW19147   4.632   4.187  17.292 -0.0799 -0.4979 -0.2046
 2504SOL    HW119148   4.720   4.222  17.304 -0.1122 -1.0882  1.7802
 2504SOL    HW219149   4.592   4.224  17.214  0.2740 -0.3704 -0.3239
 2505SOL     OW19150   2.562   1.906   7.332 -0.3402  0.5908 -0.1429
 2505SOL    HW119151   2.537   1.953   7.412 -1.5985 -1.0187  0.3929
 2505SOL    HW219152   2.543   1.816   7.357  3.2047  0.0770  0.7109
 2506SOL     OW19153   3.670   3.746   9.228  0.1546  0.3487  0.0685
 2506SOL    HW119154   3.747   3.730   9.173  0.1178 -1.5194  0.5448
 2506SOL    HW219155   3.673   3.663   9.277  1.0680  1.5649  2.0710
 2507SOL     OW19156   0.672   1.425   1.633  0.0640 -0.1160 -0.5705
 2507SOL    HW119157   0.704   1.347   1.677 -1.0422 -0.4610 -0.3745
 2507SOL    HW219158   0.584   1.393   1.613 -0.1685 -0.9535  1.7735
 2508SOL     OW19159   4.088   1.831  11.698 -0.4700  0.0541  0.0718
 2508SOL    HW119160   4.109   1.749  11.654  0.9788  1.4710 -1.8888
 2508SOL    HW219161   4.045   1.874  11.624 -0.4061  2.3487  1.3420
 2509SOL     OW19162   0.305   3.737  16.982 -0.3985  0.1472  0.0967
 2509SOL    HW119163   0.212   3.756  16.998 -0.4952  2.1842 -2.7293
 2509SOL    HW219164   0.301   3.642  16.985 -1.2533  0.3066  4.8311
 2510SOL     OW19165   2.669   1.546   8.996 -0.1460 -0.9743 -0.4999
 2510SOL    HW119166   2.669   1.573   8.904 -0.3302  0.2523 -0.1375
 2510SOL    HW219167   2.601   1.479   8.995 -1.3161  0.1986  2.1749
 2511SOL     OW19168   2.853   2.411   8.405  0.8623  0.5135  0.2789
 2511SOL    HW119169   2.795   2.337   8.420  1.1640  0.6089  1.9628
 2511SOL    HW219170   2.920   2.391   8.471 -2.6705  0.2086  3.7287
 2512SOL     OW19171   1.952   3.894   5.888 -0.3472 -0.2455  0.2393
 2512SOL    HW119172   1.889   3.946   5.838 -0.7821 -0.0761  0.9689
 2512SOL    HW219173   1.897   3.827   5.930 -0.5995 -0.3641 -0.2834
 2513SOL     OW19174   3.690   1.021   2.308 -0.1074  0.3601 -0.4699
 2513SOL    HW119175   3.662   0.942   2.264 -0.7517 -0.4067  1.2993
 2513SOL    HW219176   3.765   0.990   2.359  0.5338  0.6999 -1.2033
 2514SOL     OW19177   3.871   1.136  10.467  0.0740  0.3775  0.5676
 2514SOL    HW119178   3.958   1.147  10.428  0.4459 -1.0270  0.9913
 2514SOL    HW219179   3.863   1.041  10.456  1.1713  0.2455  0.9085
 2515SOL     OW19180   0.279   0.512  11.468  0.7377 -0.0777  0.1029
 2515SOL    HW119181   0.355   0.538  11.520  1.1630 -2.8469  0.8708
 2515SOL    HW219182   0.311   0.521  11.378  0.7518 -1.6460 -0.0487
 2516SOL     OW19183   3.365   3.018   8.909  0.2384 -0.2052 -0.5625
 2516SOL    HW119184   3.333   3.095   8.957 -0.4540 -0.4528 -0.6219
 2516SOL    HW219185   3.322   2.949   8.960 -1.0929  1.5597  0.6949
 2517SOL     OW19186   4.670   4.424   2.473 -0.1279  0.8185 -0.6269
 2517SOL    HW119187   4.576   4.420   2.454  0.0897 -2.1538 -0.9991
 2517SOL    HW219188   4.708   4.379   2.398  1.6386  1.7571 -0.3069
 2518SOL     OW19189   3.808   3.592   4.568  0.4903 -0.5271  0.1833
 2518SOL    HW119190   3.854   3.510   4.584  3.9763  1.3817 -0.0780
 2518SOL    HW219191   3.834   3.607   4.477 -0.4947 -3.4627 -0.5833
 2519SOL     OW19192   0.980   1.088   3.926 -0.2402  0.2087  0.3272
 2519SOL    HW119193   0.889   1.094   3.896  0.3847 -2.3928 -2.0950
 2519SOL    HW219194   0.981   1.035   4.005 -1.0205  1.7967  1.3909
 2520SOL     OW19195   0.800   1.258  15.062 -0.2870 -0.2405 -0.0755
 2520SOL    HW119196   0.709   1.229  15.068  0.0314 -2.1082 -3.7933
 2520SOL    HW219197   0.828   1.202  14.989  0.1747  1.5996 -1.2936
 2521SOL     OW19198   4.057   2.578   2.772 -0.7094  0.0393  0.7104
 2521SOL    HW119199   4.087   2.502   2.722 -3.5123 -0.6900  0.1662
 2521SOL    HW219200   3.965   2.553   2.763  0.0208 -1.9609 -1.3482
 2522SOL     OW19201   2.683   1.594   4.801 -0.3329  0.3243  0.1554
 2522SOL    HW119202   2.697   1.605   4.707 -0.7713  0.4196  0.1022
 2522SOL    HW219203   2.653   1.683   4.818  1.4627  0.7998  0.8466
 2523SOL     OW19204   0.955   4.204   9.485 -0.6760  0.3304  0.0546
 2523SOL    HW119205   1.041   4.242   9.499 -1.1577  2.1839 -1.8986
 2523SOL    HW219206   0.990   4.122   9.450  0.4769  0.9521 -0.2429
 2524SOL     OW19207   4.427   1.978  10.035 -0.1603 -0.2024 -0.4115
 2524SOL    HW119208   4.366   1.940  10.098  1.0337 -0.0459  0.8316
 2524SOL    HW219209   4.452   2.061  10.076  1.6785 -0.7662 -0.4116
 2525SOL     OW19210   1.035   2.556   8.527 -0.0945 -0.5593  0.2435
 2525SOL    HW119211   1.031   2.610   8.448 -0.1714 -0.4109  0.3479
 2525SOL    HW219212   1.094   2.482   8.512  1.0367  0.2962  0.4940
 2526SOL     OW19213   2.652   4.510  12.929 -0.4911  0.2629  0.2886
 2526SOL    HW119214   2.589   4.458  12.879 -0.6111  1.6131 -0.9637
 2526SOL    HW219215   2.732   4.483  12.883  0.0388 -1.0016  1.9808
 2527SOL     OW19216   0.422   1.362   3.250 -0.5269 -0.1348 -0.5303
 2527SOL    HW119217   0.398   1.424   3.319 -0.4413 -1.1999  0.4479
 2527SOL    HW219218   0.370   1.284   3.268  1.1629 -0.8497  1.2390
 2528SOL     OW19219   2.140   4.315   5.132  0.0559 -0.3515 -0.3124
 2528SOL    HW119220   2.082   4.386   5.106  1.8713  2.0605  2.2221
 2528SOL    HW219221   2.200   4.360   5.191  0.5471 -2.3258  0.6948
 2529SOL     OW19222   3.703   1.991  15.267 -0.4813  0.0313  0.1005
 2529SOL    HW119223   3.780   2.027  15.223 -0.1366  1.3754  1.7849
 2529SOL    HW219224   3.742   1.973  15.353 -0.4471 -0.6478 -0.0564
 2530SOL     OW19225   0.504   2.486   2.259 -0.2248 -0.1506  0.0071
 2530SOL    HW119226   0.490   2.393   2.277  0.7699 -0.2847  0.0710
 2530SOL    HW219227   0.569   2.499   2.328 -0.5872  0.9299  0.1421
 2531SOL     OW19228   1.088   1.685   2.409  0.0858  0.2861 -0.6584
 2531SOL    HW119229   1.119   1.667   2.320 -2.2610 -0.8571 -1.2538
 2531SOL    HW219230   1.094   1.780   2.413  0.8689  0.2865 -2.0078
 2532SOL     OW19231   0.998   4.163  10.972 -0.2847  0.3152 -0.1683
 2532SOL    HW119232   0.914   4.207  10.988 -1.1177 -0.8719 -1.3030
 2532SOL    HW219233   1.005   4.118  11.056  1.1991  1.3243  0.2416
 2533SOL     OW19234   0.176   2.027   6.567  0.4764 -0.1689 -0.5987
 2533SOL    HW119235   0.150   2.115   6.542 -2.5311 -1.0804 -0.7765
 2533SOL    HW219236   0.171   1.989   6.479 -0.0498 -1.2013 -0.1333
 2534SOL     OW19237   0.680   4.590  10.941 -0.3665 -0.5331 -0.4983
 2534SOL    HW119238   0.668   4.543  10.859  2.5233 -1.5192 -0.3562
 2534SOL    HW219239   0.666   4.672  10.892 -1.0258 -0.0913  0.4210
 2535SOL     OW19240   0.445   0.737   4.026  0.0580 -0.0984  0.5189
 2535SOL    HW119241   0.369   0.772   3.980 -0.8192 -1.2131  1.1098
 2535SOL    HW219242   0.477   0.805   4.085  0.5949 -1.2211  1.5365
 2536SOL     OW19243   2.800   3.063  15.752  0.1658  0.0191  0.3251
 2536SOL    HW119244   2.766   3.150  15.732 -5.4296 -1.7307  2.1797
 2536SOL    HW219245   2.893   3.075  15.770  0.5102 -1.9516 -0.1453
 2537SOL     OW19246   2.279   0.364   8.422 -0.5212  0.3283  0.4346
 2537SOL    HW119247   2.339   0.366   8.497  1.0054  0.2927 -0.7951
 2537SOL    HW219248   2.344   0.326   8.363 -2.7601  1.3990 -2.6868
 2538SOL     OW19249   2.543   2.899  11.814  0.2256 -0.1529  0.1995
 2538SOL    HW119250   2.562   2.993  11.814 -0.3810 -0.0333 -0.7644
 2538SOL    HW219251   2.557   2.870  11.904  1.1055 -0.4527 -0.0334
 2539SOL     OW19252   0.872   3.663  16.649 -0.3026 -0.4153  0.0026
 2539SOL    HW119253   0.888   3.743  16.699 -0.7396  1.2426 -2.5136
 2539SOL    HW219254   0.867   3.592  16.713  0.0030  1.5103  2.1573
 2540SOL     OW19255   1.833   0.867   8.428  0.5037 -0.2729 -0.1428
 2540SOL    HW119256   1.739   0.853   8.420  0.9359 -2.4884 -1.2914
 2540SOL    HW219257   1.836   0.962   8.418 -0.3493 -0.3381 -1.0019
 2541SOL     OW19258   1.844   3.565   8.661  0.3976  0.3372 -0.1172
 2541SOL    HW119259   1.884   3.528   8.740 -1.3049 -0.6581  0.2653
 2541SOL    HW219260   1.857   3.658   8.683 -2.6817  0.5598  0.7822
 2542SOL     OW19261   4.575   1.107   5.881  0.1175 -0.3260  0.7026
 2542SOL    HW119262   4.658   1.135   5.843  0.1029 -1.9260 -0.4857
 2542SOL    HW219263   4.531   1.053   5.816  2.1892 -2.3689  1.0308
 2543SOL     OW19264   3.684   3.213   1.938 -0.5448 -0.5558  0.5529
 2543SOL    HW119265   3.624   3.146   1.970 -0.6471 -0.1916  1.1156
 2543SOL    HW219266   3.695   3.279   2.006  1.1642  1.4867 -1.7123
 2544SOL     OW19267   0.322   2.377   6.147  0.2012  0.5966  0.2423
 2544SOL    HW119268   0.356   2.429   6.219 -0.7604 -1.5948  2.2577
 2544SOL    HW219269   0.406   2.352   6.108 -0.2088  1.2804 -1.1091
 2545SOL     OW19270   0.551   3.721  15.519  0.5493 -0.2338  0.1873
 2545SOL    HW119271   0.564   3.627  15.506  1.1030 -0.2632  0.9515
 2545SOL    HW219272   0.600   3.754  15.444  1.0037  0.6317  0.8662
 2546SOL     OW19273   3.399   2.024   7.202 -0.3406 -0.6318 -0.1819
 2546SOL    HW119274   3.452   1.945   7.195 -0.0801 -0.3056 -2.0201
 2546SOL    HW219275   3.403   2.036   7.297  0.5895 -0.9102 -0.1808
 2547SOL     OW19276   4.194   2.381   7.073 -0.8506  0.0938  0.0685
 2547SOL    HW119277   4.235   2.323   7.010 -2.0851 -0.3087 -0.3566
 2547SOL    HW219278   4.255   2.366   7.145 -0.3266 -1.1591 -0.6415
 2548SOL     OW19279   0.095   3.187   5.446 -0.3297 -0.0293  0.1414
 2548SOL    HW119280   0.010   3.147   5.428 -0.5611  0.7533 -0.5148
 2548SOL    HW219281   0.124   3.125   5.512 -1.2082 -1.7433 -1.0946
 2549SOL     OW19282   1.561   1.052  15.302  0.2914 -0.4818 -0.0265
 2549SOL    HW119283   1.473   1.025  15.276  0.0540  0.3513 -0.0949
 2549SOL    HW219284   1.537   1.107  15.377 -1.4402  1.0626 -1.6857
 2550SOL     OW19285   3.913   2.645   8.956  0.0749  0.0386  0.3518
 2550SOL    HW119286   3.940   2.681   9.040  0.3221  1.8000 -0.4830
 2550SOL    HW219287   3.850   2.708   8.921  1.0143  2.6333  3.3423
 2551SOL     OW19288   4.510   2.831   2.629 -0.1023  0.4554 -0.5212
 2551SOL    HW119289   4.470   2.745   2.632 -3.0857  1.8371 -0.5790
 2551SOL    HW219290   4.466   2.888   2.693  1.7269  1.2139  0.0542
 2552SOL     OW19291   1.322   1.309   4.701  0.3311 -0.0353  0.6717
 2552SOL    HW119292   1.316   1.255   4.623 -0.1195  1.5841 -0.4191
 2552SOL    HW219293   1.238   1.354   4.689  0.0215 -0.7004  0.3232
 2553SOL     OW19294   0.065   3.298   6.409  0.3116  0.1180  0.0934
 2553SOL    HW119295   0.030   3.375   6.454  0.7862  2.2651 -3.2066
 2553SOL    HW219296   0.141   3.342   6.370 -0.3870  0.3769 -0.9971
 2554SOL     OW19297   1.762   0.431   2.399  0.0289 -0.1008 -0.3029
 2554SOL    HW119298   1.791   0.361   2.340 -2.9789 -1.7237  0.1735
 2554SOL    HW219299   1.714   0.380   2.463 -1.1614  0.2518 -0.9120
 2555SOL     OW19300   4.132   2.885  13.607 -0.0702  0.4170 -0.1468
 2555SOL    HW119301   4.087   2.969  13.593  0.3593  0.7264  0.3446
 2555SOL    HW219302   4.099   2.870  13.695  0.2225 -0.0383 -0.1151
 2556SOL     OW19303   2.839   2.576   9.310  0.9351 -0.4498  0.8011
 2556SOL    HW119304   2.897   2.578   9.234 -1.2629  0.3131 -0.8509
 2556SOL    HW219305   2.824   2.481   9.309  2.0845 -0.6667  4.1256
 2557SOL     OW19306   2.616   0.335   4.015  0.1818  0.1249  0.3087
 2557SOL    HW119307   2.699   0.382   4.025 -0.8010  1.7535  0.8021
 2557SOL    HW219308   2.655   0.247   4.013  2.0818  0.9861 -1.5582
 2558SOL     OW19309   1.887   0.986   3.123 -0.6963  0.1048  0.1797
 2558SOL    HW119310   1.807   0.939   3.149 -0.5215  0.3622  1.2078
 2558SOL    HW219311   1.895   1.036   3.205  0.3862  0.5976 -0.2364
 2559SOL     OW19312   3.854   2.556   9.719  0.1197  0.2061  0.4422
 2559SOL    HW119313   3.885   2.470   9.690 -0.1776  0.1910  0.1758
 2559SOL    HW219314   3.878   2.556   9.812 -0.1390 -0.6348  0.5088
 2560SOL     OW19315   2.222   0.267   1.160  0.1408 -0.3512 -0.0148
 2560SOL    HW119316   2.286   0.235   1.223 -1.0324  1.2911  2.0130
 2560SOL    HW219317   2.263   0.347   1.127  1.3533 -1.1125 -0.3426
 2561SOL     OW19318   2.450   1.931   7.005  0.4339  0.8676 -1.1420
 2561SOL    HW119319   2.426   1.969   6.920  2.9286  3.6178 -0.6092
 2561SOL    HW219320   2.372   1.936   7.060  0.3857 -0.2867 -1.1116
 2562SOL     OW19321   4.725   2.052  17.339  0.1062  0.0564 -0.0045
 2562SOL    HW119322   4.725   1.958  17.359  0.4440 -0.4951 -2.5838
 2562SOL    HW219323   4.687   2.052  17.252 -2.1030  0.5374  0.9598
 2563SOL     OW19324   2.992   1.537   3.093  0.2602  0.0602  0.3813
 2563SOL    HW119325   3.085   1.547   3.111  0.0333 -0.7337  2.0896
 2563SOL    HW219326   2.980   1.443   3.076 -1.0787  0.0138  1.5285
 2564SOL     OW19327   0.148   0.299   3.062 -0.1286  0.4769  0.5119
 2564SOL    HW119328   0.194   0.382   3.053 -1.1744  1.1109  1.0622
 2564SOL    HW219329   0.198   0.254   2.993 -1.7977  2.2947 -1.9146
 2565SOL     OW19330   2.039   1.292   0.221 -0.4262 -0.6075  0.1558
 2565SOL    HW119331   2.076   1.305   0.133 -0.1329  1.0839  0.5353
 2565SOL    HW219332   2.022   1.384   0.242  1.1379 -0.2520 -0.1519
 2566SOL     OW19333   0.906   0.206  17.580 -0.3912  0.3852 -0.3709
 2566SOL    HW119334   0.823   0.193  17.533 -0.5524  0.4706 -0.1105
 2566SOL    HW219335   0.884   0.193  17.672 -0.9243  1.1846 -0.3810
 2567SOL     OW19336   1.600   2.100  11.592 -0.1977 -0.4565  0.3771
 2567SOL    HW119337   1.690   2.130  11.585 -0.9764  1.3342 -2.1127
 2567SOL    HW219338   1.612   2.006  11.578  1.0338 -0.2007 -0.2567
 2568SOL     OW19339   4.476   4.350   4.740 -0.1259  0.3056  0.0009
 2568SOL    HW119340   4.481   4.421   4.803 -1.4152  1.5408 -1.2712
 2568SOL    HW219341   4.398   4.375   4.690 -0.4604  0.0798  0.4076
 2569SOL     OW19342   3.548   2.700   3.490  0.6426 -0.6709 -0.4173
 2569SOL    HW119343   3.455   2.692   3.511  0.5643  2.2851  0.4328
 2569SOL    HW219344   3.581   2.623   3.536  0.3041  0.4043  1.6117
 2570SOL     OW19345   4.615   2.940   7.737 -0.0696 -0.5590  0.2755
 2570SOL    HW119346   4.615   2.850   7.706 -3.7817  0.0555 -1.4751
 2570SOL    HW219347   4.525   2.946   7.769 -0.1072 -0.3480  0.1284
 2571SOL     OW19348   0.222   0.746  17.285 -1.0380  0.2491 -0.4198
 2571SOL    HW119349   0.294   0.810  17.281 -1.6258  0.8519 -1.3936
 2571SOL    HW219350   0.253   0.682  17.221  0.3916  0.3095  0.2081
 2572SOL     OW19351   3.751   4.050  16.821  0.0680 -0.0087 -0.1332
 2572SOL    HW119352   3.692   4.042  16.746 -0.0481 -0.7337  0.0376
 2572SOL    HW219353   3.719   3.981  16.879  0.5050  0.8368  1.1005
 2573SOL     OW19354   2.010   3.194   2.720 -0.0817  0.2758 -0.4276
 2573SOL    HW119355   2.059   3.231   2.647 -0.1228 -2.8996 -2.0586
 2573SOL    HW219356   1.969   3.117   2.680 -0.1497  0.7353 -1.2390
 2574SOL     OW19357   1.788   1.468  13.260  0.2920  0.1183 -1.0646
 2574SOL    HW119358   1.871   1.426  13.240  0.7802  0.4512  0.2234
 2574SOL    HW219359   1.822   1.558  13.266 -0.6318  0.3815  0.3183
 2575SOL     OW19360   4.531   4.077   4.768  0.0416 -0.1246  0.6929
 2575SOL    HW119361   4.473   4.153   4.771  2.1231  1.4987 -0.2922
 2575SOL    HW219362   4.604   4.125   4.728 -1.2812  0.6960 -0.7248
 2576SOL     OW19363   1.821   4.202  14.696 -0.3722  0.1271  0.2539
 2576SOL    HW119364   1.773   4.261  14.639  0.2755 -0.6920 -1.1257
 2576SOL    HW219365   1.897   4.187  14.639 -0.7416 -0.1930 -0.1553
 2577SOL     OW19366   2.180   2.604   9.176 -0.1424  0.0424  0.0648
 2577SOL    HW119367   2.272   2.615   9.152 -0.1377  0.6595  0.3637
 2577SOL    HW219368   2.157   2.517   9.145  3.1799  0.5654 -3.8239
 2578SOL     OW19369   2.888   4.493   9.095  0.5655  0.6234  0.4132
 2578SOL    HW119370   2.876   4.524   9.006  1.6308  0.4521  0.2119
 2578SOL    HW219371   2.977   4.458   9.088  0.6702  0.7743  0.9774
 2579SOL     OW19372   4.707   2.942  10.282  0.4002 -0.1198 -0.5338
 2579SOL    HW119373   4.733   2.915  10.370  0.5043  0.3579 -0.4199
 2579SOL    HW219374   0.050   2.987  10.262  0.1174  0.4169 -0.4971
 2580SOL     OW19375   4.284   2.509  11.216  0.4235  0.6551 -0.2252
 2580SOL    HW119376   4.216   2.487  11.279  0.6779 -0.2754 -0.2661
 2580SOL    HW219377   4.231   2.527  11.139  0.5729 -0.5233 -0.6100
 2581SOL     OW19378   0.236   3.827   8.550 -0.1882 -0.6629 -0.1441
 2581SOL    HW119379   0.209   3.792   8.635 -0.2782 -0.7060 -0.1907
 2581SOL    HW219380   0.303   3.767   8.516  1.0099  0.8476 -0.4427
 2582SOL     OW19381   0.551   1.389   3.027  0.1762 -0.2946 -0.0814
 2582SOL    HW119382   0.466   1.357   2.998 -0.1184 -0.1638  0.6570
 2582SOL    HW219383   0.514   1.423   3.108  0.3288 -0.7278  0.1739
 2583SOL     OW19384   0.490   2.209  10.401  0.5417  0.5019 -0.0195
 2583SOL    HW119385   0.400   2.226  10.376  0.1164 -0.5430  0.8198
 2583SOL    HW219386   0.513   2.134  10.346 -1.2239  1.6829 -2.3359
 2584SOL     OW19387   3.031   2.957  12.174 -0.2185 -0.5037  0.3319
 2584SOL    HW119388   3.010   2.911  12.093 -0.4998  0.5889 -0.2025
 2584SOL    HW219389   3.120   2.978  12.144 -0.6835  0.0370 -0.6520
 2585SOL     OW19390   3.131   2.600   7.819  0.2899 -0.3824 -0.2131
 2585SOL    HW119391   3.081   2.639   7.892  2.4047 -1.6571  1.9148
 2585SOL    HW219392   3.088   2.515   7.812 -0.4280 -0.0615  0.2239
 2586SOL     OW19393   2.271   2.579   5.341 -0.1059 -1.0206 -0.4875
 2586SOL    HW119394   2.338   2.642   5.315 -1.2086  0.6943  0.8072
 2586SOL    HW219395   2.324   2.503   5.366 -0.2377 -0.4223  1.5651
 2587SOL     OW19396   3.037   0.774   7.335  0.1862 -0.2859 -0.1299
 2587SOL    HW119397   2.964   0.809   7.386 -0.8547 -0.3718 -1.5659
 2587SOL    HW219398   3.115   0.813   7.374 -0.2341  0.8270 -0.3785
 2588SOL     OW19399   0.205   0.221  14.420  0.5528 -0.1788  0.4054
 2588SOL    HW119400   0.224   0.233  14.326 -0.0937  1.4760  0.4753
 2588SOL    HW219401   0.232   0.130  14.422  1.7547  0.2229  1.8770
 2589SOL     OW19402   2.142   2.417   7.515 -0.6738  0.1041  0.4455
 2589SOL    HW119403   2.157   2.408   7.421  0.6343  1.9910  0.4650
 2589SOL    HW219404   2.165   2.330   7.547  1.7411  1.6064  2.8519
 2590SOL     OW19405   3.674   1.787   6.763  0.4401 -0.3481 -0.0294
 2590SOL    HW119406   3.759   1.757   6.796  2.0879  2.4811 -1.7287
 2590SOL    HW219407   3.639   1.719   6.705 -0.0105  0.1497 -0.3361
 2591SOL     OW19408   1.786   4.038   6.518  0.1628 -0.2830  0.3690
 2591SOL    HW119409   1.702   4.041   6.563  0.9777 -0.9024  1.9459
 2591SOL    HW219410   1.763   3.986   6.442  0.8467  0.0835 -0.0912
 2592SOL     OW19411   0.619   3.039   9.264 -0.0071 -0.1384  0.0305
 2592SOL    HW119412   0.647   2.956   9.302 -0.8192 -1.3196 -1.9498
 2592SOL    HW219413   0.669   3.055   9.183 -0.6438  0.6639 -0.2062
 2593SOL     OW19414   0.833   3.204  10.694  0.1915  0.3119  0.3929
 2593SOL    HW119415   0.912   3.242  10.734 -0.5814  2.5677 -0.2179
 2593SOL    HW219416   0.843   3.224  10.601 -1.0344  0.0823  0.2184
 2594SOL     OW19417   1.606   0.070   8.341  0.5520  0.5180 -0.3440
 2594SOL    HW119418   1.655   0.152   8.348 -0.1096  1.2406 -3.8836
 2594SOL    HW219419   1.620   0.030   8.426  0.3198 -1.2342 -1.1226
 2595SOL     OW19420   4.659   2.847  16.672 -0.0946 -0.1296  0.5744
 2595SOL    HW119421   4.667   2.943  16.668  1.1845 -0.4013 -2.6501
 2595SOL    HW219422   0.001   2.820  16.716 -0.5725 -2.9100 -0.2657
 2596SOL     OW19423   3.978   4.697  17.021  0.4166  0.2285 -0.2424
 2596SOL    HW119424   3.908   4.732  16.965 -0.1258 -1.6820 -0.7455
 2596SOL    HW219425   4.037   0.034  17.029  1.5778 -0.8537  1.3571
 2597SOL     OW19426   2.683   3.472   3.533 -0.3157  0.2658 -0.6369
 2597SOL    HW119427   2.662   3.558   3.498  0.4441  0.5321 -0.4411
 2597SOL    HW219428   2.774   3.461   3.504 -0.5339  0.7612 -1.5021
 2598SOL     OW19429   1.050   1.494   6.305  0.5410 -0.0840  0.1959
 2598SOL    HW119430   1.069   1.443   6.383 -0.8726 -0.0185  0.5652
 2598SOL    HW219431   1.059   1.429   6.235 -0.7066  0.6196 -0.6091
 2599SOL     OW19432   0.881   2.460  13.837 -0.1856 -0.5539  0.1851
 2599SOL    HW119433   0.964   2.416  13.816  0.3675  0.4317  0.3197
 2599SOL    HW219434   0.893   2.464  13.932 -0.3260  2.0764  0.0850
 2600SOL     OW19435   2.095   0.896   4.176 -0.5184 -0.3819 -0.2880
 2600SOL    HW119436   2.041   0.827   4.216  0.9552 -0.0201  2.3149
 2600SOL    HW219437   2.115   0.852   4.093 -2.0779 -0.1783 -0.7762
 2601SOL     OW19438   3.534   2.055  14.638 -1.1186 -0.9306  0.3629
 2601SOL    HW119439   3.468   2.062  14.568 -1.1596 -0.8097  0.4125
 2601SOL    HW219440   3.559   1.964  14.628  1.4346  0.0023 -1.7976
 2602SOL     OW19441   4.463   1.922   6.958 -0.0780 -1.2011  0.0305
 2602SOL    HW119442   4.404   1.925   7.034  0.7123  1.6994  0.5439
 2602SOL    HW219443   4.533   1.981   6.987 -2.3440  0.7776  1.5763
 2603SOL     OW19444   1.564   1.842   5.771  0.1666  0.1342  0.2033
 2603SOL    HW119445   1.576   1.754   5.735 -2.0232  0.0529 -0.3481
 2603SOL    HW219446   1.548   1.885   5.687  0.3609  0.6860  0.4501
 2604SOL     OW19447   0.408   4.586  16.891  0.1186  0.6274  0.2559
 2604SOL    HW119448   0.357   4.578  16.972  1.8572 -0.0999  1.2736
 2604SOL    HW219449   0.344   4.635  16.839  1.6479 -0.1895 -2.3785
 2605SOL     OW19450   0.035   3.539   8.137 -0.8311 -0.3195  0.0317
 2605SOL    HW119451   0.091   3.482   8.084 -1.4219 -0.2250 -0.7101
 2605SOL    HW219452   4.701   3.568   8.081 -1.8452  1.5763  2.3584
 2606SOL     OW19453   1.449   1.706   3.306  0.1638  0.0723 -1.0131
 2606SOL    HW119454   1.420   1.788   3.347  0.1488 -0.1343 -0.6156
 2606SOL    HW219455   1.433   1.716   3.212 -2.3810  0.2141 -0.5801
 2607SOL     OW19456   1.652   0.936   6.464 -0.0925  0.1334 -0.3386
 2607SOL    HW119457   1.608   0.934   6.549 -0.7550 -0.2458 -0.6898
 2607SOL    HW219458   1.743   0.929   6.493  0.7568  0.8373 -2.8981
 2608SOL     OW19459   1.855   3.783   4.908 -1.0792 -0.2040  0.1571
 2608SOL    HW119460   1.913   3.856   4.928  1.5408 -1.6051 -2.2710
 2608SOL    HW219461   1.893   3.754   4.825  1.5798 -0.0237  1.3083
 2609SOL     OW19462   0.247   3.790   8.077 -0.5632  0.2563 -0.1875
 2609SOL    HW119463   0.229   3.730   8.005 -1.3230 -0.0249  0.2452
 2609SOL    HW219464   0.286   3.732   8.142 -0.3333  1.4873  0.7669
 2610SOL     OW19465   1.566   2.640   3.510  0.6879  0.0002 -0.0428
 2610SOL    HW119466   1.584   2.628   3.417 -0.7915 -1.9659 -0.0774
 2610SOL    HW219467   1.637   2.699   3.536  0.8887 -0.0781 -0.4123
 2611SOL     OW19468   0.619   3.405   3.666 -0.1715 -0.3136 -0.6729
 2611SOL    HW119469   0.576   3.430   3.748 -1.4975 -1.2265 -1.0949
 2611SOL    HW219470   0.698   3.457   3.676 -0.2687 -0.2803 -0.0516
 2612SOL     OW19471   2.537   2.127   5.786  0.0931  0.3756 -0.2994
 2612SOL    HW119472   2.590   2.206   5.795 -0.6057  0.7699  0.3275
 2612SOL    HW219473   2.564   2.092   5.701 -0.9829 -0.0495 -0.4640
 2613SOL     OW19474   3.981   4.719  14.143  0.1782  0.1172 -0.0681
 2613SOL    HW119475   3.893   0.013  14.161 -0.1926 -1.7160  1.4341
 2613SOL    HW219476   3.961   4.643  14.089  1.0993  1.1369 -1.8507
 2614SOL     OW19477   2.088   3.665   3.090  0.0044 -0.1214 -0.1266
 2614SOL    HW119478   2.165   3.623   3.129  0.4312  0.7473 -0.0142
 2614SOL    HW219479   2.014   3.606   3.100  0.7474 -0.8789  0.9950
 2615SOL     OW19480   1.866   4.452   4.391  0.2498 -0.2835  0.3060
 2615SOL    HW119481   1.796   4.437   4.454  1.3069  1.4431  1.8712
 2615SOL    HW219482   1.918   4.371   4.398  0.2987 -0.4249 -1.5054
 2616SOL     OW19483   4.390   4.165  14.554  0.6409 -0.5049 -0.4457
 2616SOL    HW119484   4.441   4.205  14.484 -0.2729  1.0645 -0.2104
 2616SOL    HW219485   4.333   4.240  14.571  0.9757 -0.0977 -1.1309
 2617SOL     OW19486   3.310   3.935   5.739  0.2381 -0.0424 -0.4463
 2617SOL    HW119487   3.266   3.952   5.656 -2.1633 -0.5431  0.7361
 2617SOL    HW219488   3.366   4.011   5.749 -1.3143  0.7529  2.1159
 2618SOL     OW19489   2.271   3.779   9.663  0.0385 -0.4047  0.1966
 2618SOL    HW119490   2.275   3.838   9.739 -0.9942  0.0001 -0.0578
 2618SOL    HW219491   2.325   3.710   9.700 -2.0627 -2.9609 -1.4948
 2619SOL     OW19492   1.371   3.204   9.167 -0.1388  0.4308 -0.2422
 2619SOL    HW119493   1.303   3.272   9.172  0.6199  1.2100 -0.5512
 2619SOL    HW219494   1.328   3.142   9.225  1.0786 -2.0645 -1.9930
 2620SOL     OW19495   1.768   1.224   0.401  0.2481  0.4226 -0.1454
 2620SOL    HW119496   1.770   1.315   0.371  0.0636  0.5290  0.1631
 2620SOL    HW219497   1.791   1.185   0.316 -0.6750  0.8924 -0.6142
 2621SOL     OW19498   1.421   3.818  12.676  0.2455 -0.0341 -0.0042
 2621SOL    HW119499   1.476   3.746  12.644 -0.8459 -0.3881 -1.0780
 2621SOL    HW219500   1.349   3.772  12.719 -0.1907  1.7703  1.2102
 2622SOL     OW19501   3.734   0.072   4.423 -0.0575 -0.0107 -0.6275
 2622SOL    HW119502   3.669   0.002   4.420 -1.0774  1.0104 -2.0522
 2622SOL    HW219503   3.808   0.013   4.405 -0.9587 -0.9829 -1.1362
 2623SOL     OW19504   1.324   2.220   4.843 -0.1083 -0.1588  0.2156
 2623SOL    HW119505   1.328   2.184   4.931 -0.4591 -2.3941 -0.6756
 2623SOL    HW219506   1.315   2.143   4.787  0.8230  1.6020 -2.3900
 2624SOL     OW19507   2.393   0.276   7.210  0.6912  0.5940 -0.3820
 2624SOL    HW119508   2.323   0.230   7.256  0.2227  1.1198 -0.5722
 2624SOL    HW219509   2.348   0.260   7.127 -2.1578  0.6465  1.1644
 2625SOL     OW19510   2.015   2.277   7.189  0.2927 -0.2240 -0.1085
 2625SOL    HW119511   2.078   2.249   7.255  0.9355 -0.1145 -0.6688
 2625SOL    HW219512   1.931   2.240   7.216 -0.2397  1.0311 -0.0765
 2626SOL     OW19513   0.012   2.056   9.181 -0.2039  0.4105  0.0300
 2626SOL    HW119514   4.686   2.098   9.125 -1.3903  0.2013  1.2365
 2626SOL    HW219515   0.027   1.980   9.125  2.2092  0.9979 -0.1354
 2627SOL     OW19516   4.583   0.420   5.088  0.2064  0.1345  0.7216
 2627SOL    HW119517   4.665   0.422   5.136 -0.0741 -1.0527  1.2616
 2627SOL    HW219518   4.601   0.363   5.013  0.4958  1.5029 -0.2446
 2628SOL     OW19519   4.547   3.787   7.438  0.3835  0.1547 -0.1229
 2628SOL    HW119520   4.476   3.842   7.405 -0.8505 -2.3956 -1.6985
 2628SOL    HW219521   4.523   3.771   7.529 -1.3239  0.4357 -0.5138
 2629SOL     OW19522   0.809   1.904   6.762 -0.6002  0.1696 -0.2619
 2629SOL    HW119523   0.854   1.832   6.806  1.5642  1.4699 -0.3733
 2629SOL    HW219524   0.877   1.962   6.729  1.7374 -2.7440 -0.5210
 2630SOL     OW19525   3.180   3.379  13.993 -0.1796  0.3937 -0.0893
 2630SOL    HW119526   3.085   3.372  13.985  0.0020  1.0276 -2.6730
 2630SOL    HW219527   3.178   3.464  14.035  1.9352  0.6774 -0.5517
 2631SOL     OW19528   2.382   1.879   6.687  0.0573  0.2546  0.2052
 2631SOL    HW119529   2.430   1.943   6.635  1.4118  0.2651  1.4837
 2631SOL    HW219530   2.346   1.944   6.747  3.3382  2.2215  0.0629
 2632SOL     OW19531   4.445   2.805   8.613 -0.4557 -0.7114 -0.9130
 2632SOL    HW119532   4.378   2.759   8.562  0.4932 -1.0795 -1.8283
 2632SOL    HW219533   4.440   2.893   8.576 -1.1973  0.0215  0.9644
 2633SOL     OW19534   4.223   0.076   7.388 -0.5011  0.1664 -0.3097
 2633SOL    HW119535   4.265   0.155   7.420  0.5548 -0.6763  0.3724
 2633SOL    HW219536   4.174   0.107   7.312  0.5988  1.0413 -0.6588
 2634SOL     OW19537   3.434   1.035  10.149  0.3783 -0.1622  0.5443
 2634SOL    HW119538   3.446   0.969  10.216 -0.3791 -0.9747 -0.1166
 2634SOL    HW219539   3.429   0.978  10.072 -1.7875 -2.2139  2.2083
 2635SOL     OW19540   0.610   4.499   4.449 -0.1800 -0.5879 -0.4776
 2635SOL    HW119541   0.583   4.577   4.401  2.0043 -0.4101 -1.4310
 2635SOL    HW219542   0.562   4.508   4.532 -0.5905 -2.6293 -0.4884
 2636SOL     OW19543   3.855   1.208   9.167 -0.3573  0.3329 -0.1822
 2636SOL    HW119544   3.813   1.285   9.205  0.9087  1.4218 -1.0013
 2636SOL    HW219545   3.778   1.154   9.148  1.8774 -3.1819  0.7197
 2637SOL     OW19546   0.151   4.125   5.446 -0.3728 -0.4231 -0.0688
 2637SOL    HW119547   0.065   4.085   5.444 -1.1541  1.2567 -0.3684
 2637SOL    HW219548   0.189   4.099   5.362 -0.5848  0.1852 -0.3553
 2638SOL     OW19549   4.696   2.707   6.454 -0.2507 -0.6689 -0.4108
 2638SOL    HW119550   4.674   2.767   6.382  1.2881 -1.1231 -1.2542
 2638SOL    HW219551   4.610   2.709   6.498 -0.5275 -0.7637 -0.9471
 2639SOL     OW19552   2.947   0.464   4.536 -0.1223 -0.1195 -0.1859
 2639SOL    HW119553   3.015   0.478   4.470 -1.1260  2.3802 -0.6857
 2639SOL    HW219554   2.870   0.438   4.486  1.0766 -3.7003 -0.1870
 2640SOL     OW19555   4.558   3.784  14.802 -0.5537 -0.3296 -0.4826
 2640SOL    HW119556   4.492   3.715  14.809 -0.7210 -0.1542 -0.3139
 2640SOL    HW219557   4.627   3.733  14.761  1.7416  0.8402  1.9545
 2641SOL     OW19558   2.527   1.172   7.304  0.3038  0.0341 -0.0803
 2641SOL    HW119559   2.509   1.230   7.378  0.1553 -1.3298  0.9486
 2641SOL    HW219560   2.573   1.228   7.242  2.9817 -2.4066 -0.2926
 2642SOL     OW19561   1.362   4.437   5.800  0.0685 -0.3345  0.1914
 2642SOL    HW119562   1.322   4.378   5.736 -0.2425 -1.2399  1.2193
 2642SOL    HW219563   1.343   4.388   5.879  0.5247 -0.8857 -0.0399
 2643SOL     OW19564   1.631   3.051   5.867 -0.2926 -0.5362 -0.2035
 2643SOL    HW119565   1.688   3.031   5.942 -3.0021  0.9457  2.2425
 2643SOL    HW219566   1.696   3.103   5.820 -0.4133  0.5526  0.8416
 2644SOL     OW19567   0.844   3.576   3.671  0.2459  0.6346 -0.2706
 2644SOL    HW119568   0.790   3.636   3.723 -2.0747 -1.4884 -0.2362
 2644SOL    HW219569   0.872   3.624   3.594  0.5437 -0.9411 -1.1420
 2645SOL     OW19570   3.156   0.427   3.146 -1.2187  0.4773 -0.1827
 2645SOL    HW119571   3.227   0.387   3.195 -2.9973 -0.3845  1.7115
 2645SOL    HW219572   3.178   0.520   3.154 -0.2625  0.0788  1.8144
 2646SOL     OW19573   0.025   4.514  11.867  0.0376 -0.5385 -0.1594
 2646SOL    HW119574   0.069   4.488  11.948 -0.1551  0.5424  0.2946
 2646SOL    HW219575   0.081   4.586  11.837  1.8179 -0.3717  3.6138
 2647SOL     OW19576   0.227   0.330   0.670 -0.0556  0.3412  0.5603
 2647SOL    HW119577   0.288   0.257   0.663 -2.4182 -1.5777  0.1391
 2647SOL    HW219578   0.143   0.290   0.692 -0.5663  1.0950  0.0198
 2648SOL     OW19579   3.862   2.979   9.286 -0.0496  0.6715 -0.2739
 2648SOL    HW119580   3.803   3.047   9.252 -0.3467 -0.2443 -1.5724
 2648SOL    HW219581   3.798   2.930   9.338 -0.6966  0.1631 -1.5357
 2649SOL     OW19582   0.032   4.106   6.307  0.0426 -0.0915  0.2111
 2649SOL    HW119583   0.028   4.200   6.326  0.2359 -0.2695  1.1607
 2649SOL    HW219584   4.717   4.094   6.229 -1.4323 -0.4310  1.2795
 2650SOL     OW19585   2.947   0.035   8.219 -0.2483  0.1608  0.1381
 2650SOL    HW119586   3.040   0.036   8.193 -0.2197 -0.5229  0.2193
 2650SOL    HW219587   2.948   0.109   8.279 -2.8313  1.3119 -1.2443
 2651SOL     OW19588   0.190   2.879   7.176 -0.3253  1.0476 -0.7002
 2651SOL    HW119589   0.164   2.948   7.115  3.2090  1.3937 -1.7633
 2651SOL    HW219590   0.207   2.933   7.253 -1.8332  0.9821 -0.3057
 2652SOL     OW19591   0.266   2.137   7.996  0.4279  0.0407  0.0312
 2652SOL    HW119592   0.291   2.071   7.932 -0.3475 -1.4376  1.2575
 2652SOL    HW219593   0.324   2.211   7.976 -0.3165  0.5214 -0.3487
 2653SOL     OW19594   4.043   0.908   5.109 -0.6790  0.2925 -0.2173
 2653SOL    HW119595   4.095   0.852   5.052 -0.5712  1.0435 -0.8539
 2653SOL    HW219596   4.095   0.908   5.190 -3.2778 -0.3632  1.4527
 2654SOL     OW19597   2.093   3.023   7.246  0.5778  0.2815 -0.3596
 2654SOL    HW119598   2.130   3.096   7.196  1.2046  0.6277  0.6027
 2654SOL    HW219599   2.145   2.946   7.223  2.0839  1.2627 -0.2667
 2655SOL     OW19600   0.866   0.984  15.746 -0.2343 -0.4021 -0.1119
 2655SOL    HW119601   0.913   1.000  15.828 -0.5073  1.0642 -0.2449
 2655SOL    HW219602   0.848   0.890  15.739  0.7541 -0.6801  1.2111
 2656SOL     OW19603   1.595   3.014   9.079 -0.0796 -0.2752  0.0027
 2656SOL    HW119604   1.582   2.969   9.163 -3.5158  1.1421  0.2462
 2656SOL    HW219605   1.536   3.089   9.089  0.1707 -0.1953  0.9283
 2657SOL     OW19606   2.818   3.757   3.518  0.4143 -0.2623 -0.2802
 2657SOL    HW119607   2.829   3.738   3.611  1.9992  3.8428  0.3924
 2657SOL    HW219608   2.904   3.748   3.476  1.1381 -1.7858  1.5119
 2658SOL     OW19609   2.496   1.749   7.669 -0.3249  0.1126 -0.2205
 2658SOL    HW119610   2.402   1.736   7.668 -0.1658 -1.2597  2.6145
 2658SOL    HW219611   2.516   1.699   7.589  0.1678 -1.0339  0.6180
 2659SOL     OW19612   4.460   2.518   2.379 -0.5081 -0.0031  0.4807
 2659SOL    HW119613   4.394   2.561   2.325 -1.0923  1.8028  2.6360
 2659SOL    HW219614   4.426   2.542   2.465 -1.3919  0.6533 -0.0430
 2660SOL     OW19615   3.174   1.787   4.533  0.0997  0.7614 -0.2333
 2660SOL    HW119616   3.096   1.820   4.487 -0.2586 -0.8293 -0.7576
 2660SOL    HW219617   3.247   1.787   4.472  0.0289 -0.5667 -0.3107
 2661SOL     OW19618   0.348   3.851   2.938 -0.2399 -0.3251 -0.5053
 2661SOL    HW119619   0.406   3.884   3.007 -1.3710  0.5639  0.0096
 2661SOL    HW219620   0.296   3.792   2.992 -1.1004  2.3512  1.5890
 2662SOL     OW19621   3.432   0.091   4.086 -0.2837 -0.2483 -0.3528
 2662SOL    HW119622   3.527   0.083   4.097 -0.2423 -0.8085 -1.1194
 2662SOL    HW219623   3.404   0.172   4.128 -0.6062 -0.3225 -0.4258
 2663SOL     OW19624   0.209   1.638   4.899 -0.2139 -0.5011  0.3131
 2663SOL    HW119625   0.271   1.676   4.961 -0.3352 -0.3201  0.3242
 2663SOL    HW219626   0.140   1.621   4.963  1.2974 -0.0861  2.0474
 2664SOL     OW19627   4.381   1.737  14.521  0.4621 -0.0053  0.0827
 2664SOL    HW119628   4.312   1.800  14.503 -0.6408 -0.6376  2.1178
 2664SOL    HW219629   4.448   1.804  14.536  1.5507 -1.5174  1.9004
 2665SOL     OW19630   3.592   0.602   2.367  0.1376  0.4790  0.2959
 2665SOL    HW119631   3.557   0.660   2.434 -0.0048  0.2832  0.3928
 2665SOL    HW219632   3.540   0.522   2.381 -4.2986  2.7866 -2.6961
 2666SOL     OW19633   2.703   2.253  16.723 -0.0780 -0.0104  0.3105
 2666SOL    HW119634   2.681   2.162  16.701 -0.2961 -0.3785  2.1083
 2666SOL    HW219635   2.656   2.304  16.656 -0.6536 -0.4868  0.3495
 2667SOL     OW19636   0.865   2.334   2.663  0.4265  0.5960  0.2265
 2667SOL    HW119637   0.813   2.277   2.719 -1.3709  1.3130 -0.7184
 2667SOL    HW219638   0.881   2.276   2.589 -1.0684  0.4985 -0.0041
 2668SOL     OW19639   2.056   3.687   4.635  0.6236  0.0841 -0.4030
 2668SOL    HW119640   2.076   3.764   4.689  0.3531  0.5142 -0.9153
 2668SOL    HW219641   2.021   3.726   4.555  2.1898 -0.6248 -1.4293
 2669SOL     OW19642   2.134   3.927   4.346  0.0381  0.5819 -0.0977
 2669SOL    HW119643   2.086   4.008   4.331  0.7621  0.6805 -1.8880
 2669SOL    HW219644   2.060   3.871   4.370  0.7398  0.0208  0.7359
 2670SOL     OW19645   3.166   1.507   7.409 -0.1588 -0.3082  0.0054
 2670SOL    HW119646   3.242   1.501   7.352  0.6335 -1.4990  1.1816
 2670SOL    HW219647   3.182   1.439   7.475 -0.1814 -0.5239 -0.2123
 2671SOL     OW19648   2.858   0.487   4.062  0.0699  0.1290  0.1374
 2671SOL    HW119649   2.936   0.453   4.020  0.9420  1.3360  0.7801
 2671SOL    HW219650   2.871   0.581   4.074  0.4842  0.3448 -2.0037
 2672SOL     OW19651   2.935   1.468   8.552 -0.7110  0.0195 -0.1693
 2672SOL    HW119652   2.846   1.504   8.554 -1.5119 -1.9603 -0.5048
 2672SOL    HW219653   2.989   1.547   8.555  1.2001 -1.2829 -0.3678
 2673SOL     OW19654   0.480   4.736   6.815  0.0172 -0.5927 -0.1548
 2673SOL    HW119655   0.509   0.054   6.886  0.4377 -2.1370  0.9077
 2673SOL    HW219656   0.559   4.710   6.767 -0.4800 -1.3781 -0.5549
 2674SOL     OW19657   1.284   2.551   5.721  0.3209 -0.0671 -0.1177
 2674SOL    HW119658   1.358   2.542   5.661 -0.2591 -0.2662 -0.8094
 2674SOL    HW219659   1.259   2.640   5.695 -0.9069  0.8956  4.3200
 2675SOL     OW19660   0.979   4.300   3.831  0.3586  0.1639 -0.2679
 2675SOL    HW119661   1.025   4.229   3.788 -1.5817 -1.5089  0.4140
 2675SOL    HW219662   1.058   4.352   3.847  0.9147 -0.4998 -0.8735
 2676SOL     OW19663   4.375   3.592  14.926 -0.6205  0.2507 -0.3069
 2676SOL    HW119664   4.280   3.605  14.916 -0.7923 -0.3557  0.5351
 2676SOL    HW219665   4.377   3.496  14.936  0.3821  0.4409  1.1734
 2677SOL     OW19666   3.155   0.669   2.222 -0.2099 -0.7418  0.1876
 2677SOL    HW119667   3.192   0.585   2.251 -0.1908 -0.4043  1.1672
 2677SOL    HW219668   3.067   0.640   2.200 -0.6086 -0.9186  2.0321
 2678SOL     OW19669   2.090   2.531   3.727 -0.5424  0.6512 -0.1540
 2678SOL    HW119670   2.181   2.560   3.723 -0.3385  0.1822  1.2186
 2678SOL    HW219671   2.055   2.620   3.717 -2.2309  0.1781  1.6626
 2679SOL     OW19672   4.028   3.051   3.188  0.1514  0.3220 -0.3915
 2679SOL    HW119673   4.053   2.963   3.214 -2.1296 -0.0902  0.3842
 2679SOL    HW219674   4.015   3.086   3.276 -1.5078  0.2692 -0.6224
 2680SOL     OW19675   2.570   3.719   7.014 -0.0476  0.3891 -0.3310
 2680SOL    HW119676   2.499   3.656   7.019  0.6062 -0.4087 -0.9728
 2680SOL    HW219677   2.634   3.684   7.075  0.1969  1.1370 -0.1604
 2681SOL     OW19678   2.803   2.846  11.713  0.3743  0.5897  0.0061
 2681SOL    HW119679   2.710   2.838  11.734 -0.2302  3.3602 -1.6950
 2681SOL    HW219680   2.809   2.828  11.619 -0.1234  0.5945 -0.0261
 2682SOL     OW19681   0.512   4.438  14.877  0.6103 -0.7238 -0.1137
 2682SOL    HW119682   0.491   4.349  14.851  1.4739 -0.9977  0.1363
 2682SOL    HW219683   0.505   4.472  14.788  0.2392 -0.4017  0.0377
 2683SOL     OW19684   4.723   2.379   2.595 -0.6251  0.2050  0.1720
 2683SOL    HW119685   0.078   2.372   2.613 -0.5746  0.5965  0.0576
 2683SOL    HW219686   4.703   2.418   2.510 -1.9297 -2.0074 -0.5197
 2684SOL     OW19687   0.273   0.295   5.484  0.1382 -0.1516  0.2208
 2684SOL    HW119688   0.201   0.308   5.546 -2.2213 -0.5489 -2.4681
 2684SOL    HW219689   0.290   0.201   5.490  1.2026  0.1091  1.3733
 2685SOL     OW19690   1.483   2.180   3.504  0.1867 -0.0594  0.4138
 2685SOL    HW119691   1.560   2.169   3.560 -0.3178  2.2022  1.5264
 2685SOL    HW219692   1.462   2.269   3.532  1.1873  0.3554 -0.1495
 2686SOL     OW19693   0.194   2.255   4.766  0.1001 -0.0316  0.1774
 2686SOL    HW119694   0.203   2.244   4.671 -1.0251 -1.9481  0.3057
 2686SOL    HW219695   0.165   2.166   4.784  1.0511  0.1774  2.6809
 2687SOL     OW19696   2.148   1.375   6.159 -0.0938  0.0056 -0.0470
 2687SOL    HW119697   2.072   1.421   6.124  1.1727  1.2453 -1.1134
 2687SOL    HW219698   2.174   1.428   6.234  0.0413 -1.1930  0.7668
 2688SOL     OW19699   0.133   3.801   6.736 -0.0756 -0.0360 -0.2869
 2688SOL    HW119700   0.143   3.856   6.814  3.4770  1.4575 -1.7789
 2688SOL    HW219701   0.172   3.849   6.663 -1.9821  2.9059  0.6360
 2689SOL     OW19702   4.546   0.200   5.991 -0.7408 -0.0886 -0.2479
 2689SOL    HW119703   4.587   0.179   5.906 -0.4371 -1.1809  0.1680
 2689SOL    HW219704   4.573   0.123   6.041 -1.0484  1.1698  1.8620
 2690SOL     OW19705   4.335   3.036   2.402  0.2560 -0.3405 -0.2365
 2690SOL    HW119706   4.375   3.086   2.331 -0.7978 -2.3293 -2.2532
 2690SOL    HW219707   4.406   3.025   2.465  0.9239 -2.7556 -1.4250
 2691SOL     OW19708   0.654   0.091   2.213 -0.1803  0.3854  0.1208
 2691SOL    HW119709   0.719   0.111   2.280 -0.3483  0.3320  0.2985
 2691SOL    HW219710   0.682   0.152   2.145 -0.8177  0.8695  0.2950
 2692SOL     OW19711   2.774   4.111   4.956 -0.7281  0.3137 -0.6390
 2692SOL    HW119712   2.694   4.066   4.931 -0.6867 -0.1263  0.0438
 2692SOL    HW219713   2.776   4.086   5.048 -0.9132  1.1005 -0.4258
 2693SOL     OW19714   4.520   1.917   8.586 -0.1154 -0.6134  0.3471
 2693SOL    HW119715   4.551   2.003   8.616  0.7959 -0.8558  0.1122
 2693SOL    HW219716   4.603   1.893   8.543 -1.3319  1.4582 -3.1370
 2694SOL     OW19717   4.739   4.707  17.074  0.2536  0.4736 -0.0773
 2694SOL    HW119718   4.649   4.726  17.103  0.3579  1.6792 -0.5814
 2694SOL    HW219719   0.034   0.050  17.039  0.5128 -0.2606 -1.5499
 2695SOL     OW19720   4.507   0.713   8.877 -0.5814  0.4654 -0.4034
 2695SOL    HW119721   4.536   0.747   8.792 -1.9115  0.2563 -0.9502
 2695SOL    HW219722   4.436   0.773   8.899 -1.0225 -0.6088  1.1227
 2696SOL     OW19723   0.611   2.731   1.466 -0.6285  0.5869 -0.1153
 2696SOL    HW119724   0.579   2.650   1.507  3.0365 -0.7690  0.0102
 2696SOL    HW219725   0.689   2.743   1.519  1.2163 -1.7074 -2.3435
 2697SOL     OW19726   0.226   3.804  12.486 -0.5201 -0.0523  0.3425
 2697SOL    HW119727   0.276   3.752  12.549 -1.5471  0.2776  1.4413
 2697SOL    HW219728   0.262   3.764  12.407 -0.4753  0.1032  0.2854
 2698SOL     OW19729   2.142   0.585   5.322 -0.2182 -0.1175  0.3262
 2698SOL    HW119730   2.112   0.610   5.410 -0.2347 -3.0170  1.1394
 2698SOL    HW219731   2.222   0.535   5.334 -0.8005 -0.8751  1.0636
 2699SOL     OW19732   1.203   4.663   8.267  0.8993  0.2101 -0.1632
 2699SOL    HW119733   1.179   4.628   8.353 -0.8475 -0.0924 -0.7736
 2699SOL    HW219734   1.144   4.738   8.262 -1.4378 -1.5610  0.7523
 2700SOL     OW19735   1.171   0.976   0.805  0.2198 -0.3540  0.3283
 2700SOL    HW119736   1.119   1.055   0.821  2.4807  1.1237  0.5047
 2700SOL    HW219737   1.228   1.019   0.741 -0.8902 -0.7344 -0.9157
 2701SOL     OW19738   4.608   3.048   5.405 -0.2513  0.8150  0.0704
 2701SOL    HW119739   4.626   3.068   5.497 -1.1682 -0.0935  0.4457
 2701SOL    HW219740   4.523   3.006   5.394  0.3169 -0.6734  1.3190
 2702SOL     OW19741   4.375   2.514  13.753  0.5620 -0.1859  0.6374
 2702SOL    HW119742   4.361   2.544  13.843 -0.9537  0.7978  0.0645
 2702SOL    HW219743   4.365   2.419  13.764 -1.1593  0.0808  1.4275
 2703SOL     OW19744   0.071   3.354   7.535 -0.4689 -0.1328 -0.5404
 2703SOL    HW119745   0.019   3.433   7.540 -1.1697 -0.7285  1.6386
 2703SOL    HW219746   0.054   3.317   7.621 -0.0388  1.0116  0.0314
 2704SOL     OW19747   1.032   2.056   6.718  0.5328  0.1993  0.0476
 2704SOL    HW119748   1.085   2.113   6.774  1.7121 -0.0249 -0.8326
 2704SOL    HW219749   1.095   2.045   6.647  1.6958 -0.5480  1.2060
 2705SOL     OW19750   0.713   2.534   1.662  0.5199 -0.8521  0.2489
 2705SOL    HW119751   0.649   2.466   1.682  1.6306 -1.7667  0.6642
 2705SOL    HW219752   0.687   2.610   1.715  0.4417 -1.5396  1.2019
 2706SOL     OW19753   0.648   1.907   8.035  0.0187  0.1419  0.4798
 2706SOL    HW119754   0.665   1.997   8.005  1.0563  0.8060  3.0539
 2706SOL    HW219755   0.658   1.859   7.953 -0.2390  0.8420  0.0395
 2707SOL     OW19756   3.803   1.315   6.669 -0.0883  0.2057  0.1994
 2707SOL    HW119757   3.782   1.223   6.689 -1.0651 -0.0273 -1.9028
 2707SOL    HW219758   3.718   1.346   6.637  0.2049 -0.3901 -1.1752
 2708SOL     OW19759   3.405   0.293   3.242 -0.5443  0.5916  0.3104
 2708SOL    HW119760   3.390   0.209   3.199  1.0237 -1.2542  3.3875
 2708SOL    HW219761   3.496   0.279   3.270 -0.8861  1.0900  1.6949
 2709SOL     OW19762   4.139   3.397   3.398  0.0166 -0.4742  0.0898
 2709SOL    HW119763   4.133   3.329   3.466  0.1753 -1.8627 -1.2729
 2709SOL    HW219764   4.086   3.367   3.324 -1.3316 -1.0970  1.3209
 2710SOL     OW19765   1.428   1.145   0.995  0.2318  0.1756  0.0913
 2710SOL    HW119766   1.504   1.090   1.014  0.1868  0.0228 -0.1601
 2710SOL    HW219767   1.443   1.166   0.903 -2.0639 -1.4254 -0.6663
 2711SOL     OW19768   4.641   4.128   4.419  0.3137 -0.3527  0.2541
 2711SOL    HW119769   4.688   4.201   4.457 -2.0364  0.3698  1.7501
 2711SOL    HW219770   4.715   4.088   4.372  0.8885  0.0020  0.8670
 2712SOL     OW19771   0.408   1.424   7.098  0.1217 -0.3513 -0.1237
 2712SOL    HW119772   0.332   1.407   7.153 -0.7094  0.4361 -1.0144
 2712SOL    HW219773   0.378   1.439   7.008 -1.8001  0.8148  0.7078
 2713SOL     OW19774   3.130   2.620   1.444  0.1855 -0.4440  0.3795
 2713SOL    HW119775   3.102   2.686   1.381 -2.6604 -0.0981  1.9670
 2713SOL    HW219776   3.143   2.545   1.386 -0.6788 -0.5401  0.3087
 2714SOL     OW19777   4.295   1.597  10.023  0.1749 -0.5127  0.2607
 2714SOL    HW119778   4.375   1.586  10.073 -0.6783  0.2218  1.7827
 2714SOL    HW219779   4.337   1.617   9.939 -1.4127 -0.3501 -0.4946
 2715SOL     OW19780   2.835   4.163   9.640 -0.1504 -0.5384  0.3311
 2715SOL    HW119781   2.928   4.147   9.655 -0.6072 -2.2293  1.3915
 2715SOL    HW219782   2.837   4.233   9.575  1.9655 -1.4800 -0.6090
 2716SOL     OW19783   3.719   3.983   7.723 -1.0214 -0.3588  0.0164
 2716SOL    HW119784   3.696   4.069   7.687 -2.8897 -0.3512  1.2433
 2716SOL    HW219785   3.637   3.934   7.720  0.0397 -2.0996 -0.8397
 2717SOL     OW19786   2.252   3.875   3.700  0.8097 -0.1843  0.2159
 2717SOL    HW119787   2.270   3.969   3.702  0.8761 -0.2136  1.0419
 2717SOL    HW219788   2.178   3.868   3.760  0.0954 -0.0719 -0.6699
 2718SOL     OW19789   1.192   4.263   3.230  0.4940 -0.5522 -0.2861
 2718SOL    HW119790   1.158   4.180   3.197 -1.7365  0.6847 -1.1166
 2718SOL    HW219791   1.133   4.286   3.302 -1.4103 -1.5141 -1.5184
 2719SOL     OW19792   3.041   2.130   7.849 -0.5069  0.5558 -0.1150
 2719SOL    HW119793   3.031   2.221   7.823  1.0028  0.1372 -2.2238
 2719SOL    HW219794   3.126   2.103   7.814  1.2670  0.1931  4.4830
 2720SOL     OW19795   4.028   1.471   2.050  0.5298  0.2072 -0.8903
 2720SOL    HW119796   3.950   1.456   1.997  1.1891  1.6247 -2.2628
 2720SOL    HW219797   4.022   1.385   2.091 -0.0704  0.8601  0.3837
 2721SOL     OW19798   3.769   2.658  15.450 -0.5489 -0.1339 -0.2836
 2721SOL    HW119799   3.820   2.711  15.513  1.9027  0.1323 -2.5051
 2721SOL    HW219800   3.705   2.724  15.425 -0.4331  0.2342  0.3660
 2722SOL     OW19801   0.652   2.361  16.352 -0.5435  0.0006  0.4189
 2722SOL    HW119802   0.560   2.388  16.353 -0.5688 -0.1052  0.8753
 2722SOL    HW219803   0.655   2.272  16.315  0.0841 -0.6531  2.0469
 2723SOL     OW19804   2.485   2.751   5.287 -0.2360  0.2940 -0.1978
 2723SOL    HW119805   2.462   2.806   5.361 -2.0612  1.1495 -1.4039
 2723SOL    HW219806   2.499   2.815   5.217  0.6143  0.9479  0.5676
 2724SOL     OW19807   1.290   0.989  12.740 -0.1701 -0.2770  0.4105
 2724SOL    HW119808   1.338   0.920  12.786  2.0596  1.5063  0.7527
 2724SOL    HW219809   1.236   0.936  12.682  0.2492 -0.5163  0.2359
 2725SOL     OW19810   0.548   2.858   2.840  0.0368 -0.8370  0.1803
 2725SOL    HW119811   0.508   2.777   2.873  0.0727 -0.2296  1.7236
 2725SOL    HW219812   0.582   2.897   2.920  2.0951 -2.0853 -0.0789
 2726SOL     OW19813   0.645   3.314  14.480  0.1722  0.2552  0.6238
 2726SOL    HW119814   0.659   3.298  14.573 -0.2422  2.6495  1.0982
 2726SOL    HW219815   0.734   3.302  14.446 -0.3496  0.0639 -0.6735
 2727SOL     OW19816   3.794   4.117   3.937 -0.3720 -0.2142  0.1095
 2727SOL    HW119817   3.792   4.038   3.883  0.9776 -0.0791 -0.1309
 2727SOL    HW219818   3.791   4.076   4.024  1.2599 -0.8201 -0.1316
 2728SOL     OW19819   0.021   2.954   5.696  0.6154  0.3206  0.2355
 2728SOL    HW119820   4.673   2.950   5.736  0.9510 -2.7625  0.6570
 2728SOL    HW219821   0.069   3.000   5.765  0.6563 -0.8286  0.9604
 2729SOL     OW19822   0.144   4.615   5.703 -0.2505 -0.7413  0.3018
 2729SOL    HW119823   0.207   4.564   5.753 -0.7181  0.0545  1.6821
 2729SOL    HW219824   0.086   4.544   5.674 -0.4889 -1.4746  2.5761
 2730SOL     OW19825   3.571   4.172  12.943  0.0477  0.2689  0.6803
 2730SOL    HW119826   3.570   4.076  12.941 -2.6752  0.3312 -1.1731
 2730SOL    HW219827   3.625   4.191  12.866 -0.4725 -1.3246 -0.0932
 2731SOL     OW19828   0.848   3.559  14.482 -0.5011 -0.3317 -0.1639
 2731SOL    HW119829   0.876   3.473  14.513  1.3676  0.9318  1.6378
 2731SOL    HW219830   0.853   3.551  14.387  0.5392  0.7727 -0.1932
 2732SOL     OW19831   3.064   2.274   5.438 -0.0495 -0.2780  0.0528
 2732SOL    HW119832   2.988   2.307   5.390 -0.1802  0.0633  0.4864
 2732SOL    HW219833   3.098   2.223   5.365 -0.7165 -0.6309 -0.0162
 2733SOL     OW19834   2.119   2.025   1.955  0.2969  0.5528 -0.5898
 2733SOL    HW119835   2.206   1.985   1.947 -0.1983 -0.6936  0.4444
 2733SOL    HW219836   2.088   2.026   1.864  5.1705 -0.7153 -2.2801
 2734SOL     OW19837   4.075   2.177   0.467  0.0186 -0.2712 -0.0840
 2734SOL    HW119838   4.011   2.153   0.400 -0.4087 -3.6399  1.5255
 2734SOL    HW219839   4.080   2.272   0.456 -1.5662 -0.1020  0.5786
 2735SOL     OW19840   1.475   4.629   9.524  0.1258  0.1363 -0.4365
 2735SOL    HW119841   1.541   4.696   9.509 -0.1313  0.5321  0.2409
 2735SOL    HW219842   1.397   4.681   9.543  0.1040  0.5170 -1.5586
 2736SOL     OW19843   1.304   3.247  15.412 -0.4607 -0.1149  0.4060
 2736SOL    HW119844   1.386   3.289  15.385  0.0604  0.5393  3.0253
 2736SOL    HW219845   1.334   3.198  15.489 -3.0465 -0.0784  1.4100
 2737SOL     OW19846   2.259   0.420   3.649  0.0017  0.1637  0.2326
 2737SOL    HW119847   2.191   0.359   3.680  3.4170 -2.5713  2.4823
 2737SOL    HW219848   2.335   0.417   3.709  0.3277  1.8740 -0.1016
 2738SOL     OW19849   4.169   0.425   9.620  0.2462  0.8485 -0.2619
 2738SOL    HW119850   4.142   0.348   9.570  0.2617  0.7296 -0.0866
 2738SOL    HW219851   4.186   0.399   9.710 -1.4357 -0.9850 -0.4721
 2739SOL     OW19852   4.129   2.510  14.916  0.5576 -0.0167 -0.4410
 2739SOL    HW119853   4.089   2.596  14.919 -0.5285 -0.5717  1.3787
 2739SOL    HW219854   4.072   2.458  14.973 -1.2483  1.1314 -1.2139
 2740SOL     OW19855   2.846   2.906   3.124  0.2522  0.5862  0.0146
 2740SOL    HW119856   2.774   2.880   3.068  1.1550 -1.7405 -0.0742
 2740SOL    HW219857   2.900   2.958   3.065 -1.1901 -2.0432 -3.5846
 2741SOL     OW19858   0.300   2.231   5.801  0.5113 -0.3834 -0.4213
 2741SOL    HW119859   0.326   2.173   5.873 -1.0665 -1.2664 -0.5716
 2741SOL    HW219860   0.303   2.172   5.726  1.1861  0.8374 -1.3489
 2742SOL     OW19861   2.408   1.384   7.784  0.4859  0.5863 -0.0405
 2742SOL    HW119862   2.369   1.455   7.734  0.2856  1.3626  1.1955
 2742SOL    HW219863   2.395   1.306   7.731  0.0946  1.5722 -1.3914
 2743SOL     OW19864   1.294   3.907   7.524 -0.1782 -0.7776  0.2428
 2743SOL    HW119865   1.375   3.866   7.555 -0.5950 -1.6386  0.1926
 2743SOL    HW219866   1.318   3.954   7.443  1.1644 -1.6913  0.1041
 2744SOL     OW19867   1.225   3.757   5.954 -0.9288 -0.0885 -0.2442
 2744SOL    HW119868   1.228   3.721   6.042  0.8750 -0.7527 -0.5839
 2744SOL    HW219869   1.154   3.821   5.966 -1.3613 -0.9600  1.8645
 2745SOL     OW19870   0.158   1.720   1.585 -0.2897 -0.4401  0.0940
 2745SOL    HW119871   0.112   1.641   1.556  1.2846 -0.6004 -1.9498
 2745SOL    HW219872   0.118   1.736   1.670  1.2177 -0.7803  0.8644
 2746SOL     OW19873   3.749   1.226   8.640  0.0924 -0.4582 -0.2293
 2746SOL    HW119874   3.726   1.154   8.699  0.2054  0.0521  0.4358
 2746SOL    HW219875   3.737   1.308   8.688  1.7182  0.9588 -2.2388
 2747SOL     OW19876   1.177   1.160   4.923  0.0946  1.0511  0.1320
 2747SOL    HW119877   1.207   1.170   5.013 -0.6787 -1.1983  0.6438
 2747SOL    HW219878   1.225   1.226   4.872 -0.6112  2.4764  1.3305
 2748SOL     OW19879   0.766   3.005  12.318  0.2796  0.3443 -0.5417
 2748SOL    HW119880   0.689   3.044  12.277  0.9368  2.4252  0.2150
 2748SOL    HW219881   0.827   3.073  12.293  2.1555 -0.9896  0.3843
 2749SOL     OW19882   1.386   2.614  14.716 -0.2946  0.8341 -0.2900
 2749SOL    HW119883   1.366   2.706  14.695  0.0850  1.2883  1.4045
 2749SOL    HW219884   1.320   2.559  14.673 -1.6343 -0.5699  3.5890
 2750SOL     OW19885   2.904   3.363  13.955  0.2308  0.1555  0.4062
 2750SOL    HW119886   2.858   3.354  14.038  0.5699  1.8441  0.7808
 2750SOL    HW219887   2.902   3.271  13.928  0.3665  0.0809  0.6465
 2751SOL     OW19888   4.165   3.820   6.948  0.0701  0.3380 -0.2110
 2751SOL    HW119889   4.143   3.817   7.041  2.3797  0.0199  0.3438
 2751SOL    HW219890   4.075   3.819   6.915 -0.0092  0.9338 -0.0121
 2752SOL     OW19891   0.410   4.253  17.544  0.2557  0.0762 -0.6408
 2752SOL    HW119892   0.448   4.178  17.497  0.2832 -1.7334  2.2775
 2752SOL    HW219893   0.416   4.216  17.632  0.9574 -0.5678 -0.9521
 2753SOL     OW19894   2.030   0.695   0.192  0.1532 -0.4095  0.1892
 2753SOL    HW119895   1.980   0.614   0.201 -0.0651 -0.3835 -0.7915
 2753SOL    HW219896   2.063   0.687   0.102 -2.2377 -3.4685 -0.3933
 2754SOL     OW19897   1.682   4.400   9.801  0.3344 -0.1210  0.3183
 2754SOL    HW119898   1.690   4.447   9.884 -0.9304  0.7236 -0.0219
 2754SOL    HW219899   1.753   4.336   9.800  1.7906  1.4894 -1.3870
 2755SOL     OW19900   3.671   1.448  11.382  0.3319 -0.2107  0.2725
 2755SOL    HW119901   3.653   1.537  11.353 -0.3733 -0.2394  0.6275
 2755SOL    HW219902   3.596   1.394  11.357 -0.7153  0.6060  1.7051
 2756SOL     OW19903   0.610   0.077  13.179  0.4805  0.0567 -0.4506
 2756SOL    HW119904   0.546   0.140  13.211  3.2246  3.1551 -1.0403
 2756SOL    HW219905   0.641   0.036  13.260  0.1982 -2.5854 -1.6739
 2757SOL     OW19906   0.930   1.417   5.974 -0.0496  0.1080  0.2973
 2757SOL    HW119907   0.884   1.486   6.020 -0.9536 -0.4847  0.2892
 2757SOL    HW219908   0.879   1.345   6.010  0.3112  0.5797  1.7243
 2758SOL     OW19909   3.772   4.491   6.622 -0.2208 -0.2709  0.1889
 2758SOL    HW119910   3.749   4.480   6.530  3.3375 -3.3848 -0.3437
 2758SOL    HW219911   3.809   4.578   6.610  1.0254 -0.8973 -0.5702
 2759SOL     OW19912   4.547   1.081   4.225  0.9664  0.6553 -0.3939
 2759SOL    HW119913   4.623   1.081   4.282 -0.0943 -1.3240  1.0231
 2759SOL    HW219914   4.586   1.059   4.141 -1.0440 -1.5864 -0.7213
 2760SOL     OW19915   2.249   0.226   6.949  0.3358  0.8922  0.4266
 2760SOL    HW119916   2.202   0.143   6.954  2.1798 -0.2524 -1.4638
 2760SOL    HW219917   2.169   0.277   6.937 -0.1955  0.0085  0.2470
 2761SOL     OW19918   2.852   0.343   7.163 -0.1305  0.1905  0.2540
 2761SOL    HW119919   2.838   0.396   7.242 -2.0997 -1.9815  1.3526
 2761SOL    HW219920   2.792   0.268   7.163  1.4822 -1.1045 -0.1817
 2762SOL     OW19921   0.085   0.170  10.707  0.6854  0.4993  0.0654
 2762SOL    HW119922   0.075   0.095  10.765  0.9073 -0.2002 -0.8074
 2762SOL    HW219923   0.030   0.238  10.748 -0.0023  0.7646 -1.2821
 2763SOL     OW19924   0.273   0.250   8.096  0.6927 -0.8095  0.1436
 2763SOL    HW119925   0.249   0.245   8.188  2.3479 -0.0647  0.6170
 2763SOL    HW219926   0.342   0.184   8.086 -1.2169 -2.9285  1.0867
 2764SOL     OW19927   1.952   4.297   7.699  0.2593  0.2364 -0.1388
 2764SOL    HW119928   1.890   4.236   7.739  1.7105 -0.7041  0.6558
 2764SOL    HW219929   2.026   4.237   7.694  1.1977  1.4487 -0.7376
 2765SOL     OW19930   0.730   4.029   7.415 -0.3828 -0.0970  0.1270
 2765SOL    HW119931   0.675   3.951   7.421 -1.3679  0.4956 -1.2578
 2765SOL    HW219932   0.747   4.041   7.508  0.6880 -1.1045  0.0640
 2766SOL     OW19933   1.792   4.363  14.191  0.7626 -0.0626  0.4463
 2766SOL    HW119934   1.878   4.366  14.150  0.8604  0.6324  0.7110
 2766SOL    HW219935   1.779   4.457  14.193 -1.4035 -0.3461 -0.4801
 2767SOL     OW19936   3.175   4.285   7.917  0.2427  0.8769  0.0158
 2767SOL    HW119937   3.209   4.348   7.854  0.5331 -0.1782 -0.8906
 2767SOL    HW219938   3.224   4.293   7.999 -1.7271  0.2421  1.2586
 2768SOL     OW19939   1.067   0.958   3.706  0.0421  0.1676  0.3952
 2768SOL    HW119940   1.044   1.028   3.767 -1.0602  1.7357 -1.8464
 2768SOL    HW219941   1.117   0.906   3.769 -0.8077 -0.5487  0.4877
 2769SOL     OW19942   4.654   3.391  15.883 -0.5673  0.0495  0.2737
 2769SOL    HW119943   4.634   3.475  15.842 -1.0561  0.6441  1.7620
 2769SOL    HW219944   4.577   3.339  15.860 -1.8979  2.4271 -0.5766
 2770SOL     OW19945   3.809   1.256   5.377  0.1850  0.0637  0.4376
 2770SOL    HW119946   3.715   1.276   5.387  0.1478  0.1723 -0.1689
 2770SOL    HW219947   3.805   1.206   5.296  0.4830 -0.2223  0.5999
 2771SOL     OW19948   2.970   3.316   0.864 -0.1464 -0.5338 -0.6665
 2771SOL    HW119949   2.949   3.410   0.861 -0.6530 -0.6206  0.2502
 2771SOL    HW219950   3.040   3.318   0.928 -0.2665 -0.8457 -0.5286
 2772SOL     OW19951   1.132   3.291   4.064  0.0595  0.1909 -0.1644
 2772SOL    HW119952   1.220   3.281   4.099  0.5646  2.9458 -0.6973
 2772SOL    HW219953   1.087   3.215   4.102 -0.4292 -0.0823 -1.2817
 2773SOL     OW19954   0.695   4.323   5.829  0.3940 -0.2787 -0.2465
 2773SOL    HW119955   0.648   4.402   5.856  0.8858 -0.4285  1.0519
 2773SOL    HW219956   0.762   4.316   5.898  0.0047  1.1508  0.2854
 2774SOL     OW19957   4.460   2.824   8.087  0.2371 -0.3584  0.1198
 2774SOL    HW119958   4.547   2.804   8.121  0.7438 -0.0189 -0.9631
 2774SOL    HW219959   4.445   2.908   8.131 -0.9482  0.7329 -2.3677
 2775SOL     OW19960   2.827   2.651   2.598  0.3600  0.1687 -0.0022
 2775SOL    HW119961   2.782   2.601   2.667  0.5933  0.7472  0.5611
 2775SOL    HW219962   2.908   2.600   2.597  0.0007 -0.3690 -1.7831
 2776SOL     OW19963   1.730   2.558   1.874  0.3741  0.3428  0.4186
 2776SOL    HW119964   1.748   2.473   1.834 -0.8845  0.0827  0.4266
 2776SOL    HW219965   1.820   2.584   1.896 -0.4901  3.9721 -0.3803
 2777SOL     OW19966   3.868   2.138   7.216 -0.0271  0.2903 -0.4040
 2777SOL    HW119967   3.881   2.232   7.203 -1.4754  0.9637  3.1780
 2777SOL    HW219968   3.951   2.104   7.182 -0.1352 -0.6542  0.2982
 2778SOL     OW19969   0.106   2.330   2.928  0.5946  0.3389 -0.1076
 2778SOL    HW119970   0.057   2.408   2.955 -1.0896 -0.7912  0.0975
 2778SOL    HW219971   0.184   2.365   2.884  0.7358 -0.3382 -0.3878
 2779SOL     OW19972   2.071   3.540   2.418 -0.2096 -0.2615 -0.1304
 2779SOL    HW119973   2.055   3.450   2.391  1.4263 -1.2110  2.0667
 2779SOL    HW219974   1.987   3.586   2.417  0.0627  0.2191 -0.9458
 2780SOL     OW19975   0.128   1.327   3.800  0.8738 -0.2246  0.7492
 2780SOL    HW119976   0.210   1.332   3.751  0.3161 -0.3051 -0.1999
 2780SOL    HW219977   0.165   1.370   3.877 -2.1905 -0.8512  2.5793
 2781SOL     OW19978   1.631   4.598   3.776  0.0402  0.0146  0.9000
 2781SOL    HW119979   1.634   4.679   3.826  0.2296 -0.1293  1.1215
 2781SOL    HW219980   1.599   4.531   3.837 -1.4822  0.1921  0.3021
 2782SOL     OW19981   1.491   0.530   6.958  0.0784 -0.1855 -0.3138
 2782SOL    HW119982   1.414   0.475   6.973  0.9376 -1.4114 -0.3952
 2782SOL    HW219983   1.491   0.531   6.862  1.9622 -0.3673 -0.3097
 2783SOL     OW19984   2.264   3.768   5.876 -0.1849  0.1102 -0.2780
 2783SOL    HW119985   2.293   3.759   5.785  3.4058 -0.3671  0.8952
 2783SOL    HW219986   2.172   3.781   5.853  0.1795  0.4887 -1.4974
 2784SOL     OW19987   4.180   2.126   8.524 -0.4077 -0.1325  0.3682
 2784SOL    HW119988   4.229   2.196   8.565 -0.7712  0.3546 -0.0202
 2784SOL    HW219989   4.185   2.062   8.595 -1.2133 -0.4052  0.1832
 2785SOL     OW19990   3.954   1.708   9.514  0.2613 -0.1899  0.6848
 2785SOL    HW119991   4.043   1.743   9.511 -0.1710  0.7045 -1.6346
 2785SOL    HW219992   3.958   1.622   9.557 -4.3087 -0.0005  1.5680
 2786SOL     OW19993   2.965   1.386   2.723  0.4136 -0.3653  0.6934
 2786SOL    HW119994   2.978   1.350   2.811  1.2713 -1.0392  0.2855
 2786SOL    HW219995   2.967   1.308   2.668  0.3975  1.1138 -1.3667
 2787SOL     OW19996   3.998   1.625   1.759 -0.5477  0.2492 -0.3220
 2787SOL    HW119997   3.944   1.608   1.836  1.8432  2.5555  1.8590
 2787SOL    HW219998   3.958   1.571   1.691 -0.6535  0.8722 -0.7553
 2788SOL     OW19999   0.748   3.879   6.828  0.4034  0.2784  0.4131
 2788SOL    HW120000   0.710   3.964   6.849  2.5818  0.7365  2.5088
 2788SOL    HW220001   0.746   3.850   6.919  0.3228 -0.5481  0.1529
 2789SOL     OW20002   4.514   0.498   9.049 -0.1554 -0.3593 -0.6110
 2789SOL    HW120003   4.468   0.541   9.120  1.6274  2.1166 -0.9560
 2789SOL    HW220004   4.538   0.574   8.997  2.0669  0.3507  1.4740
 2790SOL     OW20005   4.139   3.058   6.460 -0.4481  0.1972  0.6447
 2790SOL    HW120006   4.127   3.051   6.554  1.5201  0.4672  0.9087
 2790SOL    HW220007   4.182   2.974   6.443 -2.0209 -0.8879  2.0477
 2791SOL     OW20008   2.700   2.089   1.228 -0.1226  0.8008 -0.0066
 2791SOL    HW120009   2.755   2.020   1.191 -1.0733  0.2502 -0.3799
 2791SOL    HW220010   2.698   2.062   1.320  1.5064  0.1319 -0.1569
 2792SOL     OW20011   2.142   3.035   9.997 -0.5282  0.1556 -0.0845
 2792SOL    HW120012   2.087   3.020  10.074  1.0321  0.3841  1.0897
 2792SOL    HW220013   2.158   2.942   9.979  0.6467  0.3915 -0.2814
 2793SOL     OW20014   1.288   3.600   2.666  0.0033  0.1626 -0.2287
 2793SOL    HW120015   1.250   3.520   2.702 -0.5494  1.2075  1.5006
 2793SOL    HW220016   1.220   3.663   2.688 -0.4852 -0.4927  0.1215
 2794SOL     OW20017   3.656   1.312   3.092  0.0092  0.0525  0.0667
 2794SOL    HW120018   3.620   1.295   3.179 -1.8219  1.9669 -0.3404
 2794SOL    HW220019   3.625   1.237   3.040  3.0449 -1.3863  0.3019
 2795SOL     OW20020   2.156   0.087  11.451  0.3440 -0.1953  0.2707
 2795SOL    HW120021   2.151   0.154  11.519 -0.7466  0.1524 -0.1468
 2795SOL    HW220022   2.071   0.095  11.409 -0.2526 -1.6708  1.1852
 2796SOL     OW20023   3.038   1.100   7.934 -0.5485  0.4359  0.3184
 2796SOL    HW120024   3.096   1.125   8.007  1.4090 -0.6446 -0.8775
 2796SOL    HW220025   2.951   1.118   7.969 -0.5674  1.3442 -0.1979
 2797SOL     OW20026   1.007   4.151   6.492  0.2929 -0.4821 -0.1248
 2797SOL    HW120027   0.962   4.079   6.537 -2.4684  1.8468  0.8631
 2797SOL    HW220028   1.090   4.142   6.538 -0.1514 -1.3262  0.5092
 2798SOL     OW20029   4.144   3.904   2.691  0.0495 -0.4702  0.1204
 2798SOL    HW120030   4.238   3.890   2.687 -0.2665 -1.8647 -2.4071
 2798SOL    HW220031   4.105   3.832   2.641 -0.0883  0.1575 -0.6674
 2799SOL     OW20032   3.786   3.009   4.263  0.6196 -1.0928 -0.1641
 2799SOL    HW120033   3.739   2.988   4.183  0.5248  1.2064 -0.7213
 2799SOL    HW220034   3.874   2.973   4.249  0.2187 -1.8938 -0.6307
 2800SOL     OW20035   2.029   1.884   6.558  0.2028 -0.1357 -0.3657
 2800SOL    HW120036   2.099   1.820   6.572 -0.3039 -0.3513  1.1568
 2800SOL    HW220037   1.965   1.839   6.614  0.1450  0.0669 -0.2708
 2801SOL     OW20038   3.547   1.600   4.805  0.1947 -0.2382 -0.2679
 2801SOL    HW120039   3.570   1.668   4.741 -0.1357  0.7656  0.6802
 2801SOL    HW220040   3.457   1.592   4.771  0.4135  1.0079 -1.1721
 2802SOL     OW20041   0.504   3.866   1.954  0.7290 -0.2853  0.0159
 2802SOL    HW120042   0.523   3.951   1.994 -1.1174  0.9938 -1.8290
 2802SOL    HW220043   0.437   3.895   1.892 -0.0121 -1.4365  0.2934
 2803SOL     OW20044   0.395   0.191   9.210 -0.0245  0.1435  0.3608
 2803SOL    HW120045   0.438   0.209   9.293 -2.2658  1.0534  1.3055
 2803SOL    HW220046   0.359   0.278   9.194  0.1442 -0.4145 -3.1511
 2804SOL     OW20047   0.675   3.171   7.332 -0.4306 -0.1482 -1.0063
 2804SOL    HW120048   0.719   3.200   7.251  0.1040 -0.0707 -0.6921
 2804SOL    HW220049   0.586   3.176   7.299 -1.3917 -0.4618  1.5363
 2805SOL     OW20050   3.466   0.980  14.576  0.7313  0.0888 -0.1974
 2805SOL    HW120051   3.435   1.071  14.578 -1.1087 -0.5230 -1.2003
 2805SOL    HW220052   3.385   0.932  14.594  0.5226  1.0605  1.4342
 2806SOL     OW20053   0.858   3.882   8.162  0.1465  0.1610 -0.3608
 2806SOL    HW120054   0.895   3.813   8.218 -0.7450 -0.3513 -0.4098
 2806SOL    HW220055   0.792   3.838   8.108 -1.4489  0.0292  1.7017
 2807SOL     OW20056   4.714   0.356   8.555  0.3846 -0.6172  0.3158
 2807SOL    HW120057   4.635   0.302   8.560 -0.2589  0.3625  0.7173
 2807SOL    HW220058   4.698   0.401   8.638 -0.2161  2.0618 -1.2844
 2808SOL     OW20059   3.010   4.731  17.082 -0.1755 -0.5459 -0.0732
 2808SOL    HW120060   2.969   0.075  17.107  2.3783  0.3327  1.2107
 2808SOL    HW220061   3.073   0.023  17.015 -0.4458  1.7347  0.7151
 2809SOL     OW20062   2.426   2.729   6.735  0.3093 -0.5362 -0.3825
 2809SOL    HW120063   2.339   2.692   6.725  0.1937 -0.3853  0.0735
 2809SOL    HW220064   2.398   2.821   6.732  2.3065  0.1280  0.7689
 2810SOL     OW20065   2.585   0.380   7.967  0.0786  0.1165  0.3873
 2810SOL    HW120066   2.594   0.307   8.028  1.6307 -0.3748 -0.4361
 2810SOL    HW220067   2.649   0.436   8.012  0.5219  1.2031 -1.6014
 2811SOL     OW20068   3.938   1.018   4.765 -0.1077 -0.1446 -0.0485
 2811SOL    HW120069   3.859   0.985   4.810  0.1148 -0.2179  0.2912
 2811SOL    HW220070   3.986   1.056   4.839 -0.1464 -0.8028  0.3204
 2812SOL     OW20071   1.675   0.822   7.550 -0.2333  0.2985  0.1790
 2812SOL    HW120072   1.673   0.754   7.483 -0.1839  0.7705 -0.3071
 2812SOL    HW220073   1.749   0.785   7.598  1.3757  1.0133 -1.6798
 2813SOL     OW20074   0.082   0.406  14.578  0.1325 -0.1486  0.6816
 2813SOL    HW120075   0.132   0.345  14.525 -1.2672 -1.6453  1.0991
 2813SOL    HW220076   4.733   0.407  14.539 -0.4308  0.0708  1.9213
 2814SOL     OW20077   4.721   4.125   9.274  0.0509  0.0845 -0.2646
 2814SOL    HW120078   4.731   4.219   9.288  0.0461  0.4039 -2.4585
 2814SOL    HW220079   4.638   4.113   9.228 -0.7282 -0.0676  1.1788
 2815SOL     OW20080   3.932   1.363  11.321  0.6431 -0.4056  0.5985
 2815SOL    HW120081   3.920   1.406  11.236  0.8770 -0.2423  0.6469
 2815SOL    HW220082   3.846   1.383  11.358  1.4162  0.0468  2.1777
 2816SOL     OW20083   3.058   1.858   5.906 -0.2145 -0.1253 -0.1451
 2816SOL    HW120084   2.971   1.822   5.886  0.2177 -1.3698  0.2072
 2816SOL    HW220085   3.101   1.789   5.957  2.1027  1.1001 -0.4546
 2817SOL     OW20086   1.597   3.800  13.316 -0.3755  0.2550  0.3882
 2817SOL    HW120087   1.632   3.816  13.404  0.4982  1.0047 -0.0961
 2817SOL    HW220088   1.671   3.843  13.275 -1.7474  0.5806 -1.7098
 2818SOL     OW20089   0.160   3.205  10.435 -0.4298 -0.1484 -0.0690
 2818SOL    HW120090   0.231   3.162  10.482  1.2968  0.8996 -1.7240
 2818SOL    HW220091   0.187   3.297  10.441 -1.5918  0.1840  0.1411
 2819SOL     OW20092   0.705   3.651   2.192 -0.3857 -0.0147  0.1041
 2819SOL    HW120093   0.681   3.631   2.282 -1.6907  0.9137 -0.0357
 2819SOL    HW220094   0.746   3.568   2.168 -0.1104 -0.1523  1.0779
 2820SOL     OW20095   1.485   0.755   6.339  0.0053 -0.6202 -0.3450
 2820SOL    HW120096   1.539   0.828   6.371 -2.7484  0.9467  0.7723
 2820SOL    HW220097   1.550   0.695   6.304  0.4564  0.4562 -1.3103
 2821SOL     OW20098   2.378   0.702   2.143 -0.0195  0.5020  0.5425
 2821SOL    HW120099   2.455   0.753   2.168 -0.7208  0.4550  2.7982
 2821SOL    HW220100   2.325   0.769   2.102 -1.4739  0.6727  2.6808
 2822SOL     OW20101   0.699   0.063   8.514  0.7197  0.3316  0.4094
 2822SOL    HW120102   0.733   0.106   8.593  0.7002 -2.0890  1.7150
 2822SOL    HW220103   0.769   0.001   8.494  0.5789 -0.0200  1.0325
 2823SOL     OW20104   2.865   1.010   7.509  0.5155  1.1628  0.1037
 2823SOL    HW120105   2.867   0.966   7.594  2.6641 -2.2876 -1.7425
 2823SOL    HW220106   2.774   0.995   7.484  0.8816  0.2130 -0.6621
 2824SOL     OW20107   4.539   1.911  14.160  0.5668  0.4480 -0.1677
 2824SOL    HW120108   4.451   1.873  14.169 -0.0397  0.8623 -3.9947
 2824SOL    HW220109   4.516   1.988  14.108 -0.8521 -1.4230 -2.3712
 2825SOL     OW20110   1.080   4.513   6.048 -0.3610 -0.1008  0.5893
 2825SOL    HW120111   1.027   4.457   5.991 -0.4441  2.0087 -1.4129
 2825SOL    HW220112   1.159   4.521   5.994 -0.5243  1.8508  0.6314
 2826SOL     OW20113   3.266   4.590   4.898 -0.4928 -0.0399 -0.1487
 2826SOL    HW120114   3.350   4.551   4.923  0.2387 -0.4144 -3.2350
 2826SOL    HW220115   3.206   4.528   4.941  1.1785 -2.0925 -0.7836
 2827SOL     OW20116   4.716   1.695   7.202  0.5059  0.7007 -0.0943
 2827SOL    HW120117   4.685   1.734   7.284  0.0001 -0.6852  0.3659
 2827SOL    HW220118   0.066   1.675   7.231  0.6242  2.3398  0.7094
 2828SOL     OW20119   2.208   0.735  12.193 -0.1519 -1.0463  0.1517
 2828SOL    HW120120   2.143   0.753  12.125  0.5991  0.5070 -0.1534
 2828SOL    HW220121   2.154   0.700  12.264 -2.2052 -1.1771 -1.4713
 2829SOL     OW20122   1.292   1.507   9.522  0.0205  0.5937 -0.1095
 2829SOL    HW120123   1.340   1.429   9.551 -0.4719  1.2361  2.3360
 2829SOL    HW220124   1.338   1.581   9.561  0.4294 -0.1390  0.8028
 2830SOL     OW20125   0.163   4.713   2.559 -0.5195  0.4688  0.0371
 2830SOL    HW120126   0.196   0.021   2.483 -0.0975  3.6735  2.2070
 2830SOL    HW220127   0.236   4.651   2.568 -0.1893  0.8245 -0.2351
 2831SOL     OW20128   4.679   3.071   3.335 -0.3750 -0.1015  0.1668
 2831SOL    HW120129   4.637   3.098   3.417  0.8118 -1.5346  1.2378
 2831SOL    HW220130   4.630   2.990   3.320 -0.0865 -0.1151 -0.7120
 2832SOL     OW20131   2.451   2.663   5.718 -0.1707  0.1331 -0.5366
 2832SOL    HW120132   2.529   2.629   5.762 -0.9979 -0.9886  0.0712
 2832SOL    HW220133   2.441   2.746   5.763  0.0855 -0.7102  1.0793
 2833SOL     OW20134   0.232   3.564  10.220  0.0545  0.3283  0.1089
 2833SOL    HW120135   0.300   3.627  10.195  0.1688 -0.3110 -1.1783
 2833SOL    HW220136   0.273   3.505  10.284 -0.4807 -2.2126 -1.9121
 2834SOL     OW20137   2.072   2.328   6.647  0.4844 -0.3019  0.0174
 2834SOL    HW120138   2.159   2.351   6.681 -0.0417 -2.0715  2.5694
 2834SOL    HW220139   2.093   2.246   6.603  2.2475  1.4037 -2.3312
 2835SOL     OW20140   2.925   1.831  10.754 -0.6972  0.2606  0.3180
 2835SOL    HW120141   2.940   1.791  10.669 -0.3903 -2.3679  1.5847
 2835SOL    HW220142   3.007   1.878  10.767 -0.7340  0.4985 -0.3455
 2836SOL     OW20143   2.287   1.501   0.470 -0.5251  0.0462  0.1713
 2836SOL    HW120144   2.199   1.488   0.505 -0.3951 -1.0285  0.1053
 2836SOL    HW220145   2.327   1.535   0.550  0.2685  0.3039 -0.3384
 2837SOL     OW20146   4.724   3.289   7.818  0.2421  0.5274 -0.2297
 2837SOL    HW120147   4.630   3.299   7.805  0.1033 -0.9286 -0.2516
 2837SOL    HW220148   4.727   3.214   7.876  0.0030 -1.8506 -3.2872
 2838SOL     OW20149   2.082   3.594   6.799 -0.1587 -0.4234  0.2311
 2838SOL    HW120150   2.023   3.566   6.868  0.4013  1.6065  1.5409
 2838SOL    HW220151   2.049   3.542   6.726 -0.0589 -1.3371  0.8388
 2839SOL     OW20152   2.184   2.415  13.565 -0.4222  0.1148 -0.6780
 2839SOL    HW120153   2.187   2.465  13.484  1.4225  2.8134  1.0636
 2839SOL    HW220154   2.273   2.417  13.601 -0.1514  0.3882 -1.3675
 2840SOL     OW20155   4.031   0.450   6.914 -0.2274  0.0079 -0.0523
 2840SOL    HW120156   4.004   0.467   6.824  0.6183  0.9672 -0.1299
 2840SOL    HW220157   3.954   0.463   6.969  0.7659 -0.2950  1.4237
 2841SOL     OW20158   3.763   1.774  11.483  0.4171  0.5467 -0.0673
 2841SOL    HW120159   3.695   1.828  11.523 -1.4039 -0.1568 -2.2290
 2841SOL    HW220160   3.837   1.833  11.495 -0.1572  1.2994 -0.2115
 2842SOL     OW20161   2.386   4.381   3.562 -0.2506  0.4071  0.1931
 2842SOL    HW120162   2.294   4.397   3.538  0.6718  0.4439 -3.3349
 2842SOL    HW220163   2.395   4.425   3.646  1.1663  2.5551 -1.1043
 2843SOL     OW20164   1.669   3.313   9.236 -0.1852  0.6167  0.1851
 2843SOL    HW120165   1.615   3.236   9.254 -1.4863  1.3090 -0.7460
 2843SOL    HW220166   1.736   3.265   9.188 -1.2669 -0.8437  0.1328
 2844SOL     OW20167   3.646   0.070   5.223  0.1875 -0.1691  0.5714
 2844SOL    HW120168   3.733   0.055   5.261  0.1609 -1.6957  0.0113
 2844SOL    HW220169   3.668   0.047   5.133 -2.2442  2.3591 -0.6661
 2845SOL     OW20170   0.637   4.127   6.853 -0.0655 -0.0035  0.0851
 2845SOL    HW120171   0.587   4.154   6.930 -0.8827  0.4247 -0.6039
 2845SOL    HW220172   0.569   4.152   6.791 -1.1125  3.9206  2.8058
 2846SOL     OW20173   4.643   2.688   5.892  0.0688  0.5091  0.2125
 2846SOL    HW120174   4.731   2.680   5.856  0.7205  1.6957  1.5082
 2846SOL    HW220175   4.609   2.750   5.828 -2.4629 -0.5698  0.5486
 2847SOL     OW20176   2.991   0.010   6.578 -0.1112 -0.2451 -0.1060
 2847SOL    HW120177   3.022   4.658   6.582 -0.3688 -0.2931  0.7605
 2847SOL    HW220178   3.062   0.054   6.624 -0.2056 -1.0784  0.8374
 2848SOL     OW20179   2.220   2.101   5.811  0.4774  0.0668  0.2265
 2848SOL    HW120180   2.314   2.099   5.796  0.1632  0.2644 -1.8578
 2848SOL    HW220181   2.190   2.073   5.724  1.6719  1.8645 -0.7495
 2849SOL     OW20182   2.420   2.709   9.808  0.1506 -0.2181  0.4296
 2849SOL    HW120183   2.467   2.648   9.750 -0.0574 -0.1141  0.1498
 2849SOL    HW220184   2.425   2.669   9.894 -1.5548  0.3880  0.8109
 2850SOL     OW20185   1.825   1.818   3.575 -0.0697 -0.3720 -0.4757
 2850SOL    HW120186   1.729   1.827   3.576 -0.0065  0.0186  1.0293
 2850SOL    HW220187   1.856   1.898   3.532 -1.3896  1.2692  1.6083
 2851SOL     OW20188   2.727   4.600   5.911 -0.3209  0.2997  0.3387
 2851SOL    HW120189   2.711   4.694   5.916  0.1775  0.3955  0.1716
 2851SOL    HW220190   2.654   4.574   5.855  0.5758 -0.2726 -0.5591
 2852SOL     OW20191   1.826   3.465   1.873 -0.0645 -0.3510 -0.8180
 2852SOL    HW120192   1.744   3.437   1.914 -0.3731 -0.5854 -1.5952
 2852SOL    HW220193   1.885   3.411   1.924  0.0285  0.5295  0.0093
 2853SOL     OW20194   2.645   0.160   6.333  0.1084 -0.5313  0.1091
 2853SOL    HW120195   2.695   0.148   6.414  1.0395  3.8629  0.1971
 2853SOL    HW220196   2.558   0.157   6.373  0.4461  2.6189  1.0775
 2854SOL     OW20197   1.590   3.878   9.755 -0.0452  0.4177  0.4169
 2854SOL    HW120198   1.667   3.828   9.782 -1.1204 -0.8267  1.1860
 2854SOL    HW220199   1.524   3.815   9.785  1.6485  0.1530  3.6135
 2855SOL     OW20200   0.795   0.865  14.815  0.3999  0.3982 -0.2223
 2855SOL    HW120201   0.701   0.869  14.831  0.2393 -1.0315 -0.8461
 2855SOL    HW220202   0.815   0.957  14.800  3.5977 -0.3566 -0.5165
 2856SOL     OW20203   3.301   1.537   2.230  0.2427  0.5712  0.1255
 2856SOL    HW120204   3.248   1.605   2.187 -0.0142 -1.2827 -2.4760
 2856SOL    HW220205   3.262   1.550   2.317  1.3204  3.5339  0.1837
 2857SOL     OW20206   0.237   2.577   3.507  0.3120  0.1423 -0.5877
 2857SOL    HW120207   0.231   2.482   3.520  1.2099 -0.0925 -1.9393
 2857SOL    HW220208   0.264   2.606   3.595  2.7372  1.5465 -1.8198
 2858SOL     OW20209   4.294   2.347   4.801  0.5254 -0.6871 -0.3677
 2858SOL    HW120210   4.227   2.352   4.733  0.7326 -1.1957 -0.6059
 2858SOL    HW220211   4.359   2.397   4.752 -0.6884  1.3752  0.1223
 2859SOL     OW20212   1.487   3.580   5.995  0.0681  0.8216 -0.1063
 2859SOL    HW120213   1.460   3.648   6.056  0.3391  0.6492  0.2089
 2859SOL    HW220214   1.405   3.542   5.964 -0.1108 -0.8211  2.3615
 2860SOL     OW20215   1.144   2.493   2.633 -0.1241 -0.7108  0.2979
 2860SOL    HW120216   1.219   2.547   2.655  0.4172 -0.6003 -1.7974
 2860SOL    HW220217   1.077   2.561   2.639 -0.9043 -1.5361  0.9808
 2861SOL     OW20218   2.854   3.857  13.838  0.5500  0.1015 -0.0888
 2861SOL    HW120219   2.864   3.762  13.833 -0.5385  0.0652 -1.8454
 2861SOL    HW220220   2.765   3.863  13.873  1.6753  1.9343  2.4477
 2862SOL     OW20221   1.341   4.677  13.287 -0.0953 -0.7461 -0.4876
 2862SOL    HW120222   1.286   0.002  13.243 -0.7242 -0.6561  0.4236
 2862SOL    HW220223   1.285   4.646  13.359  1.8420 -2.2155  0.3823
 2863SOL     OW20224   0.555   4.448   1.645  0.6436 -0.3869 -0.6943
 2863SOL    HW120225   0.553   4.455   1.740  2.1654 -2.3975 -0.5035
 2863SOL    HW220226   0.633   4.397   1.623  0.6682 -1.0519  0.8931
 2864SOL     OW20227   1.432   2.403   6.245  0.0173 -0.5294  0.5394
 2864SOL    HW120228   1.392   2.406   6.158  1.5775  4.5571 -0.0079
 2864SOL    HW220229   1.513   2.450   6.225 -0.6820  0.8521  0.9243
 2865SOL     OW20230   2.356   3.613  14.614  0.0058  0.0958  0.5311
 2865SOL    HW120231   2.366   3.629  14.707  0.6385 -1.0701  0.6644
 2865SOL    HW220232   2.404   3.530  14.612 -0.4788 -0.1504 -0.8541
 2866SOL     OW20233   2.783   3.686   7.484 -0.5396  0.1796 -0.9580
 2866SOL    HW120234   2.836   3.764   7.501 -0.6813 -0.1225  0.9587
 2866SOL    HW220235   2.842   3.621   7.524  0.2707  0.4507 -1.7193
 2867SOL     OW20236   4.068   2.218  12.471 -0.4843  0.0365  0.7269
 2867SOL    HW120237   4.154   2.222  12.513 -0.1786  1.3344 -0.0119
 2867SOL    HW220238   4.093   2.202  12.380  0.4995 -0.5863  1.1009
 2868SOL     OW20239   4.657   3.401  11.168 -0.1788  0.0966  0.4610
 2868SOL    HW120240   4.591   3.359  11.114 -0.3804  1.2761 -0.2046
 2868SOL    HW220241   4.605   3.438  11.239  1.2975  0.7522  1.2084
 2869SOL     OW20242   1.720   2.020   5.884 -0.3964 -0.5536  0.6939
 2869SOL    HW120243   1.656   1.958   5.848 -0.0077 -0.6949  0.2448
 2869SOL    HW220244   1.775   2.030   5.806  0.0602 -1.4021  0.9181
 2870SOL     OW20245   0.378   1.795  11.420 -0.1530 -0.0412 -0.1755
 2870SOL    HW120246   0.293   1.833  11.397 -0.8790 -0.5937  1.5997
 2870SOL    HW220247   0.442   1.823  11.354  1.4713 -0.6326  1.1433
 2871SOL     OW20248   2.582   0.772   2.672  0.2787 -0.1906 -0.0271
 2871SOL    HW120249   2.506   0.721   2.642  0.6812 -2.2823  2.4535
 2871SOL    HW220250   2.550   0.836   2.735  1.9313  0.4550  0.1490
 2872SOL     OW20251   0.117   2.979  12.817 -0.4358  0.3382  0.6585
 2872SOL    HW120252   0.080   2.994  12.730 -0.5919  0.0103  0.6673
 2872SOL    HW220253   0.159   3.063  12.837  1.6308 -0.2023 -1.4952
 2873SOL     OW20254   0.883   1.747   2.117  0.9096 -0.2451  0.4615
 2873SOL    HW120255   0.928   1.670   2.082  0.6927 -0.6494  1.0595
 2873SOL    HW220256   0.794   1.719   2.099  0.8285  0.7366 -0.6431
 2874SOL     OW20257   2.861   2.663   0.798 -0.2267 -0.1928  1.1399
 2874SOL    HW120258   2.857   2.639   0.890 -1.2871  2.9490  1.9048
 2874SOL    HW220259   2.770   2.669   0.769  0.3749  0.5985 -0.6084
 2875SOL     OW20260   1.924   1.847  14.995  0.1763  0.3142 -1.2250
 2875SOL    HW120261   1.928   1.904  14.917 -1.9945  0.0201 -1.5494
 2875SOL    HW220262   1.975   1.903  15.054 -0.1666 -0.5743 -0.1021
 2876SOL     OW20263   3.071   0.973   3.122 -0.0887 -0.3130 -0.0443
 2876SOL    HW120264   3.019   1.043   3.160  0.7933 -1.0038  2.4011
 2876SOL    HW220265   3.153   1.020   3.106 -0.6837 -0.0501 -2.3588
 2877SOL     OW20266   1.473   4.597   8.241  1.0286  0.0066 -0.3513
 2877SOL    HW120267   1.514   4.674   8.280  0.7407  1.2051 -2.4004
 2877SOL    HW220268   1.390   4.631   8.207  2.0778 -1.6328 -4.5196
 2878SOL     OW20269   1.721   0.152   8.704 -0.3867 -0.4651  0.1562
 2878SOL    HW120270   1.766   0.130   8.786  0.4934  2.4745  0.4688
 2878SOL    HW220271   1.696   0.064   8.675  2.2032 -0.8804 -0.8024
 2879SOL     OW20272   3.189   3.799   9.994 -0.5832 -0.7705  0.4063
 2879SOL    HW120273   3.195   3.827   9.903  0.9108  0.0659  0.7618
 2879SOL    HW220274   3.279   3.824  10.017 -1.2029  2.6035 -0.8093
 2880SOL     OW20275   3.334   1.563   6.924 -0.1287 -0.0516  0.6791
 2880SOL    HW120276   3.352   1.517   6.841 -0.8626 -1.7134  1.4304
 2880SOL    HW220277   3.289   1.494   6.973 -0.5412 -0.5505 -0.3953
 2881SOL     OW20278   3.592   1.761  14.560 -0.2200 -0.2373  0.2504
 2881SOL    HW120279   3.575   1.706  14.483 -0.6236  1.2500 -0.7202
 2881SOL    HW220280   3.685   1.747  14.579  0.4178  2.5744 -0.7098
 2882SOL     OW20281   2.263   0.167   1.872 -0.1225 -0.8383  0.1814
 2882SOL    HW120282   2.238   0.082   1.909 -0.4707 -0.9414 -0.2905
 2882SOL    HW220283   2.249   0.213   1.955 -0.0423  1.0620 -0.8690
 2883SOL     OW20284   4.023   0.129   5.808 -0.2693 -0.2549  0.7006
 2883SOL    HW120285   4.066   0.179   5.739  0.3969  0.3119  1.5338
 2883SOL    HW220286   4.101   0.091   5.848  0.8131  1.5934  0.3527
 2884SOL     OW20287   1.219   2.924   7.724 -0.3993 -0.4408  0.5363
 2884SOL    HW120288   1.288   2.980   7.759  0.8627 -1.3180 -0.5729
 2884SOL    HW220289   1.258   2.839   7.745 -1.3595 -1.1590 -0.5962
 2885SOL     OW20290   3.270   3.100   1.832 -0.1551  0.1265 -0.6854
 2885SOL    HW120291   3.244   3.130   1.919  2.6675 -1.1932  0.6191
 2885SOL    HW220292   3.191   3.058   1.798 -0.3380 -1.2838  1.4962
 2886SOL     OW20293   3.800   3.350   6.780 -0.7443 -0.7417  0.5844
 2886SOL    HW120294   3.723   3.393   6.817 -1.9961 -1.5560 -1.0974
 2886SOL    HW220295   3.800   3.403   6.701 -0.2505 -0.3574  0.8386
 2887SOL     OW20296   3.753   3.297   7.719  0.1489  0.6936  0.5758
 2887SOL    HW120297   3.820   3.287   7.787 -2.0404  0.0494  2.6306
 2887SOL    HW220298   3.778   3.234   7.651 -0.6573 -0.4153  1.3220
 2888SOL     OW20299   0.080   3.666   4.578 -0.3906 -0.0854 -0.7608
 2888SOL    HW120300   0.044   3.628   4.658  1.6197 -0.1442  0.1128
 2888SOL    HW220301   0.063   3.758   4.598  0.3530 -0.4074  1.3571
 2889SOL     OW20302   3.908   0.138   5.309  0.0060  0.0075  0.2156
 2889SOL    HW120303   3.943   0.064   5.358 -0.2060 -0.4812 -0.3755
 2889SOL    HW220304   3.980   0.179   5.260 -0.3412  1.1552  0.6557
 2890SOL     OW20305   0.675   1.206  17.186 -0.1164 -0.3268  0.0912
 2890SOL    HW120306   0.701   1.176  17.273  0.5280 -0.3212 -0.0977
 2890SOL    HW220307   0.587   1.241  17.197 -0.4764 -1.8093  1.9537
 2891SOL     OW20308   2.505   1.589   5.098 -0.1026 -0.2869 -0.1950
 2891SOL    HW120309   2.436   1.585   5.164 -1.0677  1.0969 -1.1108
 2891SOL    HW220310   2.510   1.496   5.076  1.3558 -0.1746 -0.3470
 2892SOL     OW20311   0.805   3.329   7.151 -0.1813 -1.1553 -0.1437
 2892SOL    HW120312   0.835   3.383   7.079 -1.5972  1.1076  0.9291
 2892SOL    HW220313   0.842   3.372   7.228 -2.5021  0.5044  0.0555
 2893SOL     OW20314   2.524   0.867   8.698  0.4081 -0.2637 -0.0662
 2893SOL    HW120315   2.434   0.843   8.673  0.7157 -1.2636 -0.1994
 2893SOL    HW220316   2.553   0.905   8.615 -0.9425  0.8123 -0.0569
 2894SOL     OW20317   0.285   3.152   4.979 -0.1155 -0.6544  0.0776
 2894SOL    HW120318   0.310   3.071   4.934 -0.4406 -1.1522  0.7984
 2894SOL    HW220319   0.373   3.188   4.993 -0.0402 -0.3451 -1.2068
 2895SOL     OW20320   1.996   4.695   4.304 -0.1322 -0.1568  0.8490
 2895SOL    HW120321   2.062   4.626   4.311  0.3604  0.4168  1.9155
 2895SOL    HW220322   1.930   4.656   4.361 -0.4473 -0.5654  0.2069
 2896SOL     OW20323   2.276   2.259   4.729  0.3795 -0.6382 -0.0581
 2896SOL    HW120324   2.316   2.320   4.792  1.0299 -1.3531  0.2187
 2896SOL    HW220325   2.214   2.320   4.688 -0.7598 -1.0542  1.0237
 2897SOL     OW20326   0.278   3.691   3.124 -0.4393  0.4677 -0.2273
 2897SOL    HW120327   0.196   3.642   3.117 -0.6273  0.6874  0.4083
 2897SOL    HW220328   0.334   3.629   3.170 -0.4418  2.9853  3.2207
 2898SOL     OW20329   2.202   0.733  12.575 -0.0293  0.2426 -0.6044
 2898SOL    HW120330   2.289   0.721  12.536  1.2157  0.0968  2.1554
 2898SOL    HW220331   2.152   0.657  12.545  0.1501 -0.1774  0.1644
 2899SOL     OW20332   3.248   1.773  11.586 -0.2229 -0.4162 -0.5573
 2899SOL    HW120333   3.200   1.852  11.560 -1.2529 -0.6544  0.6488
 2899SOL    HW220334   3.186   1.705  11.557 -0.3095 -0.5077 -0.1537
 2900SOL     OW20335   1.725   1.011  17.030  0.0787  0.0947  0.1209
 2900SOL    HW120336   1.634   1.032  17.010 -0.7040 -2.7814  0.5595
 2900SOL    HW220337   1.738   1.069  17.105  1.8001 -0.4449  0.2410
 2901SOL     OW20338   4.714   2.791  10.549 -0.4953  0.1410 -0.3589
 2901SOL    HW120339   4.651   2.860  10.571 -1.3421 -1.1547  1.2349
 2901SOL    HW220340   4.723   2.740  10.629 -3.0868  2.3550  1.3891
 2902SOL     OW20341   2.591   0.156   5.579 -0.5134 -1.5615 -0.0356
 2902SOL    HW120342   2.571   0.245   5.552 -1.7118 -1.8666 -0.1534
 2902SOL    HW220343   2.537   0.155   5.658  3.7404  1.3006  2.8987
 2903SOL     OW20344   3.205   2.351   6.339  0.4745  0.4474  0.3670
 2903SOL    HW120345   3.251   2.315   6.415 -0.1247 -0.5831  0.2351
 2903SOL    HW220346   3.199   2.443   6.364 -0.7584 -0.0360  1.8272
 2904SOL     OW20347   0.039   4.355   4.456  0.4900  0.1320 -0.0281
 2904SOL    HW120348   0.003   4.366   4.368 -0.4894 -0.0639  0.3447
 2904SOL    HW220349   0.118   4.409   4.448  0.9819 -0.6620 -0.5277
 2905SOL     OW20350   4.347   3.502  16.212  0.5788 -0.1620 -0.4156
 2905SOL    HW120351   4.371   3.521  16.303  0.7091  1.1397 -0.7161
 2905SOL    HW220352   4.299   3.581  16.185 -0.5315 -0.7528 -0.1639
 2906SOL     OW20353   4.063   3.112   5.862  0.3284 -0.0507 -0.1466
 2906SOL    HW120354   4.072   3.034   5.807  1.0507 -0.7374  0.9475
 2906SOL    HW220355   4.049   3.073   5.948  2.4125  0.0348  0.2383
 2907SOL     OW20356   3.860   2.838   6.494 -0.1866 -0.6631  0.4382
 2907SOL    HW120357   3.892   2.891   6.567 -0.7944  0.3018  0.0139
 2907SOL    HW220358   3.875   2.891   6.416 -2.0504 -0.3773  0.2699
 2908SOL     OW20359   2.759   1.416   0.209  0.0207  0.2911 -0.3384
 2908SOL    HW120360   2.695   1.474   0.168  0.3054  1.3739  0.7566
 2908SOL    HW220361   2.730   1.420   0.300 -1.7864 -0.0421 -0.8851
 2909SOL     OW20362   3.883   0.624   2.016  0.1523 -0.0093 -0.5104
 2909SOL    HW120363   3.826   0.612   1.940 -0.5033 -0.3849  0.0398
 2909SOL    HW220364   3.969   0.624   1.972  0.9300  0.7943  1.0202
 2910SOL     OW20365   0.773   1.175  17.728 -0.0452  1.1579  0.0784
 2910SOL    HW120366   0.823   1.099  17.699 -0.1025  0.7258  1.1238
 2910SOL    HW220367   0.706   1.126   0.023 -0.6781  0.5364 -1.4535
 2911SOL     OW20368   4.277   0.721   8.567 -0.4785  0.5402 -0.0570
 2911SOL    HW120369   4.327   0.789   8.612  0.1821 -2.1235  3.2071
 2911SOL    HW220370   4.185   0.737   8.589  0.2780  0.3874  3.2183
 2912SOL     OW20371   2.669   4.103  16.632  0.1694 -0.0998  0.4115
 2912SOL    HW120372   2.717   4.164  16.687  0.8179  0.6388 -0.9557
 2912SOL    HW220373   2.579   4.136  16.642  0.7371  1.3129  0.8045
 2913SOL     OW20374   1.327   1.010   8.233 -0.7329 -0.1106 -0.2543
 2913SOL    HW120375   1.251   1.004   8.290 -0.3082  1.5839  0.4839
 2913SOL    HW220376   1.357   0.919   8.227 -0.0828 -0.0442  1.9436
 2914SOL     OW20377   2.479   3.865   6.811 -0.7592 -0.2405 -0.1529
 2914SOL    HW120378   2.488   3.806   6.886 -1.6893 -0.9469 -0.5944
 2914SOL    HW220379   2.387   3.851   6.789 -0.4565  1.7282 -2.5994
 2915SOL     OW20380   1.396   4.212  14.977  0.3447  0.4725 -0.3103
 2915SOL    HW120381   1.350   4.152  14.918 -0.0335  1.2178 -0.7724
 2915SOL    HW220382   1.487   4.188  14.961  1.4326  3.6334  1.0438
 2916SOL     OW20383   0.201   2.637   3.828 -0.1183 -0.2619  0.2581
 2916SOL    HW120384   0.268   2.705   3.831  1.2464 -1.6096 -0.0322
 2916SOL    HW220385   0.128   2.686   3.866 -0.1368  0.6707 -0.9938
 2917SOL     OW20386   3.985   1.860  14.796  0.1178 -0.1640 -0.0136
 2917SOL    HW120387   3.993   1.776  14.841  0.5882 -0.4110 -0.5610
 2917SOL    HW220388   3.893   1.888  14.796 -0.0305 -0.6869 -2.1555
 2918SOL     OW20389   0.451   3.988   3.950 -0.3476 -0.2819 -0.2655
 2918SOL    HW120390   0.458   4.083   3.956 -2.5024 -0.2706  2.4849
 2918SOL    HW220391   0.502   3.964   4.027  1.0593  0.4489 -0.9828
 2919SOL     OW20392   3.821   4.158   2.413  0.2472 -0.2138  0.1886
 2919SOL    HW120393   3.874   4.115   2.480 -0.1823 -1.8558 -0.5268
 2919SOL    HW220394   3.879   4.234   2.409 -0.4123  0.2712 -0.2330
 2920SOL     OW20395   1.694   0.796  14.986  0.3643 -0.1079 -0.2557
 2920SOL    HW120396   1.711   0.765  14.897  0.8011  0.2702 -0.3074
 2920SOL    HW220397   1.715   0.890  14.980  2.1577 -0.5310 -0.5860
 2921SOL     OW20398   4.717   2.513  16.830  0.3370  0.0514 -0.6401
 2921SOL    HW120399   4.675   2.591  16.864 -0.9604 -0.3250 -1.3803
 2921SOL    HW220400   4.699   2.526  16.737 -0.1274  0.6711 -0.4644
 2922SOL     OW20401   3.981   2.997  17.551 -0.6913  0.3770 -0.1291
 2922SOL    HW120402   4.070   3.033  17.553 -0.7972  0.6463 -0.3152
 2922SOL    HW220403   3.936   3.055  17.612  1.9489  2.2702  0.0032
 2923SOL     OW20404   2.403   0.315   5.265 -0.0251  0.1042  0.2078
 2923SOL    HW120405   2.393   0.379   5.195  2.6675 -2.2278 -2.2944
 2923SOL    HW220406   2.447   0.355   5.340  1.9563 -2.3017  0.3221
 2924SOL     OW20407   0.593   1.365  17.466  0.2605 -0.2017  0.4165
 2924SOL    HW120408   0.570   1.273  17.480  0.8439 -0.2767  0.8936
 2924SOL    HW220409   0.512   1.386  17.420  1.2110  1.6319 -0.4365
 2925SOL     OW20410   1.577   0.504   9.782  0.5875  0.0532 -0.9695
 2925SOL    HW120411   1.570   0.575   9.719 -2.4632  0.7674  0.1756
 2925SOL    HW220412   1.672   0.501   9.793  0.3039  0.4820  1.4360
 2926SOL     OW20413   4.628   1.751   0.895  0.4093  0.0990 -0.5676
 2926SOL    HW120414   4.651   1.659   0.903  0.3344 -0.1224 -2.9022
 2926SOL    HW220415   4.578   1.772   0.974  1.7939 -2.0195  0.8726
 2927SOL     OW20416   2.856   2.878   9.328  0.6863  0.2143 -0.3543
 2927SOL    HW120417   2.833   2.786   9.333  1.4436  0.2095  3.4368
 2927SOL    HW220418   2.944   2.882   9.368 -0.9648  0.1407  3.3193
 2928SOL     OW20419   3.236   0.910  15.259  0.0639  0.2083 -0.3312
 2928SOL    HW120420   3.311   0.969  15.270  0.5691 -0.5497  0.3230
 2928SOL    HW220421   3.168   0.975  15.240 -1.8184 -1.7302 -0.1305
 2929SOL     OW20422   3.837   4.499   3.765  0.1101 -0.0239  0.4866
 2929SOL    HW120423   3.873   4.413   3.743  2.6467  1.6156 -1.7900
 2929SOL    HW220424   3.874   4.553   3.695  0.0316  3.0883  2.8966
 2930SOL     OW20425   4.147   0.610   3.983  0.1463 -1.0197 -0.6076
 2930SOL    HW120426   4.118   0.639   3.897 -0.6713 -0.2717 -0.0708
 2930SOL    HW220427   4.073   0.564   4.022  0.0192 -0.0414  0.2963
 2931SOL     OW20428   1.979   4.278   3.071 -0.4878 -0.2049  0.5850
 2931SOL    HW120429   2.027   4.210   3.117  0.7529  0.8624  0.8585
 2931SOL    HW220430   1.952   4.327   3.149  3.2830  0.3387  1.5081
 2932SOL     OW20431   2.945   2.810   0.576 -0.4104  0.4456 -0.9214
 2932SOL    HW120432   2.936   2.760   0.657 -3.8700 -0.3952 -1.8527
 2932SOL    HW220433   2.916   2.749   0.508  0.9281 -0.1575 -0.9718
 2933SOL     OW20434   3.939   4.265   0.426  0.3464 -0.2076  0.1584
 2933SOL    HW120435   3.848   4.237   0.418 -0.3928  1.4119  2.6363
 2933SOL    HW220436   3.987   4.189   0.395 -0.7700 -1.2649  1.0482
 2934SOL     OW20437   0.198   0.892   8.003 -0.1582 -0.0035 -0.2402
 2934SOL    HW120438   0.232   0.865   8.089 -0.8374 -0.7603 -0.2065
 2934SOL    HW220439   0.276   0.935   7.970  0.6295  0.1743  1.8110
 2935SOL     OW20440   2.793   2.524  12.895  0.0499  0.4972 -0.7464
 2935SOL    HW120441   2.875   2.507  12.849 -0.8719 -0.2113 -2.1000
 2935SOL    HW220442   2.739   2.580  12.839 -0.0655  0.0049 -1.1296
 2936SOL     OW20443   3.242   4.689   5.658  0.8419 -0.0754  0.0039
 2936SOL    HW120444   3.163   4.681   5.712  1.2131  0.2666  0.5903
 2936SOL    HW220445   3.220   4.627   5.588 -0.9277  1.8054 -1.0962
 2937SOL     OW20446   2.152   1.045   3.422  0.7534  0.4320 -0.5152
 2937SOL    HW120447   2.078   1.104   3.407  2.1314  2.5109  0.9606
 2937SOL    HW220448   2.174   1.016   3.333  1.3504  1.4285 -0.6981
 2938SOL     OW20449   3.474   4.342   5.256 -0.3073 -0.6513  0.5228
 2938SOL    HW120450   3.553   4.294   5.281  0.4017  1.3236  1.9970
 2938SOL    HW220451   3.493   4.425   5.298  2.2953 -0.2314 -1.5090
 2939SOL     OW20452   3.855   4.707  12.359 -0.3974 -0.0682 -0.7208
 2939SOL    HW120453   3.830   4.635  12.300  2.0780  1.1508 -3.2440
 2939SOL    HW220454   3.779   0.023  12.379  0.0859  0.0553  0.7469
 2940SOL     OW20455   3.040   4.376  13.952 -0.6847  0.3968  0.8042
 2940SOL    HW120456   3.097   4.311  13.993 -2.4189 -0.9476  1.0559
 2940SOL    HW220457   2.958   4.329  13.962  0.9696 -2.3438  1.4816
 2941SOL     OW20458   0.173   0.625   0.410 -0.1697  0.3239 -0.0724
 2941SOL    HW120459   0.256   0.629   0.361  1.2612 -1.1144  2.2358
 2941SOL    HW220460   0.122   0.557   0.368 -1.3286  0.0201  1.8405
 2942SOL     OW20461   1.898   1.392  14.212  0.0932  0.1639  0.2735
 2942SOL    HW120462   1.838   1.409  14.139  0.7287 -0.6526 -0.4367
 2942SOL    HW220463   1.838   1.350  14.274  0.4919 -1.8986 -0.7550
 2943SOL     OW20464   2.527   4.249   7.710  0.3869 -0.1007  0.2460
 2943SOL    HW120465   2.502   4.208   7.792 -0.9569 -0.0130 -0.1112
 2943SOL    HW220466   2.570   4.330   7.737 -0.3025  0.9446 -1.7293
 2944SOL     OW20467   4.551   3.141   9.041 -0.4523  0.4231  0.6679
 2944SOL    HW120468   4.563   3.050   9.015  1.7627  1.0907 -0.6943
 2944SOL    HW220469   4.604   3.161   9.118 -1.1391  0.1273  1.2123
 2945SOL     OW20470   1.922   2.698   4.037 -0.0317 -0.0822 -0.0430
 2945SOL    HW120471   2.014   2.711   4.018 -0.5650 -0.1418 -2.6799
 2945SOL    HW220472   1.889   2.785   4.013  0.3081 -0.5130 -2.1172
 2946SOL     OW20473   0.191   1.578  17.458 -0.1678  0.3046  0.3059
 2946SOL    HW120474   0.260   1.547  17.399 -0.5473 -2.4758  1.3592
 2946SOL    HW220475   0.241   1.628  17.522  2.0473 -1.6254  0.0807
 2947SOL     OW20476   1.858   1.672  14.756 -0.0953  0.1351 -0.3211
 2947SOL    HW120477   1.886   1.712  14.674  0.1829 -0.5166 -0.5488
 2947SOL    HW220478   1.901   1.724  14.824 -2.5773  0.7404  0.7542
 2948SOL     OW20479   3.383   1.730  15.203 -0.0775  0.2356  0.5192
 2948SOL    HW120480   3.344   1.656  15.249 -2.6040  1.1771 -0.0611
 2948SOL    HW220481   3.458   1.679  15.175  0.5077  0.7818  1.0830
 2949SOL     OW20482   2.258   3.284   1.973 -0.6336  0.0720 -0.0391
 2949SOL    HW120483   2.324   3.353   1.974  1.0792 -1.5421 -1.7496
 2949SOL    HW220484   2.189   3.337   2.014 -0.2069  0.3301  0.3399
 2950SOL     OW20485   4.646   0.862   8.061  0.2596 -0.1036  0.3806
 2950SOL    HW120486   4.611   0.858   7.972 -1.4228  0.0991  1.0364
 2950SOL    HW220487   4.733   0.898   8.040 -0.0497  0.7412  0.5412
 2951SOL     OW20488   3.021   2.222  11.886 -0.2248  0.2696 -0.9358
 2951SOL    HW120489   3.064   2.262  11.811  1.3759  0.8497  0.2858
 2951SOL    HW220490   3.083   2.156  11.920  1.1606  1.5334 -1.0302
 2952SOL     OW20491   4.578   3.236   5.623 -0.1134 -0.1569 -0.4122
 2952SOL    HW120492   4.625   3.259   5.703  0.0635  1.7381 -1.0501
 2952SOL    HW220493   4.489   3.246   5.657  0.7643  0.2506  1.7922
 2953SOL     OW20494   4.273   3.483   6.380 -0.3869  0.8933 -0.3680
 2953SOL    HW120495   4.281   3.448   6.291  0.0086  0.9255 -0.3470
 2953SOL    HW220496   4.191   3.443   6.408  1.7543 -0.4386  4.1107
 2954SOL     OW20497   4.196   1.620  10.436  0.1072  0.8403  0.1674
 2954SOL    HW120498   4.248   1.578  10.368 -2.4316 -2.4737  0.2095
 2954SOL    HW220499   4.139   1.679  10.387 -2.5888 -2.3064 -0.5837
 2955SOL     OW20500   0.136   3.280  14.348  0.1144  0.7741 -0.0259
 2955SOL    HW120501   0.232   3.283  14.341  0.0919  1.4292 -0.0257
 2955SOL    HW220502   0.101   3.319  14.268 -0.2127 -0.5983 -0.5530
 2956SOL     OW20503   4.166   3.238   2.302  0.0159  0.0954 -0.3061
 2956SOL    HW120504   4.146   3.332   2.300  1.2058  0.3561 -0.4525
 2956SOL    HW220505   4.235   3.237   2.370  0.8798  1.5295 -1.1620
 2957SOL     OW20506   1.072   3.500   4.281 -0.3649 -0.1497  0.4047
 2957SOL    HW120507   0.999   3.443   4.307 -0.8033  0.5783  0.7657
 2957SOL    HW220508   1.125   3.438   4.231  1.7651  0.8073  1.4881
 2958SOL     OW20509   1.618   2.570   4.289 -0.8243 -0.2849 -0.0460
 2958SOL    HW120510   1.525   2.557   4.307 -0.3731  0.2675  2.5776
 2958SOL    HW220511   1.625   2.581   4.194 -0.5482  0.6035  0.0677
 2959SOL     OW20512   0.653   4.739   0.123  0.3123  0.0707  0.6349
 2959SOL    HW120513   0.651   4.654   0.078  1.2081 -0.2018  1.1130
 2959SOL    HW220514   0.717   4.722   0.192 -0.5156 -1.0181  1.1310
 2960SOL     OW20515   2.530   3.585   9.068  0.2632  0.3927 -0.5316
 2960SOL    HW120516   2.489   3.599   9.153 -0.8170 -0.9818 -0.8268
 2960SOL    HW220517   2.571   3.499   9.083 -3.8357 -1.4163  0.3132
 2961SOL     OW20518   2.440   3.068   4.364 -0.5284  0.3134  0.4326
 2961SOL    HW120519   2.379   3.069   4.290  1.3886 -0.5913 -1.1584
 2961SOL    HW220520   2.393   3.123   4.426 -0.3652  0.2498  0.6126
 2962SOL     OW20521   4.603   1.235   3.456 -0.2268 -0.2497 -0.2511
 2962SOL    HW120522   4.629   1.228   3.547 -0.2283 -0.7205 -0.2849
 2962SOL    HW220523   4.510   1.258   3.459 -0.0765  0.6961 -2.3839
 2963SOL     OW20524   2.217   1.998   4.784  0.4021  0.9903 -0.4852
 2963SOL    HW120525   2.221   2.094   4.775  2.4967  0.9808  0.4839
 2963SOL    HW220526   2.206   1.975   4.876 -0.9168  0.9709 -0.6416
 2964SOL     OW20527   4.576   2.695   9.941 -0.1867 -0.3527 -0.1890
 2964SOL    HW120528   4.489   2.655   9.945  1.1925 -3.5652 -2.2166
 2964SOL    HW220529   4.630   2.639   9.997 -0.3543 -2.2159 -1.8591
 2965SOL     OW20530   2.473   4.474   9.274 -0.9942 -0.0617 -0.0257
 2965SOL    HW120531   2.435   4.544   9.326  0.1343  0.6016 -0.1011
 2965SOL    HW220532   2.566   4.488   9.293 -0.8129 -1.2059 -0.0375
 2966SOL     OW20533   2.837   3.072   3.328  0.1208  0.5366  0.8531
 2966SOL    HW120534   2.754   3.114   3.307  0.4028  0.3520 -0.5892
 2966SOL    HW220535   2.840   3.010   3.255  1.2214  0.4881  0.9409
 2967SOL     OW20536   1.050   3.670   9.646 -0.4452  0.5809 -0.2225
 2967SOL    HW120537   1.026   3.579   9.631  0.7910 -0.0702  1.7525
 2967SOL    HW220538   0.971   3.689   9.696  0.4002 -1.1373  1.7389
 2968SOL     OW20539   2.925   3.584   0.785  0.0948 -0.4836 -0.0938
 2968SOL    HW120540   2.938   3.660   0.729  0.3137 -1.0050 -0.7615
 2968SOL    HW220541   2.983   3.608   0.857  1.2406 -0.4095 -1.0340
 2969SOL     OW20542   2.887   3.863   6.997 -0.6146 -0.1516  0.9026
 2969SOL    HW120543   2.861   3.788   7.050  3.0858 -1.3401  1.0355
 2969SOL    HW220544   2.838   3.832   6.921 -0.7686 -0.1257  0.9928
 2970SOL     OW20545   1.621   0.376  11.057 -0.3898  0.6078 -0.0548
 2970SOL    HW120546   1.698   0.408  11.104 -0.3063 -0.7196  0.7421
 2970SOL    HW220547   1.553   0.410  11.116  0.4829  0.8719  0.7925
 2971SOL     OW20548   2.783   2.262   0.892 -0.2232 -0.5370 -0.9301
 2971SOL    HW120549   2.830   2.179   0.885  1.4467  0.2285  1.3391
 2971SOL    HW220550   2.793   2.294   0.803  1.1648  2.7359  0.4062
 2972SOL     OW20551   1.709   3.723   3.908  0.0317 -0.0066  0.4741
 2972SOL    HW120552   1.639   3.741   3.971  0.4780 -0.5920  1.1327
 2972SOL    HW220553   1.749   3.810   3.908  1.3717 -0.6355  0.8297
 2973SOL     OW20554   4.661   4.024  12.946 -0.0326  1.0032  0.9800
 2973SOL    HW120555   4.630   4.076  12.872 -1.5641  0.2189  1.0522
 2973SOL    HW220556   0.017   4.023  12.938 -0.1716 -1.0623 -0.2941
 2974SOL     OW20557   3.664   3.388  14.291  0.1348 -0.1203 -0.1782
 2974SOL    HW120558   3.570   3.381  14.279 -0.1106  0.7445  1.1943
 2974SOL    HW220559   3.676   3.448  14.365  0.0603 -1.1531  0.6724
 2975SOL     OW20560   2.587   4.297  11.333  0.2403  0.9319  0.1607
 2975SOL    HW120561   2.523   4.259  11.273  3.3030  0.1073 -2.5574
 2975SOL    HW220562   2.524   4.352  11.379  1.2426  0.9201  1.5631
 2976SOL     OW20563   0.862   3.567   6.984 -0.0600 -0.0549  0.0778
 2976SOL    HW120564   0.846   3.661   6.992  0.9226  0.1658 -0.6399
 2976SOL    HW220565   0.957   3.554   6.986  0.0508  1.1176  2.1757
 2977SOL     OW20566   2.392   4.337   2.253 -0.0695  0.8074  0.1562
 2977SOL    HW120567   2.344   4.265   2.294 -2.3208  1.7706 -0.7968
 2977SOL    HW220568   2.364   4.344   2.161  0.4612  2.9491  0.1437
 2978SOL     OW20569   3.354   4.594  12.885 -0.3731  0.1015 -1.2428
 2978SOL    HW120570   3.269   4.623  12.918  0.0914  0.2961 -0.2388
 2978SOL    HW220571   3.381   4.667  12.829  1.3754  1.8642  1.9470
 2979SOL     OW20572   0.392   0.810   6.496 -0.2989  0.3397  0.5315
 2979SOL    HW120573   0.349   0.895   6.506 -0.2145  0.3787  0.5686
 2979SOL    HW220574   0.481   0.845   6.492 -0.5384  0.9977  1.0435
 2980SOL     OW20575   1.678   2.865   6.920 -0.2542  0.7606  0.5758
 2980SOL    HW120576   1.648   2.956   6.928  0.3962  1.1114 -0.9085
 2980SOL    HW220577   1.592   2.825   6.914  0.1617  0.1653 -1.4200
 2981SOL     OW20578   1.319   2.774   6.428 -0.6757  0.0033  0.4253
 2981SOL    HW120579   1.267   2.807   6.502 -0.1824  0.1386  0.7084
 2981SOL    HW220580   1.252   2.745   6.365  0.7515  0.3007 -1.2423
 2982SOL     OW20581   1.131   2.513  12.483  0.1727  0.3182  0.0793
 2982SOL    HW120582   1.046   2.516  12.440  0.3889 -0.6355 -0.4202
 2982SOL    HW220583   1.136   2.417  12.483  0.5826  0.3435  1.4262
 2983SOL     OW20584   3.882   1.289   6.039  0.1526 -0.1716  0.1311
 2983SOL    HW120585   3.901   1.240   6.119 -0.4625 -1.4143 -0.4851
 2983SOL    HW220586   3.826   1.222   5.999  0.5554 -0.0016 -0.7250
 2984SOL     OW20587   0.363   4.534   2.051 -0.5013 -0.1376  0.4028
 2984SOL    HW120588   0.400   4.498   1.971  0.5713 -1.0999  1.3473
 2984SOL    HW220589   0.441   4.546   2.104 -2.3228 -1.4421  3.4084
 2985SOL     OW20590   4.277   0.110   2.879  0.5683 -0.5511  0.0976
 2985SOL    HW120591   4.262   0.038   2.818  2.0207  0.0383 -0.9586
 2985SOL    HW220592   4.194   0.155   2.871  0.4139 -0.8478  0.0196
 2986SOL     OW20593   1.260   3.694   8.976  0.3461  0.1669  0.1143
 2986SOL    HW120594   1.332   3.703   9.039  0.6398  2.7589 -0.6090
 2986SOL    HW220595   1.231   3.785   8.972 -0.7096 -0.1232  1.0722
 2987SOL     OW20596   4.437   1.102   7.816  0.3273  0.4816 -0.5200
 2987SOL    HW120597   4.408   1.169   7.878 -1.3152 -0.6039 -0.1054
 2987SOL    HW220598   4.531   1.119   7.818  0.6035 -0.8761 -2.4831
 2988SOL     OW20599   3.580   2.643   3.777 -0.0126  0.5358  0.4128
 2988SOL    HW120600   3.490   2.662   3.803  0.0882  1.8953 -0.1997
 2988SOL    HW220601   3.608   2.598   3.856 -1.3817 -0.1093  0.5370
 2989SOL     OW20602   2.427   2.434  13.658 -0.2336  0.0766 -0.5560
 2989SOL    HW120603   2.476   2.354  13.637 -0.7487  0.1344 -1.9907
 2989SOL    HW220604   2.467   2.449  13.743  0.3044 -0.0650 -0.7816
 2990SOL     OW20605   0.906   1.046  15.285 -0.5299 -0.3873  0.2735
 2990SOL    HW120606   0.890   1.109  15.355 -0.7209  2.0240 -1.9550
 2990SOL    HW220607   0.925   1.114  15.220  0.2883 -0.4405  0.4547
 2991SOL     OW20608   0.756   0.365   7.018 -0.4839 -0.1606 -0.2168
 2991SOL    HW120609   0.760   0.440   7.077 -0.2820 -0.7434  0.5025
 2991SOL    HW220610   0.836   0.318   7.042  0.2542  1.3806  0.3010
 2992SOL     OW20611   3.911   2.171   6.507  0.1557 -0.2671 -0.0274
 2992SOL    HW120612   3.857   2.130   6.440  0.2818  1.5695 -1.2634
 2992SOL    HW220613   3.857   2.249   6.519 -0.0992 -0.4363 -0.0732
 2993SOL     OW20614   0.729   4.349   5.071 -0.0979 -0.0138  0.7915
 2993SOL    HW120615   0.702   4.257   5.067 -2.1281  0.6819 -1.1382
 2993SOL    HW220616   0.710   4.382   4.983 -1.7778 -0.3309  1.0248
 2994SOL     OW20617   4.621   4.451  14.677  0.7106 -0.2864  0.0454
 2994SOL    HW120618   4.660   4.489  14.598  0.8944 -2.5576 -0.9564
 2994SOL    HW220619   4.529   4.474  14.666  0.6225  0.1710  1.6582
 2995SOL     OW20620   2.618   2.093   9.340  0.3714 -0.2792 -0.5397
 2995SOL    HW120621   2.605   2.018   9.399  1.3489 -0.2790 -0.3287
 2995SOL    HW220622   2.579   2.062   9.258 -1.1333 -0.0307  0.0726
 2996SOL     OW20623   2.867   3.176   8.305 -0.0317 -0.4941 -0.0830
 2996SOL    HW120624   2.902   3.178   8.394 -1.8520 -0.1061  0.6310
 2996SOL    HW220625   2.948   3.179   8.254 -0.0101 -0.2547 -0.0356
 2997SOL     OW20626   3.219   3.196   9.307 -0.0148  0.1379  0.1973
 2997SOL    HW120627   3.137   3.236   9.279 -0.4464 -0.1251  1.0641
 2997SOL    HW220628   3.189   3.110   9.336 -0.8798  0.2291 -0.4642
 2998SOL     OW20629   1.735   1.203  12.644  0.4465  0.6617  0.6472
 2998SOL    HW120630   1.737   1.107  12.645 -1.2129  0.5939 -1.3909
 2998SOL    HW220631   1.807   1.228  12.586 -1.3315  0.6698 -1.5459
 2999SOL     OW20632   4.263   0.936  12.091 -0.7361  0.1158  0.6257
 2999SOL    HW120633   4.279   0.858  12.145 -0.7307 -0.6227 -0.4433
 2999SOL    HW220634   4.201   0.984  12.145 -2.3243 -3.1399  1.7443
 3000SOL     OW20635   1.312   0.956   2.018  0.2228  0.4992  0.3496
 3000SOL    HW120636   1.243   0.983   1.958  0.4896 -0.7024 -0.4861
 3000SOL    HW220637   1.261   0.886   2.058  3.1725 -0.8193  1.8015
 3001SOL     OW20638   2.153   1.162   4.740  0.7184  0.2458  0.2543
 3001SOL    HW120639   2.156   1.174   4.835 -0.2558 -1.8456  0.5452
 3001SOL    HW220640   2.059   1.179   4.732  1.3678  2.5829 -2.4583
 3002SOL     OW20641   0.528   2.005   2.527  0.1984  0.8442  0.7198
 3002SOL    HW120642   0.559   1.914   2.523 -1.2395  0.3475  1.0095
 3002SOL    HW220643   0.445   1.993   2.573  0.4381  0.4125  1.0372
 3003SOL     OW20644   3.035   2.015   7.446 -0.0356 -0.8097  0.7795
 3003SOL    HW120645   3.063   1.930   7.411  1.3894  1.0766 -2.7043
 3003SOL    HW220646   2.973   1.991   7.515  0.7959  0.4203  1.9415
 3004SOL     OW20647   2.931   0.218   5.852 -0.3055 -0.1490  0.8085
 3004SOL    HW120648   2.890   0.279   5.791 -3.1928 -1.8182  1.0498
 3004SOL    HW220649   2.857   0.167   5.884  0.7304 -2.1037  0.0558
 3005SOL     OW20650   2.941   1.607  11.809 -0.3797  0.2735  0.4344
 3005SOL    HW120651   3.018   1.611  11.866  0.4081  0.5405 -0.6423
 3005SOL    HW220652   2.894   1.539  11.856 -0.3238 -0.3191 -0.3705
 3006SOL     OW20653   0.281   1.547   2.703  0.2165 -0.3384 -0.6500
 3006SOL    HW120654   0.210   1.543   2.639 -2.4475 -2.8134  2.4716
 3006SOL    HW220655   0.286   1.455   2.727 -0.2097  0.1015  1.0937
 3007SOL     OW20656   0.175   0.303   8.870 -0.1834 -0.2701  0.4392
 3007SOL    HW120657   0.182   0.312   8.965  2.6264 -0.5353  0.2649
 3007SOL    HW220658   0.114   0.372   8.842  1.6399  0.4665 -1.7024
 3008SOL     OW20659   1.841   2.197  11.529  0.1929 -0.2133 -0.7538
 3008SOL    HW120660   1.924   2.148  11.530 -0.5752 -1.3885  5.7936
 3008SOL    HW220661   1.869   2.274  11.480 -1.0071 -0.3293 -1.6101
 3009SOL     OW20662   1.884   4.036   9.783 -0.2305 -0.0141 -0.1789
 3009SOL    HW120663   1.823   3.981   9.734  0.6500 -1.5183  0.4089
 3009SOL    HW220664   1.897   4.001   9.871 -0.0889  0.4262 -0.0282
 3010SOL     OW20665   0.862   0.212   5.905  0.3147 -0.0208  0.0153
 3010SOL    HW120666   0.859   0.150   5.833 -0.3007  0.2284 -0.1763
 3010SOL    HW220667   0.952   0.242   5.896  0.6739 -0.3490  2.3305
 3011SOL     OW20668   2.812   4.242   3.280  0.1760 -0.2193  0.1010
 3011SOL    HW120669   2.804   4.336   3.266  1.7510  0.1976  1.9693
 3011SOL    HW220670   2.788   4.243   3.373  1.7144 -2.3938  0.5331
 3012SOL     OW20671   1.709   0.379   7.222  0.1564  0.1487 -0.3406
 3012SOL    HW120672   1.674   0.311   7.165 -2.7018 -1.1776  3.0113
 3012SOL    HW220673   1.801   0.350   7.219 -0.2080 -1.0373  0.2382
 3013SOL     OW20674   2.074   0.994  17.141  0.0141  0.5247 -0.2459
 3013SOL    HW120675   2.017   0.920  17.122  0.6318  0.1758 -0.7337
 3013SOL    HW220676   2.040   1.018  17.228 -1.7372  1.5294 -1.2223
 3014SOL     OW20677   4.003   0.172   6.668 -0.0556  0.0185 -0.1869
 3014SOL    HW120678   3.935   0.228   6.630 -1.7016 -1.8150  0.0189
 3014SOL    HW220679   4.082   0.202   6.623  0.0871 -0.3486 -0.1806
 3015SOL     OW20680   0.372   2.276  12.457 -0.1678 -0.0178 -0.3008
 3015SOL    HW120681   0.394   2.223  12.533  0.1077  0.3425 -0.1267
 3015SOL    HW220682   0.343   2.357  12.500  0.8115  0.6735 -0.9528
 3016SOL     OW20683   3.317   0.417   1.317 -0.0905 -0.0465 -0.4999
 3016SOL    HW120684   3.227   0.436   1.290 -0.6247  1.2355  2.1111
 3016SOL    HW220685   3.343   0.364   1.242 -2.0793 -0.6240 -0.8005
 3017SOL     OW20686   2.923   0.229   9.356  0.1729 -0.1160  0.3216
 3017SOL    HW120687   2.908   0.276   9.274 -3.1645 -1.9774 -0.1277
 3017SOL    HW220688   3.014   0.200   9.349 -0.0595 -0.9373  0.6695
 3018SOL     OW20689   2.463   3.804   5.049  0.2310  0.1081 -0.1748
 3018SOL    HW120690   2.393   3.759   5.096 -0.5005  0.7897 -0.6314
 3018SOL    HW220691   2.534   3.744   5.073 -0.2218 -0.3326  0.0467
 3019SOL     OW20692   3.695   4.665   8.075 -0.3303 -0.3187 -0.2627
 3019SOL    HW120693   3.624   4.688   8.015 -0.6286 -0.1941  0.1366
 3019SOL    HW220694   3.771   4.718   8.053  0.3036 -0.6196  1.2191
 3020SOL     OW20695   4.487   3.169  10.347 -0.4260  0.3849 -0.1092
 3020SOL    HW120696   4.547   3.198  10.415 -0.2417  0.4921 -0.3198
 3020SOL    HW220697   4.512   3.076  10.348 -0.6399  0.3338  0.4204
 3021SOL     OW20698   3.678   2.339   7.964 -0.4003  0.2376  0.2827
 3021SOL    HW120699   3.705   2.429   7.948  0.5905 -0.1782 -0.4071
 3021SOL    HW220700   3.606   2.355   8.025 -1.8149 -4.6058 -0.0796
 3022SOL     OW20701   1.916   4.224   4.558 -0.1303  0.4389 -0.1919
 3022SOL    HW120702   1.854   4.185   4.620  0.3051 -0.3397 -0.2514
 3022SOL    HW220703   1.964   4.285   4.614  0.8860  0.4818 -1.1145
 3023SOL     OW20704   1.334   2.779   4.948 -0.2915 -0.2064  0.1737
 3023SOL    HW120705   1.269   2.755   5.014  1.6602  1.4430  2.6967
 3023SOL    HW220706   1.372   2.852   4.996  0.5004 -1.1232  0.9435
 3024SOL     OW20707   3.187   1.568   9.998  1.0207 -0.7376  0.3094
 3024SOL    HW120708   3.110   1.536   9.951 -0.7366  0.0809  2.6323
 3024SOL    HW220709   3.170   1.661  10.009  1.2362 -0.6214 -0.3300
 3025SOL     OW20710   0.976   0.357  15.987 -0.4430 -0.4880  0.2431
 3025SOL    HW120711   1.035   0.327  15.918  1.3566  2.0442  0.6829
 3025SOL    HW220712   1.035   0.384  16.058  1.2636  0.2442 -1.4414
 3026SOL     OW20713   2.356   1.135   3.618  0.1749  0.0750 -0.3340
 3026SOL    HW120714   2.281   1.125   3.560 -0.6070  0.2442  0.6553
 3026SOL    HW220715   2.388   1.045   3.609  0.1837 -0.0630  1.0722
 3027SOL     OW20716   1.235   2.981  13.525  0.1562  0.4091 -0.3210
 3027SOL    HW120717   1.157   2.934  13.556 -0.3964  1.6163  0.1089
 3027SOL    HW220718   1.236   3.055  13.585 -2.7443 -1.2135  1.7494
 3028SOL     OW20719   0.508   1.840  16.990  1.0431 -0.1017  0.1394
 3028SOL    HW120720   0.571   1.912  17.000 -0.7991  1.4371  0.7673
 3028SOL    HW220721   0.431   1.882  17.029  1.3710 -0.5507  1.2491
 3029SOL     OW20722   2.905   2.468   8.141  0.2459  0.0376 -0.2965
 3029SOL    HW120723   2.879   2.456   8.232  0.8519 -1.7265 -0.3457
 3029SOL    HW220724   3.001   2.470   8.148  0.1610  1.0582  0.4954
 3030SOL     OW20725   2.423   3.295   5.012 -0.0011 -0.1385 -0.3091
 3030SOL    HW120726   2.465   3.332   5.089  0.0504  1.4719 -1.1225
 3030SOL    HW220727   2.348   3.245   5.046 -0.0548  0.6361  0.7060
 3031SOL     OW20728   1.315   0.823   2.403  0.3765 -0.5339  0.0573
 3031SOL    HW120729   1.406   0.854   2.406  0.6479 -1.1677 -1.6277
 3031SOL    HW220730   1.322   0.727   2.397 -0.3044 -0.3939 -2.5953
 3032SOL     OW20731   3.378   4.366   4.481 -0.0840  0.6994 -0.0821
 3032SOL    HW120732   3.322   4.425   4.532 -0.7724  0.5956 -0.7135
 3032SOL    HW220733   3.467   4.399   4.490 -0.3030  0.6935  1.9607
 3033SOL     OW20734   3.633   4.363   4.716 -0.5765 -0.0390 -0.2178
 3033SOL    HW120735   3.650   4.284   4.767  1.1857 -1.8698 -3.6576
 3033SOL    HW220736   3.698   4.371   4.646 -2.1205  1.6863 -1.4648
 3034SOL     OW20737   2.573   3.366   8.041  0.1321 -0.1901  0.3678
 3034SOL    HW120738   2.607   3.420   8.112 -1.0582  0.1213  0.6902
 3034SOL    HW220739   2.493   3.332   8.080  0.0604  0.3691  0.6994
 3035SOL     OW20740   2.074   2.089   6.978 -0.1190  0.1050  0.2026
 3035SOL    HW120741   2.030   2.128   7.053  0.0075  0.3498  0.1474
 3035SOL    HW220742   2.142   2.033   7.015  0.0068  2.4585  3.4650
 3036SOL     OW20743   3.004   3.763   5.391  1.0241  0.3251 -0.3017
 3036SOL    HW120744   2.912   3.737   5.399  1.3524 -1.6608 -3.2214
 3036SOL    HW220745   3.011   3.757   5.296  1.0980  0.7810 -0.3210
 3037SOL     OW20746   1.766   0.623   6.307 -0.1645 -0.0281 -0.3453
 3037SOL    HW120747   1.775   0.608   6.213 -4.3296 -0.1886 -0.7062
 3037SOL    HW220748   1.763   0.719   6.301  2.7246  0.0961  0.1208
 3038SOL     OW20749   2.012   0.083   6.541  0.5295 -0.0934  0.0565
 3038SOL    HW120750   1.987   0.130   6.462 -0.6258  0.2615  0.6404
 3038SOL    HW220751   1.935   0.107   6.592  1.2770  1.7759  0.3100
 3039SOL     OW20752   0.185   0.127   4.548 -0.4712  0.4147 -0.4634
 3039SOL    HW120753   0.191   0.180   4.628  1.7292  1.3813 -1.2722
 3039SOL    HW220754   0.225   0.043   4.571  0.7374  1.1140  0.0339
 3040SOL     OW20755   3.963   2.269   8.873  0.5090  0.3697 -0.6349
 3040SOL    HW120756   3.920   2.310   8.948  2.7705 -1.0714  1.4259
 3040SOL    HW220757   4.056   2.283   8.888  0.0113  0.6167  2.1637
 3041SOL     OW20758   1.915   4.075   4.308 -0.0025  0.5953 -0.0363
 3041SOL    HW120759   1.906   4.110   4.397 -0.0325  1.5979 -0.4375
 3041SOL    HW220760   1.826   4.051   4.284 -0.2619  1.3697  0.1578
 3042SOL     OW20761   4.653   3.966   5.472  0.1825 -0.1195 -0.5577
 3042SOL    HW120762   4.599   3.952   5.550 -0.1206 -0.1745 -0.7782
 3042SOL    HW220763   4.692   3.879   5.466  1.3994  0.4150 -0.2835
 3043SOL     OW20764   2.686   2.080   5.303  0.6082  0.3944 -0.2190
 3043SOL    HW120765   2.736   2.076   5.222  0.9096  3.8168 -0.2241
 3043SOL    HW220766   2.600   2.045   5.279  1.5074 -2.3938  0.7303
 3044SOL     OW20767   2.356   1.151   0.962 -0.4047 -0.0552 -0.0104
 3044SOL    HW120768   2.407   1.070   0.962  1.7694  1.2974  4.6904
 3044SOL    HW220769   2.270   1.111   0.949 -0.7676  0.4598  0.7835
 3045SOL     OW20770   2.814   0.059  16.302  0.1299  0.0622 -0.5953
 3045SOL    HW120771   2.891   0.046  16.247  1.0976 -3.1051  1.5509
 3045SOL    HW220772   2.807   4.709  16.336 -0.1897  1.2695  2.5497
 3046SOL     OW20773   3.243   3.807  15.367 -0.3079  0.4447 -0.0233
 3046SOL    HW120774   3.247   3.746  15.440 -2.8411  2.0281  1.4422
 3046SOL    HW220775   3.334   3.835  15.375  0.6562 -2.4622 -0.9977
 3047SOL     OW20776   3.480   4.053   4.884  0.0220  0.1056  0.6448
 3047SOL    HW120777   3.482   3.961   4.911 -2.4486 -0.1887 -0.2197
 3047SOL    HW220778   3.462   4.053   4.790  0.3854  0.8113  0.5778
 3048SOL     OW20779   1.282   0.732   0.814 -0.3980 -0.0917 -0.1656
 3048SOL    HW120780   1.367   0.750   0.773 -0.7786 -0.6075 -1.1694
 3048SOL    HW220781   1.241   0.818   0.806  4.7254  2.3105 -0.8745
 3049SOL     OW20782   0.355   4.335   2.973  0.0401  0.3808 -0.2183
 3049SOL    HW120783   0.299   4.373   2.905 -3.3277 -0.4707  2.1246
 3049SOL    HW220784   0.292   4.300   3.035  1.5259  1.8138  2.0848
 3050SOL     OW20785   3.749   0.236   5.622  0.6965 -0.2793 -0.2206
 3050SOL    HW120786   3.714   0.249   5.711  1.8507 -1.6150  0.4192
 3050SOL    HW220787   3.828   0.184   5.633 -0.1553 -1.4636  0.3038
 3051SOL     OW20788   2.611   3.024   3.567  0.0265 -0.9198 -0.3969
 3051SOL    HW120789   2.687   2.966   3.575 -0.1421 -1.3098 -1.5584
 3051SOL    HW220790   2.572   3.013   3.480 -1.5470  0.4824  0.1268
 3052SOL     OW20791   1.745   0.019  11.854  0.2112 -0.4270 -0.1588
 3052SOL    HW120792   1.762   0.044  11.763 -0.3827 -0.2028 -0.2079
 3052SOL    HW220793   1.768   4.665  11.852 -0.0445 -0.4591 -1.7157
 3053SOL     OW20794   0.107   1.477  15.206  0.8332 -0.4449  0.5328
 3053SOL    HW120795   0.052   1.455  15.281  1.8331 -0.9426  1.1156
 3053SOL    HW220796   0.170   1.407  15.189  1.5231 -0.2830  2.3950
 3054SOL     OW20797   2.808   1.570  17.631 -0.0239 -0.3138 -0.1455
 3054SOL    HW120798   2.826   1.593  17.723  1.2793  2.1370 -1.0123
 3054SOL    HW220799   2.776   1.650  17.590 -3.6095 -1.2607  0.8124
 3055SOL     OW20800   0.053   2.171   6.985 -0.0020  0.1842 -0.0839
 3055SOL    HW120801   0.104   2.228   6.927  0.9603 -0.2875  0.3118
 3055SOL    HW220802   0.003   2.243   7.023 -1.1802  0.0718 -1.4245
 3056SOL     OW20803   0.321   2.144   1.605 -0.2131 -0.1275 -0.4812
 3056SOL    HW120804   0.237   2.121   1.566 -1.2709  1.1615  1.0339
 3056SOL    HW220805   0.365   2.060   1.591 -0.0794 -0.6430  3.1313
 3057SOL     OW20806   2.128   2.852  10.242 -0.2452  0.7761 -0.6161
 3057SOL    HW120807   2.091   2.769  10.212  2.8634  0.3647 -3.3553
 3057SOL    HW220808   2.205   2.826  10.292 -1.3353 -0.3157  0.4805
 3058SOL     OW20809   1.218   3.811  16.587  0.2664  0.2256  0.4337
 3058SOL    HW120810   1.306   3.776  16.599  0.8154  1.8425  1.1173
 3058SOL    HW220811   1.229   3.900  16.555 -0.1461  1.0211  2.5330
 3059SOL     OW20812   0.901   0.893   9.233  0.2768  0.3837 -0.0586
 3059SOL    HW120813   0.839   0.924   9.299 -1.1395 -1.0227 -0.7340
 3059SOL    HW220814   0.876   0.963   9.173 -1.1770 -2.0770 -2.2964
 3060SOL     OW20815   4.089   3.976  13.198  0.4598  0.5597  0.0589
 3060SOL    HW120816   4.156   4.020  13.146  0.6352  1.0673  0.7334
 3060SOL    HW220817   4.146   3.926  13.257  1.7376  0.6273 -1.1046
 3061SOL     OW20818   3.684   2.893   0.751  0.0957  0.2838 -0.0081
 3061SOL    HW120819   3.599   2.925   0.720 -0.3184 -1.1213 -0.3571
 3061SOL    HW220820   3.687   2.939   0.835 -1.1914  0.2600  0.0508
 3062SOL     OW20821   1.852   3.310   8.261 -0.3198  0.0801  0.5059
 3062SOL    HW120822   1.850   3.391   8.209 -3.9460 -0.1138  0.3099
 3062SOL    HW220823   1.823   3.342   8.347  0.6412 -0.0294  0.8625
 3063SOL     OW20824   1.487   2.317   9.146  0.4487  0.1809 -0.1216
 3063SOL    HW120825   1.481   2.283   9.235 -1.3864  1.0293  0.0686
 3063SOL    HW220826   1.477   2.230   9.106 -0.0923  0.1889 -0.0087
 3064SOL     OW20827   4.258   0.044   0.632  0.0894  0.1511  0.5821
 3064SOL    HW120828   4.330   0.012   0.686  0.4112  0.0607  0.0935
 3064SOL    HW220829   4.250   0.132   0.670  1.1766  0.6522 -0.3378
 3065SOL     OW20830   1.708   3.381   7.930  0.3231  0.3902  0.0425
 3065SOL    HW120831   1.785   3.397   7.985  0.3887  0.6017 -0.1111
 3065SOL    HW220832   1.644   3.368   7.999  2.0504 -1.0254  1.3817
 3066SOL     OW20833   4.271   3.863  13.346 -0.3379 -0.6598 -0.1724
 3066SOL    HW120834   4.364   3.885  13.345 -0.2052 -1.2739 -1.1268
 3066SOL    HW220835   4.276   3.771  13.319  0.8996  0.2738 -3.0408
 3067SOL     OW20836   1.344   4.216   4.061  0.3292 -0.5260  0.0676
 3067SOL    HW120837   1.351   4.220   3.966  0.2187  1.3627  0.1320
 3067SOL    HW220838   1.260   4.173   4.078  1.2650 -2.0513  0.8157
 3068SOL     OW20839   4.718   0.056   1.844 -0.2484 -0.1633  0.0457
 3068SOL    HW120840   0.040   0.128   1.833  2.0615 -1.7964  2.1503
 3068SOL    HW220841   0.036   0.006   1.902  1.0055 -0.4421 -1.4310
 3069SOL     OW20842   4.578   3.093   9.393 -0.2194 -0.3591 -0.5734
 3069SOL    HW120843   4.633   3.139   9.457  0.5227 -0.6447 -1.0027
 3069SOL    HW220844   4.491   3.120   9.423 -0.5116  3.9705 -5.4559
 3070SOL     OW20845   0.355   1.835   7.487  0.5521 -0.2866 -0.7400
 3070SOL    HW120846   0.350   1.896   7.413  1.2690  1.8763  1.0272
 3070SOL    HW220847   0.325   1.900   7.549  0.9447  1.8410 -2.7678
 3071SOL     OW20848   0.919   3.678   5.681 -0.2723  0.5525  0.3462
 3071SOL    HW120849   0.903   3.765   5.644  1.0554 -0.1951 -1.9697
 3071SOL    HW220850   0.833   3.640   5.696 -0.3602  0.8368  0.5705
 3072SOL     OW20851   4.249   0.183   9.228  0.5311  0.3218 -0.1151
 3072SOL    HW120852   4.183   0.251   9.217  0.2886 -0.0517 -0.9230
 3072SOL    HW220853   4.230   0.131   9.307  2.4120  0.0423  0.1621
 3073SOL     OW20854   1.023   4.635   9.026  0.5850  0.2202  0.2328
 3073SOL    HW120855   1.015   4.548   9.065  1.5845 -0.6215 -1.4537
 3073SOL    HW220856   0.942   4.646   8.976  0.7367  0.8257  0.1213
 3074SOL     OW20857   2.095   2.222   8.608  0.6059  0.0459  0.6927
 3074SOL    HW120858   2.121   2.285   8.676  3.6650 -0.0800 -0.3379
 3074SOL    HW220859   2.119   2.274   8.532 -1.8557  0.8968  0.5067
 3075SOL     OW20860   3.958   4.485   4.061  0.1794 -0.0166 -0.0627
 3075SOL    HW120861   4.027   4.462   3.999 -0.5839 -0.5900 -0.6993
 3075SOL    HW220862   3.881   4.458   4.010 -0.5029  3.1851 -0.7025
 3076SOL     OW20863   1.646   1.457  14.714 -0.0152  0.3132  0.0289
 3076SOL    HW120864   1.722   1.513  14.731  0.1609  0.1399 -0.1893
 3076SOL    HW220865   1.619   1.499  14.633  2.5213  0.6374 -0.6654
 3077SOL     OW20866   3.383   1.487   7.241 -0.0806 -0.2139 -0.0950
 3077SOL    HW120867   3.457   1.487   7.180  0.3159  0.0925  0.3813
 3077SOL    HW220868   3.318   1.441   7.189 -1.9489  1.5260  0.6884
 3078SOL     OW20869   3.960   0.908   4.511 -1.1923 -0.3251 -0.7101
 3078SOL    HW120870   3.950   0.957   4.593  2.2096  0.3798 -0.7149
 3078SOL    HW220871   4.051   0.881   4.524 -1.9313 -1.7044  1.4480
 3079SOL     OW20872   0.079   2.242   1.994 -0.1180  0.4062 -0.6754
 3079SOL    HW120873   0.154   2.213   1.942 -0.1079  0.1556 -0.5244
 3079SOL    HW220874   0.110   2.268   2.081 -2.7136 -1.2878  0.7618
 3080SOL     OW20875   2.453   4.448   7.168  0.5289  0.4517 -0.0269
 3080SOL    HW120876   2.532   4.395   7.183  0.3850 -0.4149 -2.3504
 3080SOL    HW220877   2.423   4.399   7.091 -2.4639  1.5448  0.4631
 3081SOL     OW20878   0.543   2.819  16.650  0.0105 -0.8761  0.3683
 3081SOL    HW120879   0.578   2.766  16.578  0.7101 -1.2796  1.0039
 3081SOL    HW220880   0.534   2.754  16.720 -0.2904 -1.8554 -0.5865
 3082SOL     OW20881   4.176   4.333   5.226 -0.0389  0.3742  0.7532
 3082SOL    HW120882   4.195   4.337   5.133  2.1902 -0.7134  1.1646
 3082SOL    HW220883   4.260   4.308   5.265  0.1490 -0.5095 -0.2444
 3083SOL     OW20884   2.413   0.858   9.805  0.0730 -0.5497  0.0580
 3083SOL    HW120885   2.504   0.858   9.777 -0.1311 -2.5431 -0.6191
 3083SOL    HW220886   2.384   0.881   9.717  0.6015  1.4112  0.3912
 3084SOL     OW20887   0.897   3.624   7.913  0.3040 -0.2499  0.2511
 3084SOL    HW120888   0.945   3.599   7.834  1.4907 -1.6333  1.4107
 3084SOL    HW220889   0.947   3.594   7.988 -0.6433 -2.1749  0.0988
 3085SOL     OW20890   2.667   2.311   4.432 -0.5720  0.0296  0.7860
 3085SOL    HW120891   2.633   2.296   4.521 -1.3978  0.7055  0.5864
 3085SOL    HW220892   2.735   2.245   4.425 -1.8357 -1.1427 -0.2979
 3086SOL     OW20893   0.186   0.937   1.423  0.0792  0.4004 -0.0880
 3086SOL    HW120894   0.192   0.978   1.509 -0.1974  2.0133 -0.8408
 3086SOL    HW220895   0.099   0.899   1.411  0.3690 -0.8642  1.8446
 3087SOL     OW20896   2.134   2.345   9.114  0.3795 -0.6092  0.2242
 3087SOL    HW120897   2.098   2.257   9.121  3.6092 -1.9582  0.1033
 3087SOL    HW220898   2.211   2.346   9.172 -1.5336 -0.0300  2.7817
 3088SOL     OW20899   3.944   2.493  13.852  0.4597 -0.2331 -0.0252
 3088SOL    HW120900   3.949   2.497  13.757  1.6583  0.8818  0.0826
 3088SOL    HW220901   3.878   2.424  13.848  0.0069 -0.0155  3.3637
 3089SOL     OW20902   4.655   0.959   7.634  0.5881 -0.1411  0.2438
 3089SOL    HW120903   4.696   1.035   7.674  1.8178 -0.6161 -0.1208
 3089SOL    HW220904   4.611   0.924   7.711  2.3870  1.2564  1.8769
 3090SOL     OW20905   3.342   0.079  16.441  0.0962  0.2642 -0.2644
 3090SOL    HW120906   3.352   0.138  16.367  1.6651 -0.5383 -0.6960
 3090SOL    HW220907   3.389   0.008  16.398  0.8482  0.3227  0.4467
 3091SOL     OW20908   3.292   1.139   5.734  0.4416 -0.4057  0.2852
 3091SOL    HW120909   3.319   1.070   5.794  0.7059  0.5201  1.2231
 3091SOL    HW220910   3.197   1.145   5.745  0.0504 -3.2149 -1.3245
 3092SOL     OW20911   2.563   0.232   2.623 -0.0306 -0.2041  0.5012
 3092SOL    HW120912   2.469   0.231   2.606 -0.1352 -1.4442  1.2080
 3092SOL    HW220913   2.560   0.287   2.701  1.8575  0.0404  0.3858
 3093SOL     OW20914   4.107   2.264   1.143  0.1135 -0.0011  0.0514
 3093SOL    HW120915   4.182   2.321   1.132  1.3933 -1.5537  0.7041
 3093SOL    HW220916   4.077   2.272   1.234  0.1484  1.8436 -0.1061
 3094SOL     OW20917   1.605   0.605  13.558 -0.2872 -0.5337  0.2849
 3094SOL    HW120918   1.588   0.531  13.499 -1.4956  0.0354 -0.0866
 3094SOL    HW220919   1.700   0.599  13.560 -0.2529 -0.4808 -1.1017
 3095SOL     OW20920   3.943   2.923   3.941 -0.1000 -0.5416 -0.4308
 3095SOL    HW120921   3.885   2.887   3.874 -1.6273  0.4456  0.3513
 3095SOL    HW220922   3.893   2.933   4.022  0.1378 -0.8372 -0.2512
 3096SOL     OW20923   2.968   3.300   6.194 -0.0825  0.2071  0.9317
 3096SOL    HW120924   3.062   3.302   6.178 -0.5875  0.1148 -2.2569
 3096SOL    HW220925   2.967   3.248   6.274  0.3907  1.4683  1.7609
 3097SOL     OW20926   2.288   2.588  17.617 -0.6875  0.5396  0.6349
 3097SOL    HW120927   2.373   2.592  17.573 -0.7479 -1.5650  0.3269
 3097SOL    HW220928   2.312   2.514  17.673  0.5782  0.4294 -0.0647
 3098SOL     OW20929   2.395   3.919   5.406 -0.5329  0.0078  0.1807
 3098SOL    HW120930   2.344   3.993   5.373 -1.7068 -0.6283  0.5652
 3098SOL    HW220931   2.323   3.868   5.444 -1.3841  0.6705 -0.5386
 3099SOL     OW20932   0.529   1.616  17.111 -0.0905  0.6036  0.2959
 3099SOL    HW120933   0.540   1.704  17.075 -1.8175  0.3810 -0.7576
 3099SOL    HW220934   0.518   1.573  17.027  1.3246 -0.2031  0.5241
 3100SOL     OW20935   2.222   0.953   0.026 -0.3940  0.4661 -0.1723
 3100SOL    HW120936   2.276   0.992  17.709  0.9689 -1.6335 -0.2646
 3100SOL    HW220937   2.278   0.941   0.102 -0.1972  0.3781 -0.3311
 3101SOL     OW20938   0.240   3.554   2.825  0.1253 -0.1377 -0.5540
 3101SOL    HW120939   0.295   3.497   2.877  0.1405  1.7227  1.4906
 3101SOL    HW220940   0.307   3.603   2.778 -0.6343  1.0852 -0.3878
 3102SOL     OW20941   4.367   2.868   7.823  0.0966 -0.2880  0.0724
 3102SOL    HW120942   4.399   2.865   7.914 -1.5667  2.7951  0.7433
 3102SOL    HW220943   4.272   2.871   7.838  0.1367 -0.4190  0.3519
 3103SOL     OW20944   4.381   4.334   1.405 -0.0331 -0.2723 -0.2389
 3103SOL    HW120945   4.413   4.325   1.315 -0.4567 -0.0634 -0.4137
 3103SOL    HW220946   4.455   4.381   1.443 -2.1629  2.6774  0.2986
 3104SOL     OW20947   1.380   1.979   1.848  0.2118 -0.4389  0.2014
 3104SOL    HW120948   1.376   1.892   1.808  0.1706 -1.5676  2.6536
 3104SOL    HW220949   1.331   2.032   1.785  0.0891  1.4111  1.8689
 3105SOL     OW20950   4.223   1.397   7.416 -0.3627  0.3801 -0.6616
 3105SOL    HW120951   4.143   1.423   7.462 -1.4495 -0.4882 -2.0671
 3105SOL    HW220952   4.273   1.344   7.479  0.1278 -1.4119 -2.5661
 3106SOL     OW20953   3.299   4.345   1.547  0.0760 -0.8922 -0.4536
 3106SOL    HW120954   3.321   4.396   1.469 -0.9539  2.1542  1.2359
 3106SOL    HW220955   3.351   4.379   1.620 -0.3724 -1.8869  0.3245
 3107SOL     OW20956   1.219   0.027  11.432  0.4782 -0.2022 -0.1753
 3107SOL    HW120957   1.270   0.071  11.500  0.2020 -1.0497  0.5685
 3107SOL    HW220958   1.254   4.677  11.421  2.6161  0.7353 -1.0881
 3108SOL     OW20959   4.403   2.206   7.713  0.4422  0.0744  0.2725
 3108SOL    HW120960   4.436   2.165   7.793  0.5498  2.0717  1.2542
 3108SOL    HW220961   4.313   2.216   7.742 -0.2518  0.5402 -2.0541
 3109SOL     OW20962   4.171   0.954   3.432 -0.9735  0.4995 -0.3783
 3109SOL    HW120963   4.122   0.878   3.402 -0.5431 -0.7055  1.9219
 3109SOL    HW220964   4.131   0.971   3.518  0.9851  1.2084  0.4112
 3110SOL     OW20965   0.213   3.820   3.397 -0.4428 -0.1739 -0.6201
 3110SOL    HW120966   0.201   3.824   3.302  1.5091 -0.4379 -0.8758
 3110SOL    HW220967   0.251   3.906   3.413 -0.0949 -0.1394 -1.6499
 3111SOL     OW20968   2.900   2.644  14.098 -0.4968 -0.1115 -0.4568
 3111SOL    HW120969   2.868   2.554  14.103  0.9979 -0.7513 -2.4312
 3111SOL    HW220970   2.913   2.653  14.004  0.9490  0.8638 -0.1547
 3112SOL     OW20971   4.634   4.250  11.770  0.3952 -0.2182 -0.5437
 3112SOL    HW120972   4.692   4.249  11.694 -1.6125 -0.2681 -2.0758
 3112SOL    HW220973   4.665   4.182  11.830 -0.7620 -2.0100 -1.9701
 3113SOL     OW20974   2.134   0.283  16.332  0.0599  0.1711 -1.0233
 3113SOL    HW120975   2.177   0.334  16.400 -0.1782  1.3230 -1.7374
 3113SOL    HW220976   2.045   0.315  16.341 -0.2210 -1.1825  0.9573
 3114SOL     OW20977   4.054   2.670   4.589  0.2650  0.4081 -0.7012
 3114SOL    HW120978   4.020   2.606   4.651  1.7447 -0.2432 -0.5576
 3114SOL    HW220979   4.084   2.735   4.652 -0.3214 -0.1092  0.1049
 3115SOL     OW20980   0.010   4.409   9.068 -0.1796  0.3389  0.3022
 3115SOL    HW120981   0.076   4.478   9.060  0.7676 -0.4980  0.8530
 3115SOL    HW220982   4.665   4.446   9.040 -1.2809 -1.3048  1.4017
 3116SOL     OW20983   0.612   3.074  10.753 -0.3747 -0.1936 -0.4174
 3116SOL    HW120984   0.695   3.118  10.736 -0.5345  0.3714  0.2973
 3116SOL    HW220985   0.549   3.128  10.705 -1.8080 -1.9925 -0.5881
 3117SOL     OW20986   1.787   4.494  11.755  0.1137  0.1996  0.8850
 3117SOL    HW120987   1.873   4.530  11.731 -0.7552  1.1866 -0.7784
 3117SOL    HW220988   1.759   4.455  11.672  1.4316 -1.1643  1.0976
 3118SOL     OW20989   0.983   1.675   8.144 -0.0014 -0.2914 -0.3165
 3118SOL    HW120990   0.973   1.667   8.049 -4.5185 -2.6827  0.3545
 3118SOL    HW220991   1.031   1.593   8.158 -2.3075 -1.8320 -1.4135
 3119SOL     OW20992   2.790   0.725   4.463  0.4592  0.1553  0.1168
 3119SOL    HW120993   2.792   0.645   4.410  1.4109  0.8268 -0.8529
 3119SOL    HW220994   2.697   0.743   4.456  0.0649 -1.3305  1.4704
 3120SOL     OW20995   3.052   1.481   5.380 -0.1225  0.4153  0.1871
 3120SOL    HW120996   3.090   1.467   5.293  0.8259  0.9684  0.5184
 3120SOL    HW220997   3.119   1.441   5.436 -2.6190 -1.4572  1.8702
 3121SOL     OW20998   3.671   2.809  12.011  0.0600  0.4827 -0.9428
 3121SOL    HW120999   3.737   2.863  12.056 -1.8274  2.6353 -0.7443
 3121SOL    HW221000   3.646   2.743  12.076 -1.5003  0.7317 -1.2996
 3122SOL     OW21001   0.809   0.153  11.000  0.0408 -0.1224  0.0830
 3122SOL    HW121002   0.813   0.144  10.905  1.7660 -0.5223  0.1890
 3122SOL    HW221003   0.903   0.140  11.016 -0.3427 -0.5310  1.9747
 3123SOL     OW21004   4.286   0.373   2.752  0.1135  0.0707 -0.9207
 3123SOL    HW121005   4.211   0.320   2.723 -0.6013  1.0759 -0.9300
 3123SOL    HW221006   4.358   0.316   2.725 -2.1659 -2.8484 -0.8424
 3124SOL     OW21007   3.143   0.561  14.760  0.5842 -0.2446 -0.3862
 3124SOL    HW121008   3.096   0.606  14.830  0.8454  0.7582 -0.8592
 3124SOL    HW221009   3.147   0.470  14.789  2.4670 -0.9605 -2.9459
 3125SOL     OW21010   0.818   3.327  13.040  0.4271 -0.4441  0.5522
 3125SOL    HW121011   0.820   3.417  13.008 -0.8117 -0.2825  0.9063
 3125SOL    HW221012   0.910   3.304  13.034  0.7623  1.4288 -1.2984
 3126SOL     OW21013   3.970   4.315   1.729 -0.3547 -0.0698  0.1028
 3126SOL    HW121014   4.004   4.371   1.659 -1.3448  1.1789  0.6114
 3126SOL    HW221015   3.985   4.229   1.692 -0.2546  0.6617 -1.5437
 3127SOL     OW21016   1.412   0.931   5.045 -0.2852 -0.6705  0.3673
 3127SOL    HW121017   1.463   0.899   5.119  0.2993  1.0064  0.6941
 3127SOL    HW221018   1.353   0.994   5.085 -0.7787 -0.8758 -0.0424
 3128SOL     OW21019   4.119   3.973   6.588  0.4208  0.0809  0.6054
 3128SOL    HW121020   4.124   4.014   6.501 -2.3692  0.8754  0.8164
 3128SOL    HW221021   4.208   3.985   6.621  0.2586  0.1370  1.0120
 3129SOL     OW21022   1.040   0.963   6.146  0.3585 -0.0595 -0.8192
 3129SOL    HW121023   1.024   0.979   6.053 -0.9828  0.3959 -0.5140
 3129SOL    HW221024   1.134   0.948   6.145  0.2104 -1.2340  1.6843
 3130SOL     OW21025   0.289   3.590   5.654  0.4158 -0.3769  0.4388
 3130SOL    HW121026   0.286   3.505   5.699 -2.0388 -0.2338  0.5177
 3130SOL    HW221027   0.214   3.576   5.597 -0.3692  1.2781  1.0760
 3131SOL     OW21028   3.614   1.092   9.087 -0.1495  0.1392 -0.2741
 3131SOL    HW121029   3.559   1.015   9.081 -1.4132  0.8999  1.4035
 3131SOL    HW221030   3.555   1.142   9.144  0.2310  0.7297 -0.3873
 3132SOL     OW21031   3.789   0.445  12.243  0.5056  0.5665 -0.2939
 3132SOL    HW121032   3.757   0.402  12.164 -1.3255  2.2438 -0.4791
 3132SOL    HW221033   3.869   0.481  12.204  0.9579 -0.8746 -0.6703
 3133SOL     OW21034   2.777   0.637   3.741  0.0463 -0.2893 -0.7324
 3133SOL    HW121035   2.866   0.671   3.728  0.7972 -1.4492  1.4979
 3133SOL    HW221036   2.756   0.685   3.820 -2.4394  0.6944 -1.9709
 3134SOL     OW21037   4.392   3.241  15.881  0.4615 -0.1218  0.3966
 3134SOL    HW121038   4.325   3.288  15.930 -1.6112 -1.4586 -1.1498
 3134SOL    HW221039   4.388   3.148  15.903 -2.8153  0.1420  0.9255
 3135SOL     OW21040   3.250   1.811   5.160 -0.2649  0.0502 -0.2195
 3135SOL    HW121041   3.339   1.841   5.174 -0.9335  1.0622  1.7838
 3135SOL    HW221042   3.258   1.723   5.195  3.7639  1.3283  2.0015
 3136SOL     OW21043   2.700   1.864  13.333 -0.0173 -0.2527  0.9010
 3136SOL    HW121044   2.684   1.811  13.255  0.9718  1.8202 -0.6986
 3136SOL    HW221045   2.676   1.951  13.300  1.9627  0.1114  0.4509
 3137SOL     OW21046   2.006   4.522   4.988  0.0186 -0.2418  0.5085
 3137SOL    HW121047   1.968   4.585   5.048 -1.2539 -2.6208  2.2083
 3137SOL    HW221048   2.080   4.573   4.953  0.6235 -0.3744  1.6020
 3138SOL     OW21049   0.760   0.281   7.435  0.7941  0.0521  0.0387
 3138SOL    HW121050   0.832   0.314   7.382  1.4243  0.3431  1.0992
 3138SOL    HW221051   0.725   0.210   7.380 -2.0787  1.0360  0.6089
 3139SOL     OW21052   0.618   0.050   2.771 -0.7089 -0.3995  0.3759
 3139SOL    HW121053   0.607   0.139   2.739  1.3447  0.4164  1.9689
 3139SOL    HW221054   0.702   0.072   2.810 -0.8040  1.7630 -0.6484
 3140SOL     OW21055   1.852   2.837   5.758 -0.0655  0.3743  0.2968
 3140SOL    HW121056   1.845   2.921   5.804  0.0571  0.1936  0.6431
 3140SOL    HW221057   1.942   2.839   5.725  0.5753  0.7192  2.0435
 3141SOL     OW21058   0.428   1.231   4.636  0.0682 -0.4171 -0.1220
 3141SOL    HW121059   0.402   1.287   4.710 -0.4106 -3.2059  1.8142
 3141SOL    HW221060   0.410   1.143   4.668  1.0523 -0.8870 -0.8722
 3142SOL     OW21061   3.820   0.250   2.902  0.2442 -0.3230  0.0716
 3142SOL    HW121062   3.824   0.185   2.973  1.4723  1.0013  1.2282
 3142SOL    HW221063   3.820   0.333   2.951 -1.6580  0.6847 -1.6493
 3143SOL     OW21064   4.083   1.847   3.436  0.3439  0.1212 -0.0608
 3143SOL    HW121065   4.060   1.867   3.345 -0.4654  1.3476  0.4035
 3143SOL    HW221066   4.096   1.935   3.472  0.0500 -0.3417  1.1510
 3144SOL     OW21067   1.787   1.263   4.213 -0.1102 -0.1266 -0.8373
 3144SOL    HW121068   1.692   1.265   4.201 -0.5865 -0.8281  2.6543
 3144SOL    HW221069   1.800   1.357   4.223 -0.2928 -0.3654  1.5488
 3145SOL     OW21070   0.226   3.819   4.987 -0.0676  0.6727  0.1395
 3145SOL    HW121071   0.158   3.814   4.920  2.3772 -2.5700 -2.1505
 3145SOL    HW221072   0.289   3.856   4.925  0.6600  1.7716  1.5346
 3146SOL     OW21073   4.304   2.028   9.055 -0.3034  0.4313  0.7164
 3146SOL    HW121074   4.271   2.117   9.066  1.1599  0.9841  0.6501
 3146SOL    HW221075   4.398   2.043   9.041 -0.5907  2.0241  0.4776
 3147SOL     OW21076   3.166   2.328  10.543 -0.2609  0.1907 -0.0401
 3147SOL    HW121077   3.204   2.310  10.629 -0.3748 -0.7227 -0.1799
 3147SOL    HW221078   3.128   2.414  10.560 -1.2059  0.5303 -3.7289
 3148SOL     OW21079   0.132   3.349  10.048 -0.0892  0.5544 -0.1992
 3148SOL    HW121080   0.158   3.404   9.974  1.2542 -2.0059 -1.6184
 3148SOL    HW221081   0.133   3.415  10.118 -0.7024 -1.3703  1.6378
 3149SOL     OW21082   3.609   4.317   2.908  1.1355  0.6256  0.4578
 3149SOL    HW121083   3.555   4.247   2.945 -1.4716  0.5023 -3.5955
 3149SOL    HW221084   3.643   4.273   2.831  0.2286 -0.1307  0.4840
 3150SOL     OW21085   2.284   3.871   8.802  0.3201 -0.3079 -0.4512
 3150SOL    HW121086   2.356   3.809   8.788 -0.9649 -1.0522 -3.8563
 3150SOL    HW221087   2.228   3.807   8.846  0.5108  0.2853  0.6517
 3151SOL     OW21088   4.333   3.380   8.657  0.7238  0.4042  0.2052
 3151SOL    HW121089   4.351   3.346   8.744 -2.3943  2.2894  1.5746
 3151SOL    HW221090   4.357   3.471   8.677 -2.3513  1.4186 -0.8126
 3152SOL     OW21091   3.906   3.540  14.050  0.6154  0.2292 -0.1035
 3152SOL    HW121092   3.831   3.482  14.038  0.9715  0.3845 -3.0501
 3152SOL    HW221093   3.868   3.623  14.079  0.5491  0.7165 -1.5852
 3153SOL     OW21094   2.803   1.208   6.528 -0.8908  0.0674 -0.4013
 3153SOL    HW121095   2.751   1.274   6.483 -0.3595  0.7244 -0.0527
 3153SOL    HW221096   2.817   1.138   6.464  1.6435  0.6661 -0.5014
 3154SOL     OW21097   4.079   3.709   1.236  0.4877  0.2033  0.6738
 3154SOL    HW121098   4.034   3.753   1.164 -1.5202  0.0808  1.8411
 3154SOL    HW221099   4.020   3.636   1.254 -0.8316  0.4607 -2.5866
 3155SOL     OW21100   0.246   1.228   4.389  0.6100  0.1239 -0.3216
 3155SOL    HW121101   0.278   1.176   4.463 -1.1446 -0.9702 -0.3326
 3155SOL    HW221102   0.271   1.317   4.413  0.6890  0.0848 -0.2566
 3156SOL     OW21103   3.839   1.593   3.414  0.2430 -0.0126  0.4089
 3156SOL    HW121104   3.932   1.575   3.425  0.2608 -0.4282 -0.4213
 3156SOL    HW221105   3.831   1.598   3.319 -0.9100  1.2517  0.5697
 3157SOL     OW21106   2.630   2.646   7.615  0.3292 -0.1332 -0.3370
 3157SOL    HW121107   2.580   2.615   7.691  0.6133 -0.0680 -0.1235
 3157SOL    HW221108   2.701   2.698   7.652 -0.6231  0.6104  0.4481
 3158SOL     OW21109   4.573   4.396  17.103 -0.5795  0.0716 -0.3055
 3158SOL    HW121110   4.586   4.464  17.169  0.3290  1.7278 -2.1824
 3158SOL    HW221111   4.636   4.423  17.036 -0.7921 -1.0866 -0.9724
 3159SOL     OW21112   2.535   2.937   8.501 -0.1127  0.6448  0.0817
 3159SOL    HW121113   2.565   3.005   8.441  1.8249 -0.5881 -0.3453
 3159SOL    HW221114   2.473   2.985   8.556 -0.3986  0.3216  0.0470
 3160SOL     OW21115   3.838   3.291  12.407  0.3645 -0.5353 -0.7898
 3160SOL    HW121116   3.758   3.241  12.424 -0.5236  1.4214  0.8094
 3160SOL    HW221117   3.855   3.287  12.313 -2.8251 -1.1424 -1.3273
 3161SOL     OW21118   3.120   0.654   2.565  0.1421 -0.5163 -0.8156
 3161SOL    HW121119   3.049   0.608   2.611 -0.2081  0.0489 -0.7838
 3161SOL    HW221120   3.184   0.628   2.630 -1.8975 -0.9632  1.0288
 3162SOL     OW21121   0.512   1.236  11.573 -0.1685  0.3644  0.2699
 3162SOL    HW121122   0.455   1.296  11.622 -0.3107  1.9569 -1.8564
 3162SOL    HW221123   0.523   1.168  11.640 -0.6149  1.0455  1.0276
 3163SOL     OW21124   2.272   0.970  12.359  0.1306  0.3979 -0.1889
 3163SOL    HW121125   2.267   0.912  12.283 -1.3732 -1.4169  1.2938
 3163SOL    HW221126   2.357   0.944  12.394 -0.1522  0.0675  0.2543
 3164SOL     OW21127   3.864   0.149   0.742 -0.6472  0.0379  0.1278
 3164SOL    HW121128   3.804   0.178   0.673  0.2132 -1.6474 -1.3243
 3164SOL    HW221129   3.839   0.218   0.803 -0.5894 -1.0159  1.3370
 3165SOL     OW21130   4.448   2.439   7.887  0.7629  0.0674  0.2777
 3165SOL    HW121131   4.461   2.349   7.917 -1.7537 -0.0059  1.1700
 3165SOL    HW221132   4.474   2.424   7.796 -0.0365 -1.9522  0.3703
 3166SOL     OW21133   3.947   0.981  15.447 -0.1074 -0.4891  0.6047
 3166SOL    HW121134   3.973   0.896  15.410  0.2218 -0.2602  0.3194
 3166SOL    HW221135   4.035   1.014  15.428 -0.7522  0.9247  0.1111
 3167SOL     OW21136   2.359   1.338   4.649 -0.5640  0.5255  0.1711
 3167SOL    HW121137   2.412   1.305   4.576  1.3749  1.4577  1.1660
 3167SOL    HW221138   2.276   1.291   4.648 -0.3131  0.1222 -2.0106
 3168SOL     OW21139   4.486   0.040   4.750 -0.0839 -0.5930  0.2577
 3168SOL    HW121140   4.399   0.080   4.761  1.0116  1.5166  1.2819
 3168SOL    HW221141   4.496   0.044   4.655 -1.6541  0.9934  0.1570
 3169SOL     OW21142   2.342   1.558  15.502 -0.1856  0.0371 -0.2162
 3169SOL    HW121143   2.417   1.543  15.445  0.0551 -1.2660  0.4707
 3169SOL    HW221144   2.292   1.478  15.485 -0.8804 -0.2481  3.3002
 3170SOL     OW21145   0.994   0.813   7.772 -0.4479  0.0065  0.6568
 3170SOL    HW121146   0.952   0.762   7.841 -1.8701 -1.2745 -1.1419
 3170SOL    HW221147   0.976   0.900   7.807 -0.2134 -0.1910  1.2727
 3171SOL     OW21148   2.067   4.113   7.903 -0.4369  0.0297  0.1884
 3171SOL    HW121149   2.137   4.049   7.896 -0.0441  0.5513 -0.6219
 3171SOL    HW221150   2.114   4.192   7.876 -0.6337  0.0227 -0.1715
 3172SOL     OW21151   3.545   0.968   4.441 -0.0651  0.0532 -0.3381
 3172SOL    HW121152   3.594   0.894   4.478 -0.4263  0.1491  0.3292
 3172SOL    HW221153   3.547   1.026   4.517  0.0903  1.6243 -1.5463
 3173SOL     OW21154   2.841   0.505  16.402  0.2433  0.4914  0.1025
 3173SOL    HW121155   2.811   0.462  16.322 -1.1034  1.8524 -0.1234
 3173SOL    HW221156   2.910   0.560  16.364  2.1829 -0.7787  1.7392
 3174SOL     OW21157   0.878   2.799   9.680 -0.3977 -0.0736  0.4493
 3174SOL    HW121158   0.844   2.882   9.645  1.9196  1.4063  1.6953
 3174SOL    HW221159   0.847   2.742   9.609  1.0933 -0.1691 -0.1329
 3175SOL     OW21160   3.690   2.517   5.903  0.1356 -0.8246  0.0330
 3175SOL    HW121161   3.632   2.502   5.828 -0.9295 -0.9348  0.8817
 3175SOL    HW221162   3.681   2.432   5.948  1.1428 -0.6839  0.5112
 3176SOL     OW21163   2.574   0.409   5.788  0.1474  1.2661  0.6209
 3176SOL    HW121164   2.529   0.345   5.843  1.9031 -1.3262 -0.9740
 3176SOL    HW221165   2.549   0.491   5.831 -0.2648  1.5814 -0.2223
 3177SOL     OW21166   1.529   2.765   3.142  0.1631 -0.1228  0.0827
 3177SOL    HW121167   1.447   2.776   3.093  0.2254 -0.4470 -0.0943
 3177SOL    HW221168   1.518   2.675   3.173 -4.6980 -0.3316 -2.1372
 3178SOL     OW21169   3.256   2.706   5.393  0.0092 -0.3883 -0.4734
 3178SOL    HW121170   3.273   2.799   5.379 -0.4227 -0.2415 -0.0377
 3178SOL    HW221171   3.343   2.666   5.389  0.2728 -0.0049  1.2022
 3179SOL     OW21172   1.320   0.586   4.117  0.2605 -0.1606  0.3831
 3179SOL    HW121173   1.393   0.647   4.114 -0.3618  0.6195  0.9334
 3179SOL    HW221174   1.327   0.549   4.205 -2.2666  0.8716  1.0281
 3180SOL     OW21175   4.536   3.373   8.081 -0.5736  0.0317 -0.4278
 3180SOL    HW121176   4.541   3.278   8.093 -2.3503  0.0310  0.2896
 3180SOL    HW221177   4.525   3.400   8.172  1.5632 -1.1794  0.1868
 3181SOL     OW21178   3.601   2.278  16.954 -0.2992  0.8709 -0.4113
 3181SOL    HW121179   3.552   2.357  16.975 -0.3274  1.2475 -1.9565
 3181SOL    HW221180   3.645   2.298  16.872  2.1215 -2.0391  0.1650
 3182SOL     OW21181   1.563   2.247   9.405 -0.1660  0.3886 -0.5815
 3182SOL    HW121182   1.655   2.240   9.383 -1.0311  0.3962 -4.0900
 3182SOL    HW221183   1.532   2.160   9.380  0.7467 -0.4007  0.9973
 3183SOL     OW21184   2.646   3.761   9.334  0.1971 -0.0279 -0.6366
 3183SOL    HW121185   2.688   3.800   9.411  0.5568  1.1474 -1.4219
 3183SOL    HW221186   2.596   3.833   9.295  0.1862 -0.2654 -1.0574
 3184SOL     OW21187   1.890   2.002   4.812  0.4725 -0.1351 -0.1173
 3184SOL    HW121188   1.861   1.917   4.845  1.8979 -0.7662 -0.4801
 3184SOL    HW221189   1.901   2.054   4.891 -2.2597  0.0032  0.1773
 3185SOL     OW21190   1.912   0.595   6.712 -0.2437 -0.0794 -0.1464
 3185SOL    HW121191   1.913   0.661   6.782  1.7748  0.4273 -0.6636
 3185SOL    HW221192   1.855   0.629   6.643 -0.3671 -1.0718 -0.5346
 3186SOL     OW21193   4.483   2.303   8.301  0.0491 -0.2274 -0.5609
 3186SOL    HW121194   4.397   2.300   8.258  0.0144 -1.7723 -0.3666
 3186SOL    HW221195   4.455   2.295   8.392  0.3783 -0.8268 -0.5176
 3187SOL     OW21196   1.890   3.104   8.087  0.6256  0.1691  0.2292
 3187SOL    HW121197   1.864   3.162   8.159 -1.5732  1.2195 -1.4004
 3187SOL    HW221198   1.867   3.019   8.125 -1.2211  1.3599  1.7970
 3188SOL     OW21199   3.959   1.996   9.878 -0.1723 -0.2592 -0.1957
 3188SOL    HW121200   3.928   1.922   9.930 -2.0105 -0.3168 -1.3757
 3188SOL    HW221201   3.898   2.064   9.908  0.5962 -0.4461  1.8136
 3189SOL     OW21202   1.594   4.022  12.590 -0.1879  0.0932  0.4182
 3189SOL    HW121203   1.672   3.984  12.550  0.8653  2.0398  0.5890
 3189SOL    HW221204   1.539   3.946  12.610 -1.5844  0.9091 -0.3009
 3190SOL     OW21205   3.759   2.756   2.987 -0.2583  0.5216 -0.0938
 3190SOL    HW121206   3.705   2.724   3.059  1.8714  2.3440  2.2930
 3190SOL    HW221207   3.706   2.728   2.912  0.7182  1.3435 -1.0882
 3191SOL     OW21208   0.867   0.141   7.629 -0.2755  0.6739  0.4029
 3191SOL    HW121209   0.958   0.142   7.601 -0.4439  0.6975 -0.1529
 3191SOL    HW221210   0.829   0.193   7.558 -1.9211 -0.9887  0.0551
 3192SOL     OW21211   1.160   3.257   7.082  0.2616 -0.7478  0.6552
 3192SOL    HW121212   1.179   3.293   6.995  1.1983  0.4585  1.3640
 3192SOL    HW221213   1.140   3.326   7.145 -2.4505  1.8097 -2.9734
 3193SOL     OW21214   3.434   0.189   3.534 -0.2277  0.0591 -0.6971
 3193SOL    HW121215   3.480   0.194   3.618  2.2073  1.8323 -2.1514
 3193SOL    HW221216   3.343   0.176   3.560 -0.3025 -1.4777 -1.7251
 3194SOL     OW21217   4.691   2.976   4.814  0.7487 -0.2740  0.0239
 3194SOL    HW121218   0.028   2.987   4.756 -0.1780 -0.2179 -1.1790
 3194SOL    HW221219   4.676   2.883   4.799  0.5250 -0.5924  2.2248
 3195SOL     OW21220   2.695   2.393   7.827  0.2377  0.4609  0.1203
 3195SOL    HW121221   2.694   2.319   7.887  0.5003  0.2871 -0.0904
 3195SOL    HW221222   2.656   2.351   7.751 -0.6622 -1.3568  1.5854
 3196SOL     OW21223   1.837   2.304   2.672 -1.2482  0.0601  0.1419
 3196SOL    HW121224   1.817   2.376   2.732  0.4461  0.6757 -0.0390
 3196SOL    HW221225   1.770   2.244   2.707  0.0928  0.0024  2.6180
 3197SOL     OW21226   2.142   0.216   7.807  0.1006  0.3497 -0.1862
 3197SOL    HW121227   2.219   0.175   7.768 -0.5181 -0.2479 -0.7764
 3197SOL    HW221228   2.067   0.163   7.780  1.2125 -1.4917  0.3860
 3198SOL     OW21229   1.057   0.012   2.406 -0.2593  0.2018 -0.3530
 3198SOL    HW121230   1.058   4.703   2.489  2.1350 -0.8370 -0.9971
 3198SOL    HW221231   1.080   0.095   2.448 -1.8595  0.0472  0.8077
 3199SOL     OW21232   4.532   2.458   3.628 -0.3545 -0.3486 -0.0339
 3199SOL    HW121233   4.563   2.548   3.643  1.6419 -0.5688 -2.7332
 3199SOL    HW221234   4.564   2.441   3.539  0.6399  3.6930 -0.4371
 3200SOL     OW21235   0.057   0.287   5.653 -0.3313 -0.1419 -0.3490
 3200SOL    HW121236   0.026   0.207   5.696  0.5028  0.0105  0.5251
 3200SOL    HW221237   4.718   0.343   5.651 -0.0449  0.2218 -1.0391
 3201SOL     OW21238   0.061   0.332  11.469  0.3463  0.2760  0.7252
 3201SOL    HW121239   0.017   0.361  11.549  2.8140  1.1847  1.7462
 3201SOL    HW221240   0.134   0.393  11.464  1.5097 -1.1276  0.7151
 3202SOL     OW21241   3.771   0.125   8.572 -0.2382 -0.4475  0.2194
 3202SOL    HW121242   3.828   0.049   8.557  0.4771  0.2005 -0.3106
 3202SOL    HW221243   3.764   0.159   8.483 -2.8376 -2.5081 -0.3870
 3203SOL     OW21244   1.028   2.110  16.700 -0.2492  0.9560 -0.2174
 3203SOL    HW121245   1.029   2.079  16.610 -0.8146  0.6695 -0.1220
 3203SOL    HW221246   1.120   2.091  16.721 -0.2369 -1.1130 -2.2060
 3204SOL     OW21247   2.200   1.930   5.087  0.3464  0.5105 -0.6947
 3204SOL    HW121248   2.162   1.842   5.082  0.9467  0.0043  3.8730
 3204SOL    HW221249   2.287   1.910   5.054 -0.3314 -1.4984 -1.2603
 3205SOL     OW21250   0.129   0.414   6.481 -0.8718 -0.3195  0.1317
 3205SOL    HW121251   0.069   0.443   6.413 -0.7195 -0.1277  0.0796
 3205SOL    HW221252   0.109   0.470   6.556  1.9022  1.0188 -0.1269
 3206SOL     OW21253   4.492   1.558   3.167 -0.0927 -0.5260 -0.5451
 3206SOL    HW121254   4.414   1.502   3.168 -1.0625  0.8617  0.1551
 3206SOL    HW221255   4.565   1.496   3.158  0.1343 -0.3084 -0.2094
 3207SOL     OW21256   3.057   4.126   3.291  0.4596  0.9907  0.3211
 3207SOL    HW121257   3.017   4.108   3.376  0.2827 -2.4636 -0.4814
 3207SOL    HW221258   2.976   4.132   3.242 -0.5543  1.5059  2.0853
 3208SOL     OW21259   1.811   3.162   4.416  0.1332 -0.5622  0.2588
 3208SOL    HW121260   1.903   3.160   4.388 -0.1361 -1.0058 -0.5845
 3208SOL    HW221261   1.793   3.255   4.401  0.3460 -0.3495  1.3448
 3209SOL     OW21262   2.364   3.748   5.615  0.3132 -0.3838  0.1348
 3209SOL    HW121263   2.345   3.657   5.594 -2.1035  0.0805  0.3294
 3209SOL    HW221264   2.277   3.785   5.600  0.8762  0.7132 -0.4684
 3210SOL     OW21265   4.285   0.085  14.355  0.1247 -0.0671  0.7423
 3210SOL    HW121266   4.308   0.097  14.263 -2.4048  0.0918  0.1192
 3210SOL    HW221267   4.346   0.012  14.364 -1.0878 -1.3464 -1.3375
 3211SOL     OW21268   1.554   1.585   7.856 -0.1886 -0.5057 -0.3516
 3211SOL    HW121269   1.516   1.519   7.913 -1.6797  1.1603  0.5719
 3211SOL    HW221270   1.590   1.537   7.781  2.6575 -1.0063  1.3397
 3212SOL     OW21271   1.112   3.160   2.588 -0.1883  0.5058 -0.2501
 3212SOL    HW121272   1.180   3.198   2.532  0.2592  0.9170  0.5686
 3212SOL    HW221273   1.133   3.210   2.667 -0.7144  0.5649 -0.1469
 3213SOL     OW21274   3.702   0.049   2.154 -0.2285  0.2734  0.0232
 3213SOL    HW121275   3.753   0.123   2.186  1.8569 -0.9941 -0.4077
 3213SOL    HW221276   3.731   0.036   2.064 -0.1675  0.2687  0.0436
 3214SOL     OW21277   2.255   4.048   2.568  0.8427  0.3249 -0.1838
 3214SOL    HW121278   2.202   4.099   2.506 -1.4719  0.5022  1.9228
 3214SOL    HW221279   2.243   4.106   2.643  0.3967 -0.8944  0.6922
 3215SOL     OW21280   3.209   1.596  13.115 -0.4519  0.1181  0.2032
 3215SOL    HW121281   3.193   1.523  13.056  1.5344  1.1876 -1.6454
 3215SOL    HW221282   3.226   1.668  13.055  0.0370 -0.0804  0.1068
 3216SOL     OW21283   4.530   0.296  13.918  0.1754 -0.1178 -0.0032
 3216SOL    HW121284   4.600   0.324  13.977 -0.1985  2.8726 -0.9683
 3216SOL    HW221285   4.594   0.277  13.850  1.2479 -0.7305  1.1838
 3217SOL     OW21286   0.951   4.620   2.206  0.1457  0.0832 -0.4032
 3217SOL    HW121287   0.998   4.666   2.276 -1.0237 -1.1691  1.2000
 3217SOL    HW221288   0.922   4.691   2.149  2.9037  0.7753 -0.9588
 3218SOL     OW21289   0.838   4.289  11.524 -0.2847  0.1962 -0.1418
 3218SOL    HW121290   0.775   4.348  11.483 -0.3628 -0.5265 -1.0638
 3218SOL    HW221291   0.920   4.335  11.505 -0.8585  0.7419 -1.3208
 3219SOL     OW21292   3.070   4.145   9.245 -0.6200  0.6277 -0.6616
 3219SOL    HW121293   3.070   4.056   9.212  2.2840 -0.1879  1.5699
 3219SOL    HW221294   3.148   4.154   9.300  0.2828  0.0858 -1.8585
 3220SOL     OW21295   1.491   2.010   6.036  0.1922  0.0150  0.3563
 3220SOL    HW121296   1.443   1.988   5.956  0.2495 -0.8625  0.5623
 3220SOL    HW221297   1.554   2.071   5.999  1.0254 -1.1024 -0.0585
 3221SOL     OW21298   2.653   1.551   8.559  0.1742  0.2026  0.0667
 3221SOL    HW121299   2.575   1.511   8.598 -0.5770  0.9914 -0.6083
 3221SOL    HW221300   2.618   1.553   8.470 -2.9053 -1.2916  1.2394
 3222SOL     OW21301   3.461   1.392   8.446  0.1849  0.1979  0.3257
 3222SOL    HW121302   3.487   1.484   8.438  3.7984 -1.0805 -2.2702
 3222SOL    HW221303   3.532   1.339   8.411 -1.5207 -0.3660 -2.2615
 3223SOL     OW21304   1.639   2.609   6.707  0.1538 -0.8891 -0.1913
 3223SOL    HW121305   1.585   2.676   6.749  2.5080  0.4188  0.7558
 3223SOL    HW221306   1.638   2.643   6.617 -1.7488 -1.8922 -0.5437
 3224SOL     OW21307   0.854   4.050   9.765  0.3093  0.0742  0.1741
 3224SOL    HW121308   0.810   4.103   9.699  0.5188  0.5719  0.4328
 3224SOL    HW221309   0.946   4.047   9.740  0.2124  0.2888 -0.2045
 3225SOL     OW21310   3.582   3.469   3.011  1.0202 -0.0644  0.2824
 3225SOL    HW121311   3.542   3.536   3.066  1.3919  0.0904  0.3651
 3225SOL    HW221312   3.606   3.532   2.944 -2.3251 -0.2412 -1.0860
 3226SOL     OW21313   0.764   1.505   2.660  0.1513  0.0288  0.3023
 3226SOL    HW121314   0.751   1.411   2.651 -0.0418 -0.0708  1.6580
 3226SOL    HW221315   0.749   1.530   2.569 -0.4398  0.0209  0.3939
 3227SOL     OW21316   1.936   1.264   2.492 -0.0345  0.0499  0.2969
 3227SOL    HW121317   2.014   1.318   2.503  0.3588 -0.7145  1.2995
 3227SOL    HW221318   1.871   1.307   2.548 -1.0478 -1.7662  0.5329
 3228SOL     OW21319   0.544   2.261   0.810  0.6380 -0.0675  0.3494
 3228SOL    HW121320   0.489   2.194   0.852 -1.6267  0.8372 -1.1900
 3228SOL    HW221321   0.609   2.216   0.756 -0.6535 -0.2640 -1.0531
 3229SOL     OW21322   2.492   0.205   8.566 -0.1521  0.2597  0.5400
 3229SOL    HW121323   2.484   0.213   8.661 -0.3954  0.2935  0.5178
 3229SOL    HW221324   2.456   0.116   8.567 -1.8068  0.9178  0.4923
 3230SOL     OW21325   3.560   1.534   0.378  0.0139  0.0307  0.0094
 3230SOL    HW121326   3.650   1.502   0.387 -0.1843 -0.2927  0.8670
 3230SOL    HW221327   3.514   1.474   0.320  1.1255  1.4766 -2.3600
 3231SOL     OW21328   4.266   0.399  13.878  0.0935 -0.0489  0.1468
 3231SOL    HW121329   4.278   0.492  13.858 -1.6380  0.0227 -0.5450
 3231SOL    HW221330   4.351   0.369  13.910  1.5774 -0.0419 -3.7725
 3232SOL     OW21331   3.855   2.904   7.270  0.6027 -0.0818 -0.6232
 3232SOL    HW121332   3.760   2.916   7.279  0.6548 -1.1004  1.4469
 3232SOL    HW221333   3.862   2.851   7.191  1.3662 -1.2470  0.2157
 3233SOL     OW21334   1.700   1.254   9.554  0.3059  0.1016 -0.2207
 3233SOL    HW121335   1.650   1.235   9.634 -0.1461  1.3950 -0.1974
 3233SOL    HW221336   1.755   1.327   9.583  0.7162 -1.0062  1.8446
 3234SOL     OW21337   0.988   3.968   7.933  0.0970  0.1074 -0.0749
 3234SOL    HW121338   0.916   4.012   7.977  1.3237  1.6017  0.4263
 3234SOL    HW221339   0.983   3.880   7.972 -0.2794 -0.5207 -1.5352
 3235SOL     OW21340   1.759   1.105   5.694  0.1594  0.2472 -0.3858
 3235SOL    HW121341   1.740   1.199   5.696 -0.8203  0.0591 -0.9467
 3235SOL    HW221342   1.796   1.104   5.606  0.6885 -2.8534 -0.1191
 3236SOL     OW21343   3.569   0.870   1.010  0.0356 -0.1633  0.0006
 3236SOL    HW121344   3.629   0.816   0.959  2.8282  2.8325  0.1307
 3236SOL    HW221345   3.546   0.821   1.089  0.0642  0.6603  0.5217
 3237SOL     OW21346   4.408   0.888   4.348 -0.1696  0.1062 -0.0738
 3237SOL    HW121347   4.452   0.833   4.284 -0.8931 -1.8244  1.0932
 3237SOL    HW221348   4.446   0.975   4.336  0.9441 -0.6289 -1.8878
 3238SOL     OW21349   2.012   1.078   6.919 -0.1308  0.8333 -0.0051
 3238SOL    HW121350   2.028   1.018   6.846 -1.0927 -0.3942  0.7859
 3238SOL    HW221351   2.101   1.101   6.945 -0.4273  1.7905  0.1519
 3239SOL     OW21352   0.862   3.590   3.974 -0.0473 -0.2202 -0.0070
 3239SOL    HW121353   0.844   3.587   4.068 -0.1418 -0.7643 -0.0451
 3239SOL    HW221354   0.775   3.603   3.935  0.7550 -0.1168 -1.7378
 3240SOL     OW21355   2.597   3.075  12.401 -0.2930  0.4808  0.4005
 3240SOL    HW121356   2.551   3.106  12.323 -0.0361 -0.1481  0.0080
 3240SOL    HW221357   2.687   3.085  12.370 -0.0670 -2.4391  0.1288
 3241SOL     OW21358   3.269   2.837   8.211 -0.0173  0.0508 -0.3812
 3241SOL    HW121359   3.314   2.922   8.213 -0.3171  0.1973  0.1728
 3241SOL    HW221360   3.239   2.827   8.301 -0.7094 -1.5396 -0.7831
 3242SOL     OW21361   1.732   3.752   6.009  0.0711  0.0295  0.0727
 3242SOL    HW121362   1.688   3.826   6.049  0.9038  0.6372 -0.1357
 3242SOL    HW221363   1.656   3.706   5.974  0.1934  0.2449 -0.4835
 3243SOL     OW21364   1.164   0.602   4.960 -0.3519  0.0399 -0.1639
 3243SOL    HW121365   1.126   0.592   5.048  2.8022 -1.9712  0.9680
 3243SOL    HW221366   1.176   0.511   4.932 -0.1183  0.1299 -0.3562
 3244SOL     OW21367   0.206   0.026   3.383  0.2336 -0.5518 -0.4075
 3244SOL    HW121368   0.235   0.106   3.339  1.2342  0.0433  1.3510
 3244SOL    HW221369   0.269   4.704   3.343  2.3914  3.3997 -3.1269
 3245SOL     OW21370   3.686   3.649   6.019  0.4887  0.3221 -0.7194
 3245SOL    HW121371   3.621   3.701   5.971  0.4802 -0.2870 -1.3701
 3245SOL    HW221372   3.717   3.722   6.072 -1.2360  0.5555 -0.0057
 3246SOL     OW21373   0.139   3.123   5.979 -0.2459  0.3284 -0.0457
 3246SOL    HW121374   0.191   3.045   5.997  0.3013  0.6383 -0.2461
 3246SOL    HW221375   0.194   3.187   6.026  0.1313  0.0530 -0.1097
 3247SOL     OW21376   1.435   1.592  15.749  0.0486 -0.6438 -0.8301
 3247SOL    HW121377   1.370   1.661  15.733  1.2340  1.0441  1.7280
 3247SOL    HW221378   1.385   1.517  15.718 -0.8709 -0.6146  0.6054
 3248SOL     OW21379   2.051   1.462   0.978 -0.0895 -0.3179  0.2459
 3248SOL    HW121380   2.015   1.523   1.043  1.7106  1.7605 -0.7202
 3248SOL    HW221381   2.019   1.493   0.894  0.5324  1.3012  0.6104
 3249SOL     OW21382   3.622   4.531   9.197  0.0515 -0.2203 -0.3044
 3249SOL    HW121383   3.643   4.484   9.116 -2.1586 -1.5304 -0.1420
 3249SOL    HW221384   3.579   4.602   9.149  0.4041 -0.2506 -0.6649
 3250SOL     OW21385   1.740   3.440   5.122 -0.0503  0.1014 -0.0921
 3250SOL    HW121386   1.707   3.397   5.043  2.2471 -3.3812  0.8549
 3250SOL    HW221387   1.701   3.392   5.195  1.9780 -0.1627  0.7946
 3251SOL     OW21388   0.158   4.708   2.018  0.3859 -0.3482  0.2552
 3251SOL    HW121389   0.191   0.044   2.067 -0.5564  1.4125 -1.8288
 3251SOL    HW221390   0.229   4.653   2.052  2.8866  1.2146 -2.4727
 3252SOL     OW21391   0.145   1.119  14.723 -0.1497  0.0156 -0.1517
 3252SOL    HW121392   0.199   1.146  14.797 -1.0458 -2.3700  1.3867
 3252SOL    HW221393   0.200   1.059  14.672  2.0639  0.6436  1.5081
 3253SOL     OW21394   1.914   0.129   2.553  0.4986  0.3547  0.0278
 3253SOL    HW121395   1.987   0.078   2.587  0.6553  0.1321 -0.6442
 3253SOL    HW221396   1.937   0.219   2.575 -1.4879  1.5117 -2.5853
 3254SOL     OW21397   1.613   3.402  14.253 -0.2383 -0.5420  0.0159
 3254SOL    HW121398   1.615   3.497  14.263  2.1051 -0.6545  0.5690
 3254SOL    HW221399   1.571   3.406  14.167 -3.3355  1.4429  1.6325
 3255SOL     OW21400   0.875   2.054   3.611 -0.0097 -0.9196 -0.1582
 3255SOL    HW121401   0.909   1.965   3.611  0.0031 -0.9361  2.1560
 3255SOL    HW221402   0.952   2.092   3.653 -1.3467  0.9794  0.6007
 3256SOL     OW21403   0.863   4.417   6.917  0.0132 -0.0393  0.0438
 3256SOL    HW121404   0.929   4.482   6.942 -0.5338  1.4291 -2.3008
 3256SOL    HW221405   0.859   4.428   6.822  0.3656 -1.0876 -0.0977
 3257SOL     OW21406   3.979   1.171   3.288  0.2895 -0.1252  0.0623
 3257SOL    HW121407   3.898   1.182   3.339 -1.1469 -0.3114 -2.1569
 3257SOL    HW221408   4.043   1.149   3.355  0.0863  1.9939  0.9798
 3258SOL     OW21409   4.218   2.038   9.713  0.2467  0.3644  0.1838
 3258SOL    HW121410   4.191   2.125   9.682  1.4260 -0.1627 -2.2501
 3258SOL    HW221411   4.145   2.014   9.771  0.7441  1.9278  1.4617
 3259SOL     OW21412   4.075   4.127   1.457  0.1189  0.0591  0.0070
 3259SOL    HW121413   3.994   4.104   1.502  0.9404 -0.3787  1.2658
 3259SOL    HW221414   4.042   4.193   1.397 -0.4456  0.3943  0.6888
 3260SOL     OW21415   0.272   2.127   1.860 -0.2984 -0.0282 -0.5096
 3260SOL    HW121416   0.299   2.143   1.770  2.6653 -2.6089 -0.0766
 3260SOL    HW221417   0.353   2.128   1.912 -0.2319  3.9859 -0.7094
 3261SOL     OW21418   4.708   2.800   3.880 -0.1176  0.5280 -0.4486
 3261SOL    HW121419   0.019   2.848   3.814  0.7650  0.9917  0.5419
 3261SOL    HW221420   4.616   2.814   3.859 -0.4417  0.7358  1.1228
 3262SOL     OW21421   0.588   4.372   6.599  0.1968 -0.2983 -0.2334
 3262SOL    HW121422   0.577   4.346   6.691  0.6420  0.1715 -0.0463
 3262SOL    HW221423   0.670   4.421   6.601  0.4934 -0.8923  2.0284
 3263SOL     OW21424   2.199   2.211   9.373  0.3729  0.1267  0.3711
 3263SOL    HW121425   2.196   2.118   9.396 -1.2798  0.1317  0.2070
 3263SOL    HW221426   2.136   2.241   9.439  1.0771  0.2307  0.9986
 3264SOL     OW21427   2.718   2.997   9.123 -0.3203  0.1620 -0.1618
 3264SOL    HW121428   2.740   2.978   9.214  1.9407  1.5861 -0.4103
 3264SOL    HW221429   2.662   2.924   9.096 -3.3556  1.8590  1.7133
 3265SOL     OW21430   0.061   2.017   7.225  0.2365 -0.4669  0.4316
 3265SOL    HW121431   0.078   2.080   7.155 -2.6098  0.1983  0.3580
 3265SOL    HW221432   4.709   2.037   7.245  0.7859 -0.2842  2.6748
 3266SOL     OW21433   2.936   2.535  10.377 -0.7306 -0.1502  0.1887
 3266SOL    HW121434   2.914   2.443  10.389 -1.7071 -0.2089 -2.1517
 3266SOL    HW221435   2.879   2.580  10.439 -2.4641  0.0267 -1.5435
 3267SOL     OW21436   2.146   4.373   9.430  0.4947  0.8588 -0.0118
 3267SOL    HW121437   2.113   4.425   9.356 -0.0987 -1.8187 -1.6168
 3267SOL    HW221438   2.118   4.421   9.508 -2.2969  1.4409 -1.4008
 3268SOL     OW21439   3.494   4.723  17.065 -0.0350 -0.1641 -0.1720
 3268SOL    HW121440   3.490   4.632  17.093  0.8939 -0.2978 -0.4681
 3268SOL    HW221441   3.543   4.712  16.984 -0.3747  4.2651 -0.9761
 3269SOL     OW21442   2.476   3.321   0.695  0.0615 -0.5650 -0.0247
 3269SOL    HW121443   2.526   3.241   0.682 -1.3376 -1.1228 -1.9215
 3269SOL    HW221444   2.549   3.382   0.679 -1.5401  1.4189  0.1970
 3270SOL     OW21445   1.909   3.634   1.290 -0.5734  0.1176 -0.1340
 3270SOL    HW121446   1.945   3.548   1.308 -2.0720 -0.3568  0.6300
 3270SOL    HW221447   1.959   3.669   1.216 -0.9087 -0.9064 -0.8388
 3271SOL     OW21448   3.014   2.823   5.760 -0.7183  0.0551  0.7772
 3271SOL    HW121449   3.005   2.728   5.762  0.8100 -0.1251 -0.5872
 3271SOL    HW221450   3.092   2.841   5.708 -0.1892  0.3282  1.6538
 3272SOL     OW21451   3.223   1.587   6.060  0.3116  0.1952 -0.1562
 3272SOL    HW121452   3.127   1.598   6.058  0.4420  1.0978 -1.8129
 3272SOL    HW221453   3.255   1.656   6.118 -1.9715  0.7690  0.4384
 3273SOL     OW21454   0.235   0.991  16.334 -0.1682 -0.0114  0.1234
 3273SOL    HW121455   0.142   0.980  16.318 -0.1785 -0.3649  0.4147
 3273SOL    HW221456   0.266   0.901  16.320 -1.0109 -0.4569  1.1554
 3274SOL     OW21457   3.692   1.986   8.572  0.3128 -0.1586  0.0649
 3274SOL    HW121458   3.656   2.048   8.509 -0.2888 -1.1459 -0.5719
 3274SOL    HW221459   3.636   1.910   8.591 -1.7421  0.9493 -1.6347
 3275SOL     OW21460   2.266   3.930   9.094 -0.1264  0.6845  0.1730
 3275SOL    HW121461   2.193   3.869   9.087  0.1192  0.4818 -0.5187
 3275SOL    HW221462   2.286   3.946   9.002 -0.7280 -1.2759 -0.2863
 3276SOL     OW21463   0.562   2.972   1.908 -0.2609 -0.5159 -0.4530
 3276SOL    HW121464   0.510   3.041   1.950 -0.5352 -1.8542  1.4234
 3276SOL    HW221465   0.641   2.963   1.962 -0.0865  0.9410 -0.4725
 3277SOL     OW21466   4.082   1.297   0.130 -0.0144  0.3332  0.6901
 3277SOL    HW121467   4.132   1.331   0.204 -0.1299 -0.6874  1.2316
 3277SOL    HW221468   4.058   1.373   0.077 -1.9101  0.1453  1.2688
 3278SOL     OW21469   3.427   2.180  12.283 -0.8032 -0.0087 -0.3901
 3278SOL    HW121470   3.518   2.206  12.295 -0.5096 -1.1456 -0.0863
 3278SOL    HW221471   3.385   2.246  12.339  0.4850 -1.7865  2.7162
 3279SOL     OW21472   4.277   1.811  14.192  0.0800 -0.2324 -0.0751
 3279SOL    HW121473   4.232   1.733  14.160  0.7625 -0.5318 -0.3103
 3279SOL    HW221474   4.228   1.829  14.272 -0.4505 -0.7169 -0.2969
 3280SOL     OW21475   3.167   2.303  10.034 -0.0523  0.9393  0.3462
 3280SOL    HW121476   3.081   2.332  10.004  0.0726  1.1381  0.1821
 3280SOL    HW221477   3.158   2.292  10.129  0.1145 -1.1079  0.1233
 3281SOL     OW21478   3.639   0.537   5.141 -0.1557  0.6278 -0.1013
 3281SOL    HW121479   3.705   0.468   5.140 -0.9611 -0.1576  0.2881
 3281SOL    HW221480   3.565   0.490   5.102  0.6430 -0.3833 -0.4036
 3282SOL     OW21481   2.380   2.410   3.906  0.3077 -0.2028 -0.2476
 3282SOL    HW121482   2.395   2.351   3.832 -1.7923 -0.1344 -0.7394
 3282SOL    HW221483   2.298   2.371   3.936  1.2504 -0.4438  1.9560
 3283SOL     OW21484   2.687   2.098  10.102  0.0523  0.3900 -0.3839
 3283SOL    HW121485   2.624   2.071  10.170  0.3419 -0.6706 -0.5280
 3283SOL    HW221486   2.653   2.037  10.036  1.7713 -1.1532  0.1699
 3284SOL     OW21487   3.035   3.986   1.404  0.8348  0.3565 -0.3314
 3284SOL    HW121488   3.056   4.052   1.469  1.1473  0.4259 -0.5049
 3284SOL    HW221489   3.037   3.906   1.456 -1.2296 -0.7759 -1.9708
 3285SOL     OW21490   1.071   0.851   2.668 -0.2721  0.6410 -0.0370
 3285SOL    HW121491   1.134   0.779   2.663  0.3446  1.1239  0.7960
 3285SOL    HW221492   1.036   0.849   2.758  0.7458 -0.6883  0.3191
 3286SOL     OW21493   2.541   1.507   5.718 -0.3524  0.6043 -0.0673
 3286SOL    HW121494   2.536   1.437   5.653  0.6385  1.8168 -1.4702
 3286SOL    HW221495   2.582   1.569   5.658  1.3036 -3.0526 -2.6822
 3287SOL     OW21496   1.569   0.731   4.069  0.1707  0.2091 -0.4940
 3287SOL    HW121497   1.587   0.810   4.120  0.7960 -0.1433 -0.1716
 3287SOL    HW221498   1.616   0.749   3.987  2.4361  0.4878  0.8638
 3288SOL     OW21499   4.671   2.881   1.798 -0.0766 -0.2575  0.4312
 3288SOL    HW121500   0.017   2.847   1.769 -0.4887 -0.3816 -0.6306
 3288SOL    HW221501   4.625   2.799   1.815  1.1213 -0.7391  1.3201
 3289SOL     OW21502   2.940   2.024   0.897 -0.5314  0.9333 -0.0198
 3289SOL    HW121503   2.916   1.965   0.970 -1.2175 -0.8242 -1.6564
 3289SOL    HW221504   3.035   2.012   0.895 -0.6507  0.1145 -0.6342
 3290SOL     OW21505   2.266   1.565   9.219  0.0546  0.2967  0.9383
 3290SOL    HW121506   2.203   1.601   9.156  1.4474  1.9566  0.4936
 3290SOL    HW221507   2.303   1.644   9.258  0.6828 -1.4064  3.7551
 3291SOL     OW21508   2.749   1.333   9.179  0.0137 -0.3436 -0.3847
 3291SOL    HW121509   2.749   1.429   9.187 -0.9407 -0.2777 -1.1004
 3291SOL    HW221510   2.658   1.305   9.192  0.1714 -1.2083 -1.1309
 3292SOL     OW21511   0.980   0.422   7.341  0.1356  0.5100  0.2696
 3292SOL    HW121512   1.057   0.397   7.392 -0.7721 -1.7269  0.5424
 3292SOL    HW221513   0.986   0.517   7.330  1.7830  0.2055 -1.5564
 3293SOL     OW21514   2.699   3.803   8.984  0.2412  0.6660 -0.3925
 3293SOL    HW121515   2.663   3.732   9.037  1.7133  0.4084  0.2662
 3293SOL    HW221516   2.701   3.748   8.906 -1.7395 -2.4705  1.7621
 3294SOL     OW21517   3.880   3.508   6.581  0.0539  0.4830 -0.2590
 3294SOL    HW121518   3.911   3.569   6.514  0.4364 -1.0104 -1.4424
 3294SOL    HW221519   3.927   3.546   6.655 -0.4936 -2.1035  1.3992
 3295SOL     OW21520   3.910   0.252   9.035 -0.2523 -0.2809  0.2112
 3295SOL    HW121521   3.872   0.164   9.037  1.5279 -1.0665 -1.1582
 3295SOL    HW221522   3.866   0.288   8.958  0.0891  0.7881  0.5165
 3296SOL     OW21523   1.656   0.205  13.208  0.2348 -0.0004  0.2140
 3296SOL    HW121524   1.739   0.208  13.161 -1.2873 -0.5036 -2.5021
 3296SOL    HW221525   1.598   0.188  13.134  3.2806  3.0989 -2.8792
 3297SOL     OW21526   4.377   4.177   0.624  0.0428  0.6115 -0.6727
 3297SOL    HW121527   4.448   4.216   0.676 -0.2580 -0.3431  0.4732
 3297SOL    HW221528   4.312   4.246   0.606 -0.6515 -0.3644 -1.8840
 3298SOL     OW21529   2.176   2.821   9.760 -0.3893  0.3454  0.2611
 3298SOL    HW121530   2.261   2.785   9.783  0.3043  1.7355 -0.1152
 3298SOL    HW221531   2.114   2.748   9.763 -0.5381  0.5027  0.9489
 3299SOL     OW21532   4.220   0.087   4.776 -0.7711  0.0390 -0.5058
 3299SOL    HW121533   4.155   0.060   4.711 -0.0431  0.9215 -1.5905
 3299SOL    HW221534   4.211   0.012   4.836  1.4378  2.1150  2.4093
 3300SOL     OW21535   3.966   0.633   3.719  0.2536  0.7851  0.3632
 3300SOL    HW121536   3.897   0.573   3.689  1.4373  0.7268 -2.2612
 3300SOL    HW221537   3.923   0.687   3.785 -1.9201 -0.0895 -0.3047
 3301SOL     OW21538   4.635   4.228   6.850 -0.4616 -0.2937  0.2653
 3301SOL    HW121539   4.618   4.290   6.921 -0.0391 -1.6948  1.5831
 3301SOL    HW221540   4.546   4.196   6.835 -0.6021 -0.9537  2.4798
 3302SOL     OW21541   2.313   2.974   6.759  0.6291  0.0478  0.1532
 3302SOL    HW121542   2.226   2.972   6.798 -0.5447  0.9612 -2.4604
 3302SOL    HW221543   2.314   3.065   6.729 -1.4866 -0.2387 -0.7854
 3303SOL     OW21544   2.045   0.068   3.967  0.7600 -0.6026 -0.2626
 3303SOL    HW121545   2.046   0.059   3.872 -0.9546  0.0938 -0.3387
 3303SOL    HW221546   1.983   0.001   3.993 -1.2128  0.6176 -1.7781
 3304SOL     OW21547   3.457   0.628   5.639  0.5155  0.3840 -0.3710
 3304SOL    HW121548   3.390   0.588   5.695  0.4617 -1.5810 -1.8664
 3304SOL    HW221549   3.459   0.565   5.568 -0.4911  0.3351 -0.3598
 3305SOL     OW21550   4.319   0.387   8.171  0.0929 -0.0813  0.1630
 3305SOL    HW121551   4.397   0.346   8.208  1.2863  1.3034 -0.8349
 3305SOL    HW221552   4.360   0.455   8.117  0.7843 -1.1758 -0.6755
 3306SOL     OW21553   4.467   2.861  11.957  0.1628  0.1949 -0.5498
 3306SOL    HW121554   4.491   2.777  11.916 -1.9168 -0.0066 -1.3432
 3306SOL    HW221555   4.472   2.830  12.047 -0.6056 -1.9513 -1.2425
 3307SOL     OW21556   0.029   2.582  16.509 -0.6396 -0.1093 -0.3204
 3307SOL    HW121557   0.040   2.653  16.446 -1.3473 -0.9378 -1.3801
 3307SOL    HW221558   0.111   2.533  16.513 -1.1420 -1.0100 -0.9802
 3308SOL     OW21559   4.502   3.765   8.186 -0.3771 -0.6113 -0.1881
 3308SOL    HW121560   4.591   3.791   8.164 -0.7014  0.2819 -0.4638
 3308SOL    HW221561   4.466   3.743   8.099  0.1473 -0.6973 -0.3826
 3309SOL     OW21562   3.103   4.230   5.581 -0.2914 -0.5504 -0.0879
 3309SOL    HW121563   3.103   4.148   5.531 -3.6231 -1.6190  1.7013
 3309SOL    HW221564   3.143   4.293   5.521 -0.6372  0.3655  0.6436
 3310SOL     OW21565   2.916   2.730   8.347  0.3254 -0.3882  0.0114
 3310SOL    HW121566   2.943   2.709   8.257  0.5782 -0.3048  0.0676
 3310SOL    HW221567   3.004   2.743   8.382  0.5203 -1.7899  0.0409
 3311SOL     OW21568   1.717   0.914   4.249 -0.0459 -0.1561  0.4034
 3311SOL    HW121569   1.732   0.829   4.291 -2.2767 -0.0731  1.4051
 3311SOL    HW221570   1.643   0.953   4.297  0.4246  0.0134  0.9878
 3312SOL     OW21571   1.762   1.585   2.207 -0.6214 -0.4220 -0.0744
 3312SOL    HW121572   1.848   1.627   2.201 -0.3245 -1.6223 -4.1218
 3312SOL    HW221573   1.780   1.507   2.155 -2.2162  0.3083 -1.7133
 3313SOL     OW21574   4.110   0.548   7.292  0.7237 -0.6704 -0.2569
 3313SOL    HW121575   4.027   0.579   7.329  0.5472  0.8697 -1.9512
 3313SOL    HW221576   4.171   0.593   7.351  3.2701 -1.5939 -2.2090
 3314SOL     OW21577   4.146   0.443  13.622  0.3116  0.2824  0.2570
 3314SOL    HW121578   4.201   0.412  13.694  0.3828 -0.9327 -0.3202
 3314SOL    HW221579   4.070   0.478  13.668  0.4324  1.0157 -0.0996
 3315SOL     OW21580   0.422   2.760  15.669 -0.5131 -0.2525  0.4676
 3315SOL    HW121581   0.395   2.842  15.710 -0.2784  0.2874 -0.4610
 3315SOL    HW221582   0.337   2.724  15.642  1.0955 -3.0804 -0.8977
 3316SOL     OW21583   2.474   1.903   4.144  0.0182 -0.5229  0.1292
 3316SOL    HW121584   2.466   1.994   4.114  0.7080 -0.0742  1.3046
 3316SOL    HW221585   2.397   1.897   4.200 -1.0016  0.5866 -1.1549
 3317SOL     OW21586   0.581   4.567   2.249 -0.1179  0.3571  0.3953
 3317SOL    HW121587   0.625   4.577   2.333 -2.2096  0.7003  1.4593
 3317SOL    HW221588   0.580   4.660   2.224  0.4510  0.3121  0.2267
 3318SOL     OW21589   3.320   4.677   7.043 -0.3254  0.1013 -0.5792
 3318SOL    HW121590   3.368   4.596   7.063  1.1387  0.9612 -0.5503
 3318SOL    HW221591   3.277   4.696   7.126  2.0580 -0.5425  0.8283
 3319SOL     OW21592   4.604   0.642   4.275 -0.6315 -0.5950 -0.4371
 3319SOL    HW121593   4.662   0.694   4.219  0.9017 -0.1127  1.6119
 3319SOL    HW221594   4.612   0.689   4.358  3.1843 -0.8679 -0.6686
 3320SOL     OW21595   1.521   2.018  14.916  0.3487  0.1695 -0.0644
 3320SOL    HW121596   1.427   2.013  14.929  0.7078 -1.8721  1.6658
 3320SOL    HW221597   1.539   1.941  14.861 -1.2922  0.4891 -1.0333
 3321SOL     OW21598   3.205   3.834   9.735  0.3372  0.1525 -0.1365
 3321SOL    HW121599   3.249   3.752   9.709  1.3750  0.6748 -0.0377
 3321SOL    HW221600   3.172   3.866   9.651  1.2429  0.2816 -0.4468
 3322SOL     OW21601   1.224   4.463   8.810 -0.1146  0.6511 -0.3738
 3322SOL    HW121602   1.222   4.403   8.735  0.6920 -0.5407  0.5696
 3322SOL    HW221603   1.191   4.406   8.879 -1.0437 -1.4801 -2.5647
 3323SOL     OW21604   1.034   0.183   0.348 -0.4350  0.4579  0.5707
 3323SOL    HW121605   1.003   0.096   0.324  0.1643  0.6357 -0.8463
 3323SOL    HW221606   1.125   0.156   0.362 -0.2100  0.2793 -1.2063
 3324SOL     OW21607   4.210   3.725   8.223  0.6599 -0.3832  0.4261
 3324SOL    HW121608   4.173   3.724   8.135 -1.6969  1.3244  1.3976
 3324SOL    HW221609   4.294   3.772   8.216 -1.3364  2.9992 -0.9610
 3325SOL     OW21610   1.805   0.181   6.330  0.3786 -0.3946 -0.2977
 3325SOL    HW121611   1.805   0.085   6.325  0.1550 -0.5305  2.6079
 3325SOL    HW221612   1.776   0.212   6.244  0.0325 -0.6720 -0.2837
 3326SOL     OW21613   3.765   1.708   7.351  0.0092  0.0239 -0.4903
 3326SOL    HW121614   3.739   1.633   7.405  2.2436 -1.5581 -1.6592
 3326SOL    HW221615   3.845   1.723   7.402 -0.6550  0.4089  0.4670
 3327SOL     OW21616   3.285   2.860   2.483  0.2857 -0.0665 -0.0834
 3327SOL    HW121617   3.228   2.936   2.467 -1.7349 -1.4635  0.4928
 3327SOL    HW221618   3.367   2.900   2.453 -0.0812  0.2206 -0.7209
 3328SOL     OW21619   1.355   4.412   6.627  0.7312 -0.7676  0.2482
 3328SOL    HW121620   1.359   4.476   6.698 -0.4592  1.3481 -1.5830
 3328SOL    HW221621   1.318   4.336   6.671  0.9852 -0.9025  0.2277
 3329SOL     OW21622   3.251   2.459  14.934  0.5108  0.3912  0.0132
 3329SOL    HW121623   3.317   2.390  14.947  2.4657  2.3914  0.7025
 3329SOL    HW221624   3.171   2.407  14.927 -0.2078  1.5041  0.0521
 3330SOL     OW21625   1.448   0.576   3.264  0.3715 -0.1498  0.1689
 3330SOL    HW121626   1.445   0.640   3.193 -1.3572 -0.7364 -0.2634
 3330SOL    HW221627   1.388   0.613   3.329  1.4426 -0.0759  1.1165
 3331SOL     OW21628   1.162   0.576   2.837  0.2625 -0.1039  0.1574
 3331SOL    HW121629   1.206   0.525   2.905  0.7676  0.1168 -0.0063
 3331SOL    HW221630   1.152   0.660   2.883  1.1541  0.4128 -0.5860
 3332SOL     OW21631   2.632   1.169  11.044 -0.1132 -0.1763 -0.4197
 3332SOL    HW121632   2.668   1.084  11.070  1.9804  0.3015 -1.7869
 3332SOL    HW221633   2.673   1.221  11.112 -2.2100  1.4510 -0.3885
 3333SOL     OW21634   2.781   1.248  10.282  0.5577  0.1770  0.2463
 3333SOL    HW121635   2.861   1.229  10.332  0.2937  1.7911  1.2976
 3333SOL    HW221636   2.736   1.164  10.283  0.7920  0.0359 -1.0835
 3334SOL     OW21637   1.781   0.273   3.719 -0.2710 -0.3807  0.8157
 3334SOL    HW121638   1.815   0.361   3.737  1.5823 -1.0677  0.6910
 3334SOL    HW221639   1.801   0.247   3.629 -1.8793  0.5537  0.1973
 3335SOL     OW21640   3.364   2.416   8.391  0.1624  0.2402 -0.1569
 3335SOL    HW121641   3.314   2.460   8.460  0.8098 -1.0581  1.1583
 3335SOL    HW221642   3.447   2.416   8.439  0.4742  0.0594 -0.7018
 3336SOL     OW21643   1.592   1.910  13.791  0.2630 -0.2358  0.4517
 3336SOL    HW121644   1.666   1.930  13.849  1.1078 -0.0138 -0.6904
 3336SOL    HW221645   1.524   1.970  13.820  2.9760  2.6634  0.8523
 3337SOL     OW21646   1.691   1.772   6.919  0.2830  0.2801 -0.0399
 3337SOL    HW121647   1.697   1.697   6.978 -1.1811 -0.6497 -1.0703
 3337SOL    HW221648   1.779   1.768   6.883  0.9232 -2.2694  1.7634
 3338SOL     OW21649   1.389   1.484   6.647  0.4278 -0.2899 -0.9666
 3338SOL    HW121650   1.473   1.438   6.647 -0.0753 -1.2046 -0.6946
 3338SOL    HW221651   1.342   1.442   6.719 -1.2936  3.1290 -0.0842
 3339SOL     OW21652   0.654   0.077  11.811 -0.0854 -0.1660  0.5351
 3339SOL    HW121653   0.642   0.106  11.720  1.7524 -1.4306 -0.1149
 3339SOL    HW221654   0.569   0.108  11.842  0.5417  0.4978  1.5665
 3340SOL     OW21655   0.215   2.116  17.455 -0.2001  0.3090  0.1878
 3340SOL    HW121656   0.207   2.043  17.517 -1.7286  0.7901  0.5441
 3340SOL    HW221657   0.138   2.098  17.402  0.3083 -0.6461 -0.2251
 3341SOL     OW21658   1.633   2.040   6.498  0.6136 -0.2391  0.3652
 3341SOL    HW121659   1.710   2.011   6.547  1.5331 -0.2677 -1.0658
 3341SOL    HW221660   1.648   2.008   6.409 -1.4658 -0.0148 -0.0670
 3342SOL     OW21661   1.313   2.616   4.305 -0.6337  0.3034  0.0077
 3342SOL    HW121662   1.314   2.582   4.215 -2.1574  1.2346 -0.3606
 3342SOL    HW221663   1.322   2.529   4.344  1.8162 -0.3968 -2.1088
 3343SOL     OW21664   1.069   0.153   8.282 -0.2718 -0.1945  0.6357
 3343SOL    HW121665   0.979   0.148   8.315 -0.5549 -1.7985 -0.3490
 3343SOL    HW221666   1.103   0.217   8.344 -0.6754  1.4502 -0.8628
 3344SOL     OW21667   1.400   1.651   6.187  0.0153 -0.3655 -0.1755
 3344SOL    HW121668   1.336   1.636   6.118  0.4033  2.6697 -1.1741
 3344SOL    HW221669   1.345   1.712   6.236  0.0471 -1.0431  0.7064
 3345SOL     OW21670   3.809   1.544   0.019 -0.0665  0.3049 -0.3034
 3345SOL    HW121671   3.791   1.545   0.113 -1.7580 -0.1017 -0.6223
 3345SOL    HW221672   3.904   1.556   0.029 -0.1657  2.7058 -2.5215
 3346SOL     OW21673   1.446   3.796   6.174  0.0477  0.1939  0.0299
 3346SOL    HW121674   1.481   3.883   6.154 -1.6286  0.9048  0.1921
 3346SOL    HW221675   1.370   3.804   6.231  1.2857  0.3003  1.6708
 3347SOL     OW21676   0.295   2.084   7.329 -0.1385  0.0883  0.0278
 3347SOL    HW121677   0.321   2.111   7.241  0.1717 -1.9700 -0.5230
 3347SOL    HW221678   0.217   2.031   7.312 -1.7760  1.8035  2.0632
 3348SOL     OW21679   3.707   0.319   2.317  0.0538  0.1286 -0.1684
 3348SOL    HW121680   3.611   0.321   2.325  0.1501 -0.0394  0.9920
 3348SOL    HW221681   3.729   0.243   2.370  1.4987  0.3493 -0.4718
 3349SOL     OW21682   1.586   4.136  13.651  0.7045 -0.0407  0.2774
 3349SOL    HW121683   1.627   4.063  13.604  0.4333  0.6982 -1.1031
 3349SOL    HW221684   1.596   4.113  13.743 -3.6370 -0.1809  0.6791
 3350SOL     OW21685   1.085   3.601   6.531 -0.3624 -0.2855  0.0897
 3350SOL    HW121686   1.093   3.574   6.439  2.7110  2.9590 -0.5980
 3350SOL    HW221687   1.044   3.520   6.562  2.4729 -2.4403 -1.8032
 3351SOL     OW21688   3.860   0.175   7.376  0.0684  0.4639 -0.4354
 3351SOL    HW121689   3.821   0.254   7.339 -0.9425  0.0240 -0.2982
 3351SOL    HW221690   3.900   0.142   7.295  1.5878  1.1240  0.0464
 3352SOL     OW21691   0.914   1.697   7.866  0.4782 -0.6785 -0.1210
 3352SOL    HW121692   0.896   1.654   7.782 -0.4663  1.5904 -1.0944
 3352SOL    HW221693   0.903   1.787   7.836 -0.2374 -0.7971 -0.2000
 3353SOL     OW21694   3.838   0.704   8.184 -0.5825  0.1169  0.1938
 3353SOL    HW121695   3.821   0.782   8.132  1.3007  0.5938  0.3014
 3353SOL    HW221696   3.818   0.640   8.115  0.7948 -0.7267  0.5719
 3354SOL     OW21697   3.561   0.455   8.563  0.5496 -0.7251  0.3231
 3354SOL    HW121698   3.647   0.427   8.597  0.9324 -1.2578 -1.0826
 3354SOL    HW221699   3.538   0.532   8.615  0.8604  0.0403 -0.6668
 3355SOL     OW21700   1.880   2.903   8.657  0.6898 -0.5848 -0.3371
 3355SOL    HW121701   1.818   2.894   8.730  2.1705 -2.2218  0.7142
 3355SOL    HW221702   1.857   2.821   8.612  0.7336 -0.7857  0.0087
 3356SOL     OW21703   4.318   2.662  14.654 -0.5128 -0.6834  0.2410
 3356SOL    HW121704   4.269   2.580  14.649 -2.3013  0.3592  0.4575
 3356SOL    HW221705   4.402   2.635  14.690 -0.1218  1.7836  1.1826
 3357SOL     OW21706   2.114   0.718   1.474  0.1302 -0.3221 -0.6289
 3357SOL    HW121707   2.142   0.774   1.546 -0.9026  1.0379 -1.2879
 3357SOL    HW221708   2.019   0.720   1.488  0.2601  1.1906  0.0426
 3358SOL     OW21709   2.982   0.131   2.095  0.3069 -0.1301 -0.2134
 3358SOL    HW121710   3.073   0.154   2.111  1.2520 -3.8412 -0.2037
 3358SOL    HW221711   2.980   0.136   2.000  2.5411 -1.7941 -0.3625
 3359SOL     OW21712   3.333   3.759  14.300  0.4050 -0.0969 -0.0939
 3359SOL    HW121713   3.417   3.736  14.339  1.1231 -1.1663 -2.2810
 3359SOL    HW221714   3.313   3.677  14.255 -2.7046  0.8501 -0.4925
 3360SOL     OW21715   0.601   1.595  16.099  1.2544  0.6922  0.3508
 3360SOL    HW121716   0.570   1.673  16.053 -0.1829  0.0069  0.1588
 3360SOL    HW221717   0.517   1.569  16.135  1.3786  1.0773  0.9187
 3361SOL     OW21718   0.773   2.922   2.104 -0.6528 -0.0821  0.8713
 3361SOL    HW121719   0.755   2.910   2.197  0.5958  1.5024  1.3159
 3361SOL    HW221720   0.843   2.857   2.094 -0.8694  0.1237 -2.0358
 3362SOL     OW21721   1.758   0.138  11.114  0.7115 -0.3538  0.2423
 3362SOL    HW121722   1.743   0.207  11.049 -3.1390  1.4211  3.0086
 3362SOL    HW221723   1.760   0.058  11.061  0.5576  0.8668 -1.5820
 3363SOL     OW21724   1.905   0.698   5.275  0.4459  0.4532  0.6508
 3363SOL    HW121725   1.992   0.659   5.282 -0.2656 -1.5656 -1.6005
 3363SOL    HW221726   1.914   0.740   5.189  0.6324 -1.0865 -0.0890
 3364SOL     OW21727   2.584   3.128  10.034 -0.1245  0.6791 -0.1719
 3364SOL    HW121728   2.611   3.107   9.945 -1.5000  1.4160 -0.7790
 3364SOL    HW221729   2.552   3.043  10.064  2.7500  0.2893  1.7884
 3365SOL     OW21730   3.835   3.297   2.890 -0.0650  0.2182  0.2861
 3365SOL    HW121731   3.799   3.209   2.897  1.1813 -0.3502 -0.3585
 3365SOL    HW221732   3.758   3.349   2.866 -0.2113  0.9777  2.3466
 3366SOL     OW21733   0.055   3.146   1.950 -0.1080 -0.2620 -0.2741
 3366SOL    HW121734   4.709   3.130   1.991 -0.3621  1.7133 -0.0346
 3366SOL    HW221735   0.045   3.138   1.855  2.7143 -0.7915 -0.5404
 3367SOL     OW21736   1.130   2.804  15.932 -0.0129  0.3949  0.1250
 3367SOL    HW121737   1.213   2.826  15.975  1.2787 -1.2839 -1.4693
 3367SOL    HW221738   1.160   2.782  15.844  0.4483  0.4183  0.2723
 3368SOL     OW21739   2.193   2.330   5.134 -0.3753 -0.3131  0.1740
 3368SOL    HW121740   2.219   2.339   5.042  0.6821 -0.4793  0.4644
 3368SOL    HW221741   2.220   2.411   5.177 -0.0214 -0.4177  0.1474
 3369SOL     OW21742   4.289   1.657   8.257 -0.2391  0.0711 -0.7440
 3369SOL    HW121743   4.218   1.710   8.221 -0.6817  0.3403  0.5446
 3369SOL    HW221744   4.347   1.728   8.284 -0.6263 -0.2319  0.9142
 3370SOL     OW21745   4.515   3.089   8.618  0.3423  1.0299  0.4670
 3370SOL    HW121746   4.583   3.130   8.671  1.4094 -0.2808  0.1003
 3370SOL    HW221747   4.499   3.149   8.545 -1.5634  0.5179  0.4536
 3371SOL     OW21748   0.210   4.104   2.699 -0.0152 -0.3888 -0.4471
 3371SOL    HW121749   0.244   4.087   2.786  0.0783 -1.4633 -0.6951
 3371SOL    HW221750   0.258   4.047   2.639 -0.0664  0.6308 -1.4589
 3372SOL     OW21751   2.768   2.637   1.064 -0.8015 -0.5421 -0.5682
 3372SOL    HW121752   2.729   2.553   1.087 -1.0685 -0.1468  0.4235
 3372SOL    HW221753   2.717   2.687   1.128  2.2241  1.4667  0.2896
 3373SOL     OW21754   3.558   4.285   3.344 -0.2856 -0.2484  0.3339
 3373SOL    HW121755   3.476   4.246   3.375  0.2517  0.1066  2.2154
 3373SOL    HW221756   3.621   4.262   3.413 -1.9923  1.2104  2.3818
 3374SOL     OW21757   3.452   2.553   9.760  0.1884  0.3715  0.1517
 3374SOL    HW121758   3.454   2.545   9.855  2.1134  2.0327  0.2694
 3374SOL    HW221759   3.387   2.483   9.754  0.8771 -0.2974  0.4409
 3375SOL     OW21760   3.175   1.511   5.132  0.1980  0.3447  0.2185
 3375SOL    HW121761   3.167   1.423   5.094 -2.6696  0.2408  0.9923
 3375SOL    HW221762   3.089   1.549   5.114  0.1968 -1.1689 -2.9290
 3376SOL     OW21763   1.981   4.631   2.232 -0.1584  0.4930  0.8049
 3376SOL    HW121764   1.959   4.716   2.192  0.2002 -0.4964 -1.4345
 3376SOL    HW221765   1.928   4.579   2.172 -0.0255 -0.5381  1.5860
 3377SOL     OW21766   1.980   1.144   9.206  0.2807  0.1141 -0.4080
 3377SOL    HW121767   2.032   1.083   9.154  1.4117  1.0107 -0.3431
 3377SOL    HW221768   1.990   1.224   9.154  0.7405 -0.3273 -0.9898
 3378SOL     OW21769   3.451   2.665   4.267  0.6155 -0.5340  0.0556
 3378SOL    HW121770   3.535   2.625   4.246  0.2123 -0.8482 -0.9622
 3378SOL    HW221771   3.407   2.648   4.184 -1.0052  0.3878  0.7184
 3379SOL     OW21772   1.354   0.233   6.947 -0.5092 -0.3476  0.2719
 3379SOL    HW121773   1.263   0.215   6.923 -0.1077 -1.0938 -0.6929
 3379SOL    HW221774   1.388   0.241   6.857  1.0139  0.7776  0.9484
 3380SOL     OW21775   3.768   3.931   7.347  0.8491  0.0472 -0.2300
 3380SOL    HW121776   3.701   3.940   7.415  0.2806 -1.3497 -0.6075
 3380SOL    HW221777   3.727   3.963   7.267  0.6154  0.7923  0.1897
 3381SOL     OW21778   3.140   2.038   8.269  0.2978 -0.5286  0.0550
 3381SOL    HW121779   3.160   1.946   8.255  2.1063 -0.0099 -0.7923
 3381SOL    HW221780   3.116   2.042   8.361  1.0655 -0.8196  0.2630
 3382SOL     OW21781   0.186   2.545  15.823  0.4242 -0.2461  0.6020
 3382SOL    HW121782   0.242   2.472  15.798 -0.8018 -1.1922  0.6268
 3382SOL    HW221783   0.181   2.597  15.743  0.0941 -1.6113 -0.2695
 3383SOL     OW21784   4.104   1.930   4.723  0.5081 -0.1726  0.1636
 3383SOL    HW121785   4.151   1.848   4.706  0.6097 -0.0712 -0.0448
 3383SOL    HW221786   4.091   1.920   4.817  2.6766  3.6936  0.8827
 3384SOL     OW21787   0.488   3.025  12.895  0.9890 -0.6395  0.2386
 3384SOL    HW121788   0.561   3.031  12.833  2.9864 -3.2410  2.3597
 3384SOL    HW221789   0.529   3.076  12.965  3.1038 -0.9585 -0.7747
 3385SOL     OW21790   1.136   4.580   8.511 -0.5661 -0.1713  0.0343
 3385SOL    HW121791   1.180   4.619   8.586 -0.2346 -3.2457  1.4157
 3385SOL    HW221792   1.192   4.504   8.497 -1.1355  0.1191 -4.0699
 3386SOL     OW21793   0.461   2.870   7.975  0.5905  0.1712  0.3433
 3386SOL    HW121794   0.456   2.782   8.013 -0.5835 -0.3284 -0.9245
 3386SOL    HW221795   0.389   2.857   7.912 -2.4002  1.5758  3.4880
 3387SOL     OW21796   1.947   0.219   4.792  0.4686  0.1255 -0.4139
 3387SOL    HW121797   1.910   0.272   4.721 -1.5727  0.0365  0.6025
 3387SOL    HW221798   2.038   0.250   4.796 -0.3879  2.6501 -0.3637
 3388SOL     OW21799   2.115   2.489   0.941 -0.4482  0.1340  0.4965
 3388SOL    HW121800   2.148   2.469   1.029 -1.0804 -1.0248  0.4699
 3388SOL    HW221801   2.033   2.535   0.956 -1.4329 -0.8389 -1.9136
 3389SOL     OW21802   3.776   1.984  11.084 -0.5293 -0.0730  0.3244
 3389SOL    HW121803   3.761   2.043  11.158 -0.5004 -1.9868  1.8473
 3389SOL    HW221804   3.847   1.929  11.116  0.9760  1.0985 -0.9850
 3390SOL     OW21805   1.634   4.186   4.004 -0.0471  0.1875 -0.0673
 3390SOL    HW121806   1.630   4.279   3.980 -0.3196  0.6867  1.9400
 3390SOL    HW221807   1.542   4.159   4.004  0.2230 -0.7592  0.5095
 3391SOL     OW21808   0.271   0.950   0.812 -0.3637  0.1674 -0.3151
 3391SOL    HW121809   0.260   0.893   0.888 -0.1400  2.6830  1.5673
 3391SOL    HW221810   0.358   0.987   0.819  0.1265 -1.1325  0.4890
 3392SOL     OW21811   1.329   1.458   9.863 -0.4465  0.0689 -0.1593
 3392SOL    HW121812   1.353   1.389   9.801  1.0954 -0.0823  0.6056
 3392SOL    HW221813   1.383   1.532   9.836 -1.5515  0.5447 -1.0621
 3393SOL     OW21814   3.363   4.429   4.134 -0.0673 -0.0850  0.2289
 3393SOL    HW121815   3.400   4.346   4.162  0.8374 -0.3642 -1.7963
 3393SOL    HW221816   3.292   4.399   4.078  0.2824 -0.4733 -0.0073
 3394SOL     OW21817   1.664   1.828  13.549  0.2287  0.0938  0.2361
 3394SOL    HW121818   1.574   1.796  13.546 -0.4383  2.0239 -0.3081
 3394SOL    HW221819   1.666   1.874  13.633  0.8037 -2.1247  1.4287
 3395SOL     OW21820   0.195   0.424   5.836 -0.1341 -0.1297 -0.2508
 3395SOL    HW121821   0.155   0.374   5.765  1.1962  1.6852 -2.2624
 3395SOL    HW221822   0.160   0.510   5.811  0.4830  0.2648  0.2607
 3396SOL     OW21823   2.708   3.022   4.334  0.2624  0.2269 -0.3163
 3396SOL    HW121824   2.616   3.047   4.344  0.2295 -0.3550  0.9508
 3396SOL    HW221825   2.690   2.928   4.346 -1.7787  0.3704 -2.4338
 3397SOL     OW21826   2.871   2.304   4.729  0.0669 -0.0969  0.3929
 3397SOL    HW121827   2.783   2.267   4.723 -0.1964  0.5016  0.6421
 3397SOL    HW221828   2.845   2.364   4.798 -2.4798 -0.1381 -0.5096
 3398SOL     OW21829   3.316   3.273  16.565  0.1507  0.3364  0.6346
 3398SOL    HW121830   3.223   3.288  16.546  0.0509  2.5130  2.8873
 3398SOL    HW221831   3.325   3.296  16.657 -0.7313  0.1326  0.7769
 3399SOL     OW21832   1.780   3.963  13.527 -0.1337  0.3725  0.3075
 3399SOL    HW121833   1.857   3.914  13.558 -0.2056 -1.3637 -2.2237
 3399SOL    HW221834   1.786   3.987  13.434 -2.8246  0.8253  0.2679
 3400SOL     OW21835   1.862   0.708   3.491  0.5999 -0.1723 -0.7070
 3400SOL    HW121836   1.932   0.704   3.425 -2.0003  2.7046 -3.6678
 3400SOL    HW221837   1.911   0.671   3.565  1.4543 -1.1805 -1.7620
 3401SOL     OW21838   1.101   3.609  11.039 -0.3233  0.0200  0.3060
 3401SOL    HW121839   1.126   3.685  10.986 -3.1055  0.7343  0.0320
 3401SOL    HW221840   1.043   3.555  10.986  1.9261 -2.3768  0.3435
 3402SOL     OW21841   3.186   3.355   0.353  0.1654 -1.5444  0.0478
 3402SOL    HW121842   3.209   3.366   0.260 -0.0446 -0.0656  0.1719
 3402SOL    HW221843   3.264   3.322   0.399  1.8377  1.3908 -0.6510
 3403SOL     OW21844   0.594   1.666   2.028 -0.3105  0.9969 -0.2144
 3403SOL    HW121845   0.578   1.734   1.963 -0.8690  0.4577 -0.6345
 3403SOL    HW221846   0.555   1.584   1.998 -1.5514  1.2326  0.7497
 3404SOL     OW21847   1.506   2.585   9.092 -0.8480  0.2865  0.1000
 3404SOL    HW121848   1.481   2.492   9.090 -2.1257  0.6269 -0.0216
 3404SOL    HW221849   1.560   2.587   9.170 -0.1724  1.8373 -0.4258
 3405SOL     OW21850   3.860   4.062   1.621  0.0517 -0.2741  0.4668
 3405SOL    HW121851   3.878   4.052   1.715  0.9090 -0.6190  0.2701
 3405SOL    HW221852   3.823   3.975   1.605 -0.7962 -0.3294  2.7186
 3406SOL     OW21853   2.668   1.362  16.285  0.1435  0.6397 -0.3335
 3406SOL    HW121854   2.718   1.293  16.327 -0.7114 -0.3906 -1.0054
 3406SOL    HW221855   2.735   1.394  16.224 -0.7412 -0.9191 -2.1430
 3407SOL     OW21856   3.139   3.634  10.567 -0.4146  0.3977 -0.2535
 3407SOL    HW121857   3.102   3.656  10.652  1.0249  0.8174  0.2605
 3407SOL    HW221858   3.153   3.539  10.576 -1.4482  0.2750  0.0875
 3408SOL     OW21859   3.757   2.125   6.265  0.0393  0.0426 -0.5110
 3408SOL    HW121860   3.739   2.064   6.194 -1.3575 -0.6354  0.4170
 3408SOL    HW221861   3.708   2.200   6.232  1.2168  1.0659  0.0766
 3409SOL     OW21862   0.464   0.973   7.185 -0.2829  0.0317  0.1952
 3409SOL    HW121863   0.534   1.030   7.151  1.4099 -1.8564  0.5054
 3409SOL    HW221864   0.471   0.887   7.145  0.4750 -0.1942  0.8055
 3410SOL     OW21865   3.001   1.077   4.575  0.1573  0.5800 -0.3129
 3410SOL    HW121866   3.061   1.025   4.522 -0.0672  0.5722 -0.5611
 3410SOL    HW221867   2.957   1.009   4.627  0.4958 -0.4372 -1.3560
 3411SOL     OW21868   4.645   1.228   3.704  0.3164 -0.1567 -0.0209
 3411SOL    HW121869   4.728   1.262   3.738 -0.3720  0.9782  0.4924
 3411SOL    HW221870   4.582   1.276   3.757 -2.4884 -2.9117 -0.8845
 3412SOL     OW21871   2.416   3.662   4.180  0.3454  0.1535 -0.0162
 3412SOL    HW121872   2.346   3.673   4.116 -1.1652 -1.0609  1.4204
 3412SOL    HW221873   2.486   3.614   4.136  1.8510  0.4537  2.0116
 3413SOL     OW21874   3.277   1.269   4.948  0.4686  0.1630  0.1627
 3413SOL    HW121875   3.277   1.234   5.037  0.6186 -0.7296 -0.1920
 3413SOL    HW221876   3.369   1.277   4.923 -0.1937  1.6138 -1.8848
 3414SOL     OW21877   3.174   4.478   3.422 -0.2025  0.3445 -0.4255
 3414SOL    HW121878   3.148   4.418   3.492 -0.8962  3.3673  1.8632
 3414SOL    HW221879   3.217   4.541   3.480  1.4572 -0.9548 -0.2481
 3415SOL     OW21880   2.102   3.483  16.292 -0.2387 -0.1542  0.2559
 3415SOL    HW121881   2.146   3.403  16.263  1.4119  0.6713  0.5231
 3415SOL    HW221882   2.127   3.545  16.223 -1.8676 -1.4064 -1.4556
 3416SOL     OW21883   0.506   4.037   9.584 -0.1938  0.2156  0.8746
 3416SOL    HW121884   0.426   4.072   9.545 -0.4806 -1.0668  0.3288
 3416SOL    HW221885   0.542   3.991   9.508 -3.4353  1.0512 -1.1629
 3417SOL     OW21886   0.356   4.491   7.734  0.3868 -0.1727  0.8164
 3417SOL    HW121887   0.368   4.397   7.751 -2.2762 -0.1944  2.5739
 3417SOL    HW221888   0.261   4.484   7.723  0.2949  0.9878  0.9125
 3418SOL     OW21889   3.671   2.865  14.153  0.0259 -0.5257  0.0238
 3418SOL    HW121890   3.693   2.896  14.065  0.8175  0.3943  0.5468
 3418SOL    HW221891   3.581   2.896  14.151  0.2740  0.1465 -1.6604
 3419SOL     OW21892   0.260   3.331   5.758  0.4625 -0.3829 -0.2726
 3419SOL    HW121893   0.263   3.236   5.764 -1.9138 -0.4673 -0.3838
 3419SOL    HW221894   0.323   3.347   5.828  0.2383 -1.0381  0.0771
 3420SOL     OW21895   1.273   0.802  14.929  0.6208  0.2932 -0.4003
 3420SOL    HW121896   1.225   0.828  15.008  0.3133 -1.7700  0.0800
 3420SOL    HW221897   1.316   0.886  14.914  1.3288  0.2472  1.3382
 3421SOL     OW21898   0.216   1.302  12.666  0.3689  0.9444  0.0998
 3421SOL    HW121899   0.275   1.251  12.721  0.1798  0.3517 -0.2576
 3421SOL    HW221900   0.146   1.333  12.725 -1.8940 -2.6202 -0.7064
 3422SOL     OW21901   2.253   3.911  12.084  0.0066 -0.0452 -0.5992
 3422SOL    HW121902   2.190   3.846  12.115  1.9100 -0.7009  1.8555
 3422SOL    HW221903   2.232   3.898  11.991 -0.9526  0.5706 -0.4564
 3423SOL     OW21904   3.190   1.156   8.984 -0.1634 -0.2894  0.2522
 3423SOL    HW121905   3.128   1.229   8.991 -0.6952 -0.5976 -1.1940
 3423SOL    HW221906   3.172   1.125   9.073 -2.3248  1.0176  0.2724
 3424SOL     OW21907   0.650   0.070  14.777 -0.6038  0.1691  0.2493
 3424SOL    HW121908   0.686   0.119  14.704  0.7219 -1.7595 -0.3843
 3424SOL    HW221909   0.702   4.728  14.778  0.4323  0.8345 -1.9753
 3425SOL     OW21910   2.297   2.238   7.701 -0.0634 -0.1704 -0.6788
 3425SOL    HW121911   2.380   2.274   7.669  0.0626  1.9355  2.0200
 3425SOL    HW221912   2.313   2.225   7.794  2.0218 -1.5453 -1.2250
 3426SOL     OW21913   1.200   1.472   7.292  0.1064  0.2688  0.1490
 3426SOL    HW121914   1.137   1.435   7.353  0.9120 -0.6374  0.4252
 3426SOL    HW221915   1.165   1.559   7.271  1.0220  0.2720 -1.3663
 3427SOL     OW21916   2.528   2.923   5.505 -0.1437  0.2171  0.0261
 3427SOL    HW121917   2.539   2.996   5.566  1.1088 -0.3666  0.4826
 3427SOL    HW221918   2.611   2.876   5.513 -0.1981  0.5263  2.3973
 3428SOL     OW21919   1.160   1.042   6.548 -0.1052  0.4483 -0.2129
 3428SOL    HW121920   1.132   1.081   6.631  1.8641  1.4771 -0.0183
 3428SOL    HW221921   1.099   1.093   6.495  0.4619 -0.6321 -1.8957
 3429SOL     OW21922   2.585   1.904   9.925  0.1741 -0.8119  0.3786
 3429SOL    HW121923   2.644   1.871   9.857  0.6034 -0.3714  0.5363
 3429SOL    HW221924   2.534   1.827   9.952  1.2209 -1.1170  1.4830
 3430SOL     OW21925   3.452   3.407   8.782 -0.6990  0.5911 -1.0067
 3430SOL    HW121926   3.413   3.367   8.860  1.8043 -0.3607 -0.2339
 3430SOL    HW221927   3.532   3.452   8.810 -0.6543 -0.1543  0.0957
 3431SOL     OW21928   4.340   1.392  10.297 -0.1740 -0.0639 -0.0585
 3431SOL    HW121929   4.330   1.389  10.393 -0.2558  2.0615  0.0133
 3431SOL    HW221930   4.425   1.349  10.289 -1.0884 -1.6563 -1.0710
 3432SOL     OW21931   3.495   3.512  16.795  0.5080  0.4036  0.0382
 3432SOL    HW121932   3.568   3.528  16.856  0.1843 -0.5510  0.6765
 3432SOL    HW221933   3.521   3.574  16.727  0.2157  0.7760  0.2655
 3433SOL     OW21934   1.282   1.971  10.274  0.6621 -0.1810  0.7866
 3433SOL    HW121935   1.350   2.027  10.312  2.2538 -2.3233  1.1163
 3433SOL    HW221936   1.293   1.992  10.182 -1.6423  1.0616  0.7838
 3434SOL     OW21937   4.440   4.559   6.039  0.2519  0.2169 -0.0412
 3434SOL    HW121938   4.399   4.508   6.109 -0.6164  1.5002  0.3856
 3434SOL    HW221939   4.512   4.590   6.095 -0.1684 -0.9944  1.1900
 3435SOL     OW21940   1.658   2.188   9.690  0.0485  0.2585  0.1726
 3435SOL    HW121941   1.595   2.252   9.657  1.1754  0.9117 -0.6971
 3435SOL    HW221942   1.648   2.120   9.623  1.4049 -0.2860  0.5254
 3436SOL     OW21943   0.904   4.176   4.592 -0.3297  0.6393 -0.2109
 3436SOL    HW121944   0.985   4.125   4.590 -1.4510 -1.1956  0.9529
 3436SOL    HW221945   0.882   4.153   4.501  1.5076  1.3219 -0.8231
 3437SOL     OW21946   1.949   4.302   9.816 -0.2802  0.3295  0.1055
 3437SOL    HW121947   1.931   4.215   9.781 -1.0273  0.4165  0.2677
 3437SOL    HW221948   1.929   4.281   9.908 -1.2672 -1.9654 -0.6315
 3438SOL     OW21949   1.293   2.747  10.035  0.3119 -0.1444 -0.7003
 3438SOL    HW121950   1.234   2.794   9.975 -0.7483 -0.6532 -0.0604
 3438SOL    HW221951   1.252   2.661  10.040  0.7718 -0.2275  1.5234
 3439SOL     OW21952   0.685   0.371   5.472  0.7309 -0.5659  0.1082
 3439SOL    HW121953   0.746   0.313   5.427 -2.4675 -3.9054  0.0736
 3439SOL    HW221954   0.707   0.444   5.414 -3.0500 -1.6998 -2.7753
 3440SOL     OW21955   3.677   1.517   6.996 -0.1123 -0.3329  0.0298
 3440SOL    HW121956   3.676   1.424   6.974  0.6081 -0.6461  1.3308
 3440SOL    HW221957   3.627   1.564   6.929  1.9037 -0.0273 -1.2562
 3441SOL     OW21958   2.120   4.432   3.559  0.0138  0.1595 -0.2127
 3441SOL    HW121959   2.051   4.383   3.514  1.6539 -0.5047 -2.0179
 3441SOL    HW221960   2.070   4.510   3.581  0.4276  0.9224 -1.9992
 3442SOL     OW21961   1.367   3.289   4.197 -0.2600  0.3660  0.2052
 3442SOL    HW121962   1.423   3.354   4.154  0.1855 -0.5513 -0.6149
 3442SOL    HW221963   1.425   3.269   4.270  0.9597 -2.6580 -1.6326
 3443SOL     OW21964   4.704   0.637   2.084  0.0215  0.5685 -0.1247
 3443SOL    HW121965   4.610   0.657   2.078  0.1595  1.9871  2.8847
 3443SOL    HW221966   0.010   0.720   2.071  0.7267  0.3116  0.6601
 3444SOL     OW21967   1.373   1.436   8.916 -0.4328 -0.0030  0.2913
 3444SOL    HW121968   1.370   1.343   8.893  1.8985  0.6169 -2.5738
 3444SOL    HW221969   1.408   1.433   9.005  0.8226 -2.8810 -0.3060
 3445SOL     OW21970   1.501   4.144  16.957 -0.0012  0.1696 -0.0821
 3445SOL    HW121971   1.467   4.067  16.913  0.6472 -0.1208 -0.0830
 3445SOL    HW221972   1.433   4.209  16.940  0.2758  0.2500 -0.8651
 3446SOL     OW21973   0.084   1.725   7.800 -0.1051 -0.4197 -0.2738
 3446SOL    HW121974   0.136   1.676   7.863 -0.7209  1.5488  1.7732
 3446SOL    HW221975   4.736   1.693   7.824 -0.6577  1.6633  0.5350
 3447SOL     OW21976   1.609   4.253  10.416 -0.2704 -0.0659  0.5994
 3447SOL    HW121977   1.564   4.170  10.400  0.6066 -0.2957 -0.6591
 3447SOL    HW221978   1.581   4.309  10.344  1.3502  0.2538  0.2094
 3448SOL     OW21979   4.365   3.311   1.163 -0.1633 -0.2195 -0.0622
 3448SOL    HW121980   4.369   3.404   1.184 -2.7358  0.1304 -1.1519
 3448SOL    HW221981   4.370   3.264   1.247  0.9357  1.1928  0.6694
 3449SOL     OW21982   1.952   1.651   3.383 -0.7494 -0.4519 -0.0294
 3449SOL    HW121983   1.891   1.660   3.310 -1.2640 -0.4248  0.4013
 3449SOL    HW221984   1.903   1.692   3.454 -0.4205  0.3410 -0.2577
 3450SOL     OW21985   3.441   0.019   4.640  0.1171 -0.0169  0.1230
 3450SOL    HW121986   3.362   4.705   4.653 -0.5022  0.6608 -0.8772
 3450SOL    HW221987   3.496   4.721   4.710  1.5754 -0.2423 -1.1506
 3451SOL     OW21988   3.676   3.553   8.887  0.0789 -0.1196 -0.4156
 3451SOL    HW121989   3.748   3.565   8.825  0.4035 -0.7006 -0.1493
 3451SOL    HW221990   3.705   3.612   8.955 -1.6705 -1.9784  1.9474
 3452SOL     OW21991   2.386   3.588   9.305 -0.2075  0.2117  0.0156
 3452SOL    HW121992   2.294   3.604   9.284 -0.6620  0.7405  2.3993
 3452SOL    HW221993   2.410   3.659   9.365 -1.3585 -0.0968  0.8341
 3453SOL     OW21994   0.266   3.582   1.815  0.5871  0.2251  0.4097
 3453SOL    HW121995   0.197   3.640   1.848  0.0315 -0.2529  0.1019
 3453SOL    HW221996   0.343   3.636   1.832  0.5363  0.5148 -0.2959
 3454SOL     OW21997   0.799   0.197   5.285 -0.2085 -0.0526  0.6126
 3454SOL    HW121998   0.793   0.252   5.207 -0.2191 -2.3561 -1.0115
 3454SOL    HW221999   0.733   0.134   5.258 -0.9443  0.5746  0.9629
 3455SOL     OW22000   3.331   0.937  16.083 -0.6125  0.1495  0.4605
 3455SOL    HW122001   3.364   0.924  15.995 -0.7279 -2.1328  0.7598
 3455SOL    HW222002   3.359   0.855  16.123  1.1156  1.0151  1.0391
 3456SOL     OW22003   3.253   0.498   9.978 -0.0500 -0.0099 -0.7642
 3456SOL    HW122004   3.302   0.468   9.901 -1.4433  0.4710 -1.8221
 3456SOL    HW222005   3.174   0.515   9.929 -0.5637  2.7628  1.0323
 3457SOL     OW22006   1.879   0.654   7.660 -0.4330 -0.2425  0.4544
 3457SOL    HW122007   1.883   0.567   7.621  1.4062  0.1781 -0.2866
 3457SOL    HW222008   1.956   0.652   7.716 -0.9528 -3.1920  1.0356
 3458SOL     OW22009   3.096   1.091   9.277  0.1192  0.0381 -0.1796
 3458SOL    HW122010   3.149   1.152   9.327 -0.8833  0.4293  0.4053
 3458SOL    HW222011   3.012   1.095   9.324  0.2417 -0.0520  0.0450
 3459SOL     OW22012   4.553   3.075   7.073 -0.3332 -0.4125 -0.0050
 3459SOL    HW122013   4.649   3.081   7.070 -0.2614 -1.9298 -0.7624
 3459SOL    HW222014   4.543   3.057   7.166 -2.3204 -0.2330 -0.1792
 3460SOL     OW22015   1.522   0.256  12.976  0.1344  0.4411 -0.6531
 3460SOL    HW122016   1.477   0.208  12.907 -1.6037 -0.5080  1.1547
 3460SOL    HW222017   1.602   0.270  12.925  0.3331  0.1485 -0.4165
 3461SOL     OW22018   0.139   4.292   8.291 -0.0126 -0.0533  0.1026
 3461SOL    HW122019   0.197   4.268   8.219  1.8197 -0.0828  1.6237
 3461SOL    HW222020   0.121   4.380   8.258 -1.4976 -0.1449  0.6675
 3462SOL     OW22021   2.385   2.395   3.288 -0.1943  0.2924 -0.2328
 3462SOL    HW122022   2.431   2.443   3.357  1.9658  1.2709 -2.3475
 3462SOL    HW222023   2.303   2.392   3.338 -0.1218 -2.9778 -0.2622
 3463SOL     OW22024   4.446   3.356   6.550 -0.2916  1.2231  0.2829
 3463SOL    HW122025   4.472   3.276   6.505 -0.1320  1.0792  0.6330
 3463SOL    HW222026   4.388   3.404   6.490 -2.6887  0.3614  1.9119
 3464SOL     OW22027   2.757   2.064   9.759  0.2889  0.0003  0.0657
 3464SOL    HW122028   2.690   2.016   9.712 -0.3109  0.3133  0.6032
 3464SOL    HW222029   2.739   2.154   9.732 -2.1059 -0.5953 -0.2697
 3465SOL     OW22030   1.796   3.589  11.179  0.3499  0.4824 -0.4965
 3465SOL    HW122031   1.867   3.608  11.118 -1.0712  0.4399 -2.1707
 3465SOL    HW222032   1.742   3.663  11.150 -0.3996 -0.0854 -0.5544
 3466SOL     OW22033   4.687   2.133  10.632 -0.3924 -0.4341  0.3506
 3466SOL    HW122034   4.654   2.179  10.709  1.8564  0.4763  0.7749
 3466SOL    HW222035   4.725   2.054  10.669 -1.0984 -1.5921 -1.3946
 3467SOL     OW22036   3.275   2.338   9.131  0.2515 -0.4885  0.0623
 3467SOL    HW122037   3.330   2.267   9.100 -2.1886 -1.6916 -1.5186
 3467SOL    HW222038   3.191   2.324   9.086 -0.0497 -1.6569  0.9727
 3468SOL     OW22039   1.029   2.522   6.831 -0.6849  0.3666 -0.1745
 3468SOL    HW122040   1.052   2.516   6.739 -0.3906 -2.2067  0.0713
 3468SOL    HW222041   0.950   2.468   6.823  0.5325 -1.2169 -1.4932
 3469SOL     OW22042   1.265   2.966   8.493  0.6712 -0.0902  0.2962
 3469SOL    HW122043   1.295   2.923   8.413 -0.4357  0.9698 -0.7127
 3469SOL    HW222044   1.234   3.053   8.466  0.9775  0.7442  2.6007
 3470SOL     OW22045   1.862   2.176   6.291 -0.5779  0.2304 -0.3810
 3470SOL    HW122046   1.939   2.122   6.308 -0.8648  0.3415  1.2186
 3470SOL    HW222047   1.787   2.119   6.308 -0.6956  0.2990 -0.6577
 3471SOL     OW22048   3.210   1.018   3.391  0.1877 -0.3140  0.1905
 3471SOL    HW122049   3.180   1.095   3.341 -0.2144 -1.7866 -1.8099
 3471SOL    HW222050   3.203   1.060   3.476  5.1042 -2.1728  1.4843
 3472SOL     OW22051   0.501   2.991   1.621  0.5782  0.0128  0.3660
 3472SOL    HW122052   0.528   3.036   1.701  1.0767  1.6603 -0.7159
 3472SOL    HW222053   0.577   2.939   1.592  0.0170 -0.7214  0.2113
 3473SOL     OW22054   0.154   1.379  10.611 -0.3480  0.9162 -0.5833
 3473SOL    HW122055   0.122   1.289  10.618  1.7194  0.1600 -0.8617
 3473SOL    HW222056   0.241   1.377  10.650 -1.6455 -1.0112  2.2570
 3474SOL     OW22057   0.990   1.723   3.997 -0.8269  0.4013 -0.0405
 3474SOL    HW122058   1.074   1.758   4.028  1.1059 -2.8359 -1.6993
 3474SOL    HW222059   0.942   1.707   4.078 -0.0929 -1.9050 -0.0646
 3475SOL     OW22060   4.095   0.023   7.615 -1.1485 -0.2498 -0.0876
 3475SOL    HW122061   4.124   0.015   7.524 -0.1556  0.9687  0.1258
 3475SOL    HW222062   4.077   0.117   7.620 -2.6977 -0.5255 -0.3106
 3476SOL     OW22063   0.505   2.762   6.039  0.0115  0.6139  0.0364
 3476SOL    HW122064   0.513   2.740   5.947  1.5616  0.8571  0.0984
 3476SOL    HW222065   0.597   2.767   6.066 -0.0818  0.3326  0.4168
 3477SOL     OW22066   2.366   2.998   2.856  0.2581 -0.0527 -0.0412
 3477SOL    HW122067   2.364   3.017   2.762 -1.8756 -0.2868 -0.0479
 3477SOL    HW222068   2.327   2.912   2.838 -1.4804  0.6426  0.4569
 3478SOL     OW22069   2.729   0.430   6.129 -0.0548 -0.0983  0.7894
 3478SOL    HW122070   2.783   0.356   6.104 -0.7021 -0.6976  1.1730
 3478SOL    HW222071   2.651   0.379   6.148  0.3482 -0.8663  0.3547
 3479SOL     OW22072   4.308   2.344   0.221 -0.2869 -0.2808 -0.2029
 3479SOL    HW122073   4.304   2.248   0.230 -0.2493 -0.4060 -1.6463
 3479SOL    HW222074   4.243   2.366   0.287  0.1602  0.4449 -0.0054
 3480SOL     OW22075   2.859   3.391   2.988 -0.0808 -0.2262  0.8569
 3480SOL    HW122076   2.937   3.384   3.043  0.1966  1.6221  0.6840
 3480SOL    HW222077   2.899   3.353   2.909  2.6063 -0.7006  2.4487
 3481SOL     OW22078   0.594   2.786  11.367  0.5802  0.2788  0.1180
 3481SOL    HW122079   0.619   2.693  11.362 -1.4945 -0.5066  4.4181
 3481SOL    HW222080   0.509   2.796  11.325 -0.0923 -3.0102  0.6760
 3482SOL     OW22081   4.264   2.944  14.634 -0.3654 -0.1986 -0.0002
 3482SOL    HW122082   4.295   2.857  14.655  1.2122  0.0540 -1.2859
 3482SOL    HW222083   4.171   2.939  14.656 -0.0777  0.2109  1.2650
 3483SOL     OW22084   2.981   3.616   6.166 -0.0791 -0.6596 -0.3470
 3483SOL    HW122085   2.892   3.634   6.195 -0.1867 -0.6180 -0.7052
 3483SOL    HW222086   2.981   3.524   6.141  2.4987 -0.7770  0.0575
 3484SOL     OW22087   4.169   0.601   4.297  0.0616 -0.0064  0.3689
 3484SOL    HW122088   4.153   0.680   4.350  1.7362 -0.9274  2.2551
 3484SOL    HW222089   4.179   0.644   4.212  1.2071  0.5979  0.8008
 3485SOL     OW22090   0.861   4.532   8.209 -0.2857 -0.0039  0.0448
 3485SOL    HW122091   0.814   4.515   8.290 -0.1606  2.0023  0.5532
 3485SOL    HW222092   0.952   4.509   8.227  0.6504  4.0938  0.6063
 3486SOL     OW22093   0.377   4.436   1.443 -0.1751  0.1978  0.0180
 3486SOL    HW122094   0.438   4.431   1.517  0.3934 -2.1830 -0.6117
 3486SOL    HW222095   0.299   4.461   1.493  0.3850  1.5186  0.2277
 3487SOL     OW22096   4.183   0.575  17.420 -0.0696 -0.3053  0.0853
 3487SOL    HW122097   4.225   0.644  17.369  0.8662 -0.6430  0.3923
 3487SOL    HW222098   4.209   0.606  17.507  2.2208 -4.2746  0.8194
 3488SOL     OW22099   2.207   3.294  16.137 -0.2718 -0.1860  0.3279
 3488SOL    HW122100   2.225   3.288  16.043 -1.9926 -0.2093  0.0089
 3488SOL    HW222101   2.160   3.213  16.154  0.2560 -0.5084  0.2571
 3489SOL     OW22102   0.217   1.952   6.301 -0.6615  0.2043  0.4225
 3489SOL    HW122103   0.161   1.925   6.228 -0.6709  1.0704  0.1070
 3489SOL    HW222104   0.305   1.938   6.265 -0.1833  1.4036  1.1225
 3490SOL     OW22105   0.334   4.069  17.063 -0.6168  0.4486  0.7280
 3490SOL    HW122106   0.402   4.108  17.008  1.9767 -1.8999  2.2782
 3490SOL    HW222107   0.364   3.980  17.084 -0.9679 -0.2327 -1.6383
 3491SOL     OW22108   4.370   1.663   8.581  0.0296 -0.6298 -0.0665
 3491SOL    HW122109   4.421   1.731   8.624 -3.9571  1.6142  1.0159
 3491SOL    HW222110   4.284   1.687   8.614 -0.1783  3.3083 -3.5862
 3492SOL     OW22111   2.328   2.203   7.996  0.4782 -0.4368  0.0965
 3492SOL    HW122112   2.336   2.108   7.994 -1.2839 -0.6188  1.0949
 3492SOL    HW222113   2.399   2.240   8.048 -0.4938 -1.7436  2.3520
 3493SOL     OW22114   3.455   2.299  10.431 -0.3073 -0.2764 -0.3362
 3493SOL    HW122115   3.443   2.304  10.526 -0.1159  0.2482 -0.3389
 3493SOL    HW222116   3.514   2.223  10.423  1.7245  1.3482 -0.6516
 3494SOL     OW22117   0.473   2.907   4.966  0.2720 -0.0933  0.3372
 3494SOL    HW122118   0.505   2.863   4.888 -0.6840  2.4862 -1.5253
 3494SOL    HW222119   0.399   2.853   4.992  0.1616  0.0401  0.3025
 3495SOL     OW22120   3.911   4.480  10.330 -0.0716 -0.2339 -0.3516
 3495SOL    HW122121   3.962   4.402  10.353 -0.6880  0.0495  2.0113
 3495SOL    HW222122   3.982   4.534  10.294 -0.3084  0.7283  0.6366
 3496SOL     OW22123   4.322   0.003   6.760  0.5891 -0.2050  0.7766
 3496SOL    HW122124   4.353   0.026   6.672 -1.0102 -2.4795 -0.3782
 3496SOL    HW222125   4.283   0.084   6.794 -1.1172 -0.0839 -1.4128
 3497SOL     OW22126   0.981   3.277   9.191  0.0940 -0.2753 -0.2583
 3497SOL    HW122127   1.009   3.191   9.159  0.0244  0.0606 -1.2026
 3497SOL    HW222128   1.056   3.330   9.164  2.1131 -2.7115  0.4910
 3498SOL     OW22129   3.055   0.547   8.296  0.3498  0.3217  0.0126
 3498SOL    HW122130   3.090   0.553   8.385 -0.5175  2.1969  0.2293
 3498SOL    HW222131   3.003   0.467   8.297  0.5931  0.1648  0.0935
 3499SOL     OW22132   4.034   1.828   7.236  0.0059 -0.3335 -0.0184
 3499SOL    HW122133   4.010   1.867   7.152 -0.4042 -0.1402  0.1871
 3499SOL    HW222134   4.015   1.737   7.213 -2.3752  0.0108  0.5736
 3500SOL     OW22135   2.085   2.500  15.414  0.5879  0.3754  0.1884
 3500SOL    HW122136   2.006   2.446  15.425  1.9253 -2.0125 -1.8301
 3500SOL    HW222137   2.063   2.536  15.328  1.2690 -0.6025 -0.4030
 3501SOL     OW22138   2.802   2.499   6.437 -0.0620  0.0774 -0.0659
 3501SOL    HW122139   2.772   2.553   6.510 -1.1146  0.2930 -0.6573
 3501SOL    HW222140   2.794   2.411   6.474 -1.8291 -0.5200 -1.9030
 3502SOL     OW22141   4.261   1.929   2.125  0.4762  0.1730 -0.0196
 3502SOL    HW122142   4.209   1.853   2.099 -0.3458  1.1363 -1.1588
 3502SOL    HW222143   4.196   1.997   2.109 -0.2153 -0.4038  0.4080
 3503SOL     OW22144   1.851   0.966  10.502  0.8504 -0.1162 -0.4243
 3503SOL    HW122145   1.762   0.932  10.514  1.4835 -2.0160 -1.0222
 3503SOL    HW222146   1.886   0.896  10.557  0.4916  0.8718  1.0541
 3504SOL     OW22147   1.663   1.377  15.030  0.2404 -0.2103 -0.4541
 3504SOL    HW122148   1.756   1.396  15.043  0.0191  0.0742  0.7225
 3504SOL    HW222149   1.640   1.428  14.953  0.9430  0.9147  0.0934
 3505SOL     OW22150   1.972   4.541  11.496  0.3887 -0.0703 -0.0207
 3505SOL    HW122151   2.011   4.460  11.465 -0.4471  0.3050 -2.0778
 3505SOL    HW222152   2.040   4.594  11.537  1.3499 -0.3091 -1.3176
 3506SOL     OW22153   1.247   1.225  14.623 -0.3212 -0.0433 -0.4656
 3506SOL    HW122154   1.298   1.178  14.689 -1.1355  1.4546  1.2280
 3506SOL    HW222155   1.166   1.175  14.619 -1.5066  1.7552  1.1332
 3507SOL     OW22156   2.123   1.422   3.613 -0.1887  0.1359 -0.1188
 3507SOL    HW122157   2.166   1.348   3.656 -1.1790  0.1706  0.9316
 3507SOL    HW222158   2.044   1.374   3.585  1.3300 -1.2890 -1.9328
 3508SOL     OW22159   0.583   3.142  16.857 -0.2517  0.5562 -0.5261
 3508SOL    HW122160   0.668   3.116  16.822 -0.6418 -1.0444 -0.3029
 3508SOL    HW222161   0.546   3.061  16.894 -3.0974  2.4443  0.7858
 3509SOL     OW22162   2.144   2.662   6.715 -0.1025 -0.0328  0.0765
 3509SOL    HW122163   2.076   2.722   6.747  2.1548  2.3457  0.4324
 3509SOL    HW222164   2.126   2.577   6.755 -1.9211  0.6759  0.7597
 3510SOL     OW22165   0.656   2.644  13.017 -0.1500 -1.1981 -0.0684
 3510SOL    HW122166   0.690   2.732  13.035  3.8023 -2.4738 -1.3747
 3510SOL    HW222167   0.734   2.590  13.033  0.3185 -0.4125  0.3352
 3511SOL     OW22168   2.738   4.564   9.307 -0.1899  0.3139  0.0193
 3511SOL    HW122169   2.696   4.647   9.287  1.8763  1.5832  1.0137
 3511SOL    HW222170   2.809   4.564   9.243 -2.5584 -1.6687 -2.6426
 3512SOL     OW22171   2.745   0.243   8.138  0.0452 -0.0694 -0.2369
 3512SOL    HW122172   2.802   0.173   8.105  2.1416  2.3483 -1.7410
 3512SOL    HW222173   2.790   0.251   8.222  2.0675  1.9490 -1.5281
 3513SOL     OW22174   3.678   2.384   1.836 -0.0157 -0.3534  0.0813
 3513SOL    HW122175   3.763   2.410   1.802 -1.0230  0.9992 -1.4578
 3513SOL    HW222176   3.647   2.345   1.754  0.3164  1.5121 -0.9187
 3514SOL     OW22177   2.709   3.926   2.653 -0.6246  0.3823 -0.1596
 3514SOL    HW122178   2.723   3.837   2.623 -0.4098 -0.1566  1.5489
 3514SOL    HW222179   2.656   3.966   2.584 -2.8757  0.8596  1.8302
 3515SOL     OW22180   1.425   3.494   7.461 -0.6817 -0.7463 -0.2112
 3515SOL    HW122181   1.489   3.434   7.499  0.9268  0.1045 -1.6050
 3515SOL    HW222182   1.411   3.545   7.541  0.0066  0.5356 -0.9049
 3516SOL     OW22183   1.677   1.262  12.904 -0.3428  0.1239 -0.2622
 3516SOL    HW122184   1.582   1.253  12.906 -0.1843 -0.8325  2.8616
 3516SOL    HW222185   1.683   1.275  12.809 -0.6839  0.6643 -0.2072
 3517SOL     OW22186   2.394   2.686   2.096 -0.1863 -0.0854 -0.0632
 3517SOL    HW122187   2.324   2.651   2.151  1.4025 -3.3302 -0.0988
 3517SOL    HW222188   2.439   2.605   2.070  0.1237  0.4814 -1.2914
 3518SOL     OW22189   3.155   1.677   1.459 -0.0050 -0.0687 -0.7450
 3518SOL    HW122190   3.153   1.589   1.421 -0.3863 -0.8460  1.1034
 3518SOL    HW222191   3.107   1.721   1.389  1.2732 -1.6762 -2.6441
 3519SOL     OW22192   1.612   4.003   7.157 -0.1539 -0.1007  0.5509
 3519SOL    HW122193   1.707   4.002   7.166 -0.4409 -2.4191  3.2149
 3519SOL    HW222194   1.587   3.928   7.210 -0.0088 -0.4715  0.0888
 3520SOL     OW22195   2.560   1.364   4.924  0.0313 -0.0088 -0.6191
 3520SOL    HW122196   2.645   1.319   4.918  0.2183  0.3757 -0.8727
 3520SOL    HW222197   2.591   1.443   4.879 -1.5469  1.9049  1.6477
 3521SOL     OW22198   0.058   0.057   7.323  0.2332  0.1085  0.1589
 3521SOL    HW122199   0.144   0.054   7.280 -0.2378 -2.5618 -0.5967
 3521SOL    HW222200   0.023   0.144   7.305  2.4401  0.6298 -1.6179
 3522SOL     OW22201   3.222   0.180   5.496 -0.1173 -0.3153 -0.4703
 3522SOL    HW122202   3.302   0.171   5.445  0.4350  2.2156 -0.0306
 3522SOL    HW222203   3.228   0.102   5.552 -0.9642 -1.4444 -1.9630
 3523SOL     OW22204   1.561   4.652   5.181  0.7451 -0.2480  0.4446
 3523SOL    HW122205   1.621   4.725   5.165  1.2607 -0.3646  1.8379
 3523SOL    HW222206   1.489   4.692   5.232  0.6111 -1.1532  0.9617
 3524SOL     OW22207   3.386   1.084   8.814  0.4724 -0.4354  0.1881
 3524SOL    HW122208   3.403   1.169   8.772 -0.1711  0.9248  2.6630
 3524SOL    HW222209   3.318   1.103   8.879  0.2893 -2.7180  0.6506
 3525SOL     OW22210   4.430   2.700   0.830 -0.6223 -0.0548  0.0791
 3525SOL    HW122211   4.519   2.700   0.795 -0.3607 -0.7043  0.7267
 3525SOL    HW222212   4.429   2.794   0.849 -0.9147 -0.1783  0.6935
 3526SOL     OW22213   1.526   3.972   4.498 -0.7855 -0.3898 -0.4478
 3526SOL    HW122214   1.448   3.926   4.466 -0.3833 -1.5616  0.2608
 3526SOL    HW222215   1.572   3.999   4.418 -0.1537 -1.4998 -0.4601
 3527SOL     OW22216   0.780   1.070  17.418  0.2325 -0.3769  0.2974
 3527SOL    HW122217   0.808   1.004  17.355  0.2515 -0.3462  0.2734
 3527SOL    HW222218   0.780   1.017  17.497  1.9080 -0.9322 -0.0592
 3528SOL     OW22219   2.457   2.600  14.600 -0.0623 -0.3290  0.0304
 3528SOL    HW122220   2.416   2.513  14.592 -0.2919 -0.1089 -1.2100
 3528SOL    HW222221   2.468   2.605  14.695 -1.7680  0.6646  0.1807
 3529SOL     OW22222   1.144   0.390  15.733 -0.2819 -0.2112  0.9165
 3529SOL    HW122223   1.089   0.468  15.741 -1.7148 -1.0151 -0.9397
 3529SOL    HW222224   1.230   0.432  15.739 -0.2592  0.0399 -1.1283
 3530SOL     OW22225   3.235   0.772  11.077 -0.0667  0.6505  0.0131
 3530SOL    HW122226   3.188   0.793  11.158 -0.6198  1.1260 -0.4295
 3530SOL    HW222227   3.292   0.848  11.080  0.0676  0.4995  1.5336
 3531SOL     OW22228   2.088   2.648   9.437 -0.1927 -0.6041 -0.2571
 3531SOL    HW122229   2.125   2.625   9.352  1.5327  0.6326  0.1681
 3531SOL    HW222230   2.012   2.700   9.410 -1.4883 -2.2091  0.3124
 3532SOL     OW22231   4.402   4.332   8.699 -0.4629 -0.2109 -0.5216
 3532SOL    HW122232   4.474   4.338   8.635 -0.4696 -1.2199 -0.6364
 3532SOL    HW222233   4.408   4.411   8.752 -0.8143 -0.7653  0.3460
 3533SOL     OW22234   1.111   4.007  11.202  0.2611 -0.1613 -0.1754
 3533SOL    HW122235   1.111   3.943  11.274 -0.8150  0.4577  0.3761
 3533SOL    HW222236   1.132   4.089  11.247 -0.1706 -2.1719  3.7019
 3534SOL     OW22237   3.036   0.260   6.328  0.2998 -0.0741 -0.0629
 3534SOL    HW122238   3.040   0.344   6.283  1.9386 -0.6369 -0.9806
 3534SOL    HW222239   3.053   0.284   6.418 -0.1568 -1.1867  0.3249
 3535SOL     OW22240   3.453   1.541   4.349 -0.5452 -0.2194 -0.8917
 3535SOL    HW122241   3.456   1.495   4.433 -0.3500 -2.3354 -2.0709
 3535SOL    HW222242   3.540   1.580   4.344 -0.5295 -0.1011  0.3725
 3536SOL     OW22243   4.318   4.331   2.145  0.4759 -0.2472  0.4533
 3536SOL    HW122244   4.263   4.302   2.072  0.2083  0.5852  0.3274
 3536SOL    HW222245   4.256   4.303   2.212 -1.4651  0.2900 -1.1085
 3537SOL     OW22246   2.781   0.543   3.399  0.1484  0.0328  0.0917
 3537SOL    HW122247   2.858   0.531   3.456 -0.5248  1.3945  1.3047
 3537SOL    HW222248   2.824   0.593   3.329 -0.5506  1.1795  0.4750
 3538SOL     OW22249   2.201   0.911   6.217 -0.5032  0.2582 -0.5251
 3538SOL    HW122250   2.157   0.830   6.244 -0.2349 -0.4074 -2.0895
 3538SOL    HW222251   2.193   0.954   6.302 -1.8178 -1.6364  0.3053
 3539SOL     OW22252   1.979   2.196   5.899  0.1663 -0.2338 -0.3156
 3539SOL    HW122253   2.001   2.130   5.963 -2.4334 -0.7414  0.0351
 3539SOL    HW222254   2.064   2.222   5.864 -0.0964 -0.5213 -1.1679
 3540SOL     OW22255   4.394   3.425   3.094 -0.5816  0.2609 -0.7166
 3540SOL    HW122256   4.477   3.409   3.049 -0.4987  1.7818 -1.1093
 3540SOL    HW222257   4.382   3.336   3.129 -1.2357  0.0597 -1.4352
 3541SOL     OW22258   4.540   4.202  10.302 -0.0755  0.3303  0.3675
 3541SOL    HW122259   4.464   4.245  10.262  0.3628  4.0096  3.4612
 3541SOL    HW222260   4.592   4.273  10.339  0.3649  0.3916 -0.3712
 3542SOL     OW22261   1.254   2.872   2.691  0.3799  0.0949  0.3003
 3542SOL    HW122262   1.336   2.918   2.675  1.3169 -1.9495 -0.8196
 3542SOL    HW222263   1.183   2.934   2.675  1.2508  0.5789 -1.5693
 3543SOL     OW22264   1.475   0.341   0.279  0.1472  0.0163  0.5041
 3543SOL    HW122265   1.566   0.321   0.303  0.7389 -0.6937 -2.3647
 3543SOL    HW222266   1.441   0.256   0.250 -4.5325  2.0371  0.2049
 3544SOL     OW22267   3.040   0.149   1.828  0.2727 -0.5232 -0.1975
 3544SOL    HW122268   3.058   0.057   1.809  1.0397 -0.3364 -0.3506
 3544SOL    HW222269   3.098   0.192   1.766 -0.6263 -0.7575 -1.2074
 3545SOL     OW22270   0.867   2.154   5.627 -0.4156  0.2972  0.2889
 3545SOL    HW122271   0.842   2.064   5.650 -0.0514 -0.0986 -0.8818
 3545SOL    HW222272   0.918   2.190   5.701 -1.0801  1.8858 -0.0339
 3546SOL     OW22273   1.334   2.836   4.010 -0.2836 -0.2850 -0.0495
 3546SOL    HW122274   1.302   2.890   3.938 -0.1620  2.3625  1.9193
 3546SOL    HW222275   1.372   2.899   4.071  2.3375 -0.5996 -1.3453
 3547SOL     OW22276   1.808   0.132   3.473  0.0496 -1.1835  0.3407
 3547SOL    HW122277   1.788   0.141   3.379  1.5419 -1.8092 -0.0416
 3547SOL    HW222278   1.761   0.052   3.492 -2.2677  0.4980  1.6472
 3548SOL     OW22279   1.826   3.952   8.453 -0.4176 -1.0023 -0.3081
 3548SOL    HW122280   1.814   3.930   8.546 -1.9701  0.6223 -0.1244
 3548SOL    HW222281   1.844   4.046   8.457  0.5799 -1.2360  0.7403
 3549SOL     OW22282   3.887   0.383   3.530  0.3256 -0.1325  0.1047
 3549SOL    HW122283   3.970   0.378   3.482  0.8885  0.3384  1.0207
 3549SOL    HW222284   3.915   0.335   3.608 -0.7843  0.2971  0.7585
 3550SOL     OW22285   3.991   4.670   3.098  0.6095 -0.2684 -0.1955
 3550SOL    HW122286   3.907   4.713   3.115  0.8399  0.6405 -1.3364
 3550SOL    HW222287   4.000   4.604   3.167 -1.6921 -0.2156  0.1431
 3551SOL     OW22288   1.840   1.125   0.632 -0.5294 -0.3461  0.1700
 3551SOL    HW122289   1.815   1.156   0.545  1.3462 -1.5006 -0.7935
 3551SOL    HW222290   1.899   1.201   0.641  1.1002 -1.9065  2.5865
 3552SOL     OW22291   1.829   4.679   7.018 -0.0828 -0.2656 -0.2629
 3552SOL    HW122292   1.764   4.714   6.957  1.8436  2.8944 -0.5144
 3552SOL    HW222293   1.781   4.602   7.048 -0.0308  0.1918  1.0029
 3553SOL     OW22294   1.276   0.686   3.419  0.4415  0.1842 -0.5208
 3553SOL    HW122295   1.254   0.779   3.418 -0.2082  0.0336 -0.3114
 3553SOL    HW222296   1.244   0.646   3.500  0.5286 -0.9845 -1.0645
 3554SOL     OW22297   3.160   2.218  10.290 -0.5507  0.3108 -0.1124
 3554SOL    HW122298   3.068   2.197  10.279 -0.5093 -0.1751  0.4823
 3554SOL    HW222299   3.169   2.246  10.381 -2.2000  1.4799 -0.3084
 3555SOL     OW22300   4.067   3.629   9.284  0.4254  0.2454 -0.2534
 3555SOL    HW122301   4.159   3.611   9.300  0.3618  0.2091  0.0595
 3555SOL    HW222302   4.019   3.548   9.267  0.3688  0.4522 -1.1172
 3556SOL     OW22303   3.354   4.249   3.842  0.3064 -0.2607 -0.2283
 3556SOL    HW122304   3.319   4.187   3.905  0.2869  0.1862  0.2018
 3556SOL    HW222305   3.275   4.302   3.830  0.6372  0.3990  0.4998
 3557SOL     OW22306   3.464   4.417   4.993 -1.0671 -0.6096 -0.9255
 3557SOL    HW122307   3.433   4.328   4.974 -1.3746 -0.8276  0.5677
 3557SOL    HW222308   3.487   4.402   5.085  0.0750 -0.4834 -1.1877
 3558SOL     OW22309   1.411   0.935   6.616 -0.8907 -0.2382  0.0375
 3558SOL    HW122310   1.414   1.005   6.680 -2.8618 -0.6502  0.5769
 3558SOL    HW222311   1.321   0.949   6.587  0.1403  1.7804 -2.2876
 3559SOL     OW22312   4.249   4.597   0.195 -0.1420 -0.1418 -0.2448
 3559SOL    HW122313   4.155   4.591   0.181  0.2359 -1.6671 -2.1774
 3559SOL    HW222314   4.271   4.506   0.173  0.7729  0.0405 -0.0733
 3560SOL     OW22315   4.018   2.406  15.331 -0.4468 -0.5230 -0.1722
 3560SOL    HW122316   4.049   2.466  15.399  2.1332 -2.4220  0.2790
 3560SOL    HW222317   3.952   2.354  15.377 -0.2921 -0.3567  0.2348
 3561SOL     OW22318   4.628   2.347  16.116  0.2354 -0.1620 -0.5586
 3561SOL    HW122319   4.556   2.306  16.068  1.0168 -1.6675 -0.4651
 3561SOL    HW222320   4.593   2.366  16.203  0.8245  1.0243 -0.5885
 3562SOL     OW22321   3.687   2.380  13.866  0.0625  0.6329 -0.2455
 3562SOL    HW122322   3.726   2.312  13.922  1.4232 -0.7206 -2.8232
 3562SOL    HW222323   3.598   2.382  13.900 -0.5335 -0.4775 -1.7230
 3563SOL     OW22324   4.401   0.455   4.155 -0.3746  0.2038 -0.2242
 3563SOL    HW122325   4.376   0.516   4.086 -0.7305  1.4916  1.0565
 3563SOL    HW222326   4.452   0.509   4.216  0.7786  0.1432 -1.1125
 3564SOL     OW22327   0.487   1.692   5.383 -0.1906  0.4433  0.7485
 3564SOL    HW122328   0.534   1.610   5.401  0.0647  0.1534 -1.1610
 3564SOL    HW222329   0.420   1.686   5.451 -1.2128 -1.8019 -0.4289
 3565SOL     OW22330   3.075   2.641  10.171  0.6930 -0.2188  0.1339
 3565SOL    HW122331   3.018   2.601  10.237  1.8656 -0.1373  1.1830
 3565SOL    HW222332   3.162   2.617  10.203  0.7270 -0.4936 -0.1619
 3566SOL     OW22333   4.029   1.351  15.237 -0.2278  0.2464 -0.4678
 3566SOL    HW122334   3.939   1.324  15.218  0.3418 -3.5409  2.0431
 3566SOL    HW222335   4.074   1.271  15.210  0.5245  1.2839 -2.2445
 3567SOL     OW22336   4.041   0.567   4.818 -0.7442 -0.0501  0.1677
 3567SOL    HW122337   4.090   0.625   4.876 -0.1108 -0.2740 -0.1387
 3567SOL    HW222338   4.068   0.481   4.853  0.5009 -0.7792 -2.5945
 3568SOL     OW22339   3.593   2.576   2.002 -0.5177  0.1912  0.1570
 3568SOL    HW122340   3.633   2.498   1.963  0.8101 -0.2369  2.3439
 3568SOL    HW222341   3.499   2.570   1.988 -0.3758  0.8062 -0.9935
 3569SOL     OW22342   0.269   1.085  14.237 -0.7322 -0.8140 -0.1951
 3569SOL    HW122343   0.236   1.016  14.295 -2.6000 -0.6767 -1.0618
 3569SOL    HW222344   0.302   1.022  14.172 -0.1637  0.0796 -0.7652
 3570SOL     OW22345   2.897   0.752   7.090 -0.0201  0.7443  0.5630
 3570SOL    HW122346   2.949   0.760   7.171  0.3110  1.0253  0.3219
 3570SOL    HW222347   2.928   0.671   7.051  0.0471  0.2204  1.6861
 3571SOL     OW22348   2.145   3.480   8.734  0.1454  0.2161 -0.1726
 3571SOL    HW122349   2.231   3.520   8.747  0.4188 -0.1835 -0.7415
 3571SOL    HW222350   2.149   3.411   8.800  0.8762  0.0377 -0.3993
 3572SOL     OW22351   2.622   0.771   9.490 -0.2688  0.0406 -0.0034
 3572SOL    HW122352   2.664   0.764   9.404 -0.4072  0.1700 -0.0814
 3572SOL    HW222353   2.614   0.678   9.508 -1.0388 -0.3010 -2.1335
 3573SOL     OW22354   3.273   2.349   9.769  0.6422  0.3730  0.5021
 3573SOL    HW122355   3.246   2.304   9.849  2.4159  0.3174  1.0829
 3573SOL    HW222356   3.297   2.274   9.714  0.6463 -1.0008  2.3816
 3574SOL     OW22357   2.624   2.655   3.268 -0.2004  0.0943  0.2249
 3574SOL    HW122358   2.582   2.596   3.331 -3.5738  1.2814 -0.9592
 3574SOL    HW222359   2.712   2.633   3.298 -1.0666  1.0500  3.4954
 3575SOL     OW22360   1.608   0.202   7.056 -0.2236  0.2409 -0.1777
 3575SOL    HW122361   1.523   0.230   7.022 -0.5770 -3.2732 -2.1817
 3575SOL    HW222362   1.600   0.107   7.050  1.1354 -0.0315  2.1792
 3576SOL     OW22363   2.670   2.602   3.684  0.3369  0.0251 -0.3627
 3576SOL    HW122364   2.753   2.557   3.700  0.3782 -1.3736 -4.4590
 3576SOL    HW222365   2.699   2.690   3.708 -0.9450  0.2532  0.3925
 3577SOL     OW22366   3.730   4.102   2.775  0.8697 -0.2348  0.4898
 3577SOL    HW122367   3.815   4.069   2.745  0.4986 -2.3502  1.7684
 3577SOL    HW222368   3.672   4.040   2.732  1.2227 -0.0267 -0.2840
 3578SOL     OW22369   0.564   1.992   0.614  0.0687 -0.2065  0.3470
 3578SOL    HW122370   0.582   1.929   0.544 -1.1269  0.9966 -1.0637
 3578SOL    HW222371   0.496   1.941   0.658  0.9272 -1.4833  0.1890
 3579SOL     OW22372   3.810   0.838  10.647  0.4333  0.6474 -0.0708
 3579SOL    HW122373   3.823   0.852  10.554 -0.1672  0.8964 -0.1159
 3579SOL    HW222374   3.715   0.828  10.652  0.5075  0.0170  0.1008
 3580SOL     OW22375   0.381   2.112   7.758 -0.1689  0.3166  0.5630
 3580SOL    HW122376   0.305   2.076   7.713 -0.4591  1.1717  0.3719
 3580SOL    HW222377   0.370   2.205   7.740 -0.2525 -0.2053 -2.0853
 3581SOL     OW22378   4.595   4.503   1.496 -0.4161 -0.0324  0.3967
 3581SOL    HW122379   4.559   4.508   1.585 -0.9712  0.7184  0.1352
 3581SOL    HW222380   4.634   4.587   1.473  0.1403 -0.8573 -1.6889
 3582SOL     OW22381   3.414   1.855   9.240 -0.4322  0.1945 -0.0387
 3582SOL    HW122382   3.478   1.886   9.304 -0.3552 -0.3511  0.1500
 3582SOL    HW222383   3.464   1.802   9.179 -0.6843 -0.4026  0.2737
 3583SOL     OW22384   1.450   4.127   6.982  0.4225 -0.2189  0.0941
 3583SOL    HW122385   1.394   4.049   6.978 -0.3115  0.4216 -1.8793
 3583SOL    HW222386   1.530   4.094   7.024  1.1336 -0.1746 -1.2532
 3584SOL     OW22387   3.258   4.614   6.627  0.1953  0.0340  0.2645
 3584SOL    HW122388   3.336   4.604   6.681  0.2893  2.0546  0.5195
 3584SOL    HW222389   3.265   4.706   6.600 -0.7265 -0.3022 -1.0924
 3585SOL     OW22390   0.977   0.176   7.132 -0.8459  0.3726 -0.7486
 3585SOL    HW122391   1.058   0.128   7.149 -1.3509 -0.3140 -0.2722
 3585SOL    HW222392   0.992   0.248   7.193 -0.6966 -1.4994  1.4076
 3586SOL     OW22393   2.504   4.483   5.784  0.8222 -0.4950 -0.1465
 3586SOL    HW122394   2.541   4.409   5.735  1.3354 -0.4170  0.1176
 3586SOL    HW222395   2.415   4.452   5.798  1.1662 -1.7282 -0.7596
 3587SOL     OW22396   2.506   4.078   2.477  0.1842 -0.5373  0.0032
 3587SOL    HW122397   2.493   4.071   2.382  0.0653 -1.2089  0.0674
 3587SOL    HW222398   2.419   4.056   2.509  0.0667 -1.4745 -0.9455
 3588SOL     OW22399   3.067   3.172  16.783 -0.2740 -0.4038  0.3554
 3588SOL    HW122400   3.083   3.145  16.692 -0.7685  1.4221 -0.2625
 3588SOL    HW222401   3.101   3.261  16.790 -1.6744  0.0990  0.6665
 3589SOL     OW22402   2.489   1.117   6.297  0.2373  0.2965 -0.1489
 3589SOL    HW122403   2.412   1.170   6.318  0.3548 -0.3511  1.8565
 3589SOL    HW222404   2.473   1.118   6.202 -1.5689  1.3681  0.1656
 3590SOL     OW22405   3.606   1.411  10.805 -0.1985 -0.0245  0.1284
 3590SOL    HW122406   3.662   1.410  10.728  0.0620 -1.1127  0.3280
 3590SOL    HW222407   3.522   1.395  10.761 -0.6225  0.0645  0.9026
 3591SOL     OW22408   2.812   0.987   6.008 -0.3426  0.1604 -0.3995
 3591SOL    HW122409   2.776   0.900   6.026 -0.1322 -0.1383 -1.4408
 3591SOL    HW222410   2.732   1.039   6.020 -0.4355 -0.4570  1.5760
 3592SOL     OW22411   2.465   3.335   9.423  0.2146 -0.1090  0.3008
 3592SOL    HW122412   2.382   3.326   9.470  0.0939 -1.1269 -0.1159
 3592SOL    HW222413   2.445   3.418   9.380 -2.8569 -0.7363  0.5801
 3593SOL     OW22414   0.081   1.257   7.658 -0.0104 -0.1822 -0.0228
 3593SOL    HW122415   0.042   1.235   7.573  2.2606 -0.6872 -0.9302
 3593SOL    HW222416   0.051   1.346   7.672  0.3662  0.1631 -1.3770
 3594SOL     OW22417   2.122   0.836   5.572  0.3645 -0.3285 -0.1757
 3594SOL    HW122418   2.096   0.916   5.617  1.3064 -0.4454  0.5918
 3594SOL    HW222419   2.098   0.846   5.480 -0.9187  0.0502  0.2012
 3595SOL     OW22420   0.640   3.009   5.168  0.3859  0.3348  0.1930
 3595SOL    HW122421   0.591   2.977   5.093  1.3042 -1.6941  0.4409
 3595SOL    HW222422   0.638   2.924   5.212  0.1374 -0.0626 -0.5915
 3596SOL     OW22423   0.088   0.407  13.544  0.0599  0.1333  0.5811
 3596SOL    HW122424   0.023   0.452  13.491 -0.9522 -0.0741  1.6307
 3596SOL    HW222425   0.120   0.475  13.603  1.9456  0.9319 -1.3727
 3597SOL     OW22426   2.660   0.209   9.533  0.1014  0.4923 -0.1919
 3597SOL    HW122427   2.748   0.208   9.496  1.2100 -1.9406  2.4819
 3597SOL    HW222428   2.675   0.191   9.626 -0.6936  0.1235 -0.1344
 3598SOL     OW22429   1.986   0.875  11.273  0.0874 -0.0989 -0.2526
 3598SOL    HW122430   1.992   0.947  11.336 -1.7847  1.8113 -2.2360
 3598SOL    HW222431   1.999   0.799  11.329  0.7240  0.3459  0.1975
 3599SOL     OW22432   1.884   1.200  13.487  0.5137 -0.4501 -0.0846
 3599SOL    HW122433   1.805   1.254  13.484  1.4493  1.0140  1.8774
 3599SOL    HW222434   1.914   1.208  13.577 -1.3828  3.0799  0.1939
 3600SOL     OW22435   4.528   4.423   8.251 -0.2689 -0.7085 -0.0362
 3600SOL    HW122436   4.545   4.354   8.187  1.4802 -1.6006  1.4044
 3600SOL    HW222437   4.616   4.460   8.255 -0.6845  0.2844  0.0847
 3601SOL     OW22438   2.801   0.359   2.138  0.3572 -0.1040 -0.2060
 3601SOL    HW122439   2.758   0.345   2.222 -1.6462  2.2116 -0.8333
 3601SOL    HW222440   2.864   0.288   2.133  2.3652  1.5527  1.2853
 3602SOL     OW22441   4.240   0.231  11.524  0.5451 -0.4248  0.0317
 3602SOL    HW122442   4.321   0.212  11.571 -0.6588 -0.9383  1.8966
 3602SOL    HW222443   4.230   0.163  11.458 -1.6981 -0.2073  0.1557
 3603SOL     OW22444   2.365   4.691   8.223 -0.0706 -0.1225 -0.1871
 3603SOL    HW122445   2.384   4.620   8.284 -1.3547  1.2630  1.8160
 3603SOL    HW222446   2.269   4.695   8.227 -0.0386  0.5933 -0.0116
 3604SOL     OW22447   3.837   2.054  12.509  0.4235 -0.3659 -0.4544
 3604SOL    HW122448   3.794   2.049  12.423  0.0975 -0.2157 -0.2960
 3604SOL    HW222449   3.913   2.106  12.482  1.0243 -1.1791 -0.3622
 3605SOL     OW22450   4.368   4.671   4.517  0.0298  0.2178  0.2348
 3605SOL    HW122451   4.375   4.601   4.452 -2.1893 -1.4936  1.8203
 3605SOL    HW222452   4.351   0.001   4.452  2.2293  0.5480  0.0188
 3606SOL     OW22453   1.421   1.761   4.799 -0.2258  0.1626 -0.1494
 3606SOL    HW122454   1.499   1.797   4.758 -0.3530  0.5670 -0.0397
 3606SOL    HW222455   1.456   1.695   4.858  1.1929  0.8121 -0.2642
 3607SOL     OW22456   2.363   3.571   3.420 -0.4183  0.5309  0.5031
 3607SOL    HW122457   2.439   3.612   3.461  1.2086 -0.7734 -1.1681
 3607SOL    HW222458   2.393   3.486   3.388 -2.5068 -0.0330  0.0778
 3608SOL     OW22459   1.511   1.151   2.538 -0.3955 -0.3382 -0.2892
 3608SOL    HW122460   1.535   1.217   2.472  2.6476 -0.8726  0.3013
 3608SOL    HW222461   1.458   1.200   2.600 -0.8268  1.1131 -1.8078
 3609SOL     OW22462   0.586   3.448   9.213  0.0410  0.3170  0.6383
 3609SOL    HW122463   0.652   3.414   9.153 -1.4734  1.2858 -1.5920
 3609SOL    HW222464   0.542   3.367   9.239  1.9364 -0.3727  1.6689
 3610SOL     OW22465   0.109   3.037  16.600  0.2234 -0.3328 -0.0241
 3610SOL    HW122466   0.067   3.104  16.655 -0.4114 -1.6471  1.0766
 3610SOL    HW222467   0.197   3.026  16.636 -0.0309 -1.2568  0.2971
 3611SOL     OW22468   4.454   0.420   4.682 -0.0781  0.0553 -0.1060
 3611SOL    HW122469   4.454   0.371   4.600 -0.4474 -0.6439  0.3073
 3611SOL    HW222470   4.361   0.421   4.706  0.7224  0.2974  2.9762
 3612SOL     OW22471   4.449   3.248  13.603 -0.4941  0.0341  0.0705
 3612SOL    HW122472   4.448   3.218  13.512 -0.3595 -0.5085  0.2443
 3612SOL    HW222473   4.483   3.337  13.600 -0.1331 -0.0746  0.8037
 3613SOL     OW22474   4.540   1.105   0.202 -0.9870 -0.3895  0.4338
 3613SOL    HW122475   4.624   1.067   0.230  0.0975  2.7302  1.5106
 3613SOL    HW222476   4.495   1.024   0.181 -1.2497 -0.5374  1.5874
 3614SOL     OW22477   0.920   3.950   5.133  0.0338  0.2960 -0.0493
 3614SOL    HW122478   0.937   3.975   5.224 -0.2405 -0.3135  0.1704
 3614SOL    HW222479   1.004   3.960   5.088 -0.3521  1.2774 -0.5683
 3615SOL     OW22480   1.371   0.192   7.945 -0.7006 -0.1667 -0.2016
 3615SOL    HW122481   1.350   0.284   7.929  0.8550  0.2207  0.0127
 3615SOL    HW222482   1.416   0.188   8.029  1.6481  0.1779 -1.4542
 3616SOL     OW22483   1.751   4.412   8.589  0.1018 -0.4179  0.0897
 3616SOL    HW122484   1.824   4.457   8.632  0.7195 -0.4556 -0.9093
 3616SOL    HW222485   1.800   4.342   8.544  2.7459  0.6026  1.3600
 3617SOL     OW22486   0.791   2.179  13.697  0.3849  0.1336 -0.2488
 3617SOL    HW122487   0.733   2.127  13.643  1.0036  0.3197 -1.0921
 3617SOL    HW222488   0.755   2.164  13.785  0.8909 -1.6422 -0.3539
 3618SOL     OW22489   0.270   3.437  13.969 -0.2513  0.2421  0.2866
 3618SOL    HW122490   0.234   3.402  14.051 -0.5945 -0.0822 -0.0029
 3618SOL    HW222491   0.317   3.358  13.943  0.2206  0.8850 -0.8129
 3619SOL     OW22492   4.263   2.563   2.200 -0.6018 -0.2108  0.0133
 3619SOL    HW122493   4.209   2.626   2.249  0.9041  0.7279  0.4571
 3619SOL    HW222494   4.272   2.621   2.125  0.2684  1.4227  1.3737
 3620SOL     OW22495   4.646   2.434   8.678  0.3199  0.2583  0.0258
 3620SOL    HW122496   4.636   2.507   8.618  1.9862 -0.9911 -1.7865
 3620SOL    HW222497   4.737   2.437   8.709  0.1399 -0.1546  0.5954
 3621SOL     OW22498   1.537   4.014   7.724  0.1965  0.4185 -0.6430
 3621SOL    HW122499   1.484   4.070   7.666 -1.1819  2.4252  2.5235
 3621SOL    HW222500   1.623   4.053   7.734 -0.0439  0.9799 -0.7462
 3622SOL     OW22501   4.033   1.481   6.706  0.1982  0.3930 -0.1810
 3622SOL    HW122502   4.007   1.390   6.691 -0.0292  0.4216  0.0421
 3622SOL    HW222503   4.109   1.461   6.760 -1.1752 -1.2888  1.1411
 3623SOL     OW22504   2.351   2.991   2.321  0.1294  0.5461 -0.3690
 3623SOL    HW122505   2.393   3.076   2.333  0.2368  0.0332  2.9720
 3623SOL    HW222506   2.321   2.995   2.230 -0.1444 -0.4577 -0.3168
 3624SOL     OW22507   1.961   1.899   1.739 -0.1113  0.5181 -0.7742
 3624SOL    HW122508   1.877   1.862   1.763  0.0927 -1.6857 -3.4994
 3624SOL    HW222509   2.003   1.821   1.702 -0.7641 -1.4588  2.6411
 3625SOL     OW22510   0.631   4.617  15.490  0.5381  0.3217  0.2213
 3625SOL    HW122511   0.554   4.663  15.526  1.2208 -0.1573  2.2897
 3625SOL    HW222512   0.672   4.595  15.573  1.1952 -1.0082 -0.4585
 3626SOL     OW22513   1.289   0.382  14.889  0.1655 -0.3614 -0.0200
 3626SOL    HW122514   1.381   0.408  14.900 -0.3161  1.9926 -1.5356
 3626SOL    HW222515   1.245   0.409  14.970  0.4369  0.8249 -0.2700
 3627SOL     OW22516   3.273   3.523   1.400 -0.3826  0.5757 -0.4524
 3627SOL    HW122517   3.180   3.516   1.419  0.1827  1.4316  2.5383
 3627SOL    HW222518   3.294   3.561   1.485  0.3587 -0.6557 -0.0907
 3628SOL     OW22519   3.809   1.496   2.335 -0.1763  0.2928 -0.5340
 3628SOL    HW122520   3.741   1.562   2.343 -0.6560 -0.4113  1.1568
 3628SOL    HW222521   3.796   1.478   2.242  2.9187 -1.4634 -0.6392
 3629SOL     OW22522   3.884   2.346   9.135  1.1531  0.6789 -0.0735
 3629SOL    HW122523   3.860   2.416   9.196  0.7602  2.0431 -1.7918
 3629SOL    HW222524   3.970   2.326   9.171  0.5255 -0.2079  0.9294
 3630SOL     OW22525   1.327   1.874   3.100 -0.1160 -0.0690 -0.1244
 3630SOL    HW122526   1.279   1.939   3.048  0.1166  0.3841  0.2305
 3630SOL    HW222527   1.320   1.893   3.193 -1.6615  0.8366 -0.4286
 3631SOL     OW22528   4.137   2.224  11.908  0.2993  0.0450 -0.3660
 3631SOL    HW122529   4.203   2.181  11.962 -1.4432 -0.3851  1.4406
 3631SOL    HW222530   4.096   2.282  11.973 -2.4350 -2.0953 -0.1522
 3632SOL     OW22531   1.712   3.488   2.513 -0.0131 -0.0293 -0.1579
 3632SOL    HW122532   1.780   3.421   2.505  0.0616 -0.0584  0.6884
 3632SOL    HW222533   1.636   3.432   2.495  1.3260 -1.9576  0.1449
 3633SOL     OW22534   4.314   0.907  12.900  0.3250 -0.1058  0.1754
 3633SOL    HW122535   4.263   0.842  12.948  0.5032 -0.5478 -0.2321
 3633SOL    HW222536   4.293   0.876  12.812 -0.0581 -2.8125  1.2318
 3634SOL     OW22537   3.891   3.393   2.599  0.3488 -0.1870  0.1477
 3634SOL    HW122538   3.977   3.433   2.615  1.2655 -2.0175 -0.1946
 3634SOL    HW222539   3.888   3.335   2.676  1.6694 -1.8706 -1.0652
 3635SOL     OW22540   2.657   4.567  12.381 -0.8558  0.1897  0.4892
 3635SOL    HW122541   2.660   4.636  12.447 -0.6628  0.7961 -0.1594
 3635SOL    HW222542   2.631   4.614  12.302  0.4409 -0.7241 -0.4729
 3636SOL     OW22543   4.074   3.129  11.672 -0.4146  0.4563 -0.2216
 3636SOL    HW122544   4.011   3.097  11.737 -0.0444  0.5001  0.1562
 3636SOL    HW222545   4.013   3.138  11.598  1.2131  1.1490 -1.4729
 3637SOL     OW22546   3.941   2.637   5.561  0.3056  0.2660  0.0772
 3637SOL    HW122547   3.876   2.590   5.508  2.3301  1.0833 -3.0706
 3637SOL    HW222548   4.025   2.602   5.532 -1.0287 -1.8729 -1.1681
 3638SOL     OW22549   0.959   1.780   6.374 -0.2909  0.4180  0.2238
 3638SOL    HW122550   0.896   1.758   6.442 -2.8950  0.9678 -1.9964
 3638SOL    HW222551   0.982   1.691   6.345  0.8627 -0.0668  2.6515
 3639SOL     OW22552   4.570   0.793   0.218 -0.4072  0.7853 -0.4072
 3639SOL    HW122553   4.550   0.749   0.135 -0.1532 -0.7130  0.3147
 3639SOL    HW222554   4.542   0.722   0.277  1.2973 -2.5623 -3.6354
 3640SOL     OW22555   4.699   2.744   1.538  0.3915 -0.3998  0.6522
 3640SOL    HW122556   4.694   2.653   1.508 -1.3763 -0.4707  1.1445
 3640SOL    HW222557   0.052   2.769   1.536  0.8368 -2.0236  1.0171
 3641SOL     OW22558   1.611   1.752   4.072 -0.1708  0.1709  0.6861
 3641SOL    HW122559   1.670   1.814   4.030  0.0244  0.5026  1.4534
 3641SOL    HW222560   1.599   1.808   4.149 -0.4822  0.2941  0.5479
 3642SOL     OW22561   0.246   1.709   3.213 -0.4167  0.0024 -0.1368
 3642SOL    HW122562   0.282   1.622   3.229  0.6100  0.6599  1.1788
 3642SOL    HW222563   0.208   1.709   3.125 -2.4614 -2.7838  0.7674
 3643SOL     OW22564   1.471   4.512   1.208 -0.1379  0.4259 -0.6087
 3643SOL    HW122565   1.528   4.460   1.150 -1.0446 -1.3933  0.1347
 3643SOL    HW222566   1.407   4.543   1.145 -1.2922 -2.0849 -0.6760
 3644SOL     OW22567   0.527   4.510   8.484  0.0438  0.9496 -0.5963
 3644SOL    HW122568   0.602   4.569   8.472  1.1394 -0.1282  0.9920
 3644SOL    HW222569   0.566   4.427   8.511  2.2084  2.2996  0.4679
 3645SOL     OW22570   4.141   1.577  11.588  0.0302  0.1240 -0.5273
 3645SOL    HW122571   4.155   1.500  11.532  0.7474 -2.2206  2.9161
 3645SOL    HW222572   4.181   1.537  11.665 -2.6975  0.5685  1.1270
 3646SOL     OW22573   0.938   0.787   0.815 -0.8860 -0.0820  0.1332
 3646SOL    HW122574   1.015   0.843   0.819 -1.1996  0.4703 -1.3772
 3646SOL    HW222575   0.935   0.796   0.720  2.4665 -1.1362 -0.0410
 3647SOL     OW22576   4.514   2.409   7.098  0.2800  0.1733  0.0945
 3647SOL    HW122577   4.604   2.429   7.070  0.5122 -1.4695 -0.3636
 3647SOL    HW222578   4.469   2.492   7.114  1.1614  0.5116  0.8139
 3648SOL     OW22579   3.935   2.224  16.993  0.1048  0.1118  0.8157
 3648SOL    HW122580   4.013   2.253  17.040  0.3597  1.2241 -0.2966
 3648SOL    HW222581   3.910   2.313  16.968  0.3036 -0.4831 -1.4700
 3649SOL     OW22582   1.621   3.571   6.889  0.0985  0.1120 -0.3262
 3649SOL    HW122583   1.689   3.504   6.887 -0.0202 -0.0269  0.3714
 3649SOL    HW222584   1.600   3.571   6.983  2.2151 -0.6784  0.1541
 3650SOL     OW22585   1.140   1.732   2.740  0.0716 -0.6347 -0.5052
 3650SOL    HW122586   1.104   1.672   2.806  2.0000 -0.9961  0.2063
 3650SOL    HW222587   1.069   1.767   2.686 -1.4210  1.0636  2.5610
 3651SOL     OW22588   1.206   3.044   3.857  0.0858 -0.0241 -0.1489
 3651SOL    HW122589   1.235   3.129   3.825  0.0166 -0.0994 -0.4146
 3651SOL    HW222590   1.178   2.996   3.779 -2.5781 -0.3462  1.0191
 3652SOL     OW22591   4.291   0.863  11.235 -0.2495  0.2759  0.4902
 3652SOL    HW122592   4.358   0.883  11.170 -1.5537  2.8836 -0.0555
 3652SOL    HW222593   4.353   0.825  11.298 -1.9300 -0.7237  1.5561
 3653SOL     OW22594   3.862   0.513   7.982 -0.4792  0.6455  0.2112
 3653SOL    HW122595   3.863   0.523   7.886 -0.0170 -1.2236  0.0394
 3653SOL    HW222596   3.944   0.466   7.994 -0.7408  0.2323  0.3626
 3654SOL     OW22597   2.700   0.765   9.770 -0.2454 -0.4163  0.4749
 3654SOL    HW122598   2.785   0.807   9.783 -0.3327  0.3041 -1.3361
 3654SOL    HW222599   2.704   0.745   9.676  0.7334 -0.9178  0.6225
 3655SOL     OW22600   3.998   3.870   3.312 -0.5317  0.3177  0.2251
 3655SOL    HW122601   3.916   3.851   3.268 -0.5249  3.1879 -1.0323
 3655SOL    HW222602   4.057   3.821   3.255  2.4027  0.7818  2.8466
 3656SOL     OW22603   2.410   3.489   6.336  0.4026  0.1302 -0.1850
 3656SOL    HW122604   2.417   3.465   6.244 -1.0849 -0.0342 -0.2609
 3656SOL    HW222605   2.340   3.554   6.333 -0.9102 -1.3219 -1.3283
 3657SOL     OW22606   0.332   1.420   9.292  0.5317  0.0207 -0.4108
 3657SOL    HW122607   0.282   1.485   9.341 -0.0700 -0.7921  0.0387
 3657SOL    HW222608   0.267   1.391   9.229 -0.1247  0.9379 -0.1441
 3658SOL     OW22609   2.064   4.485   9.657  0.0096 -0.1411  0.5525
 3658SOL    HW122610   1.988   4.533   9.690  1.0695  1.1708  1.1155
 3658SOL    HW222611   2.055   4.409   9.714 -0.0182  0.2089  1.0112
 3659SOL     OW22612   0.598   0.749   2.404 -0.1311 -0.0829  0.6688
 3659SOL    HW122613   0.515   0.753   2.357  1.3719  0.1968 -1.9430
 3659SOL    HW222614   0.647   0.817   2.358 -2.0631  1.3952  0.7811
 3660SOL     OW22615   3.715   4.492  13.380 -0.0837  0.3788  0.6563
 3660SOL    HW122616   3.624   4.474  13.355  0.8146  1.9646 -3.8684
 3660SOL    HW222617   3.713   4.454  13.467  0.1509 -1.6734 -0.2435
 3661SOL     OW22618   4.599   2.557  13.612 -0.0040  0.6047  0.1970
 3661SOL    HW122619   4.516   2.554  13.659 -0.8953  0.1224 -1.4198
 3661SOL    HW222620   4.577   2.487  13.551 -1.8887  0.7802  0.6577
 3662SOL     OW22621   4.152   4.448   1.530  0.0466  0.2761  0.6653
 3662SOL    HW122622   4.223   4.386   1.514 -1.1790 -1.9898  3.9017
 3662SOL    HW222623   4.168   4.506   1.456  0.4384 -0.7196 -0.0182
 3663SOL     OW22624   4.363   1.545  14.321  0.3159  0.2115  0.0836
 3663SOL    HW122625   4.415   1.592  14.256 -0.2724  0.1013 -0.4720
 3663SOL    HW222626   4.349   1.612  14.387  1.7685 -1.0583  1.6990
 3664SOL     OW22627   3.631   2.864  15.390  0.1811  0.0024  0.0923
 3664SOL    HW122628   3.606   2.908  15.309 -1.0917 -2.1201 -0.6768
 3664SOL    HW222629   3.667   2.944  15.429  0.4438  0.7568 -1.7241
 3665SOL     OW22630   2.862   1.405  16.064  0.0941 -0.3990  0.6610
 3665SOL    HW122631   2.949   1.427  16.032  0.3071 -1.3777  0.5540
 3665SOL    HW222632   2.808   1.419  15.987  0.3917 -2.2788  0.1049
 3666SOL     OW22633   3.997   1.346   8.222  0.1955  0.8557  0.0120
 3666SOL    HW122634   4.001   1.363   8.316  0.6938 -0.3902  0.2086
 3666SOL    HW222635   4.076   1.293   8.219  0.5016  1.1872  1.9220
 3667SOL     OW22636   2.630   3.138   3.969 -0.8209  0.0441 -0.1105
 3667SOL    HW122637   2.610   3.045   3.962 -0.7040  0.1221 -1.3979
 3667SOL    HW222638   2.629   3.174   3.881  1.5263 -0.8926 -0.5305
 3668SOL     OW22639   1.275   0.359   2.933 -0.1078 -0.2156  0.4602
 3668SOL    HW122640   1.317   0.299   2.871 -0.2461  1.9207 -1.6917
 3668SOL    HW222641   1.348   0.379   2.992  0.9860  1.4335 -1.4836
 3669SOL     OW22642   2.859   3.800   4.425  0.4541  0.1282  0.1814
 3669SOL    HW122643   2.824   3.727   4.478  1.7784  0.6043  1.7146
 3669SOL    HW222644   2.953   3.796   4.440  0.3401  1.1706  1.1711
 3670SOL     OW22645   2.691   2.043   3.835 -0.3190  0.2173 -0.3721
 3670SOL    HW122646   2.633   1.969   3.853 -1.7359  1.3326 -0.4314
 3670SOL    HW222647   2.653   2.109   3.893  0.3389  0.7753 -0.5730
 3671SOL     OW22648   2.349   0.853   2.483 -0.3625 -0.5622  0.2962
 3671SOL    HW122649   2.395   0.772   2.462  1.0963  0.3374  0.0954
 3671SOL    HW222650   2.269   0.842   2.431  0.5460  0.7135 -1.3425
 3672SOL     OW22651   0.356   3.635   8.283 -0.7980  0.1728  0.1579
 3672SOL    HW122652   0.360   3.545   8.251 -0.8119  1.0874 -2.4403
 3672SOL    HW222653   0.383   3.623   8.374  2.4113 -2.0415 -1.0568
 3673SOL     OW22654   1.090   0.814   6.827 -0.2612  0.8591 -0.0319
 3673SOL    HW122655   1.163   0.874   6.841 -0.7896  1.3905  0.4813
 3673SOL    HW222656   1.123   0.749   6.766 -2.1797 -0.1687  0.0288
 3674SOL     OW22657   4.737   1.663   2.308  0.7763 -0.0193 -0.0717
 3674SOL    HW122658   4.707   1.744   2.350 -2.4517 -2.5872  2.4895
 3674SOL    HW222659   0.065   1.692   2.246  1.0509 -1.5940 -0.5168
 3675SOL     OW22660   1.971   3.022  10.589  0.9038 -0.4220 -0.1282
 3675SOL    HW122661   1.926   2.938  10.589  0.1109 -0.0037  3.6148
 3675SOL    HW222662   1.966   3.045  10.682 -0.6358 -2.1837  0.2164
 3676SOL     OW22663   4.229   0.341   4.870  0.1133 -0.4100  0.2562
 3676SOL    HW122664   4.249   0.255   4.833  2.0980  0.6260 -1.0383
 3676SOL    HW222665   4.197   0.329   4.959  0.4159 -0.7269  0.3202
 3677SOL     OW22666   1.358   2.837   3.522 -0.6613 -0.0277 -0.4294
 3677SOL    HW122667   1.419   2.766   3.499 -0.6612 -0.1843  0.0649
 3677SOL    HW222668   1.339   2.881   3.439  1.6902  2.5039  0.3527
 3678SOL     OW22669   2.868   0.877   4.699 -0.0621 -0.0513 -0.0529
 3678SOL    HW122670   2.777   0.889   4.728 -0.1269 -2.0285  0.5531
 3678SOL    HW222671   2.855   0.855   4.607  0.1782 -0.6846  0.0711
 3679SOL     OW22672   4.673   4.609  10.538  0.4720  0.2406  0.4328
 3679SOL    HW122673   0.023   4.643  10.545  0.5641 -0.0679  0.8167
 3679SOL    HW222674   4.645   4.588  10.628  0.3167 -0.2539  0.2680
 3680SOL     OW22675   3.683   0.635   1.827  0.4074  0.0566  0.0816
 3680SOL    HW122676   3.735   0.618   1.748  0.9081  0.0691  0.4103
 3680SOL    HW222677   3.678   0.730   1.825 -2.6909 -0.0604  2.3247
 3681SOL     OW22678   2.342   3.185   1.621  0.0175 -0.5330 -0.4139
 3681SOL    HW122679   2.417   3.244   1.625 -1.1931  0.9893  0.1039
 3681SOL    HW222680   2.340   3.169   1.526 -1.4816  2.1125 -0.8480
 3682SOL     OW22681   1.130   4.408  12.925  0.7400  0.4461 -0.1295
 3682SOL    HW122682   1.069   4.409  12.851 -3.4511  2.9643  3.4008
 3682SOL    HW222683   1.213   4.422  12.879  0.5360  0.0517 -0.6168
 3683SOL     OW22684   0.890   2.129   7.091 -0.4872  0.0622 -0.3274
 3683SOL    HW122685   0.899   2.176   7.174 -1.4457  0.0165 -0.1956
 3683SOL    HW222686   0.808   2.161   7.052 -2.3073 -1.3807  2.3361
 3684SOL     OW22687   2.625   2.795  15.565  0.4852  0.2449 -0.1316
 3684SOL    HW122688   2.637   2.791  15.471 -0.8298  0.6297 -0.3060
 3684SOL    HW222689   2.593   2.708  15.587 -0.8424  1.1294  1.4637
 3685SOL     OW22690   3.375   1.286   1.731  0.5691  0.1729  0.1007
 3685SOL    HW122691   3.407   1.226   1.664  1.0143  0.4675  0.0510
 3685SOL    HW222692   3.313   1.340   1.681  1.1965  1.1860  0.4166
 3686SOL     OW22693   4.109   2.886   4.762 -0.1904  0.1357  1.0174
 3686SOL    HW122694   4.023   2.860   4.797 -0.5078  1.3755  1.1403
 3686SOL    HW222695   4.137   2.963   4.811  0.2972  1.3303 -1.1550
 3687SOL     OW22696   1.881   0.224  16.067 -0.2104 -0.5951  0.0847
 3687SOL    HW122697   1.936   0.177  16.004 -1.5082 -0.9368 -0.8069
 3687SOL    HW222698   1.831   0.153  16.108 -0.5303 -0.6304 -0.3639
 3688SOL     OW22699   1.531   0.366  13.383  0.3440 -0.2603 -0.4481
 3688SOL    HW122700   1.482   0.293  13.421 -2.2524  2.0499  0.5963
 3688SOL    HW222701   1.589   0.316  13.326  4.1848  1.8451  1.6650
 3689SOL     OW22702   0.646   3.129  13.118  0.0058 -0.1948  0.0337
 3689SOL    HW122703   0.632   3.169  13.205  0.3464  0.3885 -0.1750
 3689SOL    HW222704   0.700   3.202  13.088 -0.9489  0.5761  0.1686
 3690SOL     OW22705   1.966   1.015   8.657  0.4292  0.1555 -0.1178
 3690SOL    HW122706   2.018   0.960   8.717 -1.6826 -0.5436  1.0576
 3690SOL    HW222707   1.891   0.956   8.656  0.3774  0.1506  3.0608
 3691SOL     OW22708   4.640   3.121   8.168 -0.2330 -0.5344  0.3223
 3691SOL    HW122709   4.716   3.137   8.225  0.4004  1.1867 -1.0044
 3691SOL    HW222710   4.577   3.079   8.227 -0.0253 -0.8556  0.3133
 3692SOL     OW22711   3.355   3.526   7.708 -0.3683 -0.1463  0.2439
 3692SOL    HW122712   3.410   3.451   7.730  0.7308  0.4373 -0.4305
 3692SOL    HW222713   3.326   3.517   7.617 -0.3805  1.0248  0.1237
 3693SOL     OW22714   0.274   4.406   4.297 -0.1178  0.1121  0.3425
 3693SOL    HW122715   0.243   4.445   4.215 -1.5939  1.6626  1.6442
 3693SOL    HW222716   0.291   4.316   4.270 -0.3632 -0.1762  1.1400
 3694SOL     OW22717   3.135   1.776   7.338  0.0746  0.3931 -0.3949
 3694SOL    HW122718   3.230   1.788   7.339 -0.0556  1.0919  2.4740
 3694SOL    HW222719   3.125   1.688   7.376  1.1570  1.5086  2.4629
 3695SOL     OW22720   2.533   1.642   7.399 -0.4810 -0.2711  0.2419
 3695SOL    HW122721   2.520   1.557   7.440  0.4070 -1.0455 -1.0955
 3695SOL    HW222722   2.620   1.630   7.360  0.9357  0.9015  3.0150
 3696SOL     OW22723   4.069   2.982   5.178  0.2531  0.4636  0.2156
 3696SOL    HW122724   4.043   2.898   5.139 -0.4756  0.7486  0.0940
 3696SOL    HW222725   4.061   2.959   5.271  1.3409 -2.1920 -0.3321
 3697SOL     OW22726   0.431   3.797  10.165 -0.6008  0.2702 -0.0802
 3697SOL    HW122727   0.446   3.865  10.100  3.6511 -0.7611 -0.1651
 3697SOL    HW222728   0.482   3.728  10.123 -0.4959  1.7839 -2.4161
 3698SOL     OW22729   0.841   3.357   0.010  0.1923  0.2090  0.0348
 3698SOL    HW122730   0.911   3.368  17.699  1.3435  0.4398  1.3585
 3698SOL    HW222731   0.878   3.289   0.065  1.5278  1.6237  0.8839
 3699SOL     OW22732   3.979   3.463   9.949  0.0705 -0.1892  0.4045
 3699SOL    HW122733   4.058   3.489   9.995 -1.1909 -0.4511  2.7217
 3699SOL    HW222734   3.911   3.508   9.998 -0.3433 -0.2574 -0.0990
 3700SOL     OW22735   2.419   3.116   8.696  0.3397  0.4780 -0.5626
 3700SOL    HW122736   2.457   3.132   8.783 -0.3686 -1.1128  0.0479
 3700SOL    HW222737   2.391   3.200   8.661  0.1537  0.3490 -0.7240
 3701SOL     OW22738   2.818   1.316  10.801  0.0280 -0.1749 -0.4798
 3701SOL    HW122739   2.756   1.381  10.769  0.7848  1.5064  1.4605
 3701SOL    HW222740   2.853   1.363  10.877 -0.7993 -0.5276  0.1179
 3702SOL     OW22741   2.368   1.028   5.829 -0.5866 -0.3859  0.5113
 3702SOL    HW122742   2.441   1.017   5.768 -2.1316 -2.1149 -1.0573
 3702SOL    HW222743   2.328   1.103   5.783 -0.3932 -0.2478  0.5714
 3703SOL     OW22744   3.205   1.400   7.693 -0.0775  0.0533  0.2119
 3703SOL    HW122745   3.124   1.446   7.714  0.0353  0.0829  0.5749
 3703SOL    HW222746   3.240   1.404   7.781  2.0171  1.2380 -0.6792
 3704SOL     OW22747   0.886   3.303   4.394 -0.0984 -0.2337  0.0800
 3704SOL    HW122748   0.925   3.218   4.415 -0.4338 -0.3142  0.3864
 3704SOL    HW222749   0.799   3.275   4.363 -0.5153  1.8119 -0.5559
 3705SOL     OW22750   1.977   2.470   1.999  0.4473 -0.4528 -0.5295
 3705SOL    HW122751   1.994   2.533   2.070  0.8697  1.3813 -2.2668
 3705SOL    HW222752   2.017   2.389   2.030  0.8248  1.1935  3.2754
 3706SOL     OW22753   0.712   1.708  12.501 -0.2487 -0.4735 -0.4630
 3706SOL    HW122754   0.799   1.747  12.510 -1.2178  1.7762 -1.0571
 3706SOL    HW222755   0.692   1.720  12.408  1.9674  0.1977 -0.8641
 3707SOL     OW22756   3.219   1.692   7.944  0.0968 -0.6275  0.3790
 3707SOL    HW122757   3.275   1.746   7.999 -0.5781  0.7502 -0.3044
 3707SOL    HW222758   3.258   1.604   7.950 -1.8654 -1.5492 -0.4659
 3708SOL     OW22759   1.099   0.105   3.357  0.2951 -0.5371  0.2932
 3708SOL    HW122760   1.138   0.152   3.284 -0.9222 -0.6051 -0.3960
 3708SOL    HW222761   1.153   0.134   3.431  0.7245  1.5221 -0.8341
 3709SOL     OW22762   1.002   1.550   4.386  0.4400  0.2284 -0.0172
 3709SOL    HW122763   1.097   1.541   4.394  0.5415  0.7063 -0.6542
 3709SOL    HW222764   0.983   1.479   4.324 -1.5421  1.4350 -0.8110
 3710SOL     OW22765   3.005   3.303   9.201 -0.0616 -0.1658 -0.6458
 3710SOL    HW122766   2.916   3.320   9.232  1.4152  2.3769  2.2519
 3710SOL    HW222767   2.991   3.255   9.120  0.0591 -0.6675 -0.3678
 3711SOL     OW22768   2.078   2.796   6.106 -0.1312 -0.5298 -0.6253
 3711SOL    HW122769   2.058   2.733   6.175 -1.0375 -1.0747 -1.3867
 3711SOL    HW222770   2.127   2.862   6.156  0.9961 -2.7283  1.1639
 3712SOL     OW22771   3.488   2.753   5.584  0.3024 -0.7593  0.4670
 3712SOL    HW122772   3.548   2.815   5.543 -0.5309  1.4233  2.4847
 3712SOL    HW222773   3.545   2.677   5.581  0.1900 -0.8062 -0.5079
 3713SOL     OW22774   1.911   4.179   3.474 -0.3255  0.2643  0.2605
 3713SOL    HW122775   1.838   4.228   3.437  0.9130  1.1240 -1.0221
 3713SOL    HW222776   1.964   4.160   3.397  0.6851  0.3993  0.9199
 3714SOL     OW22777   0.460   0.064   8.087 -0.0693 -0.1524 -0.0136
 3714SOL    HW122778   0.450   4.713   8.055  0.9666  0.1446 -1.1543
 3714SOL    HW222779   0.545   0.051   8.130 -1.0620 -1.3699  1.6111
 3715SOL     OW22780   2.090   4.719   2.683 -0.3604 -0.0282 -0.3736
 3715SOL    HW122781   2.158   4.652   2.692 -1.7292 -1.1735  1.5566
 3715SOL    HW222782   2.100   0.025   2.767  1.4726 -0.8271 -0.1553
 3716SOL     OW22783   2.738   2.800   4.069 -0.2093  0.6288 -0.2217
 3716SOL    HW122784   2.682   2.754   4.131  0.1971  1.6874  0.9247
 3716SOL    HW222785   2.807   2.838   4.123 -1.1144 -1.4633  2.3970
 3717SOL     OW22786   3.136   1.281  10.047 -0.5931 -0.3043 -0.8137
 3717SOL    HW122787   3.133   1.365  10.092 -0.0417 -0.9947  0.5105
 3717SOL    HW222788   3.177   1.301   9.962 -0.7769  1.0412 -0.5924
 3718SOL     OW22789   4.162   3.828   1.461 -0.1497 -0.2053 -0.0111
 3718SOL    HW122790   4.122   3.791   1.382 -2.1451  2.2139 -0.1223
 3718SOL    HW222791   4.116   3.777   1.528 -0.3535  0.2627  0.2093
 3719SOL     OW22792   3.205   2.246  10.935 -0.6071 -0.3602 -0.1093
 3719SOL    HW122793   3.150   2.226  11.011 -2.5924  3.8211 -0.4837
 3719SOL    HW222794   3.145   2.295  10.880 -3.2999 -0.4261  2.7841
 3720SOL     OW22795   1.063   1.271   4.601 -0.5663  0.4689 -0.1716
 3720SOL    HW122796   1.033   1.219   4.675  1.3759 -0.2861  0.0625
 3720SOL    HW222797   1.008   1.350   4.605 -0.3217  0.7473 -2.4908
 3721SOL     OW22798   0.446   0.355  16.912 -0.4388  0.1288  0.3266
 3721SOL    HW122799   0.490   0.280  16.871 -1.3048  0.0476 -0.4357
 3721SOL    HW222800   0.361   0.345  16.871  0.0948 -0.1045 -0.7304
 3722SOL     OW22801   3.686   1.334   4.693  0.0728 -0.3681  0.1543
 3722SOL    HW122802   3.660   1.255   4.644 -0.1183 -1.0199  1.2876
 3722SOL    HW222803   3.654   1.314   4.782 -0.0995  0.2500  0.2283
 3723SOL     OW22804   2.791   4.509  11.412  0.0876 -0.5108  0.0150
 3723SOL    HW122805   2.744   4.451  11.352 -0.8749 -0.7236  0.9870
 3723SOL    HW222806   2.842   4.445  11.462 -0.1148  1.0109  2.1714
 3724SOL     OW22807   2.232   2.023  11.045  0.4537 -0.2302  0.9918
 3724SOL    HW122808   2.205   2.099  11.097 -0.5151 -0.6411  1.0893
 3724SOL    HW222809   2.218   2.077  10.967 -1.5053 -2.3710 -0.1337
 3725SOL     OW22810   2.031   4.404  14.056 -0.4888  0.0380  0.3524
 3725SOL    HW122811   1.982   4.481  14.028 -3.0327 -0.7473  2.6028
 3725SOL    HW222812   2.110   4.445  14.090 -1.0029  0.0656  1.5215
 3726SOL     OW22813   4.428   2.778   3.924  0.2565 -0.7507 -0.0358
 3726SOL    HW122814   4.369   2.853   3.918  1.3954  0.1096 -0.4084
 3726SOL    HW222815   4.378   2.708   3.882 -2.2020  1.9384 -1.5825
 3727SOL     OW22816   1.212   2.899  13.204  0.2444 -0.5068  0.4523
 3727SOL    HW122817   1.289   2.854  13.169  1.0508  0.0940  1.4890
 3727SOL    HW222818   1.246   2.949  13.278 -1.3842 -0.7885  1.4017
 3728SOL     OW22819   4.031   2.875   5.452 -0.0028  0.3576 -0.6889
 3728SOL    HW122820   4.094   2.885   5.523  0.9902  0.7700 -1.6268
 3728SOL    HW222821   3.981   2.805   5.494 -0.8857  1.2642 -0.2205
 3729SOL     OW22822   4.446   3.308   2.409  0.1987  0.2983  0.2406
 3729SOL    HW122823   4.499   3.263   2.475 -1.2041  0.6396  1.5843
 3729SOL    HW222824   4.516   3.321   2.344  1.0324  0.4692  1.1672
 3730SOL     OW22825   4.268   2.673   6.088 -0.4375  0.5649  0.2507
 3730SOL    HW122826   4.211   2.714   6.153 -0.3429 -0.1735  0.8024
 3730SOL    HW222827   4.225   2.588   6.074  0.4991 -0.1276  1.5462
 3731SOL     OW22828   1.092   4.675  14.363  0.2052  0.5094 -0.1817
 3731SOL    HW122829   1.058   0.024  14.384 -0.0528  0.1795  0.7840
 3731SOL    HW222830   1.032   4.621  14.415 -1.0812  0.7458 -1.4398
 3732SOL     OW22831   2.444   2.247  17.674  0.0642 -0.5231 -0.0142
 3732SOL    HW122832   2.370   2.190  17.650  1.3743 -1.3158 -2.1485
 3732SOL    HW222833   2.464   2.213   0.008  0.0991 -0.3794  0.0331
 3733SOL     OW22834   0.327   0.336   2.832 -0.3487  0.0303 -0.2086
 3733SOL    HW122835   0.376   0.270   2.882 -2.0544 -2.1835 -1.4839
 3733SOL    HW222836   0.247   0.290   2.806  0.2043 -2.0651  1.8141
 3734SOL     OW22837   2.194   2.914   1.790 -0.2371 -1.0648  0.3706
 3734SOL    HW122838   2.210   3.008   1.798 -0.0839 -1.0937  0.3979
 3734SOL    HW222839   2.287   2.891   1.784 -0.1168 -0.4383 -0.1059
 3735SOL     OW22840   3.773   0.332  13.003  0.3732 -0.4334  0.2780
 3735SOL    HW122841   3.849   0.338  13.061 -0.8902 -1.1739  1.9989
 3735SOL    HW222842   3.766   0.238  12.987 -0.1378 -0.5267  1.1099
 3736SOL     OW22843   2.244   0.850   0.756 -0.2388 -0.0754  0.0691
 3736SOL    HW122844   2.203   0.887   0.834  0.2985  0.9728 -0.1481
 3736SOL    HW222845   2.169   0.823   0.703 -0.3577 -1.5474  0.9932
 3737SOL     OW22846   1.127   0.264   2.200 -0.2846 -0.3686  0.1187
 3737SOL    HW122847   1.154   0.181   2.160  0.4748  0.6059 -1.4148
 3737SOL    HW222848   1.132   0.239   2.292 -1.2127 -0.2015  0.2078
 3738SOL     OW22849   2.301   3.790   2.676  0.5053 -0.0037 -0.6735
 3738SOL    HW122850   2.267   3.871   2.640 -1.1423 -1.2698 -1.9428
 3738SOL    HW222851   2.368   3.765   2.612  1.8395  0.0512  0.6829
 3739SOL     OW22852   1.992   1.063  14.443 -0.1137  0.3454 -0.5657
 3739SOL    HW122853   1.903   1.030  14.427 -0.2745  0.8119 -0.6095
 3739SOL    HW222854   1.978   1.157  14.447  1.2333  0.5246 -0.2106
 3740SOL     OW22855   0.690   3.755   3.794  0.1634  0.6740  0.7506
 3740SOL    HW122856   0.695   3.837   3.841  2.7856 -0.3000  2.1602
 3740SOL    HW222857   0.601   3.755   3.758 -0.4760  0.8421  2.3357
 3741SOL     OW22858   2.350   4.503   8.431  0.3144  0.5118 -0.5846
 3741SOL    HW122859   2.425   4.447   8.413  0.9140  1.0064  0.3542
 3741SOL    HW222860   2.281   4.439   8.416 -0.5523  0.3812  3.7897
 3742SOL     OW22861   3.368   0.978  14.170 -0.3914 -0.2372 -0.3870
 3742SOL    HW122862   3.311   0.901  14.162 -0.3157 -0.2838 -0.4776
 3742SOL    HW222863   3.337   1.010  14.255 -1.1470  3.2455 -1.9794
 3743SOL     OW22864   2.678   4.575   3.828  0.5059 -1.0433 -0.4429
 3743SOL    HW122865   2.681   4.591   3.922 -1.4119 -1.5080 -0.3013
 3743SOL    HW222866   2.584   4.580   3.815  0.5699 -0.6486 -0.7242
 3744SOL     OW22867   2.604   1.410   0.474  0.4739  0.1380 -0.2308
 3744SOL    HW122868   2.531   1.351   0.490  2.0133 -1.7616 -0.2991
 3744SOL    HW222869   2.626   1.428   0.566 -0.4079  0.0746 -0.0117
 3745SOL     OW22870   3.440   1.172   0.020  0.0546  0.3059  0.7736
 3745SOL    HW122871   3.351   1.162   0.054 -0.8431 -0.1367 -1.7384
 3745SOL    HW222872   3.461   1.082  17.750 -0.4802  0.6100 -0.9251
 3746SOL     OW22873   3.557   1.113  10.777 -0.6643 -0.5000 -0.1252
 3746SOL    HW122874   3.573   1.207  10.772 -0.2655 -0.4330  2.5830
 3746SOL    HW222875   3.490   1.102  10.710  0.5714  1.2027 -1.6367
 3747SOL     OW22876   3.614   4.425   8.957  0.0367  0.5321  0.2910
 3747SOL    HW122877   3.686   4.470   8.913 -0.2041 -0.3620 -1.0073
 3747SOL    HW222878   3.615   4.345   8.904 -4.5393  3.1969 -3.7157
 3748SOL     OW22879   1.446   0.201   9.334  0.0833 -0.3932  0.1867
 3748SOL    HW122880   1.429   0.241   9.419 -0.7676  1.2279 -0.7503
 3748SOL    HW222881   1.539   0.214   9.320 -0.1616 -0.8506 -1.8390
 3749SOL     OW22882   1.356   4.144   4.873 -0.7790  0.3146 -0.4532
 3749SOL    HW122883   1.415   4.081   4.832  0.7175  0.8679  0.8683
 3749SOL    HW222884   1.396   4.224   4.840 -0.3413 -0.3858 -1.6161
 3750SOL     OW22885   2.659   4.526   2.032 -0.2258 -0.2759 -0.1540
 3750SOL    HW122886   2.607   4.603   2.054 -1.5661 -1.1756 -0.2048
 3750SOL    HW222887   2.709   4.512   2.113 -0.4298  2.6603  0.5024
 3751SOL     OW22888   0.172   2.699   2.496  0.1193 -0.0929 -0.1573
 3751SOL    HW122889   0.213   2.739   2.419 -0.8283 -0.0049 -0.6197
 3751SOL    HW222890   0.207   2.610   2.490 -0.9959 -0.5956  0.7407
 3752SOL     OW22891   4.167   2.970   4.485  0.0248 -0.0229 -0.1006
 3752SOL    HW122892   4.106   2.898   4.467 -0.9835  0.2781  2.0887
 3752SOL    HW222893   4.182   2.968   4.579 -0.7295 -0.0490  0.0153
 3753SOL     OW22894   1.823   0.677   2.558 -0.0381  0.4032 -0.1118
 3753SOL    HW122895   1.795   0.601   2.507 -2.2250  1.8164 -1.0378
 3753SOL    HW222896   1.765   0.741   2.517 -3.1339 -1.4531  1.4343
 3754SOL     OW22897   2.483   1.354   4.096 -0.6132 -0.0695 -0.3606
 3754SOL    HW122898   2.450   1.335   4.007  0.4490 -1.4746 -0.4587
 3754SOL    HW222899   2.531   1.432   4.070 -0.3110 -0.0754  0.1914
 3755SOL     OW22900   0.533   2.829   4.275  0.0244 -0.0243 -1.0214
 3755SOL    HW122901   0.551   2.868   4.361 -1.5482 -1.4099 -0.0739
 3755SOL    HW222902   0.618   2.785   4.276 -0.1083 -0.2610  0.3522
 3756SOL     OW22903   1.088   1.229   3.226 -0.3957  0.1700 -0.0624
 3756SOL    HW122904   1.041   1.267   3.152  1.3988 -1.4691 -2.0408
 3756SOL    HW222905   1.033   1.245   3.303  1.7770  0.7374  1.3516
 3757SOL     OW22906   4.320   2.558   3.802 -0.1454  0.0052 -0.1610
 3757SOL    HW122907   4.374   2.501   3.748 -1.7297  0.0395 -1.8140
 3757SOL    HW222908   4.233   2.544   3.763 -0.3135  1.0537 -0.1754
 3758SOL     OW22909   1.861   2.592   4.434 -0.4345  0.0419  0.0206
 3758SOL    HW122910   1.817   2.581   4.350  2.0816 -0.9329 -1.1855
 3758SOL    HW222911   1.861   2.505   4.474 -2.9545 -0.0792 -0.2641
 3759SOL     OW22912   4.109   0.606  16.294  0.5022  0.3450 -0.3870
 3759SOL    HW122913   4.140   0.536  16.351  0.1433  0.3543 -0.1810
 3759SOL    HW222914   4.173   0.598  16.224  0.7311 -2.0517  0.1186
 3760SOL     OW22915   3.711   3.406   2.114  0.6489  0.0994 -0.2268
 3760SOL    HW122916   3.760   3.484   2.086  0.8424 -0.5013 -1.5665
 3760SOL    HW222917   3.755   3.386   2.197  0.0755 -2.2150 -0.4846
 3761SOL     OW22918   4.134   3.292   6.758  0.3463 -0.2077  0.3301
 3761SOL    HW122919   4.165   3.281   6.668  0.2618 -1.4316  0.4412
 3761SOL    HW222920   4.152   3.384   6.775 -0.1907 -0.2636  1.2395
 3762SOL     OW22921   4.398   3.692   5.509 -0.4215 -0.1845  0.4035
 3762SOL    HW122922   4.333   3.631   5.474 -0.7535 -0.7068  1.9099
 3762SOL    HW222923   4.459   3.713   5.438 -2.0678  0.3406 -0.8581
 3763SOL     OW22924   2.916   1.927   7.709  0.3074  0.4134 -0.1706
 3763SOL    HW122925   2.926   1.968   7.795 -1.3094  2.1580 -0.8077
 3763SOL    HW222926   3.003   1.887   7.704 -1.5769 -3.6405 -0.5587
 3764SOL     OW22927   0.349   1.956   8.499  0.4486  0.2636 -0.0335
 3764SOL    HW122928   0.328   1.930   8.410  2.2646  2.3466 -1.0756
 3764SOL    HW222929   0.340   2.050   8.485  1.6899  0.5998  1.4079
 3765SOL     OW22930   4.085   4.107   3.052 -0.4812  0.0185  0.2685
 3765SOL    HW122931   3.997   4.074   3.068 -0.8876 -0.3813 -2.7590
 3765SOL    HW222932   4.145   4.043   3.089 -2.2018 -1.1786  0.9461
 3766SOL     OW22933   0.004   0.776  10.574  0.0694 -0.1754 -0.1518
 3766SOL    HW122934   0.097   0.781  10.551 -0.0691 -2.9161 -1.2005
 3766SOL    HW222935   0.011   0.730  10.658 -0.3577 -0.1965 -0.1277
 3767SOL     OW22936   2.735   1.863  10.955 -0.5694 -0.1702 -0.1129
 3767SOL    HW122937   2.810   1.851  10.898 -0.4962  2.0375 -0.4514
 3767SOL    HW222938   2.762   1.798  11.021 -0.8954 -1.9331 -1.7061
 3768SOL     OW22939   1.893   0.031   5.831 -0.4182 -0.0200 -0.2448
 3768SOL    HW122940   1.968   4.718   5.859 -1.3402 -1.4692 -0.4382
 3768SOL    HW222941   1.933   0.064   5.751 -0.2699  2.8090  0.9880
 3769SOL     OW22942   2.840   0.351  16.619  0.4260  0.5755  0.4244
 3769SOL    HW122943   2.837   0.406  16.541 -0.7046 -2.3214 -1.5618
 3769SOL    HW222944   2.774   0.286  16.595 -0.2670  2.2980 -2.2858
 3770SOL     OW22945   2.463   4.617   3.244 -0.1676 -0.0198  0.0966
 3770SOL    HW122946   2.505   4.668   3.175 -2.3219  0.9371 -0.5045
 3770SOL    HW222947   2.527   4.555   3.279  0.0547 -0.7537 -1.5963
 3771SOL     OW22948   1.419   3.831   7.924 -0.3480 -0.3449  0.6600
 3771SOL    HW122949   1.417   3.877   8.008  2.5562 -0.9344  1.0388
 3771SOL    HW222950   1.480   3.884   7.874 -1.5487  1.3119  0.9354
 3772SOL     OW22951   2.447   0.204   1.285  0.4974 -0.0401  0.3136
 3772SOL    HW122952   2.491   0.126   1.319 -3.2001 -3.1422 -1.9490
 3772SOL    HW222953   2.494   0.277   1.326  0.1280  0.9645 -1.0295
 3773SOL     OW22954   1.018   0.214   8.635  0.2295 -0.0077 -0.2521
 3773SOL    HW122955   1.101   0.255   8.657  1.1801 -2.4001  0.6890
 3773SOL    HW222956   0.989   0.196   8.725 -0.4293 -0.3289 -0.5244
 3774SOL     OW22957   2.552   3.326   4.146  0.7688 -0.2411  0.7103
 3774SOL    HW122958   2.555   3.298   4.238  3.2306 -0.3241  0.6091
 3774SOL    HW222959   2.587   3.254   4.094 -1.2842 -0.2666 -0.6247
 3775SOL     OW22960   1.648   0.572   5.620 -0.2470  0.1287 -0.4310
 3775SOL    HW122961   1.561   0.559   5.581 -0.5609 -0.0419  0.3214
 3775SOL    HW222962   1.618   0.621   5.696  0.5921 -0.3821  0.2361
 3776SOL     OW22963   0.236   0.208   7.705 -0.1689 -0.0588 -0.2035
 3776SOL    HW122964   0.319   0.162   7.713  0.2747  1.2274  2.5976
 3776SOL    HW222965   0.188   0.145   7.651  0.3263 -0.9280  0.3795
 3777SOL     OW22966   0.113   4.147   9.049 -0.0442  0.4180  0.3288
 3777SOL    HW122967   0.088   4.083   9.116 -1.8633  0.1948 -0.5693
 3777SOL    HW222968   0.067   4.230   9.063  0.1952  0.2294  2.2455
 3778SOL     OW22969   4.086   3.472   6.113 -0.9485 -0.1541 -0.3924
 3778SOL    HW122970   4.105   3.378   6.116  0.6465  0.3067  3.5234
 3778SOL    HW222971   4.009   3.456   6.059 -1.0504 -2.8870  0.5400
 3779SOL     OW22972   4.036   0.387   3.245 -0.1859  0.3821 -0.0498
 3779SOL    HW122973   4.101   0.389   3.315 -0.4447  2.6688  0.1281
 3779SOL    HW222974   4.095   0.405   3.172  0.4802 -1.0631  0.1272
 3780SOL     OW22975   3.338   4.631  10.526  0.2505  0.7703  0.0561
 3780SOL    HW122976   3.319   4.588  10.610  1.9516  0.2555  0.1770
 3780SOL    HW222977   3.249   4.652  10.498  0.9949 -1.2819 -3.8134
 3781SOL     OW22978   1.683   0.166   5.272 -0.2985  0.3467 -0.0163
 3781SOL    HW122979   1.773   0.197   5.264 -0.2452  0.3707  0.6345
 3781SOL    HW222980   1.681   0.143   5.365 -0.5938 -1.3316 -0.4369
 3782SOL     OW22981   2.354   2.132   2.587  0.2174 -0.3152 -0.0533
 3782SOL    HW122982   2.362   2.227   2.594  0.8279 -0.2762 -1.3068
 3782SOL    HW222983   2.390   2.111   2.674 -0.4139 -0.9810  0.0526
 3783SOL     OW22984   4.547   4.072   8.789 -0.2181 -0.1127 -0.0560
 3783SOL    HW122985   4.497   4.106   8.715 -1.2268 -1.4521  0.0108
 3783SOL    HW222986   4.503   4.117   8.861 -0.4450  1.2509 -1.0597
 3784SOL     OW22987   0.638   4.368   2.728  0.4095 -0.5661  0.9608
 3784SOL    HW122988   0.583   4.320   2.790 -2.2143  1.0210 -0.1305
 3784SOL    HW222989   0.726   4.346   2.760  0.3897 -1.5556  0.3568
 3785SOL     OW22990   3.339   1.249  14.594  0.4889 -0.0500  0.2085
 3785SOL    HW122991   3.301   1.335  14.577  0.5942  0.0590  0.5150
 3785SOL    HW222992   3.307   1.241  14.684  0.4121  2.6724  0.4101
 3786SOL     OW22993   0.628   4.330   0.300  0.2248 -0.4799  0.1113
 3786SOL    HW122994   0.655   4.248   0.342  1.5115 -0.5443 -0.8787
 3786SOL    HW222995   0.651   4.305   0.211 -0.8098  1.9928 -0.8398
 3787SOL     OW22996   4.403   2.561   1.554 -0.5877  0.2732 -0.1520
 3787SOL    HW122997   4.364   2.648   1.544  3.0391  1.6627 -2.2719
 3787SOL    HW222998   4.342   2.522   1.491 -2.4749 -0.8407  2.3425
 3788SOL     OW22999   1.474   1.031  16.902  0.5773  0.6857 -0.1779
 3788SOL    HW123000   1.400   1.092  16.908  0.7694  0.7676  1.5959
 3788SOL    HW223001   1.433   0.948  16.927  0.6426  0.6870 -0.0634
 3789SOL     OW23002   4.162   0.090   7.868  0.5896 -0.3781  0.3913
 3789SOL    HW123003   4.201   0.026   7.929  1.0107  0.5688  1.1240
 3789SOL    HW223004   4.167   0.045   7.784  0.6550 -1.0398  0.7386
 3790SOL     OW23005   1.341   3.502  14.369  0.1090 -0.0326 -0.0892
 3790SOL    HW123006   1.331   3.528  14.461  0.2225 -2.5786  0.6623
 3790SOL    HW223007   1.427   3.537  14.346  0.2569  1.2630  2.4638
 3791SOL     OW23008   2.964   4.356  11.552  0.3175  0.3704  0.8827
 3791SOL    HW123009   3.005   4.431  11.596  0.4415  0.7286  0.1631
 3791SOL    HW223010   3.037   4.331  11.496  0.2515  2.3435 -0.0990
 3792SOL     OW23011   1.376   2.979   5.154  0.3205 -0.5944 -0.6672
 3792SOL    HW123012   1.456   2.991   5.205 -0.4135 -1.3082  0.6555
 3792SOL    HW223013   1.361   3.066   5.119 -0.9350 -0.8162 -0.6632
 3793SOL     OW23014   4.145   3.577   6.738  0.3810 -0.0040  0.0440
 3793SOL    HW123015   4.231   3.566   6.696 -0.0733 -0.2249 -0.8385
 3793SOL    HW223016   4.139   3.671   6.755  0.8016  0.0111  0.1101
 3794SOL     OW23017   0.227   0.732   7.536  0.1265 -0.2064  0.2993
 3794SOL    HW123018   0.285   0.658   7.515  1.3010  0.4600  1.1973
 3794SOL    HW223019   0.265   0.793   7.599 -0.8381 -0.7142  1.3744
 3795SOL     OW23020   2.893   3.513   7.730 -0.2320  0.0490 -0.4292
 3795SOL    HW123021   2.906   3.608   7.724 -0.5075  0.1085 -0.0767
 3795SOL    HW223022   2.876   3.502   7.823 -0.3542  0.7735 -0.3691
 3796SOL     OW23023   2.475   0.409   9.294 -0.2344 -0.1006  0.3608
 3796SOL    HW123024   2.517   0.457   9.365  1.9224 -0.5709 -0.6197
 3796SOL    HW223025   2.517   0.455   9.222  0.8794  1.2944  1.9115
 3797SOL     OW23026   1.769   1.971   1.518  0.2091  0.7937 -0.4493
 3797SOL    HW123027   1.802   1.912   1.586  0.4145  0.4049 -0.8855
 3797SOL    HW223028   1.725   2.035   1.574 -0.0795 -1.0718  1.4413
 3798SOL     OW23029   1.582   3.305   0.796  0.2213  0.2393 -0.1463
 3798SOL    HW123030   1.619   3.240   0.736  0.5279  0.5443 -0.2875
 3798SOL    HW223031   1.614   3.275   0.881 -2.2982 -0.6833  0.4650
 3799SOL     OW23032   0.313   4.061   3.460  0.4924 -0.6580 -0.6678
 3799SOL    HW123033   0.274   4.131   3.512  2.1690  0.0993 -0.4214
 3799SOL    HW223034   0.394   4.049   3.510 -0.2266 -0.2904  0.5964
 3800SOL     OW23035   2.616   2.582   9.487 -0.3510 -0.1334 -0.3116
 3800SOL    HW123036   2.531   2.599   9.445 -1.3548 -1.1431  1.3185
 3800SOL    HW223037   2.670   2.553   9.414 -0.9395 -1.0982 -0.3616
 3801SOL     OW23038   2.197   1.333  17.362  0.2643 -0.2532 -0.1997
 3801SOL    HW123039   2.149   1.263  17.407  0.5729 -0.6120 -0.4258
 3801SOL    HW223040   2.235   1.287  17.287 -0.0276 -0.5210 -0.1821
 3802SOL     OW23041   0.777   3.997  10.017 -0.0381  0.2997 -0.4380
 3802SOL    HW123042   0.684   3.973  10.021  0.1793 -0.5728 -0.6691
 3802SOL    HW223043   0.789   4.022   9.925  0.3523 -0.0890 -0.4925
 3803SOL     OW23044   1.583   1.529   8.404 -0.2196  1.0207 -0.6068
 3803SOL    HW123045   1.499   1.554   8.367 -1.1758 -0.2318  0.7050
 3803SOL    HW223046   1.634   1.531   8.323  0.4929  2.0209 -0.1271
 3804SOL     OW23047   4.441   3.219   1.411 -0.1848  0.5035  0.1243
 3804SOL    HW123048   4.522   3.258   1.444  0.1116  1.9388 -2.2402
 3804SOL    HW223049   4.452   3.124   1.409 -0.1837  0.4660  2.8914
 3805SOL     OW23050   0.927   2.389   3.695  0.1006  0.2474  0.5251
 3805SOL    HW123051   0.969   2.470   3.724 -1.5131  1.4740 -0.5523
 3805SOL    HW223052   0.996   2.329   3.724  0.5153 -0.5615 -2.1351
 3806SOL     OW23053   0.980   4.173   6.804 -0.1486  0.0767 -0.7163
 3806SOL    HW123054   0.902   4.222   6.830 -0.5114 -0.1661 -1.3332
 3806SOL    HW223055   0.975   4.097   6.862 -1.8195  1.4529  0.9310
 3807SOL     OW23056   4.226   3.699   9.969  0.3966  0.8532 -0.0104
 3807SOL    HW123057   4.187   3.649  10.040 -2.9657  2.3757 -0.8155
 3807SOL    HW223058   4.279   3.761  10.020  0.5976  2.3200 -2.0156
 3808SOL     OW23059   1.364   0.676   8.523 -0.0002 -0.1083 -0.4331
 3808SOL    HW123060   1.430   0.633   8.577 -0.6847  0.3154  0.7473
 3808SOL    HW223061   1.360   0.763   8.562  0.3164 -0.7661  1.0729
 3809SOL     OW23062   3.172   0.004   8.038 -0.5757 -0.3214 -0.1782
 3809SOL    HW123063   3.124   0.070   7.988  1.1780 -0.9152 -2.6552
 3809SOL    HW223064   3.177   4.676   7.969  0.0633 -0.1451 -0.3028
 3810SOL     OW23065   3.043   1.337   4.846  0.1518 -0.2055 -0.2901
 3810SOL    HW123066   3.132   1.326   4.880 -0.5144 -2.4314  0.7839
 3810SOL    HW223067   3.052   1.325   4.752  0.9853  1.6130 -0.4334
 3811SOL     OW23068   3.487   3.210   5.022 -0.5327  0.6753  0.3639
 3811SOL    HW123069   3.488   3.181   5.113 -0.0328  1.0677  0.4843
 3811SOL    HW223070   3.524   3.125   5.000  1.7800  1.3825  1.5603
 3812SOL     OW23071   4.162   3.552   0.998 -0.2061 -0.6612  0.1692
 3812SOL    HW123072   4.233   3.580   1.056 -1.0392 -0.8952  1.3218
 3812SOL    HW223073   4.114   3.634   0.986  1.0223  0.1816  1.0536
 3813SOL     OW23074   0.885   2.063   5.915  0.4048 -0.1345  0.5768
 3813SOL    HW123075   0.911   1.975   5.888  1.5217  0.0599  1.0360
 3813SOL    HW223076   0.967   2.092   5.953  0.2902  2.1904 -0.9231
 3814SOL     OW23077   1.506   0.529   6.071 -0.4488 -0.3432  0.0666
 3814SOL    HW123078   1.420   0.520   6.112 -0.9218  0.7127 -0.7108
 3814SOL    HW223079   1.483   0.545   5.980  0.9820 -0.6905 -0.3471
 3815SOL     OW23080   0.794   4.636   1.126  0.3047 -0.5957  0.4528
 3815SOL    HW123081   0.778   4.728   1.145  3.1211 -0.2417  0.9805
 3815SOL    HW223082   0.712   4.617   1.080 -1.0440  4.0806  0.9577
 3816SOL     OW23083   0.874   0.782   0.538  0.0115 -0.1610  0.5098
 3816SOL    HW123084   0.781   0.765   0.558 -0.5353  2.3558  0.1342
 3816SOL    HW223085   0.894   0.726   0.464  0.1974 -0.0862  0.5031
 3817SOL     OW23086   4.665   4.459   2.769 -0.1259  0.2481 -0.0719
 3817SOL    HW123087   0.008   4.418   2.740 -1.2115 -0.5344 -1.9771
 3817SOL    HW223088   4.650   4.500   2.684  0.2685  1.6082  0.5115
 3818SOL     OW23089   2.871   0.508   5.157 -0.3920  0.7262 -0.5992
 3818SOL    HW123090   2.926   0.519   5.235 -0.3747 -0.2648 -0.4643
 3818SOL    HW223091   2.934   0.481   5.090  0.0397 -1.3064  0.6071
 3819SOL     OW23092   4.530   0.188  13.566  0.0841 -0.1427  0.2146
 3819SOL    HW123093   4.488   0.105  13.544  2.3063 -1.6583  1.6706
 3819SOL    HW223094   4.595   0.161  13.631  0.5792  1.6598  0.4818
 3820SOL     OW23095   1.151   0.584   3.698 -0.5582 -0.1840  0.0333
 3820SOL    HW123096   1.131   0.536   3.778  0.7272  1.0909  1.1165
 3820SOL    HW223097   1.240   0.612   3.719 -1.3213  1.2204  1.4237
 3821SOL     OW23098   4.572   0.296   1.380 -0.3498  0.4713  0.3558
 3821SOL    HW123099   4.630   0.250   1.320 -1.2739  0.7904 -0.7886
 3821SOL    HW223100   4.489   0.295   1.333 -0.4496  2.9044  0.4804
 3822SOL     OW23101   1.365   4.190  15.959  0.5690  0.0485  0.4039
 3822SOL    HW123102   1.373   4.181  15.863  0.3060  1.1152  0.2883
 3822SOL    HW223103   1.370   4.285  15.969  2.4416 -0.3788  3.2947
 3823SOL     OW23104   1.875   3.977   7.239  0.4058  0.3068 -0.3028
 3823SOL    HW123105   1.966   3.981   7.269  1.0621  1.8269 -2.4951
 3823SOL    HW223106   1.840   3.906   7.293 -1.7108  0.6314 -1.2371
 3824SOL     OW23107   2.522   3.748   4.413  0.2956  0.5545 -0.4860
 3824SOL    HW123108   2.484   3.715   4.332  0.8732 -2.1206  0.3085
 3824SOL    HW223109   2.556   3.835   4.395 -0.9305  1.1968  0.2951
 3825SOL     OW23110   2.694   2.365  10.175 -0.1254 -0.3433  0.3669
 3825SOL    HW123111   2.784   2.353  10.205  0.4654 -0.9261 -1.6406
 3825SOL    HW223112   2.681   2.278  10.136  0.2845 -1.4236  2.6198
 3826SOL     OW23113   0.780   1.158  12.986  0.3526  0.7710 -0.2965
 3826SOL    HW123114   0.764   1.252  12.972  1.8116  1.0346 -0.1640
 3826SOL    HW223115   0.707   1.128  13.040  1.0967 -0.5255 -0.0093
 3827SOL     OW23116   0.144   3.836   5.753 -0.4155 -0.0843 -0.1662
 3827SOL    HW123117   0.230   3.865   5.725 -0.4488  0.8300  0.6877
 3827SOL    HW223118   0.115   3.820   5.663 -0.1221 -0.3530 -0.2115
 3828SOL     OW23119   2.829   4.295   9.932 -0.2076 -0.3945  0.2863
 3828SOL    HW123120   2.774   4.219   9.914 -1.3320  0.8999 -1.6851
 3828SOL    HW223121   2.876   4.299   9.849 -0.3330  0.2581  0.2431
 3829SOL     OW23122   3.464   2.167   9.007 -0.4633  0.2086 -0.8612
 3829SOL    HW123123   3.487   2.078   8.981 -2.0922 -0.7704  1.0998
 3829SOL    HW223124   3.511   2.181   9.089 -1.3622  1.0991 -0.4876
 3830SOL     OW23125   1.507   3.447   2.850 -0.4702  0.1938  0.1979
 3830SOL    HW123126   1.596   3.425   2.877 -0.2526  0.0615 -0.6296
 3830SOL    HW223127   1.522   3.525   2.797 -1.8997  0.0208 -0.4510
 3831SOL     OW23128   0.118   2.537  13.683 -0.2279  0.1224  0.2147
 3831SOL    HW123129   0.023   2.538  13.672 -0.1938  1.0479  0.0162
 3831SOL    HW223130   0.117   2.477  13.758  1.1681 -1.1662 -0.8031
 3832SOL     OW23131   0.687   3.962   2.440  0.1902 -0.1093 -0.2438
 3832SOL    HW123132   0.729   4.031   2.388 -0.9496 -0.2276 -1.3416
 3832SOL    HW223133   0.699   4.001   2.526  2.5454 -0.8551 -0.2389
 3833SOL     OW23134   0.812   1.740   4.292 -0.5490 -0.3059  0.0630
 3833SOL    HW123135   0.820   1.784   4.376  0.2580 -1.6401  0.6889
 3833SOL    HW223136   0.885   1.679   4.306 -0.1408  0.4488  1.1797
 3834SOL     OW23137   4.287   4.461   7.074 -0.6659 -0.5985 -0.1202
 3834SOL    HW123138   4.356   4.498   7.018 -1.0646  1.2379  0.6223
 3834SOL    HW223139   4.301   4.369   7.051  0.4089 -1.1446  2.7668
 3835SOL     OW23140   1.825   4.422   5.211  0.0905  0.2849 -0.5030
 3835SOL    HW123141   1.881   4.494   5.183 -1.0064  0.4033 -2.3946
 3835SOL    HW223142   1.753   4.477   5.240  0.7589  1.1565 -0.5026
 3836SOL     OW23143   3.463   3.089   9.385  0.0008  0.3040  0.4713
 3836SOL    HW123144   3.390   3.144   9.357 -1.6012 -2.9590 -1.8611
 3836SOL    HW223145   3.439   3.086   9.477 -0.1224 -0.8024  0.4025
 3837SOL     OW23146   1.230   2.252   2.644 -0.5945 -0.3132  0.5501
 3837SOL    HW123147   1.223   2.345   2.621  5.1298  0.1168  0.6230
 3837SOL    HW223148   1.136   2.241   2.635 -0.4398 -0.9610 -0.2272
 3838SOL     OW23149   4.423   1.913   5.577 -0.3416  0.3372  0.6727
 3838SOL    HW123150   4.494   1.853   5.555  1.8996  2.9857  0.7222
 3838SOL    HW223151   4.445   1.986   5.520 -1.5310 -0.4430 -0.8009
 3839SOL     OW23152   0.550   4.717   4.302 -0.3284 -0.5338  0.4093
 3839SOL    HW123153   0.524   0.003   4.213 -2.9090 -1.5008  0.8965
 3839SOL    HW223154   0.631   0.030   4.304  0.8627 -2.3109 -2.6577
 3840SOL     OW23155   3.360   1.591   5.681  0.3099  0.1353 -0.2030
 3840SOL    HW123156   3.447   1.628   5.699 -0.9215  2.1347  1.6312
 3840SOL    HW223157   3.403   1.506   5.684 -2.4062 -1.1838  0.8830
 3841SOL     OW23158   2.137   3.453   4.525  0.2311 -0.4339  0.5760
 3841SOL    HW123159   2.125   3.547   4.539 -0.7201 -0.4045 -0.4531
 3841SOL    HW223160   2.056   3.412   4.553  0.8921 -2.0607  0.1228
 3842SOL     OW23161   4.315   0.646  13.464 -0.3754 -0.0980  0.2275
 3842SOL    HW123162   4.274   0.576  13.515 -0.5681  1.2909  1.9845
 3842SOL    HW223163   4.339   0.604  13.382 -3.4346  0.6598 -1.0533
 3843SOL     OW23164   2.477   2.584   1.314 -0.1110  0.5691  0.8858
 3843SOL    HW123165   2.446   2.658   1.262 -0.7029 -2.0461 -2.5258
 3843SOL    HW223166   2.461   2.505   1.262 -1.5935  2.3124 -1.3278
 3844SOL     OW23167   1.524   2.498   3.234 -0.0846  0.5545 -0.4999
 3844SOL    HW123168   1.454   2.438   3.260  0.3831  0.3565  0.2905
 3844SOL    HW223169   1.599   2.440   3.228 -0.9419 -0.5805 -0.3018
 3845SOL     OW23170   0.984   3.841   3.972  0.2305 -0.4279 -0.4867
 3845SOL    HW123171   1.030   3.841   3.889  0.6412 -0.0733 -0.2586
 3845SOL    HW223172   0.931   3.761   3.969 -1.1032  0.3459  2.0515
 3846SOL     OW23173   3.250   2.563  17.728  0.5711 -0.1733  0.1889
 3846SOL    HW123174   3.173   2.619  17.735  0.7227 -0.0717  1.0866
 3846SOL    HW223175   3.308   2.616   0.029  0.0105  0.4408  0.1885
 3847SOL     OW23176   0.377   0.524   8.044  0.4895 -0.3020 -0.3076
 3847SOL    HW123177   0.327   0.592   8.090  2.4386  1.0931 -0.2245
 3847SOL    HW223178   0.330   0.448   8.076 -1.6688  1.2329  0.1962
 3848SOL     OW23179   0.863   1.542   1.800  0.1883  0.2920 -0.4292
 3848SOL    HW123180   0.821   1.474   1.748 -0.1214 -0.4533  0.7730
 3848SOL    HW223181   0.840   1.616   1.745  1.3810  1.0727  0.1315
 3849SOL     OW23182   0.052   2.909  11.561 -0.6296 -0.0486  0.4345
 3849SOL    HW123183   0.017   2.973  11.623 -1.2100  0.7434 -0.7048
 3849SOL    HW223184   4.711   2.874  11.521  1.0277 -0.9285 -2.0760
 3850SOL     OW23185   0.025   0.718   8.302 -0.2874 -0.0897  0.3814
 3850SOL    HW123186   0.107   0.707   8.254 -0.3032  1.5713 -0.0171
 3850SOL    HW223187   4.714   0.768   8.237  1.4060  2.6892  1.2074
 3851SOL     OW23188   2.949   1.827   5.131  0.5229 -0.2902 -0.2411
 3851SOL    HW123189   3.039   1.838   5.163  0.5823  2.3277 -1.3121
 3851SOL    HW223190   2.965   1.762   5.062 -0.3127  0.3750 -1.0485
 3852SOL     OW23191   2.984   3.510  17.032 -0.1967 -0.2542  0.4043
 3852SOL    HW123192   3.064   3.463  17.059  1.7842  3.6796  1.3513
 3852SOL    HW223193   3.011   3.600  17.014  0.2141 -0.3010  0.7805
 3853SOL     OW23194   4.368   1.239   4.118 -0.0984  0.1594  0.2860
 3853SOL    HW123195   4.282   1.231   4.157 -0.5975  2.4509 -0.3396
 3853SOL    HW223196   4.433   1.197   4.174  0.6132 -0.1584 -0.7603
 3854SOL     OW23197   0.971   4.719  11.613  0.8152 -0.4544  0.0555
 3854SOL    HW123198   0.969   4.700  11.707  1.7934 -0.0896  0.1484
 3854SOL    HW223199   0.978   0.076  11.616  1.2273 -0.4951  0.3989
 3855SOL     OW23200   2.118   3.669   9.333 -0.8845 -0.3967 -0.6968
 3855SOL    HW123201   2.064   3.610   9.281 -2.1767 -0.3090  0.5495
 3855SOL    HW223202   2.066   3.749   9.327  0.7010  0.5572 -1.6441
 3856SOL     OW23203   2.363   3.536   0.832 -0.4049  0.6105 -0.2160
 3856SOL    HW123204   2.439   3.540   0.890 -2.1579  0.2000  2.1082
 3856SOL    HW223205   2.390   3.457   0.786 -0.8444 -0.5184  1.4824
 3857SOL     OW23206   0.764   4.156  10.613  0.0962 -0.5237  0.6586
 3857SOL    HW123207   0.698   4.196  10.556 -0.4769 -0.1762  1.5693
 3857SOL    HW223208   0.723   4.142  10.698 -1.2223  1.6551  0.3719
 3858SOL     OW23209   0.025   2.571   5.105  0.8715 -0.4109  0.4575
 3858SOL    HW123210   0.027   2.525   5.022 -2.1996 -0.5724  0.4539
 3858SOL    HW223211   0.027   2.490   5.156 -2.0439  0.0019  1.2399
 3859SOL     OW23212   3.549   1.906   2.347  0.0015  0.5282 -0.7528
 3859SOL    HW123213   3.548   1.829   2.403 -1.4225  0.9519 -0.1791
 3859SOL    HW223214   3.490   1.871   2.280 -1.0301 -2.4516  1.6824
 3860SOL     OW23215   1.328   4.042   6.537 -0.3754  0.0699 -0.0376
 3860SOL    HW123216   1.409   4.081   6.570  0.7008 -0.2777 -2.2589
 3860SOL    HW223217   1.326   3.959   6.584 -0.2763 -0.9242 -1.7738
 3861SOL     OW23218   1.662   3.671   1.380 -0.1997 -0.3029  0.4882
 3861SOL    HW123219   1.680   3.733   1.450  0.3296 -0.4440  0.4734
 3861SOL    HW223220   1.750   3.663   1.344 -0.2665  1.7465 -0.1321
 3862SOL     OW23221   0.181   1.051   7.106 -0.0870  1.0353 -0.1752
 3862SOL    HW123222   0.148   1.141   7.109 -0.5078  0.9123 -1.2822
 3862SOL    HW223223   0.273   1.052   7.132 -1.2393 -0.6759  4.0091
 3863SOL     OW23224   1.121   0.936  13.010  0.3992  0.1961 -0.3610
 3863SOL    HW123225   1.133   1.029  13.030 -0.2985  0.3441 -0.6411
 3863SOL    HW223226   1.148   0.889  13.089  1.0414 -0.5423 -1.0188
 3864SOL     OW23227   2.137   3.276   3.164 -0.2891 -0.3579  0.1198
 3864SOL    HW123228   2.135   3.296   3.070  0.7074 -3.7949 -0.6256
 3864SOL    HW223229   2.122   3.182   3.162  2.0471 -0.7004 -1.4597
 3865SOL     OW23230   4.442   3.318   6.030 -0.4680 -0.5307 -0.3418
 3865SOL    HW123231   4.398   3.285   5.951  2.5567 -1.8370 -1.4898
 3865SOL    HW223232   4.372   3.303   6.094 -0.5543  0.1858 -0.2705
 3866SOL     OW23233   3.574   0.419  13.843 -0.1697 -0.1090 -0.3301
 3866SOL    HW123234   3.556   0.494  13.786  1.2330 -0.0154 -0.6672
 3866SOL    HW223235   3.670   0.416  13.838 -0.1325  0.2351  0.1701
 3867SOL     OW23236   3.400   1.798   7.427  0.3595  0.4441  0.0509
 3867SOL    HW123237   3.406   1.711   7.467  0.2832  0.4285  0.0284
 3867SOL    HW223238   3.402   1.859   7.500  0.7778  1.7597 -1.0657
 3868SOL     OW23239   0.454   3.020  10.199  0.5208 -0.1250 -0.0152
 3868SOL    HW123240   0.489   2.938  10.236 -4.1881 -2.4610 -0.7617
 3868SOL    HW223241   0.375   2.991  10.153 -0.0095  1.4237 -0.0856
 3869SOL     OW23242   2.424   3.489   2.058  0.6757 -0.4042  0.1206
 3869SOL    HW123243   2.379   3.530   2.132 -0.7357 -1.6835 -0.0273
 3869SOL    HW223244   2.506   3.539   2.050  0.2269  0.1545 -1.0208
 3870SOL     OW23245   3.449   1.278  10.018 -0.0142 -0.4405  0.4554
 3870SOL    HW123246   3.423   1.198   9.974 -0.0762 -1.4376  2.2934
 3870SOL    HW223247   3.517   1.248  10.078  1.5494  2.8178  0.2912
 3871SOL     OW23248   4.108   0.301   0.692 -0.0317  0.4556 -0.5303
 3871SOL    HW123249   4.020   0.267   0.711  0.3568 -0.0635  0.3432
 3871SOL    HW223250   4.093   0.317   0.599  0.6410 -1.5975 -0.9847
 3872SOL     OW23251   1.095   2.280   8.221  0.0899  0.0951  0.5024
 3872SOL    HW123252   1.008   2.315   8.240 -0.4640 -2.3269  2.4428
 3872SOL    HW223253   1.070   2.204   8.168 -0.2133  0.2472  0.4240
 3873SOL     OW23254   1.430   1.430   6.359 -0.1792  0.5270  0.5249
 3873SOL    HW123255   1.424   1.509   6.306  0.1354 -0.8039 -1.4872
 3873SOL    HW223256   1.395   1.462   6.442  0.1031 -0.1525  0.9110
 3874SOL     OW23257   1.839   0.728  16.801  0.0060 -0.2405 -1.0099
 3874SOL    HW123258   1.769   0.789  16.777 -1.3807 -0.7901  1.7238
 3874SOL    HW223259   1.853   0.673  16.723  0.1362 -3.4481  1.2960
 3875SOL     OW23260   3.579   4.155   1.879 -0.5409  0.3679 -1.0212
 3875SOL    HW123261   3.553   4.115   1.796 -2.3552 -2.1222  0.7295
 3875SOL    HW223262   3.629   4.233   1.857 -0.5940  0.4021 -1.0196
 3876SOL     OW23263   3.032   0.132   7.011  0.3170  0.1436  0.2665
 3876SOL    HW123264   3.061   0.079   7.085 -0.7358 -1.8867 -0.7856
 3876SOL    HW223265   3.045   0.218   7.051  1.6264  0.0946 -0.0486
 3877SOL     OW23266   0.853   1.638  11.076  0.0505 -0.2131  0.4873
 3877SOL    HW123267   0.761   1.614  11.072  0.0796 -0.0105 -1.6700
 3877SOL    HW223268   0.864   1.669  10.986 -0.8212  0.3849  0.5890
 3878SOL     OW23269   0.430   2.112   0.017 -0.2437 -0.4339  0.0898
 3878SOL    HW123270   0.356   2.091   0.074  0.6267 -0.1901  1.3147
 3878SOL    HW223271   0.433   2.023  17.734 -1.1188  0.0068 -1.0605
 3879SOL     OW23272   1.470   4.671   4.264 -0.1181 -0.4600  0.1387
 3879SOL    HW123273   1.539   4.658   4.328 -0.6517  0.2598  0.8592
 3879SOL    HW223274   1.437   4.582   4.245 -4.0455  1.1278 -0.6038
 3880SOL     OW23275   1.012   0.928   5.032 -0.3772 -0.1513 -0.1597
 3880SOL    HW123276   1.071   0.981   4.978 -0.0769 -0.5708 -0.2528
 3880SOL    HW223277   1.062   0.914   5.112  1.7863  1.3282 -1.2327
 3881SOL     OW23278   1.699   2.067  13.305 -0.0213 -0.1213  0.1535
 3881SOL    HW123279   1.688   1.972  13.296 -0.6718 -0.2180  2.0398
 3881SOL    HW223280   1.662   2.087  13.390  2.0603 -0.4297  1.1231
 3882SOL     OW23281   4.147   4.448   3.875  0.7075 -0.5079 -0.4133
 3882SOL    HW123282   4.139   4.465   3.781 -1.6645  1.7995  0.2160
 3882SOL    HW223283   4.182   4.358   3.878 -1.2269 -1.3030 -2.0387
 3883SOL     OW23284   1.483   2.132   5.627 -0.9737  0.1454  0.1517
 3883SOL    HW123285   1.405   2.185   5.610 -0.3870  0.5903 -1.1916
 3883SOL    HW223286   1.557   2.191   5.640 -0.5808 -0.2081 -0.4794
 3884SOL     OW23287   0.364   2.165   9.537  0.1525 -0.0882 -0.1189
 3884SOL    HW123288   0.335   2.230   9.601  1.9492  0.6492 -0.0528
 3884SOL    HW223289   0.290   2.105   9.546 -1.1520  1.5490  0.1083
 3885SOL     OW23290   2.070   2.598   5.902  0.4608 -0.2019  0.0878
 3885SOL    HW123291   1.987   2.610   5.949  0.3252 -2.0300  0.3018
 3885SOL    HW223292   2.132   2.612   5.974  0.1013  1.1109  0.1454
 3886SOL     OW23293   3.914   2.545   8.693 -0.2793 -0.2244  0.2420
 3886SOL    HW123294   3.884   2.557   8.783 -0.4551 -0.9480  0.2779
 3886SOL    HW223295   3.943   2.634   8.672 -1.5752  0.1644  0.1385
 3887SOL     OW23296   3.050   0.726   1.310 -0.2807  0.1843 -0.4145
 3887SOL    HW123297   3.114   0.713   1.380  1.6174  0.2450 -2.1304
 3887SOL    HW223298   3.040   0.636   1.279 -0.2091  1.5314 -4.2847
 3888SOL     OW23299   2.762   2.621  14.335  0.1130 -0.2632  0.6343
 3888SOL    HW123300   2.827   2.676  14.291 -2.0729  0.3574 -1.8505
 3888SOL    HW223301   2.682   2.667  14.309  0.5219  1.1269  1.8792
 3889SOL     OW23302   4.646   1.672   6.377  0.1273  0.0836  0.1136
 3889SOL    HW123303   4.713   1.632   6.433  0.3864  0.5919  0.1706
 3889SOL    HW223304   4.583   1.706   6.441  0.0648  0.6125 -0.2275
 3890SOL     OW23305   1.415   1.710  14.243 -0.5109  0.0857  0.7472
 3890SOL    HW123306   1.477   1.655  14.196  1.7241  0.2551  3.4599
 3890SOL    HW223307   1.352   1.643  14.269  0.6133 -1.1864  0.1607
 3891SOL     OW23308   3.838   2.051   5.272  0.1107  0.3609 -0.2110
 3891SOL    HW123309   3.780   2.111   5.318  0.7386 -2.1949  3.9408
 3891SOL    HW223310   3.920   2.053   5.322 -0.6425  1.0058  0.9916
 3892SOL     OW23311   0.389   0.233  16.539  0.4722  0.3485  0.7070
 3892SOL    HW123312   0.479   0.234  16.572  0.5639  1.9234  0.4056
 3892SOL    HW223313   0.368   0.141  16.559  1.2064  0.2181  0.8899
 3893SOL     OW23314   4.627   3.413  16.177  0.0663 -0.1265 -1.1096
 3893SOL    HW123315   4.618   3.401  16.083  0.3632  2.6518 -1.4904
 3893SOL    HW223316   4.537   3.443  16.189  0.2770  0.3048 -0.5808
 3894SOL     OW23317   4.165   2.259   9.581 -0.0844  0.6336 -0.4083
 3894SOL    HW123318   4.128   2.339   9.542 -0.4472 -1.1593 -3.7758
 3894SOL    HW223319   4.219   2.240   9.505  0.2129  1.1733 -0.3306
 3895SOL     OW23320   0.153   0.065   3.638  0.4158  0.0567 -0.4254
 3895SOL    HW123321   0.177   0.157   3.647 -1.5143  0.8210 -3.1531
 3895SOL    HW223322   0.171   0.051   3.545  0.8411  5.0605 -1.1024
 3896SOL     OW23323   4.131   1.122  12.267 -0.0367  0.5609 -0.2764
 3896SOL    HW123324   4.142   1.124  12.362  0.9187  2.5629 -0.4371
 3896SOL    HW223325   4.047   1.165  12.255 -0.6894 -0.3212  1.0853
 3897SOL     OW23326   1.853   0.957   3.718  0.1775 -0.1501 -0.5965
 3897SOL    HW123327   1.928   1.008   3.747  0.0271 -0.4954  0.3839
 3897SOL    HW223328   1.893   0.901   3.651 -0.2560 -0.7537 -0.3477
 3898SOL     OW23329   2.006   1.446  14.682 -1.1925  0.6430  0.3921
 3898SOL    HW123330   1.956   1.484  14.754 -2.8362  0.8950 -0.8949
 3898SOL    HW223331   2.076   1.406  14.734  0.2673 -0.5623 -2.4664
 3899SOL     OW23332   1.411   0.266   9.057  0.1248  0.5745  0.0979
 3899SOL    HW123333   1.359   0.192   9.025 -1.2062 -0.3296  4.3541
 3899SOL    HW223334   1.429   0.236   9.146  0.8267 -2.1281 -0.9605
 3900SOL     OW23335   3.217   0.947   3.698  0.1587 -0.6721 -0.7851
 3900SOL    HW123336   3.291   0.978   3.645  0.0177 -0.3209 -0.7759
 3900SOL    HW223337   3.202   1.023   3.755 -0.0842 -0.8899 -0.5591
 3901SOL     OW23338   2.981   0.954  14.767  0.1482  0.5974  0.1704
 3901SOL    HW123339   3.066   0.913  14.748 -0.9457 -2.4197  1.8490
 3901SOL    HW223340   3.008   1.025  14.826  1.1521  1.1365 -0.9439
 3902SOL     OW23341   2.650   4.202   4.026  0.0699 -0.1628 -0.0279
 3902SOL    HW123342   2.633   4.116   3.988 -2.2207 -0.6107  1.9134
 3902SOL    HW223343   2.563   4.233   4.001  0.4696  2.1059  1.3565
 3903SOL     OW23344   1.194   2.335   2.200 -0.0714 -0.5721 -0.1663
 3903SOL    HW123345   1.142   2.256   2.188 -1.2729  0.0774  0.7955
 3903SOL    HW223346   1.282   2.298   2.195  0.4190  0.1048  3.9534
 3904SOL     OW23347   3.312   2.542   4.467  0.6782 -0.0838  0.1127
 3904SOL    HW123348   3.374   2.589   4.411  0.7961 -0.4377 -0.0508
 3904SOL    HW223349   3.309   2.604   4.540  2.0289  0.5546 -0.3754
 3905SOL     OW23350   4.310   0.965   7.303  0.1544  0.3005  0.4546
 3905SOL    HW123351   4.252   1.028   7.260 -0.2701 -0.4137 -0.0139
 3905SOL    HW223352   4.317   1.003   7.391  0.2986 -0.1835  0.6521
 3906SOL     OW23353   1.455   2.177   7.112 -0.2429 -0.3244  0.0638
 3906SOL    HW123354   1.494   2.090   7.111  0.7580  0.1209  0.9533
 3906SOL    HW223355   1.366   2.150   7.090  0.2221 -0.3024 -1.8505
 3907SOL     OW23356   1.557   0.276   5.049  1.1491  0.0321  0.6834
 3907SOL    HW123357   1.587   0.241   5.133 -2.9978 -2.7432  1.0529
 3907SOL    HW223358   1.638   0.303   5.005  2.2053 -2.8362  0.8276
 3908SOL     OW23359   3.011   2.227  17.014 -0.4976  0.2881 -0.2426
 3908SOL    HW123360   2.942   2.292  17.002 -0.9193 -0.3255 -1.1254
 3908SOL    HW223361   2.979   2.148  16.970 -2.7482  0.4818  1.0492
 3909SOL     OW23362   2.584   1.331  11.657 -0.0984 -0.0488 -0.3511
 3909SOL    HW123363   2.580   1.239  11.632 -0.3895  0.0449 -0.6506
 3909SOL    HW223364   2.545   1.319  11.744 -1.8522 -1.1604 -1.3021
 3910SOL     OW23365   1.189   2.429   7.056  0.7421 -0.0914 -0.2060
 3910SOL    HW123366   1.127   2.448   6.986 -0.9425  0.6844  1.4765
 3910SOL    HW223367   1.176   2.335   7.048  0.2044  0.1615 -2.2096
 3911SOL     OW23368   4.188   0.911   4.045  0.0602 -0.1017 -0.3261
 3911SOL    HW123369   4.279   0.883   4.053  0.1592  1.0724  2.5461
 3911SOL    HW223370   4.138   0.833   4.022 -1.4540  0.2789  1.6964
 3912SOL     OW23371   3.718   2.363  12.766  0.4639  0.2474  0.2396
 3912SOL    HW123372   3.812   2.346  12.753  0.4095 -0.5297  0.8518
 3912SOL    HW223373   3.691   2.317  12.845 -0.4065  0.4203  0.0380
 3913SOL     OW23374   1.523   4.247   8.509 -0.2149 -0.3642  0.2791
 3913SOL    HW123375   1.599   4.286   8.553 -0.8270 -1.3197  2.1786
 3913SOL    HW223376   1.531   4.275   8.418 -0.9210 -1.1751 -0.0261
 3914SOL     OW23377   1.955   4.402   7.153 -0.3456 -0.9347  0.0421
 3914SOL    HW123378   1.955   4.353   7.236 -1.3401  0.2158  0.7144
 3914SOL    HW223379   2.038   4.375   7.114 -0.0269  1.3363 -0.8266
 3915SOL     OW23380   4.269   4.069   4.520  0.5728 -0.1792  0.2990
 3915SOL    HW123381   4.316   4.123   4.456  0.0343  0.3535  0.3511
 3915SOL    HW223382   4.189   4.041   4.474  0.5937  1.6966 -0.8912
 3916SOL     OW23383   2.681   2.731   4.349 -0.1586 -0.0653 -0.2283
 3916SOL    HW123384   2.740   2.659   4.328 -0.3309 -0.0029 -0.9209
 3916SOL    HW223385   2.608   2.684   4.390 -0.6439  1.4246  0.6181
 3917SOL     OW23386   1.085   3.629   5.370 -0.0929  0.1532 -0.0508
 3917SOL    HW123387   1.077   3.620   5.465 -0.5753 -1.0432 -0.2079
 3917SOL    HW223388   1.163   3.684   5.359  1.0799 -1.2785  1.0970
 3918SOL     OW23389   0.685   4.658  15.197 -0.3114  0.2457  0.1110
 3918SOL    HW123390   0.730   4.580  15.229 -1.2608 -0.3159  0.0924
 3918SOL    HW223391   0.651   4.679  15.285 -1.3448 -0.5397 -0.0934
 3919SOL     OW23392   0.547   4.721   9.063  0.3706 -0.1726 -0.5017
 3919SOL    HW123393   0.525   0.042   9.135  1.2798 -1.1459  0.5905
 3919SOL    HW223394   0.489   0.010   8.992  0.6111 -0.0898 -0.6678
 3920SOL     OW23395   1.760   4.579  11.357  0.3829  0.2073 -0.4126
 3920SOL    HW123396   1.845   4.565  11.399 -1.6712  0.6785  3.8364
 3920SOL    HW223397   1.720   4.501  11.395 -0.6968  1.2481  0.5783
 3921SOL     OW23398   0.974   0.693   7.251 -0.3899 -0.0017 -0.3639
 3921SOL    HW123399   1.051   0.684   7.194  1.5912 -1.0928  2.4891
 3921SOL    HW223400   0.985   0.781   7.288 -0.6498  0.5337 -1.5428
 3922SOL     OW23401   3.088   1.378   5.878 -0.5275  0.2714 -0.0596
 3922SOL    HW123402   3.084   1.438   5.803 -2.6062  2.7313  2.0068
 3922SOL    HW223403   3.178   1.397   5.904 -0.5135 -0.7486  0.6374
 3923SOL     OW23404   3.156   2.759  14.838 -0.5429  0.1005  0.2872
 3923SOL    HW123405   3.242   2.719  14.852  0.0233  0.5412 -1.8646
 3923SOL    HW223406   3.157   2.778  14.744  1.8556 -2.5069 -0.2100
 3924SOL     OW23407   3.689   3.168   8.242  0.0615  0.2888  0.1553
 3924SOL    HW123408   3.754   3.239   8.241  0.8154 -0.3573  3.8517
 3924SOL    HW223409   3.680   3.150   8.149 -1.8303 -0.7980  0.5481
 3925SOL     OW23410   4.413   1.246   2.870 -0.1736 -0.4043 -0.4491
 3925SOL    HW123411   4.365   1.171   2.905  1.6052 -1.4439 -0.2009
 3925SOL    HW223412   4.347   1.312   2.889 -0.6011 -0.5889 -1.2969
 3926SOL     OW23413   3.491   3.966  13.517 -0.2790  0.0706  0.6501
 3926SOL    HW123414   3.561   3.927  13.570 -2.4219 -2.8093  1.3879
 3926SOL    HW223415   3.432   3.890  13.511 -1.0359  0.6131  1.3829
 3927SOL     OW23416   3.497   3.179   9.652 -0.0896  0.0309  0.2254
 3927SOL    HW123417   3.561   3.134   9.707 -0.6474 -1.8406 -0.6396
 3927SOL    HW223418   3.547   3.260   9.640  0.0856  0.1362  1.7290
 3928SOL     OW23419   0.920   1.150  14.843  0.1671  0.6658  0.0603
 3928SOL    HW123420   1.002   1.102  14.830  0.3246  1.8374 -3.2781
 3928SOL    HW223421   0.909   1.195  14.759 -0.0108  2.5638  1.0878
 3929SOL     OW23422   0.229   3.502  13.532 -0.2778 -0.0509 -0.2876
 3929SOL    HW123423   0.217   3.556  13.610  0.0244 -1.0261  0.4368
 3929SOL    HW223424   0.151   3.449  13.546 -0.2374  0.0923  0.4815
 3930SOL     OW23425   0.497   1.315   3.884  0.4887  0.1343 -0.6242
 3930SOL    HW123426   0.577   1.344   3.928  0.8117 -1.3658 -0.2141
 3930SOL    HW223427   0.535   1.229   3.865 -0.9622 -0.9524  1.3999
 3931SOL     OW23428   0.618   2.419   8.106  0.0210  0.0106 -0.0081
 3931SOL    HW123429   0.601   2.360   8.179  0.0929  1.4170  1.1487
 3931SOL    HW223430   0.678   2.370   8.049  1.1381  1.2832  0.0700
 3932SOL     OW23431   3.196   2.833   7.699  0.1137  0.1126  0.1891
 3932SOL    HW123432   3.185   2.746   7.739  0.7268  1.4107  3.1854
 3932SOL    HW223433   3.138   2.836   7.623 -0.2354 -1.2458  0.3900
 3933SOL     OW23434   3.662   2.077  10.465 -0.0547 -0.3434 -0.0026
 3933SOL    HW123435   3.687   2.078  10.557 -0.4877  1.7922  0.1020
 3933SOL    HW223436   3.651   1.983  10.456  1.1146 -0.9224  4.6207
 3934SOL     OW23437   2.878   1.701   1.336  0.2252 -0.2358  0.0864
 3934SOL    HW123438   2.908   1.636   1.272 -1.4647 -0.8648 -0.0697
 3934SOL    HW223439   2.807   1.655   1.380  0.6278  1.3307  2.3324
 3935SOL     OW23440   2.382   1.182   8.260 -0.1830  0.2813 -0.0478
 3935SOL    HW123441   2.426   1.098   8.246 -0.3096 -0.1182  1.8980
 3935SOL    HW223442   2.417   1.233   8.188 -0.4292  1.2545  0.5290
 3936SOL     OW23443   3.840   3.855   4.142  0.3148 -0.7469  0.1725
 3936SOL    HW123444   3.786   3.805   4.081  2.0947 -2.9681  0.4172
 3936SOL    HW223445   3.929   3.831   4.114  0.1818 -1.5677  0.4373
 3937SOL     OW23446   3.134   1.016  13.564 -0.2239  0.3400  0.2557
 3937SOL    HW123447   3.084   0.938  13.591  0.4793 -0.4809 -0.8143
 3937SOL    HW223448   3.176   1.038  13.647  1.7139 -1.6523 -0.2146
 3938SOL     OW23449   3.195   2.611   0.435  0.2919  0.6063  0.2764
 3938SOL    HW123450   3.201   2.706   0.447  1.3308  0.4219  1.2874
 3938SOL    HW223451   3.278   2.589   0.392 -0.1166  0.6524 -0.5277
 3939SOL     OW23452   3.699   1.759   2.071  0.0409  0.2019 -0.0443
 3939SOL    HW123453   3.665   1.833   2.021  1.4154  0.5705 -0.4383
 3939SOL    HW223454   3.759   1.811   2.123  0.6880 -0.7238  0.1427
 3940SOL     OW23455   3.984   2.097   9.422  0.1562  0.2428 -0.5995
 3940SOL    HW123456   4.075   2.109   9.450  0.8998 -3.7667 -1.3417
 3940SOL    HW223457   3.945   2.070   9.505 -0.8837  2.9592 -0.2096
 3941SOL     OW23458   1.546   2.846  10.407 -0.1135 -0.0325 -0.1145
 3941SOL    HW123459   1.634   2.860  10.374  0.0350 -1.3890 -0.3073
 3941SOL    HW223460   1.567   2.849  10.501  1.0091  0.7879 -0.3961
 3942SOL     OW23461   1.412   1.422   7.993  0.0599 -0.4763 -0.0188
 3942SOL    HW123462   1.400   1.342   7.942  0.0097  0.4741 -1.5146
 3942SOL    HW223463   1.330   1.412   8.042  0.1183 -1.5345 -0.1413
 3943SOL     OW23464   0.428   3.240   5.963 -0.2982 -1.1271  0.0818
 3943SOL    HW123465   0.476   3.166   5.925  1.4990 -0.9856  2.0749
 3943SOL    HW223466   0.429   3.219   6.057  1.4224 -2.7620 -0.2984
 3944SOL     OW23467   2.489   4.721   0.306 -0.2707 -0.0289  0.4228
 3944SOL    HW123468   2.574   4.679   0.293 -0.3072  0.1817 -0.4702
 3944SOL    HW223469   2.504   0.051   0.371  1.3903 -0.2457  0.2708
 3945SOL     OW23470   2.072   4.392  10.848 -0.1093 -0.0783 -0.2185
 3945SOL    HW123471   2.055   4.469  10.795 -1.8780  1.8585  3.1354
 3945SOL    HW223472   2.068   4.322  10.783 -1.5541  0.4459 -0.6736
 3946SOL     OW23473   0.785   3.300   5.490  0.2527 -0.3208 -0.0856
 3946SOL    HW123474   0.691   3.288   5.474  0.5956 -0.6343 -1.8765
 3946SOL    HW223475   0.808   3.352   5.413  0.3823  3.0385  2.2402
 3947SOL     OW23476   0.311   0.331   4.000  0.1970  0.1025 -0.5641
 3947SOL    HW123477   0.318   0.405   3.939  0.2572  0.3595 -0.2470
 3947SOL    HW223478   0.215   0.325   3.996  0.2344 -0.8557  0.1346
 3948SOL     OW23479   3.983   4.340   2.047 -0.3502 -0.0322  0.0157
 3948SOL    HW123480   4.017   4.263   2.003 -0.7811 -0.4957  0.4877
 3948SOL    HW223481   4.015   4.406   1.986 -0.9912 -0.7459 -1.0845
 3949SOL     OW23482   2.321   1.099  13.224 -0.3087  0.6461 -0.2048
 3949SOL    HW123483   2.329   1.151  13.144  0.1875  0.2178 -0.4320
 3949SOL    HW223484   2.341   1.165  13.290 -0.1094 -2.4198  2.7975
 3950SOL     OW23485   0.821   3.116   5.933  0.0397 -0.6877 -0.0332
 3950SOL    HW123486   0.916   3.109   5.941 -0.2381 -2.0864  1.9004
 3950SOL    HW223487   0.793   3.153   6.017 -1.5688  2.7251 -2.0326
 3951SOL     OW23488   1.566   0.832   3.503 -0.0697 -0.4938  0.2077
 3951SOL    HW123489   1.472   0.836   3.488  0.1137  0.6741 -0.5702
 3951SOL    HW223490   1.592   0.924   3.509  0.4818 -0.6533  0.3122
 3952SOL     OW23491   2.398   1.883   1.127  0.5964  0.1600  0.2613
 3952SOL    HW123492   2.349   1.802   1.123 -0.0920  0.4421  2.8237
 3952SOL    HW223493   2.457   1.855   1.197  0.3274  1.3019  0.9510
 3953SOL     OW23494   4.399   1.350  12.758 -0.0070  0.2535  0.3305
 3953SOL    HW123495   4.477   1.351  12.704 -0.2121  1.6924  0.0457
 3953SOL    HW223496   4.404   1.264  12.800 -0.0584 -0.2488 -0.6846
 3954SOL     OW23497   2.499   1.203  10.775 -0.0470 -0.1128  0.3549
 3954SOL    HW123498   2.536   1.258  10.706 -1.1990  0.2408  0.0348
 3954SOL    HW223499   2.554   1.227  10.850 -0.5582 -0.1163  0.7254
 3955SOL     OW23500   1.849   1.330   7.742 -0.6985  0.2900 -0.2067
 3955SOL    HW123501   1.788   1.359   7.674 -1.1021  3.9225  1.6610
 3955SOL    HW223502   1.913   1.267   7.709 -1.4543  0.3662 -1.8045
 3956SOL     OW23503   0.678   2.142   2.764 -0.5839  0.1079  0.4376
 3956SOL    HW123504   0.708   2.059   2.800 -3.2646 -0.2851  1.7840
 3956SOL    HW223505   0.620   2.111   2.694 -0.6222 -0.3480  0.6701
 3957SOL     OW23506   0.187   4.453   5.398  0.2461 -0.7276 -0.1635
 3957SOL    HW123507   0.158   4.390   5.332  1.8186  0.1021 -1.6328
 3957SOL    HW223508   0.121   4.446   5.467 -0.0774 -0.3679 -0.4392
 3958SOL     OW23509   1.055   2.440  17.719 -0.7979  0.0398  0.0220
 3958SOL    HW123510   1.026   2.359  17.678  1.7868 -1.1523  0.5221
 3958SOL    HW223511   0.971   2.483  17.735 -1.4995 -0.5904 -1.8919
 3959SOL     OW23512   2.023   3.596  11.936 -0.1126  0.0733  0.1132
 3959SOL    HW123513   2.076   3.617  12.013  0.0745 -2.1885  0.6038
 3959SOL    HW223514   2.006   3.503  11.952  2.5255 -0.4279 -0.0438
 3960SOL     OW23515   2.817   4.233  13.903  0.7840  0.6008  0.5618
 3960SOL    HW123516   2.727   4.210  13.879  0.7026 -0.2060  1.6550
 3960SOL    HW223517   2.812   4.209  13.996  0.1185  0.4518  0.4877
 3961SOL     OW23518   4.192   4.256   2.396 -0.1814  0.0004 -0.1169
 3961SOL    HW123519   4.109   4.221   2.429  0.4327 -1.2841  0.0703
 3961SOL    HW223520   4.214   4.313   2.470 -0.6644 -1.8316  1.4627
 3962SOL     OW23521   3.425   1.791   6.502 -0.0032  0.1026  0.4623
 3962SOL    HW123522   3.442   1.870   6.450  2.9462 -1.8189 -1.5040
 3962SOL    HW223523   3.490   1.737   6.459  1.1897  0.7997  1.3852
 3963SOL     OW23524   1.994   4.193   6.424 -0.3681 -0.1149  0.3313
 3963SOL    HW123525   1.962   4.105   6.445 -1.4032  0.1840  0.0010
 3963SOL    HW223526   2.083   4.181   6.456 -0.0909 -0.0408 -0.4210
 3964SOL     OW23527   4.586   2.118   6.207 -0.3087  0.2891  0.3705
 3964SOL    HW123528   4.664   2.062   6.206 -0.2504  0.3725  0.3173
 3964SOL    HW223529   4.629   2.203   6.202 -1.7074  0.9636  0.0066
 3965SOL     OW23530   0.803   2.291  12.064  0.3867  0.1812  0.1160
 3965SOL    HW123531   0.765   2.302  11.977  1.7910 -1.2962 -0.7102
 3965SOL    HW223532   0.880   2.348  12.069 -1.6168  2.9195 -0.7409
 3966SOL     OW23533   0.331   3.648   6.208 -0.4628  0.6438 -0.8363
 3966SOL    HW123534   0.322   3.710   6.280 -0.2601 -1.1869  0.7645
 3966SOL    HW223535   0.271   3.685   6.143 -0.6686  0.9871 -0.4461
 3967SOL     OW23536   3.487   0.803   7.394 -0.3799 -0.4574  0.0436
 3967SOL    HW123537   3.457   0.850   7.316  2.2621  1.3610  0.1215
 3967SOL    HW223538   3.409   0.751   7.412 -1.7268  2.6934  3.3471
 3968SOL     OW23539   0.659   4.671   3.437  0.2632  0.0091 -0.1842
 3968SOL    HW123540   0.671   0.009   3.494  1.9199 -0.7589  0.4907
 3968SOL    HW223541   0.710   4.693   3.360 -0.0508  0.3441 -0.3006
 3969SOL     OW23542   2.987   3.897   5.777 -0.2850 -0.2808  0.4187
 3969SOL    HW123543   3.064   3.927   5.730 -0.6573 -0.1497 -0.1096
 3969SOL    HW223544   3.034   3.840   5.839 -3.0067 -1.9040  1.0225
 3970SOL     OW23545   2.662   3.956   3.938 -0.7328  0.4873  0.4146
 3970SOL    HW123546   2.596   3.899   3.978  0.5055 -0.3220  1.3235
 3970SOL    HW223547   2.642   3.950   3.845  0.0497 -0.3931  0.2928
 3971SOL     OW23548   1.931   4.163  12.754  0.0034 -0.2179  0.0468
 3971SOL    HW123549   2.023   4.187  12.762  0.0370 -0.9536  1.7873
 3971SOL    HW223550   1.937   4.083  12.702  1.8710 -0.2455  0.3097
 3972SOL     OW23551   4.551   4.024   3.613  0.5607  0.0025  0.0711
 3972SOL    HW123552   4.543   4.055   3.704  1.0312  0.9382 -0.2021
 3972SOL    HW223553   4.556   4.108   3.566  1.6395 -0.4015 -0.5200
 3973SOL     OW23554   1.483   2.973   8.260 -0.4302 -0.7297  0.0751
 3973SOL    HW123555   1.418   2.969   8.189 -0.1201  0.9126 -0.2834
 3973SOL    HW223556   1.498   3.067   8.263  1.3445 -1.1143  3.5533
 3974SOL     OW23557   3.211   1.048   8.381  0.5934 -0.1671  0.7484
 3974SOL    HW123558   3.175   1.103   8.451  0.3479  1.2378 -0.4841
 3974SOL    HW223559   3.138   1.001   8.340 -0.9762  1.0839  2.1145
 3975SOL     OW23560   1.979   1.410  17.210 -0.4344  0.3838  0.0915
 3975SOL    HW123561   2.037   1.376  17.277  0.4116 -1.7337 -1.7316
 3975SOL    HW223562   2.041   1.450  17.149 -1.4846  0.1311 -1.1619
 3976SOL     OW23563   4.646   2.194  16.591  0.3120  0.0795 -0.7905
 3976SOL    HW123564   4.641   2.213  16.685  0.4153  0.1237 -0.7935
 3976SOL    HW223565   4.552   2.192  16.575  0.4426  0.9492 -1.6118
 3977SOL     OW23566   0.627   3.532  14.188 -0.6587 -0.2914  0.4182
 3977SOL    HW123567   0.596   3.596  14.124  1.2483  0.9109  0.7027
 3977SOL    HW223568   0.720   3.524  14.167 -0.2525  1.3789  1.5348
 3978SOL     OW23569   1.885   0.807  17.066 -0.4428 -0.2624  0.4159
 3978SOL    HW123570   1.890   0.783  16.973  4.1568 -1.2932  0.9057
 3978SOL    HW223571   1.815   0.872  17.062  0.5933  0.8600  0.6824
 3979SOL     OW23572   1.968   3.666   0.505  0.5311 -0.2321  0.3528
 3979SOL    HW123573   2.039   3.709   0.457 -1.6608  4.1757  1.0725
 3979SOL    HW223574   2.024   3.626   0.570  1.0439 -0.5402 -0.2764
 3980SOL     OW23575   3.792   4.340   5.633 -0.2620 -0.1997 -0.2466
 3980SOL    HW123576   3.832   4.365   5.549  2.4477 -0.7225  0.8988
 3980SOL    HW223577   3.699   4.366   5.628  0.1767  1.6522  1.2531
 3981SOL     OW23578   3.086   1.714   2.150 -0.1792  0.0060  0.2386
 3981SOL    HW123579   3.013   1.723   2.211 -2.1885 -0.5556 -2.0925
 3981SOL    HW223580   3.057   1.750   2.066  1.3140 -1.3548 -0.8620
 3982SOL     OW23581   3.715   4.440   1.362  0.0220  0.1071 -0.2737
 3982SOL    HW123582   3.745   4.502   1.295 -2.0701 -1.7243 -2.9445
 3982SOL    HW223583   3.721   4.491   1.443  0.1484  2.1298 -1.5330
 3983SOL     OW23584   0.886   2.440   7.594 -0.4818  0.5718  0.0124
 3983SOL    HW123585   0.968   2.432   7.643  0.1402  2.0959 -0.7882
 3983SOL    HW223586   0.911   2.499   7.523 -1.3707  0.0740 -0.7261
 3984SOL     OW23587   1.889   0.497   3.872 -0.2639  0.1096 -0.1118
 3984SOL    HW123588   1.914   0.559   3.803  1.3290  0.8722  1.1329
 3984SOL    HW223589   1.976   0.461   3.891 -0.8704 -0.1953  2.0653
 3985SOL     OW23590   2.028   4.192   8.997  0.2051  0.0068  0.4214
 3985SOL    HW123591   2.109   4.142   8.992 -0.3594 -0.8139 -0.6190
 3985SOL    HW223592   2.054   4.282   9.017 -0.0878  0.1146  0.3308
 3986SOL     OW23593   0.626   2.418   7.182  0.3778  0.5112 -0.2196
 3986SOL    HW123594   0.597   2.486   7.243 -1.0589  0.4273 -0.7974
 3986SOL    HW223595   0.566   2.350   7.212  1.0947 -0.1055 -0.2165
 3987SOL     OW23596   2.837   0.167   4.639  0.5382  0.0277 -0.6841
 3987SOL    HW123597   2.778   0.092   4.626 -0.7917  0.8881  0.4490
 3987SOL    HW223598   2.915   0.111   4.639 -0.8347 -1.8744  0.9598
 3988SOL     OW23599   2.214   3.376   4.181  0.4867  0.2128 -0.0769
 3988SOL    HW123600   2.208   3.350   4.089  0.8488 -0.8171  0.1886
 3988SOL    HW223601   2.302   3.345   4.204  0.5189 -0.4157 -1.0207
 3989SOL     OW23602   1.378   3.403  10.843  0.2503 -0.4685 -0.0674
 3989SOL    HW123603   1.416   3.487  10.869 -0.1483 -0.3244  0.0410
 3989SOL    HW223604   1.328   3.372  10.918  1.2895 -0.9577  0.4179
 3990SOL     OW23605   0.202   0.251   6.949 -0.3775  0.2333  0.1155
 3990SOL    HW123606   0.266   0.316   6.978  0.8582 -0.8830 -0.1200
 3990SOL    HW223607   0.245   0.170   6.976 -0.7750 -0.1369 -0.3472
 3991SOL     OW23608   3.040   3.986   7.205  0.0841 -0.3380  0.0442
 3991SOL    HW123609   3.022   3.921   7.136  5.7296  0.3530 -2.1630
 3991SOL    HW223610   3.037   3.942   7.290  1.0333 -0.7421 -0.1237
 3992SOL     OW23611   2.079   0.708   2.722  0.1333  0.0723  0.1689
 3992SOL    HW123612   2.140   0.640   2.694 -0.2284  0.1321 -0.7741
 3992SOL    HW223613   2.029   0.722   2.641 -0.2925  0.4229  0.4902
 3993SOL     OW23614   4.397   2.691  13.211  0.5547  0.2035  0.0034
 3993SOL    HW123615   4.381   2.710  13.303 -1.4735 -1.3690 -0.0135
 3993SOL    HW223616   4.486   2.656  13.208  0.1628 -0.8137  0.0113
 3994SOL     OW23617   1.536   0.763   8.850  0.5068  0.3743 -0.2392
 3994SOL    HW123618   1.513   0.676   8.883  1.9083  1.1734  2.8482
 3994SOL    HW223619   1.513   0.808   8.931  0.6720 -0.1599  0.1012
 3995SOL     OW23620   0.726   1.137  15.582  0.0617 -0.2375 -0.7223
 3995SOL    HW123621   0.794   1.192  15.543 -0.4075  1.0134  0.2116
 3995SOL    HW223622   0.768   1.102  15.660 -1.5955 -0.5581  0.0192
 3996SOL     OW23623   3.808   1.832   6.395 -0.1004 -0.1303  0.1814
 3996SOL    HW123624   3.871   1.862   6.330 -0.3540  1.7163  0.7776
 3996SOL    HW223625   3.845   1.749   6.424  0.3098  0.2700  0.8324
 3997SOL     OW23626   3.153   1.066  11.149  0.1805  0.1596  0.4392
 3997SOL    HW123627   3.128   0.985  11.194  0.7120  0.1619  0.7293
 3997SOL    HW223628   3.071   1.086  11.103  0.8824  0.3487 -0.7050
 3998SOL     OW23629   3.449   0.407   5.968 -0.9171 -0.2813 -0.4723
 3998SOL    HW123630   3.385   0.443   5.907  1.4750  1.3819 -1.9935
 3998SOL    HW223631   3.390   0.356   6.024 -0.5136 -1.0700 -0.7625
 3999SOL     OW23632   3.469   2.870   7.545  0.3465 -0.0498 -0.2703
 3999SOL    HW123633   3.383   2.834   7.523  0.8964 -0.8784 -1.0823
 3999SOL    HW223634   3.429   2.945   7.588 -0.9781 -1.0560  0.2293
 4000SOL     OW23635   4.414   4.362   2.846  0.4295  0.2398 -0.4952
 4000SOL    HW123636   4.380   4.390   2.931 -1.3470 -0.7307 -0.8804
 4000SOL    HW223637   4.508   4.381   2.844  0.3548  0.5177 -1.1715
 4001SOL     OW23638   4.112   1.417  10.162 -0.4484  0.2800  0.1518
 4001SOL    HW123639   4.181   1.382  10.218 -1.7117 -1.9800  0.3222
 4001SOL    HW223640   4.158   1.487  10.116  0.6993 -1.6579 -1.6248
 4002SOL     OW23641   3.005   3.183   1.225  0.1822  0.9636 -0.1503
 4002SOL    HW123642   2.925   3.152   1.181 -0.3689  2.1482  0.0099
 4002SOL    HW223643   3.053   3.100   1.232  1.6706  2.0266  2.0627
 4003SOL     OW23644   4.136   2.713   1.624  0.3067  0.7487 -0.3905
 4003SOL    HW123645   4.062   2.683   1.571 -1.7460  1.0970  2.2586
 4003SOL    HW223646   4.094   2.749   1.702 -2.1818  0.5756 -1.6345
 4004SOL     OW23647   3.475   2.413   2.823 -0.2739 -0.1966  0.0739
 4004SOL    HW123648   3.442   2.497   2.854  1.1793  1.2371 -2.2708
 4004SOL    HW223649   3.503   2.429   2.733 -0.2298 -1.2191 -0.0976
 4005SOL     OW23650   0.515   3.827   5.234 -0.9047  0.1833  0.6784
 4005SOL    HW123651   0.530   3.802   5.325  1.2716 -0.4501  0.1517
 4005SOL    HW223652   0.493   3.920   5.244 -1.1494  0.4388 -2.2807
 4006SOL     OW23653   0.720   1.930  14.502  0.5435 -0.8645 -0.0805
 4006SOL    HW123654   0.706   1.910  14.409  3.4337  3.1272 -1.3705
 4006SOL    HW223655   0.703   1.841  14.533 -2.3004 -0.6920 -1.1372
 4007SOL     OW23656   0.825   2.617   6.608 -0.0956  0.2373 -0.2302
 4007SOL    HW123657   0.808   2.593   6.699 -0.0019  3.3827  0.6430
 4007SOL    HW223658   0.859   2.534   6.574  0.1637 -0.3882  1.5461
 4008SOL     OW23659   4.010   0.750  14.373 -0.3007 -0.6160  0.6717
 4008SOL    HW123660   3.971   0.823  14.324 -0.9554 -0.6143  1.1904
 4008SOL    HW223661   3.976   0.669  14.334 -2.0230  0.5103 -0.1423
 4009SOL     OW23662   3.292   1.277  10.921  0.2090  0.3593  0.1468
 4009SOL    HW123663   3.311   1.203  10.864 -0.7749  1.3844 -1.4829
 4009SOL    HW223664   3.331   1.251  11.005 -2.1531 -0.2860  1.0299
 4010SOL     OW23665   1.317   0.771   4.834  0.5930  0.2645  0.1006
 4010SOL    HW123666   1.273   0.704   4.886  0.1885 -0.6384 -1.3970
 4010SOL    HW223667   1.325   0.846   4.893 -1.0982  1.0425 -0.6669
 4011SOL     OW23668   3.060   2.529   9.702 -0.6639 -0.2216  0.0847
 4011SOL    HW123669   3.044   2.553   9.793  1.1982  0.8881  0.1360
 4011SOL    HW223670   3.140   2.478   9.714  1.2301  1.9424 -3.2095
 4012SOL     OW23671   2.697   0.743   6.312  0.4061  0.1780  0.1933
 4012SOL    HW123672   2.622   0.711   6.363  1.3614 -0.6239  1.1068
 4012SOL    HW223673   2.673   0.741   6.220  0.8695 -2.4198  0.1122
 4013SOL     OW23674   4.520   4.555   4.926 -0.2038  0.2637  0.5501
 4013SOL    HW123675   4.480   4.581   5.010 -1.1501 -1.7690  0.7371
 4013SOL    HW223676   4.520   4.634   4.872  0.1570  0.1203  0.3414
 4014SOL     OW23677   4.530   4.161   2.106 -0.1570 -0.5270 -0.6710
 4014SOL    HW123678   4.441   4.181   2.135  0.4721  0.8678  0.2879
 4014SOL    HW223679   4.549   4.074   2.141  1.8036 -0.3225 -1.1889
 4015SOL     OW23680   4.304   0.091   5.491 -0.3147  0.0896  0.2460
 4015SOL    HW123681   4.302   0.135   5.407 -1.6321  0.2995  0.3808
 4015SOL    HW223682   4.273   0.157   5.553 -1.0626 -0.1305  0.1026
 4016SOL     OW23683   4.470   4.319  16.758 -0.2743  0.1929 -0.1085
 4016SOL    HW123684   4.492   4.392  16.700 -2.3951  0.8530 -0.1089
 4016SOL    HW223685   4.528   4.340  16.831 -0.9444  1.0793  0.1651
 4017SOL     OW23686   3.796   2.279   1.355  0.1215 -0.0534 -0.3800
 4017SOL    HW123687   3.889   2.268   1.373 -0.3779 -0.9911  1.6200
 4017SOL    HW223688   3.780   2.192   1.320 -4.1163  0.5618 -0.0506
 4018SOL     OW23689   0.152   4.671   4.814 -0.0298  0.0064  0.0623
 4018SOL    HW123690   0.131   4.679   4.907 -0.5801 -0.2881 -0.0382
 4018SOL    HW223691   0.103   4.589   4.804  3.2671 -1.8316 -0.7484
 4019SOL     OW23692   3.836   2.342   4.114  0.7660 -0.1109 -0.1418
 4019SOL    HW123693   3.850   2.334   4.019  0.4102 -0.8398 -0.1277
 4019SOL    HW223694   3.865   2.431   4.136  2.5099 -0.9635  0.9075
 4020SOL     OW23695   3.411   1.778   5.935 -0.0034 -0.6180  0.5725
 4020SOL    HW123696   3.352   1.703   5.936 -0.4009 -0.3512 -1.8157
 4020SOL    HW223697   3.465   1.759   5.858  1.4236  0.9182  1.1909
 4021SOL     OW23698   0.470   3.797   8.816 -0.0560  0.5315 -0.2143
 4021SOL    HW123699   0.445   3.878   8.860 -1.2613 -1.0348  1.9678
 4021SOL    HW223700   0.514   3.830   8.737  0.5646  0.8351  0.2568
 4022SOL     OW23701   0.976   2.313   1.858 -0.3032  0.0032  0.0086
 4022SOL    HW123702   0.946   2.359   1.936 -0.1924 -0.4822  0.3370
 4022SOL    HW223703   1.006   2.229   1.892  0.5484 -0.0542 -0.8814
 4023SOL     OW23704   4.236   0.945  10.533 -0.6884 -0.0626 -0.3421
 4023SOL    HW123705   4.261   0.986  10.615 -2.0542  0.5454 -0.2238
 4023SOL    HW223706   4.315   0.894  10.515 -0.9502 -0.6716  0.2462
 4024SOL     OW23707   1.228   2.515  10.149  0.1529  0.2721  0.1088
 4024SOL    HW123708   1.136   2.495  10.136 -0.1920  1.3439  0.8807
 4024SOL    HW223709   1.232   2.476  10.237 -1.0419 -2.0070 -0.8648
 4025SOL     OW23710   4.349   2.719   5.172  0.2505 -0.4030  0.1535
 4025SOL    HW123711   4.264   2.676   5.171 -0.8923  1.8479  0.4957
 4025SOL    HW223712   4.392   2.703   5.256 -0.1672  2.9884  1.0072
 4026SOL     OW23713   1.587   2.376  11.531 -0.4343 -0.3605 -0.3792
 4026SOL    HW123714   1.590   2.282  11.547 -0.5005 -0.6552 -2.1394
 4026SOL    HW223715   1.679   2.403  11.531 -0.3347 -0.7129  0.7620
 4027SOL     OW23716   2.768   2.421   4.048  0.0649  0.1081 -0.8603
 4027SOL    HW123717   2.751   2.330   4.021  3.2754 -1.0435  0.9238
 4027SOL    HW223718   2.682   2.461   4.037  0.8120  2.1563  0.9549
 4028SOL     OW23719   4.071   1.553   0.036 -0.1123 -0.2299 -0.2043
 4028SOL    HW123720   4.161   1.540   0.007 -0.1007  1.6926 -1.0413
 4028SOL    HW223721   4.082   1.586   0.126 -0.1387  0.9178 -0.6175
 4029SOL     OW23722   3.439   3.320  17.035  0.4660  0.3283  0.0571
 4029SOL    HW123723   3.483   3.400  17.005 -0.2950  0.6740 -0.1338
 4029SOL    HW223724   3.494   3.250  17.000 -0.8974 -0.0697 -1.2952
 4030SOL     OW23725   0.735   4.684   6.243  0.1163 -0.1827 -0.1028
 4030SOL    HW123726   0.678   4.612   6.217  1.9947 -1.1697 -1.4523
 4030SOL    HW223727   0.694   4.699   6.329 -0.5249 -0.8392 -0.2986
 4031SOL     OW23728   2.552   4.235   1.953 -0.1473 -0.8157 -0.2367
 4031SOL    HW123729   2.593   4.168   2.007 -1.5161 -1.2826  0.2216
 4031SOL    HW223730   2.587   4.314   1.994 -2.1050 -1.3979  2.5515
 4032SOL     OW23731   4.700   2.848   5.101 -0.2481  0.0569  0.3075
 4032SOL    HW123732   4.705   2.868   5.194 -1.5275  1.6889  0.0203
 4032SOL    HW223733   4.733   2.758   5.101 -1.1766 -0.2756  2.0051
 4033SOL     OW23734   3.656   2.170  10.123 -0.1817 -0.4300 -0.3145
 4033SOL    HW123735   3.565   2.199  10.126 -0.1127 -0.2469  0.0118
 4033SOL    HW223736   3.636   2.079  10.104  0.6036 -1.0108  1.7075
 4034SOL     OW23737   1.010   0.603   6.000  0.3456  0.9587 -0.2578
 4034SOL    HW123738   0.962   0.572   6.077 -0.1650  0.9798 -0.5679
 4034SOL    HW223739   1.099   0.607   6.037  0.8319 -1.4545 -1.2020
 4035SOL     OW23740   3.384   2.209  14.966 -0.6957 -0.8503 -0.2086
 4035SOL    HW123741   3.394   2.132  15.022  0.5002 -1.1447 -0.8207
 4035SOL    HW223742   3.443   2.194  14.892  0.6474  1.7517  0.3288
 4036SOL     OW23743   4.077   4.266  13.034  0.4752  0.0461 -0.0553
 4036SOL    HW123744   4.021   4.297  13.105  0.2569  0.6920 -0.5048
 4036SOL    HW223745   4.149   4.328  13.044 -0.9821  1.8278 -0.5729
 4037SOL     OW23746   0.985   1.949   8.210  0.3391 -0.0558  0.1802
 4037SOL    HW123747   1.010   1.857   8.212  1.1167  0.1502 -0.1347
 4037SOL    HW223748   0.904   1.938   8.259  1.2384 -0.3699  1.5865
 4038SOL     OW23749   2.789   1.852   6.918 -1.0811  0.1572  0.1470
 4038SOL    HW123750   2.746   1.928   6.878 -1.1835  0.9763  1.7634
 4038SOL    HW223751   2.881   1.879   6.916 -1.2444  0.5931 -1.6347
 4039SOL     OW23752   3.999   3.278   7.893  0.8465  0.2256 -0.7095
 4039SOL    HW123753   4.015   3.336   7.968  0.7741 -0.8761  0.1578
 4039SOL    HW223754   4.085   3.301   7.857  2.1384 -3.4846  0.0415
 4040SOL     OW23755   3.799   0.079  12.070 -0.1705 -0.4581 -0.0906
 4040SOL    HW123756   3.825   0.113  12.156 -0.6866  1.1906 -0.5792
 4040SOL    HW223757   3.779   0.149  12.008 -1.1674  1.0456  1.9403
 4041SOL     OW23758   2.163   0.384   4.741 -0.3438  0.4390 -0.2067
 4041SOL    HW123759   2.176   0.418   4.830  1.3297  2.2476 -1.1457
 4041SOL    HW223760   2.160   0.473   4.705  1.7984  1.8058  3.0111
 4042SOL     OW23761   2.015   1.456   5.696 -0.1220 -0.1946 -1.0735
 4042SOL    HW123762   2.045   1.387   5.755 -2.0230  0.9627  1.2573
 4042SOL    HW223763   1.964   1.512   5.755 -0.6742 -1.0349 -0.7565
 4043SOL     OW23764   1.643   1.192   4.604 -0.0732  0.4810  0.5941
 4043SOL    HW123765   1.623   1.191   4.510 -0.4894 -3.0992  0.7119
 4043SOL    HW223766   1.577   1.140   4.650 -0.2396 -2.7160 -3.2380
 4044SOL     OW23767   0.597   2.427  15.402  0.4589  0.1738 -0.4416
 4044SOL    HW123768   0.650   2.349  15.387  0.2119 -0.1081  0.1270
 4044SOL    HW223769   0.530   2.427  15.333  0.3334 -1.3411 -0.3211
 4045SOL     OW23770   2.778   1.438   4.129  0.1539 -0.3558 -0.4960
 4045SOL    HW123771   2.784   1.395   4.215  1.2243  0.8683  0.0302
 4045SOL    HW223772   2.872   1.433   4.111  0.1980 -1.0856 -0.0755
 4046SOL     OW23773   0.523   4.473   0.480  0.0970 -0.1609 -0.0318
 4046SOL    HW123774   0.471   4.545   0.445  0.1656  0.7937  1.8135
 4046SOL    HW223775   0.562   4.436   0.401 -0.1036  1.5040 -0.9133
 4047SOL     OW23776   0.995   4.642   6.993  0.7831 -0.3921  0.1682
 4047SOL    HW123777   0.980   4.706   7.063 -1.0829 -1.5822  0.8785
 4047SOL    HW223778   1.048   4.695   6.934 -2.4524  1.1581 -1.3321
 4048SOL     OW23779   2.370   4.457   9.803  0.1137  0.0330 -0.6309
 4048SOL    HW123780   2.409   4.428   9.885  0.3680  0.1517 -0.7111
 4048SOL    HW223781   2.311   4.384   9.784 -0.2769  0.5452 -1.3727
 4049SOL     OW23782   1.775   3.410   2.892  0.2478  0.0121 -0.4826
 4049SOL    HW123783   1.809   3.453   2.970  0.2322 -0.8116 -0.0250
 4049SOL    HW223784   1.848   3.419   2.830 -0.3672  0.8563 -1.0910
 4050SOL     OW23785   4.119   4.270  10.128  0.2037 -0.6834  0.0232
 4050SOL    HW123786   4.135   4.257  10.221  2.7523  0.8363 -0.1790
 4050SOL    HW223787   4.213   4.284  10.115 -0.2801  2.9627  0.5457
 4051SOL     OW23788   1.690   4.262  12.681  0.1290  0.9471  0.8115
 4051SOL    HW123789   1.658   4.177  12.650 -1.5390  1.6668  0.5212
 4051SOL    HW223790   1.776   4.238  12.715  0.6499 -0.8221 -1.7515
 4052SOL     OW23791   0.160   2.128   0.114 -0.3365  0.3974  0.0001
 4052SOL    HW123792   0.087   2.164   0.163  0.6089  1.2350  0.7876
 4052SOL    HW223793   0.164   2.038   0.148 -1.5095  0.5341  0.4942
 4053SOL     OW23794   2.673   4.336   5.518 -0.2663 -0.1967  0.5762
 4053SOL    HW123795   2.651   4.254   5.563  0.4636  0.3338  1.9123
 4053SOL    HW223796   2.709   4.297   5.439 -2.3659  0.9056 -0.9231
 4054SOL     OW23797   4.583   2.013   5.808  0.1407  0.1682 -0.0660
 4054SOL    HW123798   4.600   1.929   5.766 -1.1468  0.5276 -1.2839
 4054SOL    HW223799   4.558   1.988   5.897  1.9774 -0.6070  0.2388
 4055SOL     OW23800   1.848   4.409   1.285 -0.2797 -0.6051 -0.2901
 4055SOL    HW123801   1.795   4.471   1.236 -0.3316 -0.8152 -0.4990
 4055SOL    HW223802   1.886   4.360   1.212  1.5935  1.4107 -0.6979
 4056SOL     OW23803   3.703   2.486   6.876  0.9090  0.6001 -0.0085
 4056SOL    HW123804   3.792   2.456   6.855  1.4618  1.5226  0.9818
 4056SOL    HW223805   3.716   2.568   6.827  2.6384  1.4721  1.8849
 4057SOL     OW23806   4.625   0.025   6.975 -0.7311  0.1951 -0.3024
 4057SOL    HW123807   4.641   4.692   7.035  0.1606  1.5547  1.0735
 4057SOL    HW223808   4.712   0.034   6.935 -0.9693  2.6434 -0.2959
 4058SOL     OW23809   3.277   0.921   5.493 -0.1067 -0.0212  0.0477
 4058SOL    HW123810   3.362   0.932   5.534  0.3899  1.0376 -1.2692
 4058SOL    HW223811   3.304   0.966   5.413 -0.0132  1.0985  0.7120
 4059SOL     OW23812   1.237   1.693   6.657  0.2637 -0.3998 -0.1412
 4059SOL    HW123813   1.302   1.753   6.619 -0.3290  1.3793  1.6239
 4059SOL    HW223814   1.284   1.611   6.645  2.5144  0.6258  1.5748
 4060SOL     OW23815   2.154   2.291   0.191  0.4265 -0.3177  0.6991
 4060SOL    HW123816   2.250   2.292   0.197  0.4348  1.5674  0.0849
 4060SOL    HW223817   2.137   2.383   0.210 -0.5414 -0.2333 -0.5816
 4061SOL     OW23818   3.144   2.524   4.744 -0.0775  0.4104 -0.0039
 4061SOL    HW123819   3.231   2.557   4.721  1.0783 -1.8940  1.0795
 4061SOL    HW223820   3.131   2.445   4.692  0.8614 -0.0472  0.4579
 4062SOL     OW23821   1.701   4.444  13.902 -0.0912 -0.1597  0.9203
 4062SOL    HW123822   1.756   4.439  13.824 -1.1175  0.4602  0.1515
 4062SOL    HW223823   1.747   4.517  13.944 -1.3545  1.2112 -0.0725
 4063SOL     OW23824   0.141   4.363   7.149  0.8723  0.5375 -0.0643
 4063SOL    HW123825   0.084   4.433   7.116 -1.4706  0.1276  3.1044
 4063SOL    HW223826   0.220   4.405   7.185  1.4293  1.3418 -2.2357
 4064SOL     OW23827   4.738   3.787  13.829 -0.2213 -0.6411  0.2435
 4064SOL    HW123828   0.078   3.809  13.779 -1.9561  0.9366 -1.7671
 4064SOL    HW223829   0.002   3.692  13.824  1.0300 -0.5312 -1.0420
 4065SOL     OW23830   2.493   4.002   8.214 -0.0891 -0.0903  0.0453
 4065SOL    HW123831   2.461   3.918   8.180  0.5792 -1.2033  2.1596
 4065SOL    HW223832   2.575   3.973   8.254  1.0452 -0.3935 -2.5254
 4066SOL     OW23833   3.108   3.402   0.084  0.1449  0.4900 -0.4348
 4066SOL    HW123834   3.041   3.334   0.086 -0.4164  1.0964  0.9925
 4066SOL    HW223835   3.084   3.455   0.007  0.6329  0.3215 -0.7011
 4067SOL     OW23836   1.637   0.046   5.929 -0.2275  0.2960  0.2316
 4067SOL    HW123837   1.608   0.103   5.858 -0.1543  3.3380  2.6895
 4067SOL    HW223838   1.730   0.043   5.906 -0.3215  1.5877 -0.2810
 4068SOL     OW23839   3.854   0.220  12.514  0.3561  0.0202  0.2536
 4068SOL    HW123840   3.932   0.168  12.499  1.0507  1.3406 -0.7722
 4068SOL    HW223841   3.857   0.285  12.444  1.2666 -0.1662  0.1292
 4069SOL     OW23842   2.008   3.375   2.071  0.5244  0.2008 -0.4317
 4069SOL    HW123843   1.949   3.442   2.108 -0.3901 -1.6356  1.4254
 4069SOL    HW223844   2.004   3.314   2.144 -1.8589 -2.5558 -2.8867
 4070SOL     OW23845   4.241   3.220   6.220  0.1007 -0.0960 -0.0633
 4070SOL    HW123846   4.166   3.169   6.191  0.2109  0.8988 -2.0504
 4070SOL    HW223847   4.236   3.191   6.311  1.4359  0.9108  0.3381
 4071SOL     OW23848   2.641   4.712   7.031  0.1001 -0.0308 -0.4965
 4071SOL    HW123849   2.695   4.672   6.962 -0.3139 -2.7920  0.7592
 4071SOL    HW223850   2.593   0.035   6.976 -0.3669  0.1862  0.1584
 4072SOL     OW23851   4.584   2.520   2.797  0.1135 -0.3729  0.1171
 4072SOL    HW123852   4.634   2.508   2.878  0.1576  1.1064  0.3003
 4072SOL    HW223853   4.634   2.476   2.728  0.5459  1.7799 -0.9376
 4073SOL     OW23854   0.555   3.313   7.590 -0.4212 -0.2088  0.0048
 4073SOL    HW123855   0.643   3.302   7.554 -0.2431  1.2346 -0.0029
 4073SOL    HW223856   0.579   3.347   7.677  0.0806  0.9352 -0.5865
 4074SOL     OW23857   1.375   1.226   7.795  0.0190  0.1099 -0.3558
 4074SOL    HW123858   1.410   1.137   7.787 -1.3829 -0.4594  0.0576
 4074SOL    HW223859   1.306   1.240   7.730 -0.3834  1.4319  0.3607
 4075SOL     OW23860   2.430   1.864   8.708  0.1039 -0.2485  0.3165
 4075SOL    HW123861   2.379   1.843   8.630 -0.6927  1.0774  0.4777
 4075SOL    HW223862   2.411   1.957   8.695 -1.8288 -0.7738 -0.6605
 4076SOL     OW23863   3.602   1.541  15.169  0.0154 -0.0558  0.2717
 4076SOL    HW123864   3.637   1.457  15.139  1.9599  0.7448  0.3696
 4076SOL    HW223865   3.672   1.595  15.205  1.6748 -1.0549 -1.4831
 4077SOL     OW23866   1.798   4.460   4.781  0.1156 -0.8940  0.2170
 4077SOL    HW123867   1.853   4.448   4.859  1.3901  0.7877 -0.4234
 4077SOL    HW223868   1.836   4.536   4.737 -0.0971  0.0184  1.5987
 4078SOL     OW23869   2.544   0.403  16.892 -0.1109 -0.7107  0.2639
 4078SOL    HW123870   2.546   0.498  16.888  1.2253 -0.6846  1.2653
 4078SOL    HW223871   2.635   0.389  16.919 -0.5652  0.4123  2.3650
 4079SOL     OW23872   2.302   4.540   2.412  0.0645 -0.4739 -0.2665
 4079SOL    HW123873   2.330   4.473   2.349 -2.2485 -1.0123 -0.7075
 4079SOL    HW223874   2.310   4.620   2.361 -0.6964 -0.5830 -0.5518
 4080SOL     OW23875   2.365   3.273   8.195  0.3818 -0.1161 -0.2031
 4080SOL    HW123876   2.280   3.232   8.211  0.3942 -0.4502 -1.0142
 4080SOL    HW223877   2.341   3.363   8.220 -1.3822  0.1859 -3.0177
 4081SOL     OW23878   3.828   0.488   7.085 -0.0416  0.1620  0.4027
 4081SOL    HW123879   3.809   0.407   7.131  0.6226 -1.6693 -2.5407
 4081SOL    HW223880   3.858   0.538   7.161  0.1820 -0.0873  0.4768
 4082SOL     OW23881   2.055   2.527   7.826  0.9551 -0.3111  0.0477
 4082SOL    HW123882   2.148   2.544   7.838  1.3304 -2.1376 -0.2077
 4082SOL    HW223883   2.011   2.609   7.807  0.1439 -0.3607  1.6338
 4083SOL     OW23884   0.814   4.165   2.312 -0.0556  0.0416 -0.1633
 4083SOL    HW123885   0.825   4.251   2.351 -1.1901  0.8220 -1.5956
 4083SOL    HW223886   0.903   4.152   2.278 -1.3265  0.4169 -3.5975
 4084SOL     OW23887   1.900   1.537  17.583 -0.1748 -0.1434 -0.1616
 4084SOL    HW123888   1.858   1.623  17.583 -0.7814 -0.4518 -1.4618
 4084SOL    HW223889   1.828   1.481  17.555  0.0206 -0.7926  0.6466
 4085SOL     OW23890   0.966   3.929   1.816  0.6397 -0.6770  0.1115
 4085SOL    HW123891   0.949   4.013   1.858  0.0740  0.7995 -3.0617
 4085SOL    HW223892   0.920   3.876   1.881  0.9718 -2.0482 -0.7839
 4086SOL     OW23893   3.398   4.028   7.719  1.1060  0.3677 -0.0685
 4086SOL    HW123894   3.322   4.003   7.771  0.8698  1.5962  0.1767
 4086SOL    HW223895   3.434   3.940   7.709 -1.6704 -0.7995  0.2868
 4087SOL     OW23896   3.134   3.599   8.501  0.3386 -0.1756  0.6857
 4087SOL    HW123897   3.062   3.642   8.548  0.3485  0.4238  0.1459
 4087SOL    HW223898   3.135   3.515   8.547 -3.6157 -0.0201  1.0577
 4088SOL     OW23899   2.958   3.780   8.656  0.5394 -0.6472 -0.1933
 4088SOL    HW123900   2.965   3.868   8.693  0.4595  0.1461 -2.0534
 4088SOL    HW223901   2.883   3.743   8.702  0.5563 -0.8893 -0.3607
 4089SOL     OW23902   1.959   4.474   6.123 -0.4143 -0.1461  0.7789
 4089SOL    HW123903   1.999   4.545   6.074 -0.4529  0.3117  1.4029
 4089SOL    HW223904   1.883   4.515   6.163 -1.5260 -1.5568  0.1318
 4090SOL     OW23905   3.501   1.578   9.369 -0.5624 -0.4323  0.0826
 4090SOL    HW123906   3.456   1.508   9.415 -0.0824 -0.5699  0.3452
 4090SOL    HW223907   3.559   1.596   9.443  2.0094 -0.2043 -1.9575
 4091SOL     OW23908   1.999   1.636   0.775 -0.8378  0.2197 -0.0854
 4091SOL    HW123909   1.975   1.691   0.700 -0.3956 -2.6452 -2.3369
 4091SOL    HW223910   2.051   1.704   0.818  1.1972 -0.7723 -1.0055
 4092SOL     OW23911   4.559   3.281   4.642  0.0035 -0.0087 -0.7676
 4092SOL    HW123912   4.551   3.321   4.555 -0.9502  0.9159 -0.2636
 4092SOL    HW223913   4.527   3.191   4.633 -0.8248  0.0229  1.9302
 4093SOL     OW23914   0.996   3.584   8.583  0.3013  0.0618  0.1551
 4093SOL    HW123915   1.031   3.519   8.644  2.5002  0.9102 -0.2093
 4093SOL    HW223916   0.902   3.563   8.586  0.2087  0.2374 -1.3597
 4094SOL     OW23917   0.013   0.822   4.130 -0.6862 -0.8506 -0.1343
 4094SOL    HW123918   4.713   0.900   4.090  2.4855  0.8502  0.1321
 4094SOL    HW223919   0.059   0.794   4.052  0.7655 -0.8383  0.7208
 4095SOL     OW23920   0.269   1.092  11.914  0.3849  0.9210  0.3913
 4095SOL    HW123921   0.265   1.089  12.010  0.7729  0.2465  0.3867
 4095SOL    HW223922   0.181   1.060  11.893  0.7432 -0.0482  0.3871
 4096SOL     OW23923   2.789   3.093   8.719  0.3629  0.5190 -0.4070
 4096SOL    HW123924   2.722   3.155   8.690 -0.8050 -0.8759 -0.6852
 4096SOL    HW223925   2.745   3.009   8.709  0.1006  0.7681 -1.3592
 4097SOL     OW23926   3.747   1.027   0.015  0.9817  0.2890  0.2328
 4097SOL    HW123927   3.831   0.987  17.745  1.4183  0.5982  1.2644
 4097SOL    HW223928   3.690   0.955  17.741  0.2072  0.7757  0.5709
 4098SOL     OW23929   4.131   2.374   3.494  0.1767 -0.3396  0.5155
 4098SOL    HW123930   4.042   2.341   3.483 -0.4068  0.6438  2.2793
 4098SOL    HW223931   4.175   2.332   3.420  1.0164 -0.5813  1.1438
 4099SOL     OW23932   1.067   0.540   0.388 -0.0468  0.5505 -0.2372
 4099SOL    HW123933   1.110   0.626   0.392 -1.8212  1.4309  0.0402
 4099SOL    HW223934   1.135   0.490   0.343  1.0334  1.3937  0.4732
 4100SOL     OW23935   0.065   2.437   9.035  0.9816 -0.0338  0.4861
 4100SOL    HW123936   0.094   2.512   8.982 -1.3217  1.5224  1.3996
 4100SOL    HW223937   0.090   2.466   9.123  0.5736  1.8539 -0.0156
 4101SOL     OW23938   3.098   3.469   6.427 -0.0257  0.2294  0.2245
 4101SOL    HW123939   3.039   3.532   6.468  0.6917  1.0918 -0.0748
 4101SOL    HW223940   3.101   3.512   6.341 -0.0368  0.0931  0.1557
 4102SOL     OW23941   3.351   2.217   8.767  0.1029  0.2131  0.0901
 4102SOL    HW123942   3.289   2.280   8.802 -1.1126  0.0335 -1.7401
 4102SOL    HW223943   3.382   2.184   8.851  0.4174  2.7400  0.9516
 4103SOL     OW23944   4.447   3.716   9.757  0.0196 -0.4438  0.2491
 4103SOL    HW123945   4.503   3.639   9.769  0.8460 -0.1915 -1.9227
 4103SOL    HW223946   4.385   3.700   9.828 -0.7925 -0.5123 -0.4673
 4104SOL     OW23947   0.458   2.288   4.876 -0.4165  0.0749 -0.5242
 4104SOL    HW123948   0.378   2.256   4.835  0.8125 -4.1191  0.3245
 4104SOL    HW223949   0.426   2.356   4.936  0.5206 -0.9473  1.1304
 4105SOL     OW23950   0.912   2.539  11.381  0.6556 -0.0791  0.6207
 4105SOL    HW123951   0.946   2.597  11.314  0.2778 -0.9436 -0.3176
 4105SOL    HW223952   0.993   2.515  11.427  1.1125 -0.0142 -0.1521
 4106SOL     OW23953   4.104   4.268   2.843 -0.2744 -0.3501 -0.2926
 4106SOL    HW123954   4.110   4.206   2.916 -0.0495  0.9416  0.7862
 4106SOL    HW223955   4.047   4.339   2.872  1.6839  0.5969  1.2519
 4107SOL     OW23956   3.660   0.395   1.952  0.3369  0.2712 -0.1102
 4107SOL    HW123957   3.597   0.423   2.018  0.7821  1.7931 -0.3150
 4107SOL    HW223958   3.668   0.481   1.911  0.5489  0.0601 -0.5201
 4108SOL     OW23959   1.486   2.625   2.256  0.0930  0.6380 -0.1510
 4108SOL    HW123960   1.550   2.567   2.216 -0.4607  2.1687 -3.3005
 4108SOL    HW223961   1.432   2.645   2.179 -0.5589 -0.2742  0.0667
 4109SOL     OW23962   4.698   1.427  17.539 -0.4266 -0.4776 -0.1654
 4109SOL    HW123963   4.723   1.358  17.600 -0.2797  0.2384  0.5814
 4109SOL    HW223964   0.041   1.446  17.494  1.0412 -2.1700  1.8270
 4110SOL     OW23965   1.657   0.879   4.731  0.0589 -0.2459 -0.1336
 4110SOL    HW123966   1.602   0.810   4.770  1.7137 -1.1224  0.6395
 4110SOL    HW223967   1.638   0.869   4.638  2.5103 -2.8911 -0.3621
 4111SOL     OW23968   3.901   1.955   9.625 -0.2871  0.1434 -0.4760
 4111SOL    HW123969   3.907   1.947   9.720  0.4512 -2.1636 -0.7289
 4111SOL    HW223970   3.926   1.870   9.589 -2.5643  0.6482 -3.2174
 4112SOL     OW23971   3.106   3.526   5.474 -0.2511  0.2236 -0.0223
 4112SOL    HW123972   3.053   3.500   5.549 -2.4440  0.8441 -1.3718
 4112SOL    HW223973   3.085   3.618   5.459  0.2399  0.2211 -0.7385
 4113SOL     OW23974   3.127   0.486   7.345  0.3147  0.2863  0.2434
 4113SOL    HW123975   3.102   0.480   7.437  1.0675  0.1330  0.4401
 4113SOL    HW223976   3.073   0.563   7.329  0.0894 -0.2252 -1.4360
 4114SOL     OW23977   0.310   4.055   8.223  0.5368  0.2946 -0.4961
 4114SOL    HW123978   0.240   4.091   8.168 -0.7437 -0.2510  0.7539
 4114SOL    HW223979   0.300   3.963   8.201  2.0017  0.3503 -1.3281
 4115SOL     OW23980   3.003   3.735  15.242  0.2305  0.0765 -0.1264
 4115SOL    HW123981   3.091   3.749  15.277  0.6672 -0.8552 -0.8397
 4115SOL    HW223982   3.020   3.743  15.148 -0.5017  0.1714 -0.2457
 4116SOL     OW23983   4.664   3.523   6.608  0.0856 -0.4187 -0.0067
 4116SOL    HW123984   4.596   3.458   6.595 -0.3704  0.3644 -1.5950
 4116SOL    HW223985   4.613   3.575   6.670 -1.2411 -1.0372 -0.5661
 4117SOL     OW23986   1.069   0.383   5.664 -0.1188 -0.5366  0.5044
 4117SOL    HW123987   1.013   0.461   5.660 -0.8903 -1.1237 -0.3283
 4117SOL    HW223988   1.055   0.353   5.574  3.5266 -0.5469 -0.0707
 4118SOL     OW23989   1.303   2.332   7.301  0.0472  0.0014  0.0293
 4118SOL    HW123990   1.260   2.372   7.226 -0.2539 -0.5666 -0.1044
 4118SOL    HW223991   1.366   2.280   7.251 -0.4739 -2.0983  1.5389
 4119SOL     OW23992   2.070   0.215   3.504  0.3142 -0.0686 -0.8134
 4119SOL    HW123993   1.985   0.192   3.465  0.8543  0.6512 -2.4137
 4119SOL    HW223994   2.129   0.223   3.430 -0.3279  0.4520 -1.2737
 4120SOL     OW23995   0.597   0.966   7.706  0.3068  0.2025  0.1606
 4120SOL    HW123996   0.609   0.874   7.732  0.7525  0.4666  0.8923
 4120SOL    HW223997   0.578   0.969   7.612  0.2881  0.2249  0.1652
 4121SOL     OW23998   4.544   4.225   1.817  0.0010 -0.3069  0.2658
 4121SOL    HW123999   4.491   4.299   1.788  1.5769  1.0659  0.9280
 4121SOL    HW224000   4.522   4.216   1.910 -3.0473 -1.1665 -0.5112
 4122SOL     OW24001   3.397   0.182   6.887  0.0800 -0.6571  0.2964
 4122SOL    HW124002   3.473   0.155   6.836  0.3001 -0.3631  0.4693
 4122SOL    HW224003   3.373   0.097   6.924 -0.3997 -0.0308  1.4367
 4123SOL     OW24004   1.089   1.453   3.746 -0.1798 -0.1454  0.4884
 4123SOL    HW124005   1.014   1.510   3.728  0.2317 -0.0969 -1.0806
 4123SOL    HW224006   1.147   1.517   3.787  1.1605 -1.7110  1.0196
 4124SOL     OW24007   1.932   0.543   8.114  0.5703 -0.0413  0.5731
 4124SOL    HW124008   1.926   0.448   8.101 -2.4836 -0.1732  2.9539
 4124SOL    HW224009   1.963   0.564   8.026 -0.8007  1.2359  0.4039
 4125SOL     OW24010   0.750   0.331  15.540  0.4313  0.3184  0.0824
 4125SOL    HW124011   0.762   0.344  15.634  1.7067  2.4295 -0.3818
 4125SOL    HW224012   0.802   0.406  15.512 -0.8013  0.8254 -0.8509
 4126SOL     OW24013   1.860   1.264   2.832 -0.4048 -0.1509  0.3758
 4126SOL    HW124014   1.854   1.174   2.800  1.1806 -0.3868  0.7661
 4126SOL    HW224015   1.825   1.311   2.757  0.1340 -0.5951 -0.1530
 4127SOL     OW24016   2.974   3.373   1.869  0.6555 -0.2874  0.7623
 4127SOL    HW124017   3.058   3.371   1.916 -0.1293 -1.6174  2.0999
 4127SOL    HW224018   2.958   3.464   1.842  0.3695 -0.0412  1.7562
 4128SOL     OW24019   2.259   0.799   8.622 -0.5427  0.3987 -0.0765
 4128SOL    HW124020   2.240   0.725   8.680  1.1854  0.8147  1.0212
 4128SOL    HW224021   2.213   0.766   8.545 -3.0086  0.5601  1.3069
 4129SOL     OW24022   3.501   3.765   1.366  0.4673  0.1572  0.1350
 4129SOL    HW124023   3.486   3.671   1.357  2.5457 -0.1126 -0.5866
 4129SOL    HW224024   3.513   3.796   1.276 -0.6495  1.8747  0.5860
 4130SOL     OW24025   3.187   1.380   7.061  0.4674  0.4388 -1.0649
 4130SOL    HW124026   3.167   1.296   7.020 -2.4228  0.2455  0.6885
 4130SOL    HW224027   3.100   1.404   7.095  1.6143  1.3682  1.2376
 4131SOL     OW24028   3.680   0.946   4.188  0.1298 -0.0253 -0.4250
 4131SOL    HW124029   3.612   0.974   4.250 -0.9536 -1.3884 -0.9967
 4131SOL    HW224030   3.629   0.959   4.107 -1.4784  0.4634  0.6556
 4132SOL     OW24031   2.579   4.057   4.597 -0.4821 -0.4113 -0.5919
 4132SOL    HW124032   2.640   4.084   4.528  0.0760 -1.7861 -0.6456
 4132SOL    HW224033   2.634   4.016   4.664 -2.0875  1.5976  1.9498
 4133SOL     OW24034   1.554   0.561   3.536  0.0457 -0.1109  0.1857
 4133SOL    HW124035   1.534   0.549   3.443  0.0597  0.3206  0.1233
 4133SOL    HW224036   1.579   0.654   3.538  3.2564 -0.9534 -1.5972
 4134SOL     OW24037   0.499   1.184   1.886  0.0625 -0.3056  0.2967
 4134SOL    HW124038   0.485   1.193   1.792 -0.2448 -0.6977  0.3015
 4134SOL    HW224039   0.594   1.191   1.888  0.1388 -1.1812 -0.0326
 4135SOL     OW24040   1.986   1.670   5.343 -0.4499  0.2362  0.1231
 4135SOL    HW124041   2.028   1.723   5.411  0.1057  1.4370 -1.1506
 4135SOL    HW224042   1.905   1.721   5.341 -0.2989  0.4753  0.0682
 4136SOL     OW24043   2.840   3.550   3.300 -0.5648 -0.5731 -0.3671
 4136SOL    HW124044   2.919   3.594   3.332 -1.3711 -0.4530  1.4597
 4136SOL    HW224045   2.796   3.625   3.260 -0.2674  0.0706  0.4901
 4137SOL     OW24046   4.691   1.483   7.678  0.6412  0.3276  0.1931
 4137SOL    HW124047   4.689   1.492   7.773 -0.7855 -1.9177  0.3836
 4137SOL    HW224048   4.612   1.534   7.660 -0.4269 -1.9554 -1.6451
 4138SOL     OW24049   3.844   3.222   9.516  0.0740 -0.1426 -0.1584
 4138SOL    HW124050   3.916   3.282   9.495  0.4571  0.0016  1.5535
 4138SOL    HW224051   3.840   3.225   9.611  0.8988  0.5443 -0.1452
 4139SOL     OW24052   4.284   0.795   4.988  0.2163  0.7287  0.0136
 4139SOL    HW124053   4.312   0.765   4.902  0.8115 -1.0527  0.8404
 4139SOL    HW224054   4.346   0.756   5.050 -0.9116 -0.2390  0.5296
 4140SOL     OW24055   4.636   0.307   3.802  0.1884  0.5051 -0.1914
 4140SOL    HW124056   4.547   0.300   3.836  0.2134 -0.6220 -0.3425
 4140SOL    HW224057   4.689   0.346   3.870  0.2070  3.0040 -1.6418
 4141SOL     OW24058   4.686   1.933  12.708  0.2724  0.1551 -0.8277
 4141SOL    HW124059   4.637   1.884  12.642  0.6367 -1.0899 -0.1905
 4141SOL    HW224060   0.008   1.864  12.734  0.0625  0.5891  0.8383
 4142SOL     OW24061   4.153   2.449   0.454  0.2802  0.2878  0.4006
 4142SOL    HW124062   4.177   2.488   0.538  0.9087  0.9164 -0.0729
 4142SOL    HW224063   4.116   2.525   0.410  1.6878  1.4072  1.1738
 4143SOL     OW24064   0.071   1.301   6.037 -0.4077  0.0810  0.0566
 4143SOL    HW124065   0.092   1.223   6.089 -2.4472 -0.9182 -0.5961
 4143SOL    HW224066   0.049   1.362   6.106  0.2016  0.4485 -0.0683
 4144SOL     OW24067   0.919   1.253  15.862  0.6047 -0.6531 -0.1926
 4144SOL    HW124068   0.943   1.244  15.955  2.4496  2.7806 -0.3454
 4144SOL    HW224069   0.827   1.279  15.872  0.4879 -1.0013 -0.3506
 4145SOL     OW24070   2.381   0.072   7.771  0.0677  0.2929  0.0601
 4145SOL    HW124071   2.403   0.078   7.678  1.3350  2.9724  0.5176
 4145SOL    HW224072   2.341   4.724   7.771 -0.0276  0.3368 -0.2988
 4146SOL     OW24073   2.996   4.026   8.769 -0.7300 -0.1857 -0.2741
 4146SOL    HW124074   3.070   4.088   8.764  1.3629 -2.5670  1.2049
 4146SOL    HW224075   2.983   4.032   8.863  1.7347  0.8019  0.0323
 4147SOL     OW24076   1.740   4.516  10.097  0.0652 -0.3746  0.2390
 4147SOL    HW124077   1.789   4.582  10.146 -1.3517 -1.5407  3.2082
 4147SOL    HW224078   1.656   4.523  10.142 -0.1902  0.6911 -0.4067
 4148SOL     OW24079   3.590   4.570   4.232 -0.3885 -0.0346  0.3180
 4148SOL    HW124080   3.620   4.610   4.150 -0.0597 -1.3356 -0.2085
 4148SOL    HW224081   3.507   4.532   4.203 -0.1247 -0.5037  0.1733
 4149SOL     OW24082   0.876   3.291   5.103  0.1063  0.4110  0.1419
 4149SOL    HW124083   0.859   3.380   5.133 -1.7621 -0.6795  2.3196
 4149SOL    HW224084   0.895   3.248   5.187  2.7215  1.0096 -0.1585
 4150SOL     OW24085   2.775   3.575  17.197  0.1412 -0.1289  0.2132
 4150SOL    HW124086   2.771   3.659  17.152  2.5572  0.3602  0.8940
 4150SOL    HW224087   2.842   3.532  17.144  0.8493 -0.1171  1.1006
 4151SOL     OW24088   4.110   3.357   1.995 -0.0442  0.5417  0.0758
 4151SOL    HW124089   4.129   3.449   2.015  1.5622  0.3547 -0.6103
 4151SOL    HW224090   4.069   3.362   1.909  1.9534  0.9449 -0.8459
 4152SOL     OW24091   1.277   0.161   4.357  0.4956  0.1837  0.2415
 4152SOL    HW124092   1.227   0.129   4.433 -0.3843 -1.0439 -0.8639
 4152SOL    HW224093   1.330   0.084   4.338 -0.6291 -0.4961 -0.1126
 4153SOL     OW24094   3.982   1.089  11.313  0.3428 -0.4655 -0.5339
 4153SOL    HW124095   3.996   1.181  11.334  0.8409 -1.0430  1.6630
 4153SOL    HW224096   3.893   1.083  11.279 -0.0336 -1.8669  0.7152
 4154SOL     OW24097   1.635   4.670   3.535 -0.5025 -0.7823  0.2167
 4154SOL    HW124098   1.601   4.669   3.625  0.5048  2.0371  0.6533
 4154SOL    HW224099   1.555   4.637   3.495 -0.2540 -1.7664  0.5359
 4155SOL     OW24100   4.510   4.230  10.748 -0.2767  0.1099 -0.3328
 4155SOL    HW124101   4.475   4.319  10.755  1.3475  0.8030 -1.0174
 4155SOL    HW224102   4.527   4.200  10.838 -0.3148 -0.4968 -0.5304
 4156SOL     OW24103   3.085   3.411   8.753  0.3807  0.0217 -0.0884
 4156SOL    HW124104   3.013   3.474   8.751 -1.2063 -1.7656  0.3960
 4156SOL    HW224105   3.099   3.400   8.847 -1.2873  1.3328  0.3141
 4157SOL     OW24106   0.758   4.110   1.719  0.3120 -0.4440  0.0984
 4157SOL    HW124107   0.784   4.018   1.720 -1.4671 -0.9506  0.2864
 4157SOL    HW224108   0.664   4.094   1.720  0.6985 -2.6398  0.7848
 4158SOL     OW24109   4.116   4.485  16.267  0.1523  0.3494 -0.0640
 4158SOL    HW124110   4.193   4.509  16.216  0.2960 -0.2024 -0.1100
 4158SOL    HW224111   4.140   4.397  16.297  0.7842  0.8522  0.9173
 4159SOL     OW24112   3.258   2.404  11.705  0.6592  0.0509  0.0188
 4159SOL    HW124113   3.306   2.408  11.623  0.4268 -1.3568 -0.1810
 4159SOL    HW224114   3.235   2.312  11.697 -0.9108  0.3736  0.8033
 4160SOL     OW24115   1.114   4.429   4.323  0.6760  0.4485 -0.2369
 4160SOL    HW124116   1.031   4.412   4.368  0.7225 -0.9921 -0.7007
 4160SOL    HW224117   1.076   4.501   4.272  0.5032  0.4661 -0.0845
 4161SOL     OW24118   3.543   3.538   8.288 -0.5022  0.4802 -0.4023
 4161SOL    HW124119   3.497   3.490   8.357  1.8524 -2.2247 -0.7107
 4161SOL    HW224120   3.520   3.628   8.309  0.2959  0.1387  1.9021
 4162SOL     OW24121   3.667   3.056   3.000 -0.7276 -0.9563 -0.1854
 4162SOL    HW124122   3.730   2.985   2.991  0.0905 -0.1307 -0.9872
 4162SOL    HW224123   3.588   3.002   2.997 -1.6492  0.3696  0.2777
 4163SOL     OW24124   1.934   0.842  12.486  0.3327  0.1230 -0.2781
 4163SOL    HW124125   1.961   0.925  12.447 -0.0259 -0.4487 -1.7365
 4163SOL    HW224126   2.023   0.807  12.495 -0.1436 -0.4940  2.0319
 4164SOL     OW24127   3.027   1.638   3.949  0.1349  0.3948 -0.1153
 4164SOL    HW124128   3.103   1.580   3.947 -1.2743 -1.4566  0.1288
 4164SOL    HW224129   2.991   1.623   3.861 -0.5123 -1.9090  0.5527
 4165SOL     OW24130   0.041   0.330   3.570 -0.4802 -0.6581 -0.1335
 4165SOL    HW124131   0.024   0.272   3.496  0.2771  0.0424 -0.8557
 4165SOL    HW224132   4.719   0.316   3.643  1.6554  2.6644  2.2689
 4166SOL     OW24133   4.603   1.329   6.441 -0.0667 -0.0887 -0.0072
 4166SOL    HW124134   4.632   1.380   6.366  2.4298  0.4860  1.3448
 4166SOL    HW224135   4.564   1.397   6.496  1.1578  0.2012  0.4967
 4167SOL     OW24136   4.526   0.370   6.868  0.4085  0.4713 -0.0173
 4167SOL    HW124137   4.498   0.462   6.863  0.6391  0.4470 -1.8962
 4167SOL    HW224138   4.457   0.326   6.818  0.9007 -0.7624  0.4009
 4168SOL     OW24139   4.728   1.880   2.901  0.0007  0.2057  0.2500
 4168SOL    HW124140   0.017   1.799   2.945 -0.9812 -1.0352 -1.4338
 4168SOL    HW224141   4.678   1.928   2.967 -0.5208  0.5975 -0.4245
 4169SOL     OW24142   4.163   0.740   2.618  0.1658 -0.0204  0.5957
 4169SOL    HW124143   4.251   0.704   2.608 -0.1296 -0.2689 -1.1024
 4169SOL    HW224144   4.117   0.712   2.540 -0.0718  1.0744  0.3404
 4170SOL     OW24145   3.701   0.819   6.976  0.1980  0.0132  0.3889
 4170SOL    HW124146   3.670   0.884   7.039  1.8186 -0.8266  2.0542
 4170SOL    HW224147   3.663   0.732   6.988  1.7222 -0.5852  0.9382
 4171SOL     OW24148   3.631   3.689   2.821 -0.2562  0.2891  0.2478
 4171SOL    HW124149   3.549   3.728   2.790 -0.0035 -0.1223 -0.9260
 4171SOL    HW224150   3.683   3.769   2.814  0.1448  0.2248  2.2571
 4172SOL     OW24151   3.152   3.735   6.989  0.4477  0.0994  0.2172
 4172SOL    HW124152   3.066   3.693   6.986 -0.2693  1.4330  2.3308
 4172SOL    HW224153   3.156   3.765   6.898  1.7314  1.4825  0.7247
 4173SOL     OW24154   1.923   4.550   3.828  0.4817 -0.6114 -0.2758
 4173SOL    HW124155   1.833   4.560   3.796  0.3719  1.1562  0.5937
 4173SOL    HW224156   1.961   4.597   3.754  0.5242  0.4539  0.4157
 4174SOL     OW24157   2.605   0.285   1.536  0.5639 -0.0199  0.4266
 4174SOL    HW124158   2.522   0.290   1.584 -1.0870  0.0227 -2.3776
 4174SOL    HW224159   2.666   0.250   1.601  1.3438  0.5406 -0.0111
 4175SOL     OW24160   0.024   3.181   1.696  0.0514  0.2244  0.5922
 4175SOL    HW124161   0.087   3.113   1.671 -1.0785 -1.3697  2.0158
 4175SOL    HW224162   4.719   3.183   1.610 -0.2289 -1.6145  0.6911
 4176SOL     OW24163   2.086   0.157   5.671  0.5113 -0.3733 -0.0954
 4176SOL    HW124164   2.130   0.230   5.626 -1.5871  1.6255  1.0808
 4176SOL    HW224165   2.110   0.178   5.761 -1.0322  0.3898  0.1336
 4177SOL     OW24166   3.304   4.542   1.984  0.7168 -0.4962 -0.2003
 4177SOL    HW124167   3.268   4.603   2.050  1.7808 -0.5564  0.4429
 4177SOL    HW224168   3.362   4.491   2.041  1.4746  3.5716  2.7009
 4178SOL     OW24169   0.482   0.104   7.646  0.3211  0.5016 -0.2124
 4178SOL    HW124170   0.560   0.050   7.656 -0.5538 -0.8760 -0.9986
 4178SOL    HW224171   0.507   0.167   7.714 -0.3383  1.5052 -0.8913
 4179SOL     OW24172   1.056   0.931   1.506 -0.1397  0.3184 -0.0519
 4179SOL    HW124173   1.126   0.945   1.442  0.4790 -0.5401  0.4282
 4179SOL    HW224174   1.100   0.983   1.574  0.3896  0.8797 -0.8204
 4180SOL     OW24175   0.472   3.488   4.340  0.4784  0.5819  1.1084
 4180SOL    HW124176   0.469   3.560   4.278 -1.0871  0.7798  1.4077
 4180SOL    HW224177   0.383   3.474   4.372 -0.6923  1.2730 -1.8638
 4181SOL     OW24178   3.861   1.130   4.124  0.0883 -0.6467  0.5074
 4181SOL    HW124179   3.800   1.155   4.055  2.3703 -1.2186 -1.7084
 4181SOL    HW224180   3.820   1.053   4.163  1.7511  0.0660  3.6606
 4182SOL     OW24181   4.288   0.790  17.675  0.0510  0.0537 -0.0912
 4182SOL    HW124182   4.318   0.699  17.677  1.2465  0.4460  0.1253
 4182SOL    HW224183   4.355   0.833  17.622  0.5519  0.8136  1.1642
 4183SOL     OW24184   1.396   1.642  14.939  0.5731 -0.1891 -0.5160
 4183SOL    HW124185   1.463   1.696  14.896 -2.0940  2.9114 -0.7694
 4183SOL    HW224186   1.406   1.555  14.901 -1.0144 -0.6364  0.0990
 4184SOL     OW24187   1.522   3.630  15.714 -0.0954 -0.1607  0.7080
 4184SOL    HW124188   1.555   3.712  15.750  0.7192 -0.0772 -0.2079
 4184SOL    HW224189   1.474   3.589  15.785  0.6640 -1.9955  0.1694
 4185SOL     OW24190   1.614   0.980  15.631  0.1425  0.0312 -0.5293
 4185SOL    HW124191   1.520   0.964  15.633 -0.1748  1.8799 -0.8162
 4185SOL    HW224192   1.631   1.001  15.722 -2.9254  0.4223 -0.0720
 4186SOL     OW24193   2.391   1.189   2.923  0.1286 -0.0091  0.0069
 4186SOL    HW124194   2.423   1.231   2.843 -1.3072  0.0734 -0.5110
 4186SOL    HW224195   2.297   1.200   2.915  0.4311  1.0129 -2.0144
 4187SOL     OW24196   0.406   1.297   2.205 -0.6696 -0.0941  0.2740
 4187SOL    HW124197   0.414   1.373   2.263 -1.4583 -1.3056  1.9532
 4187SOL    HW224198   0.360   1.241   2.267 -0.5763 -1.5239 -0.9604
 4188SOL     OW24199   3.827   2.449   2.704  0.0581  0.0353 -0.1246
 4188SOL    HW124200   3.854   2.410   2.621  1.0832  1.0525 -0.2560
 4188SOL    HW224201   3.785   2.379   2.755  0.3972  1.4356  2.0346
 4189SOL     OW24202   3.385   3.119   4.254  0.1419  0.1912 -0.2149
 4189SOL    HW124203   3.353   3.150   4.170 -1.6349 -1.1556 -0.0461
 4189SOL    HW224204   3.466   3.162   4.281  0.5117 -0.4211 -0.3353
 4190SOL     OW24205   0.710   4.048   2.712 -0.4809  0.7176  0.0574
 4190SOL    HW124206   0.634   4.064   2.768  0.0552  1.7832  0.4523
 4190SOL    HW224207   0.783   4.098   2.746 -0.8143  0.2786  1.4036
 4191SOL     OW24208   0.017   2.432  12.571  0.0068 -0.8468  0.1560
 4191SOL    HW124209   4.728   2.351  12.613 -1.0495 -0.4566  0.2067
 4191SOL    HW224210   0.092   2.451  12.627  1.1989 -0.7772 -1.4596
 4192SOL     OW24211   1.654   3.233   6.212 -0.3163  0.2698  0.0481
 4192SOL    HW124212   1.716   3.274   6.272  0.4574  0.4658 -0.8890
 4192SOL    HW224213   1.671   3.283   6.132 -3.2315  0.5374 -0.3946
 4193SOL     OW24214   0.762   0.374   5.075  0.1953 -0.1510  0.6895
 4193SOL    HW124215   0.727   0.398   4.989  0.1310 -1.9404  0.2076
 4193SOL    HW224216   0.746   0.455   5.123  1.7289  0.6164 -0.0939
 4194SOL     OW24217   3.151   3.570  14.191  0.0938  0.1002  0.1031
 4194SOL    HW124218   3.074   3.623  14.177 -0.2228 -0.1319  0.9496
 4194SOL    HW224219   3.106   3.512  14.252  3.4443 -2.8634 -0.1990
 4195SOL     OW24220   4.090   2.481   9.438 -0.1820 -0.2812  0.1615
 4195SOL    HW124221   4.098   2.575   9.456 -0.9442 -0.2848  0.5232
 4195SOL    HW224222   4.104   2.495   9.345 -0.1171  0.4658  0.2817
 4196SOL     OW24223   2.466   2.908  10.127 -0.2673  0.1206 -0.5015
 4196SOL    HW124224   2.414   2.829  10.111  1.7933 -1.9398  3.0458
 4196SOL    HW224225   2.401   2.959  10.177 -1.1263 -0.2097 -1.2711
 4197SOL     OW24226   4.256   3.610   0.239  0.1072  0.3064 -0.4328
 4197SOL    HW124227   4.228   3.587   0.150  1.3899 -1.7716 -0.3057
 4197SOL    HW224228   4.268   3.530   0.289  0.9310  0.8880  0.2946
 4198SOL     OW24229   2.998   0.319  16.825  0.3405 -0.8720  0.0758
 4198SOL    HW124230   3.087   0.337  16.794  0.7165 -0.5343  1.3331
 4198SOL    HW224231   2.945   0.312  16.746  1.2171 -1.9707 -0.4120
 4199SOL     OW24232   2.952   2.662  13.829  0.1501 -0.1935  0.6125
 4199SOL    HW124233   2.906   2.745  13.813 -0.0276  0.5756  5.1031
 4199SOL    HW224234   2.898   2.607  13.772  0.6778 -0.5099  0.4151
 4200SOL     OW24235   4.089   2.825   7.805  0.2343 -0.1750 -0.9660
 4200SOL    HW124236   4.049   2.888   7.865 -1.3724 -1.3327 -0.8209
 4200SOL    HW224237   4.072   2.861   7.718 -0.0015 -0.0397 -0.8640
 4201SOL     OW24238   0.239   3.452   4.489  0.0103  0.1435  0.2305
 4201SOL    HW124239   0.213   3.537   4.523  0.4831 -0.7225  2.7715
 4201SOL    HW224240   0.157   3.405   4.507 -0.1416  0.5252  0.5372
 4202SOL     OW24241   0.990   1.154   6.354 -0.0045  0.5849 -0.1517
 4202SOL    HW124242   1.069   1.198   6.323  1.0377  0.7698  2.7101
 4202SOL    HW224243   0.977   1.079   6.297 -2.0260  0.5280  0.3700
 4203SOL     OW24244   3.128   2.815  13.992 -0.5161  0.0906 -0.5747
 4203SOL    HW124245   3.056   2.845  14.048 -1.1914 -0.5747 -1.0982
 4203SOL    HW224246   3.082   2.767  13.924  0.6159 -2.2480  0.3143
 4204SOL     OW24247   2.001   2.547   7.086  0.9360 -0.2717  0.1136
 4204SOL    HW124248   1.978   2.461   7.121 -1.5653  1.1367  1.8474
 4204SOL    HW224249   1.983   2.537   6.992  0.7646  1.6780 -0.0589
 4205SOL     OW24250   2.767   1.698   1.777 -0.4118 -0.6553 -0.3088
 4205SOL    HW124251   2.845   1.660   1.819  1.4807  1.2021 -2.1388
 4205SOL    HW224252   2.802   1.782   1.748 -0.0496 -1.2188 -1.5188
 4206SOL     OW24253   3.779   0.629  14.120 -0.0359  0.0751  0.6203
 4206SOL    HW124254   3.863   0.584  14.105  0.4076  0.8144  0.8976
 4206SOL    HW224255   3.744   0.603  14.205  0.2984  2.0048  1.3353
 4207SOL     OW24256   1.926   3.559  16.510  0.2590 -0.0967  0.6461
 4207SOL    HW124257   1.985   3.537  16.582  0.4521  0.4779  0.6671
 4207SOL    HW224258   1.964   3.517  16.434 -3.7780 -2.3285 -0.1707
 4208SOL     OW24259   3.720   0.300   0.576 -0.4650 -0.0627 -0.2945
 4208SOL    HW124260   3.730   0.395   0.564 -1.8709 -0.1295 -2.1521
 4208SOL    HW224261   3.635   0.299   0.531  0.1050  1.8411 -1.4309
 4209SOL     OW24262   2.158   1.664   0.018  0.0099  0.0143 -0.1684
 4209SOL    HW124263   2.158   1.757  17.749  1.7493  0.4967  1.9290
 4209SOL    HW224264   2.225   1.625  17.713 -0.7183 -4.0390  1.7084
 4210SOL     OW24265   1.234   0.277   0.631 -0.1428  0.1294  0.7826
 4210SOL    HW124266   1.291   0.354   0.635  0.7673 -0.4425 -1.0503
 4210SOL    HW224267   1.252   0.235   0.547  1.6093  0.9793  0.7189
 4211SOL     OW24268   1.293   2.973  10.371 -0.5907  0.3256 -0.2813
 4211SOL    HW124269   1.286   3.024  10.452  0.8570 -1.5131  1.0004
 4211SOL    HW224270   1.362   2.910  10.392  0.6067  1.0811 -1.8917
 4212SOL     OW24271   0.586   1.329   7.732 -0.0922  0.6739  0.1515
 4212SOL    HW124272   0.622   1.288   7.653  1.8099  0.5089  1.1011
 4212SOL    HW224273   0.505   1.278   7.742  0.1863  0.0859 -0.5923
 4213SOL     OW24274   1.100   1.754   3.472  0.3427 -0.1727  0.0723
 4213SOL    HW124275   1.073   1.791   3.556 -3.6695  0.7453 -1.6271
 4213SOL    HW224276   1.047   1.803   3.409 -1.8894 -1.8804  0.6191
 4214SOL     OW24277   3.500   3.878   4.115  0.3368  0.0435 -0.5946
 4214SOL    HW124278   3.561   3.824   4.065  1.0929 -0.0023  0.3740
 4214SOL    HW224279   3.421   3.835   4.082  0.1040  0.7391 -0.9369
 4215SOL     OW24280   4.642   0.405  11.676  0.2565 -0.1381 -0.3766
 4215SOL    HW124281   4.567   0.447  11.719 -0.0293  0.0340 -1.0480
 4215SOL    HW224282   4.600   0.320  11.667  0.2456 -0.2087  0.3650
 4216SOL     OW24283   3.566   3.458  11.644 -0.5044  0.6153  0.0308
 4216SOL    HW124284   3.604   3.542  11.670  1.1699 -0.0013 -0.4291
 4216SOL    HW224285   3.640   3.399  11.637  0.7836  2.1851  0.3800
 4217SOL     OW24286   0.147   2.442   5.313 -0.0370  0.3555  0.7026
 4217SOL    HW124287   0.103   2.359   5.295  0.8433  0.9403 -4.1633
 4217SOL    HW224288   0.171   2.432   5.405  1.3472 -1.0092  0.2002
 4218SOL     OW24289   2.320   3.546   4.894 -0.7293 -0.7870  0.0532
 4218SOL    HW124290   2.363   3.465   4.918 -0.3149 -0.3359  0.8002
 4218SOL    HW224291   2.233   3.517   4.866 -0.5567  0.2309 -1.5426
 4219SOL     OW24292   2.888   1.141  14.581 -0.1048 -0.0275  0.6346
 4219SOL    HW124293   2.935   1.060  14.600  1.0890  0.5367  0.0823
 4219SOL    HW224294   2.827   1.136  14.654  0.3263 -0.8043  0.9339
 4220SOL     OW24295   4.481   0.616  11.114 -0.3226  0.2632 -0.4889
 4220SOL    HW124296   4.516   0.530  11.140 -1.3605 -0.1956 -0.6205
 4220SOL    HW224297   4.400   0.616  11.166  1.2272 -2.9167  1.9544
 4221SOL     OW24298   2.513   2.540   0.043  0.0428 -0.5864  0.1739
 4221SOL    HW124299   2.551   2.463   0.001  0.6237  0.0862 -0.5414
 4221SOL    HW224300   2.455   2.517   0.115  0.7213  0.0674  0.9371
 4222SOL     OW24301   2.650   3.134   7.278  0.2985  0.3662  0.0710
 4222SOL    HW124302   2.646   3.064   7.342  1.0836 -0.0019 -0.2860
 4222SOL    HW224303   2.737   3.171   7.291 -0.7743  2.8443  0.2575
 4223SOL     OW24304   3.787   2.270   5.465 -0.2831 -0.8387 -0.1942
 4223SOL    HW124305   3.838   2.272   5.545 -3.0036  0.9132  1.5005
 4223SOL    HW224306   3.713   2.213   5.482  0.8344 -1.4352  2.5394
 4224SOL     OW24307   3.061   0.039  16.133  0.3052  0.1921 -0.2972
 4224SOL    HW124308   3.136   4.733  16.094 -0.6083 -0.6161 -1.1420
 4224SOL    HW224309   3.066   0.123  16.088 -0.8321  0.6870  0.4990
 4225SOL     OW24310   1.814   1.782   5.606 -0.2300  0.1252  0.0723
 4225SOL    HW124311   1.894   1.825   5.575 -0.4306 -0.1677 -0.8532
 4225SOL    HW224312   1.770   1.865   5.622  1.5977  1.0732  0.1215
 4226SOL     OW24313   1.385   0.523  15.808  0.4143 -0.1027 -0.7742
 4226SOL    HW124314   1.471   0.564  15.805 -0.0720  1.2985  3.4101
 4226SOL    HW224315   1.361   0.534  15.901  0.6773  0.9771 -0.8274
 4227SOL     OW24316   3.650   1.333  17.630 -0.2203 -0.1494  0.4871
 4227SOL    HW124317   3.675   1.389  17.703  1.4918 -0.9913  0.5411
 4227SOL    HW224318   3.581   1.280  17.670 -0.3542  0.2661  0.8048
 4228SOL     OW24319   2.037   3.933   2.955 -0.4751 -0.2348  0.0390
 4228SOL    HW124320   2.112   3.970   3.002 -0.8814 -0.6372  1.0064
 4228SOL    HW224321   2.050   3.840   2.975  0.4032  0.3146  2.1059
 4229SOL     OW24322   0.197   0.162   6.302  0.2027 -0.3179 -0.0248
 4229SOL    HW124323   0.144   0.225   6.254 -0.4937 -1.9035 -1.3146
 4229SOL    HW224324   0.274   0.217   6.320  1.0823 -0.9292 -1.9192
 4230SOL     OW24325   2.301   1.108   1.755  0.1850 -0.5793 -0.3186
 4230SOL    HW124326   2.237   1.152   1.811  1.1473  3.1728 -2.1237
 4230SOL    HW224327   2.390   1.120   1.789 -0.3753 -1.7891  1.5458
 4231SOL     OW24328   3.738   0.671   6.702 -0.2241  0.4788  0.5264
 4231SOL    HW124329   3.770   0.751   6.661  1.9191 -0.8008 -0.3123
 4231SOL    HW224330   3.699   0.705   6.782 -2.5971 -2.4129  0.5767
 4232SOL     OW24331   1.803   3.988   1.665 -0.0979 -0.0730 -0.1552
 4232SOL    HW124332   1.812   3.906   1.715  0.1009  0.9684  1.5197
 4232SOL    HW224333   1.770   3.950   1.584  2.1524  1.7468 -1.9249
 4233SOL     OW24334   3.219   1.256   3.266  0.3986  0.0161  0.6748
 4233SOL    HW124335   3.232   1.351   3.268 -0.0399  0.1099 -0.9625
 4233SOL    HW224336   3.268   1.238   3.185  1.0478 -0.1017  1.0912
 4234SOL     OW24337   3.970   3.361   3.173 -0.3255  0.2724  0.0973
 4234SOL    HW124338   3.943   3.387   3.085  0.4893 -0.1780 -0.2912
 4234SOL    HW224339   3.993   3.268   3.164  0.6359  0.5373 -0.2004
 4235SOL     OW24340   2.679   4.026   3.186  0.0496 -0.5001 -0.3080
 4235SOL    HW124341   2.690   4.067   3.100  0.0456 -1.0031 -0.5526
 4235SOL    HW224342   2.737   4.087   3.231 -0.1957 -0.7426  0.3470
 4236SOL     OW24343   1.600   0.467   4.378 -0.2071 -0.3404  0.5024
 4236SOL    HW124344   1.535   0.454   4.309 -0.4646 -0.0158  0.6836
 4236SOL    HW224345   1.625   0.380   4.408 -0.1733 -1.4333 -2.6324
 4237SOL     OW24346   4.690   0.302   0.835 -0.4169  0.1421  0.6665
 4237SOL    HW124347   0.019   0.285   0.901  1.4131 -1.5359 -1.6708
 4237SOL    HW224348   4.614   0.328   0.888  0.1653  4.1449 -0.4533
 4238SOL     OW24349   4.255   3.591  13.272  0.2713 -0.1375 -0.1294
 4238SOL    HW124350   4.255   3.558  13.361 -2.0760 -1.1785 -0.5249
 4238SOL    HW224351   4.245   3.513  13.218  1.7984 -1.1054  0.9691
 4239SOL     OW24352   4.278   4.181   1.614  0.2123 -0.7005  0.3405
 4239SOL    HW124353   4.207   4.175   1.550  0.7711 -1.0366 -0.2500
 4239SOL    HW224354   4.363   4.173   1.570 -0.3068 -0.0306 -0.7840
 4240SOL     OW24355   0.362   4.100   6.743  0.1400  0.3166 -0.2033
 4240SOL    HW124356   0.306   4.037   6.787  1.0703 -0.6168 -0.3752
 4240SOL    HW224357   0.329   4.186   6.771 -0.2374  0.4282 -0.9970
 4241SOL     OW24358   2.595   1.455  15.401 -0.0991 -0.1156  0.5943
 4241SOL    HW124359   2.621   1.382  15.458  0.6878  0.9425  1.5917
 4241SOL    HW224360   2.658   1.527  15.395  1.7549 -1.7712 -0.0225
 4242SOL     OW24361   3.867   1.395   7.746 -0.0386 -0.1083  0.0354
 4242SOL    HW124362   3.866   1.369   7.838  1.3875 -0.0860  0.0572
 4242SOL    HW224363   3.783   1.361   7.716 -0.9923  2.9423 -0.7563
 4243SOL     OW24364   4.376   1.927   3.816  0.0702  0.1120 -0.0298
 4243SOL    HW124365   4.327   1.949   3.895  0.5447 -3.5529  1.3095
 4243SOL    HW224366   4.400   2.013   3.782  0.1478 -0.6656 -1.9617
 4244SOL     OW24367   0.468   3.874   2.313  0.1872 -0.3443 -0.3760
 4244SOL    HW124368   0.494   3.798   2.260  0.2409 -1.5968  1.4451
 4244SOL    HW224369   0.548   3.889   2.363  1.1650 -1.1798 -1.6890
 4245SOL     OW24370   0.649   1.182   2.202  0.0992 -0.3666 -0.3895
 4245SOL    HW124371   0.555   1.200   2.208  0.1580 -0.2939  0.3670
 4245SOL    HW224372   0.680   1.272   2.201 -1.1976  0.0862  0.8074
 4246SOL     OW24373   4.664   0.501   8.790 -0.1990  0.2617 -0.5697
 4246SOL    HW124374   4.599   0.474   8.855 -0.6884 -2.5183 -2.2324
 4246SOL    HW224375   4.647   0.593   8.773  0.0492  0.4295  0.0766
 4247SOL     OW24376   4.026   4.136   2.623  0.3625 -0.3574 -0.1065
 4247SOL    HW124377   4.034   4.176   2.709  1.0222  0.4750 -0.5610
 4247SOL    HW224378   4.061   4.051   2.649  0.7552  0.6384  2.6145
 4248SOL     OW24379   4.036   2.582   3.802  0.5956  0.0618  0.2348
 4248SOL    HW124380   4.007   2.492   3.790 -0.7384  0.8813 -2.6274
 4248SOL    HW224381   3.963   2.638   3.778  2.1161  1.4806 -1.0842
 4249SOL     OW24382   4.437   2.578  14.946 -0.1647 -0.7047  0.1128
 4249SOL    HW124383   4.448   2.547  14.856 -0.8225  0.6525 -0.4264
 4249SOL    HW224384   4.342   2.584  14.960 -0.3314 -1.0681 -0.8536
 4250SOL     OW24385   4.113   2.875   5.707  0.6373 -0.3403  0.5888
 4250SOL    HW124386   4.026   2.847   5.736 -0.0719  1.2068 -0.0606
 4250SOL    HW224387   4.167   2.815   5.758 -0.6357 -1.8025  0.2165
 4251SOL     OW24388   4.045   3.744   5.038  0.3355  0.1251  0.1746
 4251SOL    HW124389   4.058   3.810   5.106  0.2169  1.8415 -1.4741
 4251SOL    HW224390   3.978   3.791   4.988 -0.2939  1.3672  2.1752
 4252SOL     OW24391   2.424   1.249   3.388  0.1311 -0.2705  0.2516
 4252SOL    HW124392   2.393   1.336   3.410 -0.6290 -0.2282 -0.9579
 4252SOL    HW224393   2.478   1.234   3.465  1.2638 -0.9902 -0.6809
 4253SOL     OW24394   2.364   1.168   5.215  0.2369  0.0774  0.2586
 4253SOL    HW124395   2.457   1.182   5.231  0.7884 -1.3318 -1.6817
 4253SOL    HW224396   2.365   1.161   5.119 -0.4952 -0.7941  0.3127
 4254SOL     OW24397   3.689   1.100   5.915 -0.0703 -0.4253  0.2000
 4254SOL    HW124398   3.617   1.044   5.943  0.7059 -0.5046  2.0371
 4254SOL    HW224399   3.658   1.165   5.853  2.2621  1.4729  1.0261
 4255SOL     OW24400   3.419   3.914   4.627  0.7321 -0.0452  0.1073
 4255SOL    HW124401   3.455   3.851   4.565 -1.0215 -0.6311 -0.3324
 4255SOL    HW224402   3.340   3.870   4.658  1.1953 -2.1089 -1.6640
 4256SOL     OW24403   3.015   3.420   3.884  0.1799 -0.7537 -0.4002
 4256SOL    HW124404   3.060   3.360   3.825 -1.0083 -1.4934 -0.5290
 4256SOL    HW224405   2.981   3.362   3.952  0.6695  0.3176  0.7674
 4257SOL     OW24406   4.459   3.872  13.673  0.5070  0.1891  0.7220
 4257SOL    HW124407   4.511   3.874  13.593  2.4815 -0.0159  1.9948
 4257SOL    HW224408   4.448   3.965  13.689 -1.5737  0.3953 -1.8447
 4258SOL     OW24409   1.319   0.923   7.856  0.1226 -0.7074  0.1845
 4258SOL    HW124410   1.413   0.905   7.850  0.1481 -0.5832  0.2129
 4258SOL    HW224411   1.309   0.865   7.932 -0.8215 -0.1413  0.4978
 4259SOL     OW24412   1.448   4.039  10.734  0.0113  0.4285 -0.1038
 4259SOL    HW124413   1.402   4.052  10.651  0.7069 -0.4449 -0.6423
 4259SOL    HW224414   1.516   3.974  10.711 -0.0996  1.1780 -2.5472
 4260SOL     OW24415   3.795   4.522   5.288  0.1645 -0.7718 -0.3207
 4260SOL    HW124416   3.866   4.461   5.310  1.6432  0.4558 -1.6726
 4260SOL    HW224417   3.805   4.519   5.192 -0.6689  0.0039 -0.4296
 4261SOL     OW24418   3.761   2.627  10.852  0.1105 -0.0216  1.0691
 4261SOL    HW124419   3.765   2.553  10.913  1.4547  0.5102  1.6375
 4261SOL    HW224420   3.804   2.596  10.773  0.4903  4.1221 -0.3547
 4262SOL     OW24421   4.521   3.562  13.012 -0.1816 -0.6226 -0.7293
 4262SOL    HW124422   4.498   3.651  12.985 -1.0449 -0.2489  1.2677
 4262SOL    HW224423   4.541   3.519  12.929 -0.2923 -0.8662 -0.6298
 4263SOL     OW24424   0.266   3.369   3.709  0.1171  0.1867  0.3848
 4263SOL    HW124425   0.176   3.341   3.691 -0.0820  1.2313 -0.2827
 4263SOL    HW224426   0.261   3.452   3.661 -4.1051  0.5484  1.4890
 4264SOL     OW24427   0.359   0.070   2.390  0.7968 -0.0234 -0.1915
 4264SOL    HW124428   0.435   0.017   2.366 -0.3228 -1.2516 -1.0282
 4264SOL    HW224429   0.392   0.159   2.382 -0.7271  0.6960  1.4116
 4265SOL     OW24430   3.339   0.235   4.443  0.0246 -0.0683  0.1432
 4265SOL    HW124431   3.384   0.161   4.483 -0.6985 -0.4892  0.1672
 4265SOL    HW224432   3.258   0.229   4.493 -0.0421  1.3623  0.2219
 4266SOL     OW24433   3.401   2.845  10.401  0.4452  0.5455  0.5490
 4266SOL    HW124434   3.319   2.819  10.443  0.3910  0.9020  0.6666
 4266SOL    HW224435   3.372   2.883  10.318 -1.7366 -1.9457  0.1784
 4267SOL     OW24436   4.067   3.298   3.668 -0.9608  0.5373 -0.0555
 4267SOL    HW124437   4.023   3.309   3.752  0.4271 -1.9405  1.0071
 4267SOL    HW224438   4.127   3.371   3.662 -0.2385 -0.1019 -0.6339
 4268SOL     OW24439   0.623   2.265   1.956  0.2188  0.0956 -0.9153
 4268SOL    HW124440   0.674   2.306   2.025  0.0919 -0.3580 -0.5531
 4268SOL    HW224441   0.540   2.251   2.002  0.2167  2.2838 -0.2562
 4269SOL     OW24442   4.425   0.700   4.649 -0.1699 -0.1596  0.2109
 4269SOL    HW124443   4.492   0.751   4.605 -0.8258  0.0009 -0.6038
 4269SOL    HW224444   4.458   0.610   4.647 -4.0099 -1.5448 -0.7934
 4270SOL     OW24445   4.735   4.457   4.703 -0.1380 -0.2287 -0.0671
 4270SOL    HW124446   4.714   4.455   4.610  0.6834 -2.3470 -0.2189
 4270SOL    HW224447   4.668   4.404   4.747 -1.0308  0.5395 -0.4947
 4271SOL     OW24448   0.158   4.188   4.627 -0.0233 -0.0413  0.0208
 4271SOL    HW124449   0.164   4.233   4.712 -0.3708  0.8490 -0.4298
 4271SOL    HW224450   0.127   4.260   4.573  2.7389  0.2148 -1.2361
 4272SOL     OW24451   2.494   4.647   6.501 -0.1991  0.3914  0.0277
 4272SOL    HW124452   2.556   4.678   6.568 -0.3962 -1.2138  0.9567
 4272SOL    HW224453   2.457   4.726   6.462  1.0562  0.2993 -1.3450
 4273SOL     OW24454   1.926   2.881  11.753  0.7437 -0.3104  0.7296
 4273SOL    HW124455   1.860   2.936  11.795  0.0098  0.1771 -1.0984
 4273SOL    HW224456   1.874   2.820  11.700  1.4766  0.9956 -1.4529
 4274SOL     OW24457   2.509   2.542  15.591  0.0355  0.6561 -0.2729
 4274SOL    HW124458   2.543   2.459  15.624 -0.8737  0.4759  0.1948
 4274SOL    HW224459   2.439   2.564  15.653 -1.2583 -0.6149 -1.2862
 4275SOL     OW24460   1.863   1.080  17.679  0.4288 -0.6254  0.5128
 4275SOL    HW124461   1.957   1.099  17.674  0.5137 -0.4524  2.6189
 4275SOL    HW224462   1.861   0.985  17.668  0.8026 -0.4328 -1.2147
 4276SOL     OW24463   4.042   0.226   9.503  0.2278 -0.2613  0.4644
 4276SOL    HW124464   4.054   0.134   9.528  2.3490 -0.5521 -1.5335
 4276SOL    HW224465   3.960   0.221   9.453 -0.1889  2.7565  0.8441
 4277SOL     OW24466   3.091   2.443   3.451  0.2841 -0.3500 -0.1353
 4277SOL    HW124467   3.087   2.366   3.507  0.1569 -1.0658 -1.1408
 4277SOL    HW224468   3.139   2.420   3.371 -1.1418 -0.3783 -0.9800
 4278SOL     OW24469   3.264   4.032   8.748  0.0476 -0.1877 -0.6410
 4278SOL    HW124470   3.253   3.963   8.813  1.8548  0.8202  0.7166
 4278SOL    HW224471   3.317   3.983   8.684  1.9869  0.0323  0.7857
 4279SOL     OW24472   0.056   2.214   8.887  0.0972 -0.4947 -0.2122
 4279SOL    HW124473   0.143   2.194   8.920  0.0649  1.5881  1.1367
 4279SOL    HW224474   0.038   2.295   8.934  0.2644 -1.1131  0.8936
 4280SOL     OW24475   4.455   0.816   7.129  0.8075 -0.4558 -0.0374
 4280SOL    HW124476   4.383   0.869   7.095  2.1198  0.0074 -2.1237
 4280SOL    HW224477   4.489   0.867   7.203  2.2905 -1.7221  0.1504
 4281SOL     OW24478   1.299   3.493   4.649  0.0563  0.2053  0.0827
 4281SOL    HW124479   1.286   3.495   4.743  0.5164  0.1197  0.1496
 4281SOL    HW224480   1.271   3.404   4.625  0.7925  0.4002 -1.5317
 4282SOL     OW24481   0.840   1.028   5.925 -0.0922 -0.3383 -0.2046
 4282SOL    HW124482   0.774   1.024   5.856  0.1506 -0.2082 -0.4430
 4282SOL    HW224483   0.899   0.961   5.892 -1.8172 -1.6369 -0.6868
 4283SOL     OW24484   0.096   4.382  17.471  0.4680 -0.6357 -0.1990
 4283SOL    HW124485   0.178   4.351  17.433 -1.2358 -2.6755 -2.2439
 4283SOL    HW224486   0.074   4.331  17.549  1.1852 -3.4938 -1.8456
 4284SOL     OW24487   3.353   1.186  16.182  0.6702  0.1889  0.4526
 4284SOL    HW124488   3.332   1.143  16.265  0.9648 -0.9744 -0.0905
 4284SOL    HW224489   3.370   1.115  16.121  2.1908 -0.2724  1.4172
 4285SOL     OW24490   4.074   1.619  14.091  0.4951  0.2936 -0.1851
 4285SOL    HW124491   4.023   1.593  14.015 -2.0748 -0.5697  1.8570
 4285SOL    HW224492   4.096   1.539  14.140 -0.2629  0.7110  0.8466
 4286SOL     OW24493   2.323   3.824   6.156 -0.1614  0.0817  0.1860
 4286SOL    HW124494   2.308   3.803   6.064  1.7698  0.2600 -0.1751
 4286SOL    HW224495   2.405   3.874   6.154  0.7196 -1.3076  0.9276
 4287SOL     OW24496   0.847   0.827   9.605 -1.0554 -0.0782 -0.3653
 4287SOL    HW124497   0.804   0.887   9.544 -3.1687 -2.2316 -1.0135
 4287SOL    HW224498   0.775   0.780   9.648  0.3155 -0.2849  1.6755
 4288SOL     OW24499   0.340   1.965   4.361 -0.6379  0.6366 -0.3509
 4288SOL    HW124500   0.408   2.020   4.324 -0.1966  0.2912 -0.0576
 4288SOL    HW224501   0.378   1.913   4.433  0.1289  0.1996 -1.0692
 4289SOL     OW24502   1.318   0.468  10.187 -0.4387 -0.5662 -0.1991
 4289SOL    HW124503   1.352   0.484  10.099 -0.7199  4.1025  0.5301
 4289SOL    HW224504   1.224   0.484  10.176 -0.2389  0.6791 -0.1455
 4290SOL     OW24505   4.215   4.560  17.018  0.2754 -0.4350  0.1090
 4290SOL    HW124506   4.204   4.480  16.967 -1.2452 -0.1106 -0.0692
 4290SOL    HW224507   4.123   4.583  17.030  0.3075  1.4054 -3.1969
 4291SOL     OW24508   2.291   4.720   7.215  0.3162  0.4629  0.2246
 4291SOL    HW124509   2.349   4.661   7.167  1.7250  2.4650 -0.5217
 4291SOL    HW224510   2.236   0.006   7.140  0.4223  0.8489  0.2763
 4292SOL     OW24511   1.234   0.386   3.257  0.1920  0.1074 -0.4010
 4292SOL    HW124512   1.278   0.305   3.283  1.7091  1.2209  0.4992
 4292SOL    HW224513   1.294   0.457   3.278 -0.4633  1.3434 -2.7078
 4293SOL     OW24514   1.291   1.081   1.597 -0.2143  0.7598  0.0496
 4293SOL    HW124515   1.371   1.066   1.545 -0.8285  0.5915 -0.8457
 4293SOL    HW224516   1.328   1.069   1.684 -1.5377 -0.6865  0.4190
 4294SOL     OW24517   0.523   2.815   7.157  0.1179 -0.4767  0.2707
 4294SOL    HW124518   0.429   2.804   7.140 -0.3665  0.3319  2.5509
 4294SOL    HW224519   0.534   2.910   7.155  0.8196 -0.5725 -0.8646
 4295SOL     OW24520   1.790   1.733   8.409  0.8005 -0.0996 -0.6732
 4295SOL    HW124521   1.711   1.678   8.404 -0.2541  1.2928  0.8909
 4295SOL    HW224522   1.828   1.701   8.491 -1.1381  0.5549  0.4857
 4296SOL     OW24523   3.084   2.289   4.555  0.6501 -0.5517  0.0435
 4296SOL    HW124524   3.086   2.338   4.474 -1.0207  0.5588  0.6618
 4296SOL    HW224525   2.995   2.312   4.585  0.3610  0.0885 -1.3301
 4297SOL     OW24526   3.299   3.335   1.725  0.9319 -0.2852 -0.0481
 4297SOL    HW124527   3.301   3.403   1.793  3.4869 -1.7047  1.2922
 4297SOL    HW224528   3.279   3.259   1.780  3.6636  0.0638  1.4282
 4298SOL     OW24529   4.249   0.126   3.623 -0.2628  0.2943  0.2022
 4298SOL    HW124530   4.257   0.066   3.549 -0.0250  0.5712  0.0008
 4298SOL    HW224531   4.310   0.082   3.682 -0.4318  0.1261  0.2495
 4299SOL     OW24532   0.651   1.190   7.515 -0.0679 -0.0352 -0.1662
 4299SOL    HW124533   0.566   1.153   7.492  0.1338  0.6024 -2.0021
 4299SOL    HW224534   0.704   1.126   7.466 -0.1623 -0.3571  0.1531
 4300SOL     OW24535   1.606   1.203   9.036 -0.1377 -0.3760 -0.5513
 4300SOL    HW124536   1.639   1.288   9.006  0.7486 -0.5667 -0.1335
 4300SOL    HW224537   1.566   1.197   8.949  0.5282 -0.0482 -0.8846
 4301SOL     OW24538   0.550   1.855   1.333  0.8880  0.5997 -0.2334
 4301SOL    HW124539   0.601   1.915   1.279  0.4920 -1.5853 -3.0203
 4301SOL    HW224540   0.534   1.787   1.267 -1.6890 -0.6748  1.6706
 4302SOL     OW24541   1.489   0.904  14.703  0.0113 -0.0628  0.1399
 4302SOL    HW124542   1.562   0.858  14.663  0.2852  1.6535 -1.3402
 4302SOL    HW224543   1.429   0.916  14.629  0.2192 -1.4949 -0.2613
 4303SOL     OW24544   3.803   2.592   8.275 -0.3966  0.2109 -0.1990
 4303SOL    HW124545   3.717   2.583   8.316  1.1336  0.9315  3.0991
 4303SOL    HW224546   3.829   2.500   8.282  0.5273  0.7216  2.7473
 4304SOL     OW24547   3.257   4.149  13.083 -0.6211 -0.3342 -0.2417
 4304SOL    HW124548   3.267   4.171  13.176 -1.7038  0.9588 -0.4210
 4304SOL    HW224549   3.293   4.061  13.077  0.1986  0.0475 -0.9527
 4305SOL     OW24550   1.759   3.530  15.310 -0.2345 -0.4783 -0.1323
 4305SOL    HW124551   1.794   3.601  15.364  0.3497  0.3127 -1.5484
 4305SOL    HW224552   1.825   3.461  15.318 -0.6938 -0.9633 -0.5836
 4306SOL     OW24553   1.681   2.397   7.153  0.1583  0.0209  0.2536
 4306SOL    HW124554   1.629   2.318   7.139  1.4349 -0.5126 -1.4089
 4306SOL    HW224555   1.688   2.420   7.061 -0.8902 -0.1660  0.1311
 4307SOL     OW24556   2.567   4.706   1.354  0.1274 -0.3559 -0.3202
 4307SOL    HW124557   2.584   4.665   1.439  1.5090 -0.9656 -0.8856
 4307SOL    HW224558   2.651   0.013   1.346 -0.5655  0.9662  0.0323
 4308SOL     OW24559   0.705   4.159   2.039  0.9567  0.4754 -0.3874
 4308SOL    HW124560   0.795   4.174   2.008  0.4992  0.1315 -1.8919
 4308SOL    HW224561   0.733   4.115   2.119  0.5298 -1.9183 -1.5407
 4309SOL     OW24562   3.210   4.093   4.013 -0.0350 -0.4399 -0.0258
 4309SOL    HW124563   3.114   4.089   4.015 -0.0721  0.5576  0.2245
 4309SOL    HW224564   3.238   4.067   4.101 -2.2594  1.8231  1.3489
 4310SOL     OW24565   3.244   0.498  11.109 -0.5440 -0.4763  0.2667
 4310SOL    HW124566   3.329   0.466  11.078  1.1296  2.7084  1.4989
 4310SOL    HW224567   3.241   0.586  11.071  1.9317 -1.0285 -1.2395
 4311SOL     OW24568   0.453   2.465   6.777 -0.0580 -0.0741 -0.0396
 4311SOL    HW124569   0.480   2.463   6.685 -1.0989 -3.6882 -0.2929
 4311SOL    HW224570   0.431   2.557   6.789 -1.4029 -0.3993  0.0761
 4312SOL     OW24571   1.475   0.020   2.352 -0.5841 -0.0308  0.2159
 4312SOL    HW124572   1.386   0.048   2.330 -1.0354 -1.3792  0.3119
 4312SOL    HW224573   1.533   0.095   2.345 -0.9343  0.3229  1.0721
 4313SOL     OW24574   4.298   4.071   5.568 -0.3644 -0.6056 -0.2229
 4313SOL    HW124575   4.275   4.043   5.480  0.2913 -0.0080 -0.5840
 4313SOL    HW224576   4.257   4.157   5.569 -0.5959 -0.7110 -0.7996
 4314SOL     OW24577   2.452   2.193   4.251 -0.1902  0.2082  0.0699
 4314SOL    HW124578   2.484   2.276   4.285  1.3045  0.4480 -1.9423
 4314SOL    HW224579   2.361   2.196   4.280  0.2973  3.2316  1.2518
 4315SOL     OW24580   0.696   2.869  14.920 -0.5816  0.6147 -0.1130
 4315SOL    HW124581   0.701   2.840  15.012 -0.2599  0.2988 -0.2280
 4315SOL    HW224582   0.668   2.786  14.880  1.9975  0.9282 -2.5615
 4316SOL     OW24583   0.897   0.381   0.497 -0.0919 -0.0429 -0.7921
 4316SOL    HW124584   0.929   0.305   0.448  1.9066  0.4544 -0.2434
 4316SOL    HW224585   0.963   0.444   0.469  1.2001 -0.3903  1.5154
 4317SOL     OW24586   3.911   0.158   7.121  0.1284  0.4114  0.1525
 4317SOL    HW124587   3.996   0.203   7.123  0.3163  0.0229  0.6684
 4317SOL    HW224588   3.928   0.075   7.077  2.2452  1.2526 -0.6195
 4318SOL     OW24589   3.709   1.305  15.565  0.1812  0.1204 -0.4028
 4318SOL    HW124590   3.734   1.296  15.473  1.3877  0.5680 -0.1192
 4318SOL    HW224591   3.758   1.238  15.614 -2.2178 -0.0632  1.7450
 4319SOL     OW24592   4.050   3.745   3.968 -0.1228 -0.0143 -0.2894
 4319SOL    HW124593   4.013   3.658   3.951 -1.7706  1.3677 -3.7685
 4319SOL    HW224594   4.042   3.787   3.882 -0.7602 -0.0945 -0.2632
 4320SOL     OW24595   0.891   4.644  17.037  0.3911  0.1473 -0.5581
 4320SOL    HW124596   0.928   4.591  16.966 -0.2969  0.9277 -1.4933
 4320SOL    HW224597   0.907   4.588  17.113  1.9783  1.2431 -0.0867
 4321SOL     OW24598   0.892   3.773   9.842  0.0628  0.0901  0.2157
 4321SOL    HW124599   0.928   3.820   9.917 -2.8978  0.2517  1.5071
 4321SOL    HW224600   0.851   3.845   9.796  0.2062 -1.3570 -2.1473
 4322SOL     OW24601   2.336   1.928   6.308  0.1357 -0.5441  0.4980
 4322SOL    HW124602   2.364   1.972   6.388 -2.5885  1.2649  0.4683
 4322SOL    HW224603   2.399   1.951   6.240  0.2622 -0.3904  0.6696
 4323SOL     OW24604   0.010   3.294   3.692 -0.0349  0.0842 -0.0418
 4323SOL    HW124605   4.716   3.348   3.764  1.1566  1.9268 -0.8542
 4323SOL    HW224606   4.673   3.306   3.635 -0.3032 -0.8351  0.1385
 4324SOL     OW24607   2.237   3.393   5.272 -0.0561  0.4850 -0.1432
 4324SOL    HW124608   2.150   3.378   5.234 -0.0385  1.0573 -0.4046
 4324SOL    HW224609   2.268   3.303   5.282  1.2199  0.8444 -0.9996
 4325SOL     OW24610   0.758   1.457   3.427 -0.0134 -0.8239 -0.3328
 4325SOL    HW124611   0.847   1.421   3.426 -0.5004 -2.0054 -0.6304
 4325SOL    HW224612   0.709   1.379   3.402 -2.1678  1.4004 -3.0239
 4326SOL     OW24613   0.418   3.162   6.217 -0.2003 -0.0781  0.0118
 4326SOL    HW124614   0.370   3.100   6.272 -0.0794 -1.8998 -1.9595
 4326SOL    HW224615   0.383   3.243   6.254 -0.0011  0.3566 -0.7471
 4327SOL     OW24616   1.605   2.468   2.775 -0.3068  0.3803 -0.2223
 4327SOL    HW124617   1.555   2.477   2.694  0.8027 -0.9849 -1.0762
 4327SOL    HW224618   1.555   2.404   2.825  0.6353 -0.4036 -0.2603
 4328SOL     OW24619   0.881   2.522  12.376  0.0411 -0.3936  0.1176
 4328SOL    HW124620   0.803   2.508  12.430  0.2663 -1.2865  0.2179
 4328SOL    HW224621   0.855   2.600  12.326  1.2048  0.0948  0.2760
 4329SOL     OW24622   0.984   1.319   2.990 -0.2596 -0.0918  0.1847
 4329SOL    HW124623   1.035   1.294   2.913 -2.3339  1.4637 -1.7043
 4329SOL    HW224624   0.965   1.410   2.968 -2.0921 -0.7511 -1.0015
 4330SOL     OW24625   0.793   3.979  16.239 -0.2365  0.3039 -0.4291
 4330SOL    HW124626   0.756   4.047  16.295 -0.4034  0.6754 -0.9881
 4330SOL    HW224627   0.814   4.030  16.162  2.3929 -2.0230 -1.2544
 4331SOL     OW24628   1.760   0.869   5.450 -0.3414 -0.0144 -0.5046
 4331SOL    HW124629   1.817   0.799   5.417  1.3229  0.3884  1.4507
 4331SOL    HW224630   1.798   0.948   5.411  0.3517 -0.3711 -0.5572
 4332SOL     OW24631   1.189   2.939  10.964  0.4623  0.2461 -0.5881
 4332SOL    HW124632   1.242   2.863  10.990 -0.2727  0.2428  0.8763
 4332SOL    HW224633   1.235   2.955  10.882 -1.6090 -0.3161 -1.8534
 4333SOL     OW24634   0.284   4.320   6.856  0.1532 -0.3247  0.1977
 4333SOL    HW124635   0.361   4.376   6.861 -0.7373  1.0035 -1.0877
 4333SOL    HW224636   0.212   4.378   6.831 -0.8169 -2.0944 -1.1329
 4334SOL     OW24637   4.160   2.994   9.697 -0.4285  1.1599  0.1858
 4334SOL    HW124638   4.145   3.012   9.604 -0.5094 -0.1900 -0.0708
 4334SOL    HW224639   4.106   3.056   9.745  1.4334  0.6930  2.9187
 4335SOL     OW24640   3.063   1.388   8.196  0.3233  0.3384  0.1966
 4335SOL    HW124641   3.037   1.475   8.165  0.7174 -0.7000 -3.0721
 4335SOL    HW224642   2.976   1.350   8.208 -0.5577  2.1995 -0.3142
 4336SOL     OW24643   2.628   0.613   8.589  0.3790  0.4726  0.3714
 4336SOL    HW124644   2.542   0.579   8.615  0.7879 -0.0708  1.0055
 4336SOL    HW224645   2.621   0.709   8.593 -0.6425  0.4589 -1.2314
 4337SOL     OW24646   1.961   2.508   5.662  0.1872 -0.1218  0.1535
 4337SOL    HW124647   1.987   2.555   5.741  2.6672 -2.1301  0.5442
 4337SOL    HW224648   2.041   2.463   5.636  1.0855  1.2136  0.5501
 4338SOL     OW24649   2.948   2.311   2.759 -0.3740  0.1350  0.0411
 4338SOL    HW124650   3.013   2.240   2.758 -0.2152  0.2053  3.2073
 4338SOL    HW224651   2.940   2.332   2.853 -0.9412 -2.8584  0.6406
 4339SOL     OW24652   1.283   2.550   4.049 -0.1047  0.2914 -0.0841
 4339SOL    HW124653   1.308   2.642   4.038 -0.1983  0.3022 -0.2095
 4339SOL    HW224654   1.243   2.537   3.962 -0.8736  0.7760  0.1941
 4340SOL     OW24655   0.679   1.314   4.569  0.1299 -0.0288  0.0020
 4340SOL    HW124656   0.589   1.287   4.583  0.7161 -1.3049  1.3546
 4340SOL    HW224657   0.673   1.326   4.474 -2.5332 -0.2401  0.1448
 4341SOL     OW24658   0.810   2.540   5.319  0.1834 -0.4055  0.0196
 4341SOL    HW124659   0.816   2.592   5.400 -0.9107 -0.8833  0.4187
 4341SOL    HW224660   0.750   2.473   5.354 -1.1315  1.5630  1.5557
 4342SOL     OW24661   4.094   3.045   8.255  0.2645 -0.0858  0.2490
 4342SOL    HW124662   4.089   3.121   8.314  0.0487 -0.5421  0.8133
 4342SOL    HW224663   4.018   2.995   8.285 -0.7966  1.3653 -0.0075
 4343SOL     OW24664   0.219   0.744  11.260  0.3868  0.3589 -0.2902
 4343SOL    HW124665   0.204   0.684  11.334 -3.8852  1.9165  0.1600
 4343SOL    HW224666   0.310   0.719  11.250  1.2964  3.1031  0.8448
 4344SOL     OW24667   2.685   3.426   1.712 -0.3246 -0.1064 -0.1710
 4344SOL    HW124668   2.697   3.510   1.757 -2.1157  0.8258 -1.4265
 4344SOL    HW224669   2.714   3.357   1.771  1.7289 -0.1196 -1.1898
 4345SOL     OW24670   1.408   1.356   2.691 -0.0929  0.1081 -0.3647
 4345SOL    HW124671   1.388   1.421   2.624 -3.3241 -0.3990  0.1022
 4345SOL    HW224672   1.323   1.356   2.735  0.2114  1.5044  0.2153
 4346SOL     OW24673   4.005   3.001   6.702 -0.6051  0.1942 -0.2363
 4346SOL    HW124674   4.073   2.937   6.722  1.1391  1.8337 -1.0151
 4346SOL    HW224675   3.980   3.050   6.780  0.1133  0.4376 -0.1661
 4347SOL     OW24676   1.507   1.120   9.356 -0.1611  0.5445  0.2822
 4347SOL    HW124677   1.555   1.151   9.433  0.1549 -3.1715  1.5732
 4347SOL    HW224678   1.574   1.074   9.305 -0.0833 -0.0930  0.9674
 4348SOL     OW24679   0.216   0.211   4.873 -0.2219  0.7216  0.3977
 4348SOL    HW124680   0.309   0.229   4.888 -0.2456  2.9365 -2.0835
 4348SOL    HW224681   0.221   0.125   4.832 -0.6817  0.9657 -0.1597
 4349SOL     OW24682   1.705   2.889   8.877  0.0289 -0.6787  0.1297
 4349SOL    HW124683   1.702   2.940   8.958 -1.1604 -1.3302  0.4942
 4349SOL    HW224684   1.611   2.882   8.863 -0.3271  0.6012  1.8740
 4350SOL     OW24685   2.514   2.804   6.391  0.6185 -0.1182  0.1754
 4350SOL    HW124686   2.421   2.805   6.412  0.5775  0.7036 -0.0704
 4350SOL    HW224687   2.514   2.784   6.297 -0.0966  0.4262  0.0575
 4351SOL     OW24688   4.709   4.575  14.423  0.6660  0.0980  0.4008
 4351SOL    HW124689   4.627   4.608  14.384 -0.1854  0.2242  2.3175
 4351SOL    HW224690   0.037   4.595  14.357 -0.2041 -0.2632 -0.6025
 4352SOL     OW24691   2.317   1.174  17.185  0.0116 -0.6491  0.0159
 4352SOL    HW124692   2.239   1.120  17.188 -0.3454 -0.0688  1.1979
 4352SOL    HW224693   2.305   1.207  17.096  0.8740  1.7734  0.7887
 4353SOL     OW24694   0.506   2.650   8.407 -0.1813 -0.3889  0.1420
 4353SOL    HW124695   0.454   2.587   8.357  1.5530 -1.2282 -0.6098
 4353SOL    HW224696   0.575   2.593   8.442 -0.3248 -0.4397  0.3481
 4354SOL     OW24697   2.221   1.546  11.718 -0.0179  0.3159  0.3023
 4354SOL    HW124698   2.162   1.542  11.793 -0.1705  0.3759  0.1833
 4354SOL    HW224699   2.169   1.504  11.651 -0.6882 -1.1841  1.7586
 4355SOL     OW24700   0.397   4.622   1.077  0.0301  0.0912  0.3378
 4355SOL    HW124701   0.375   4.545   1.131  0.0984 -1.9877 -2.5933
 4355SOL    HW224702   0.480   4.589   1.043  1.2194  3.1190  0.3089
 4356SOL     OW24703   1.836   0.047   7.650 -0.1091  0.1205  0.0026
 4356SOL    HW124704   1.766   0.091   7.699 -0.9888 -0.3530 -0.8265
 4356SOL    HW224705   1.832   0.103   7.573 -0.1627  0.4090  0.2106
 4357SOL     OW24706   2.483   4.173   7.448  0.0130  0.0015 -0.6924
 4357SOL    HW124707   2.490   4.205   7.539  0.6574 -0.3363 -0.6246
 4357SOL    HW224708   2.520   4.086   7.463 -0.0629 -0.0327 -0.7070
 4358SOL     OW24709   2.610   3.093   6.478 -0.0846  0.6927 -0.5197
 4358SOL    HW124710   2.651   3.094   6.391  0.1580 -1.2974 -0.4455
 4358SOL    HW224711   2.600   2.998   6.486 -1.2193  0.8254 -0.4594
 4359SOL     OW24712   1.824   4.226   8.383 -0.3870  0.4008  0.5868
 4359SOL    HW124713   1.730   4.229   8.367  0.0535  0.8277 -2.0726
 4359SOL    HW224714   1.863   4.218   8.295 -1.6922  0.4656  0.0118
 4360SOL     OW24715   0.997   1.578  15.950  0.3946  0.2434  0.5096
 4360SOL    HW124716   0.950   1.660  15.967 -0.2879  0.2015 -1.1883
 4360SOL    HW224717   0.941   1.519  15.900  2.5952  0.2060 -1.9292
 4361SOL     OW24718   1.040   3.154   5.289 -0.4173 -0.1452 -0.0324
 4361SOL    HW124719   1.067   3.102   5.365  0.9700  1.7329  0.7603
 4361SOL    HW224720   1.125   3.178   5.253  0.7274 -2.5038  1.1766
 4362SOL     OW24721   2.019   0.771   8.901 -0.4895 -0.7034  0.4126
 4362SOL    HW124722   2.009   0.709   8.973 -0.0377 -2.2760 -0.8669
 4362SOL    HW224723   1.928   0.783   8.874 -0.4608 -0.3312  0.4891
 4363SOL     OW24724   2.679   1.582   6.091  0.1651  0.4976 -0.0879
 4363SOL    HW124725   2.607   1.573   6.028  0.7929  0.5599 -0.8090
 4363SOL    HW224726   2.657   1.662   6.141 -0.1496 -1.4290  2.8833
 4364SOL     OW24727   1.273   2.919   6.757  0.0276 -0.4478  0.1080
 4364SOL    HW124728   1.205   2.952   6.816  0.5559  0.0224  0.4461
 4364SOL    HW224729   1.334   2.992   6.754 -0.1637 -0.2351  1.2439
 4365SOL     OW24730   0.468   1.580   3.736 -0.1485 -0.3155 -0.7891
 4365SOL    HW124731   0.540   1.531   3.778 -0.1032  0.2954 -0.1389
 4365SOL    HW224732   0.510   1.660   3.706 -0.6469  0.7483  1.3257
 4366SOL     OW24733   1.264   2.970   0.186  0.0568  0.1510 -0.3774
 4366SOL    HW124734   1.256   2.962   0.281  1.2175  1.3977 -0.1783
 4366SOL    HW224735   1.243   2.879   0.164  0.5524 -0.1069  0.2147
 4367SOL     OW24736   1.434   1.886   6.590  0.2586  0.1974 -0.0607
 4367SOL    HW124737   1.493   1.955   6.558 -0.4988  1.0222  0.3303
 4367SOL    HW224738   1.375   1.885   6.516  1.5356  0.0444 -1.0766
 4368SOL     OW24739   4.567   3.715   2.507 -0.6203 -0.5559  0.1187
 4368SOL    HW124740   4.636   3.707   2.572  0.3435  0.0731 -0.8209
 4368SOL    HW224741   4.628   3.747   2.441  0.1900  0.2439  1.2708
 4369SOL     OW24742   3.240   2.871   5.646  0.3944  0.6701 -0.4924
 4369SOL    HW124743   3.303   2.904   5.711 -1.0759  1.1875  0.6758
 4369SOL    HW224744   3.296   2.803   5.609 -2.2261 -1.5216 -0.4325
 4370SOL     OW24745   3.874   2.556   9.999  0.1216 -0.0246 -0.7401
 4370SOL    HW124746   3.892   2.618  10.070  0.9137  0.5648 -1.4567
 4370SOL    HW224747   3.779   2.544  10.006  0.0818  0.5650 -0.3277
 4371SOL     OW24748   3.820   3.619   2.040  0.6457  0.2267  0.1269
 4371SOL    HW124749   3.868   3.601   1.958  0.6487  0.1343  0.1484
 4371SOL    HW224750   3.868   3.700   2.055 -1.1945  1.2259  0.5961
 4372SOL     OW24751   0.971   4.184  15.876  0.0398  0.4046  0.0364
 4372SOL    HW124752   1.065   4.174  15.863  0.1167 -3.5728  3.7798
 4372SOL    HW224753   0.943   4.211  15.789 -1.6665  2.5723  1.2215
 4373SOL     OW24754   0.271   3.280   6.950  0.0755  0.1554 -0.1052
 4373SOL    HW124755   0.236   3.350   6.895 -1.7283 -1.5067 -1.0775
 4373SOL    HW224756   0.344   3.322   6.996 -0.0828  1.5671 -1.1181
 4374SOL     OW24757   1.408   1.527   4.437 -0.0913 -0.1240  0.4052
 4374SOL    HW124758   1.365   1.612   4.430 -1.2975 -0.9590 -2.5590
 4374SOL    HW224759   1.422   1.531   4.531 -2.0346  0.5899  0.6498
 4375SOL     OW24760   1.528   3.015   4.865  0.5431  0.2122  0.4116
 4375SOL    HW124761   1.482   3.017   4.780 -0.3998 -0.1962  0.9120
 4375SOL    HW224762   1.577   2.933   4.861 -0.8597 -0.6576  0.7205
 4376SOL     OW24763   4.709   4.716   6.439 -0.5528 -0.6058 -0.4129
 4376SOL    HW124764   4.698   0.060   6.486 -0.0603 -1.3036  0.9352
 4376SOL    HW224765   0.037   4.676   6.494 -0.4034  0.0555 -0.1176
 4377SOL     OW24766   2.666   1.948   8.243 -0.0080  0.6443 -0.1924
 4377SOL    HW124767   2.572   1.956   8.227  0.2709 -0.3083 -2.3025
 4377SOL    HW224768   2.705   1.924   8.159  1.0133  1.9140 -0.0849
 4378SOL     OW24769   2.331   1.449   6.684  0.1373  0.1003  0.3772
 4378SOL    HW124770   2.287   1.402   6.754  2.7153  0.4485  2.2380
 4378SOL    HW224771   2.420   1.450   6.719 -0.1394  0.8127  1.0471
 4379SOL     OW24772   3.181   4.185   6.093 -0.3907  0.1085  0.0458
 4379SOL    HW124773   3.186   4.090   6.094  1.3907  0.2171 -0.0036
 4379SOL    HW224774   3.193   4.204   6.000 -0.6779  0.5892  0.1058
 4380SOL     OW24775   0.649   2.483   8.638 -0.1223  0.9545  0.2927
 4380SOL    HW124776   0.723   2.490   8.698 -1.2213  2.2409  1.4937
 4380SOL    HW224777   0.643   2.388   8.627  1.1623  0.9443 -0.3391
 4381SOL     OW24778   2.643   2.097   8.608  0.1186 -0.4559 -0.4486
 4381SOL    HW124779   2.552   2.127   8.609 -0.3371 -1.8706  0.4262
 4381SOL    HW224780   2.672   2.092   8.698 -0.6967 -1.7704 -0.2666
 4382SOL     OW24781   0.293   4.011   5.228  0.2635  0.0454  0.2049
 4382SOL    HW124782   0.251   3.955   5.163  1.9213  0.1969 -0.9879
 4382SOL    HW224783   0.313   4.087   5.172  1.5200 -1.4583 -1.3814
 4383SOL     OW24784   3.266   3.893   6.088  0.2872  0.1339  0.6214
 4383SOL    HW124785   3.356   3.927   6.088  0.3593 -0.0756  1.8645
 4383SOL    HW224786   3.259   3.849   6.003 -0.8226  0.4915  0.5205
 4384SOL     OW24787   0.368   1.452   5.917  0.0915 -0.1948  0.2218
 4384SOL    HW124788   0.367   1.445   5.822  1.5229 -0.1476  0.2066
 4384SOL    HW224789   0.381   1.362   5.948 -2.4105 -1.9002 -3.6867
 4385SOL     OW24790   3.369   2.087   9.858 -0.8146 -0.2673  0.4952
 4385SOL    HW124791   3.399   2.104   9.768 -0.8718 -1.9563  0.1574
 4385SOL    HW224792   3.446   2.037   9.886 -0.9546  1.6142  4.2612
 4386SOL     OW24793   2.070   1.617   9.001 -0.5387  0.6826 -0.3701
 4386SOL    HW124794   2.077   1.541   8.943 -5.2599 -1.1300  1.4136
 4386SOL    HW224795   2.153   1.657   8.979 -0.5148  2.0195  2.1296
 4387SOL     OW24796   3.499   4.019   2.365 -0.0199  0.0803 -0.2380
 4387SOL    HW124797   3.510   4.072   2.287  0.8637 -1.0225 -0.8640
 4387SOL    HW224798   3.490   3.936   2.318  2.9153 -0.5247  0.2805
 4388SOL     OW24799   2.521   3.670   7.326 -0.0717  0.7866 -0.3055
 4388SOL    HW124800   2.502   3.586   7.285  0.3616  0.0650  0.9573
 4388SOL    HW224801   2.586   3.639   7.389 -1.1247  0.0417  0.4186
 4389SOL     OW24802   3.312   0.361   9.729 -0.0769 -0.2828 -0.1491
 4389SOL    HW124803   3.354   0.279   9.755  1.8243  0.9452  0.6161
 4389SOL    HW224804   3.267   0.328   9.651 -2.1606  2.5341 -0.1316
 4390SOL     OW24805   1.479   4.601   2.132 -0.2992 -0.3275 -0.5263
 4390SOL    HW124806   1.461   4.642   2.217 -0.3023 -1.0499 -0.1768
 4390SOL    HW224807   1.426   4.523   2.151 -0.0784  0.7157  4.3773
 4391SOL     OW24808   2.466   2.580   7.838  0.5397 -0.0796 -0.1334
 4391SOL    HW124809   2.445   2.651   7.898  1.1695  1.6478 -1.9341
 4391SOL    HW224810   2.550   2.560   7.880  1.4323  1.0063 -1.3852
 4392SOL     OW24811   0.851   2.351   8.304  0.6689 -0.2349  0.6872
 4392SOL    HW124812   0.783   2.320   8.363 -1.9087  0.7492 -1.7593
 4392SOL    HW224813   0.796   2.399   8.243 -1.5933  0.8531  3.5667
 4393SOL     OW24814   3.920   1.984   8.921  0.8162  0.2204  0.0255
 4393SOL    HW124815   3.899   1.989   9.014  1.1476 -2.2268  0.2199
 4393SOL    HW224816   3.881   2.065   8.889  0.3185  0.0030  0.0922
 4394SOL     OW24817   3.089   3.720   8.055 -0.2972  0.0561  0.1792
 4394SOL    HW124818   3.120   3.808   8.076  0.1488  0.0764 -0.5848
 4394SOL    HW224819   3.173   3.678   8.034 -0.5546 -1.3011  1.8939
 4395SOL     OW24820   3.355   2.807   1.863  0.6727  0.4567 -0.4212
 4395SOL    HW124821   3.303   2.753   1.921 -1.0325 -0.1607 -2.5367
 4395SOL    HW224822   3.301   2.777   1.790  0.3246 -1.2007  0.5247
 4396SOL     OW24823   0.775   1.687   8.296  0.1186  0.3325 -0.1071
 4396SOL    HW124824   0.744   1.597   8.311 -0.5302  0.4578 -0.7298
 4396SOL    HW224825   0.855   1.683   8.244 -1.5051  1.4772 -2.6945
 4397SOL     OW24826   0.637   3.786   8.036  0.0934  0.1573 -0.2118
 4397SOL    HW124827   0.575   3.859   8.033  0.5817  0.5549 -0.6486
 4397SOL    HW224828   0.583   3.709   8.019 -2.1130  1.8675 -0.9055
 4398SOL     OW24829   1.347   4.082   7.335  0.3383  0.2141  0.7250
 4398SOL    HW124830   1.337   4.170   7.371 -0.6675  1.6437 -3.0642
 4398SOL    HW224831   1.340   4.097   7.241 -2.3641  1.1912  1.0809
 4399SOL     OW24832   2.809   4.242   6.491  0.1813  0.4382  0.5125
 4399SOL    HW124833   2.825   4.276   6.579  0.7411 -0.0195  0.5871
 4399SOL    HW224834   2.855   4.312   6.446  2.1555 -0.9686  0.3400
 4400SOL     OW24835   1.675   4.119   3.063 -0.4005 -0.1874  0.0305
 4400SOL    HW124836   1.648   4.107   3.154  1.6863  0.6464  0.7646
 4400SOL    HW224837   1.744   4.184   3.080 -0.7992 -0.0024  0.9792
 4401SOL     OW24838   1.602   1.071   7.362  0.5728  0.0812 -0.2389
 4401SOL    HW124839   1.553   1.138   7.410  2.4995  1.3377 -0.0474
 4401SOL    HW224840   1.600   0.997   7.424  1.5700 -0.5385 -0.9472
 4402SOL     OW24841   2.510   2.991   5.129  0.0067  0.1095  0.9390
 4402SOL    HW124842   2.602   2.975   5.109 -0.6429 -0.5712 -1.5070
 4402SOL    HW224843   2.478   2.979   5.040 -1.6682  0.1937  1.5236
 4403SOL     OW24844   3.417   4.007   8.481  0.7753  0.3861 -0.3976
 4403SOL    HW124845   3.324   4.006   8.504  0.9788  0.0618  0.4230
 4403SOL    HW224846   3.443   3.915   8.477  0.0563  0.2076 -1.0001
 4404SOL     OW24847   2.619   0.220   3.574  0.0978  0.4454 -0.1166
 4404SOL    HW124848   2.577   0.179   3.649 -1.1551 -0.7078 -1.4421
 4404SOL    HW224849   2.707   0.237   3.607  0.0972 -1.7367  1.0018
 4405SOL     OW24850   0.439   2.386  14.520 -0.1296  0.0470 -0.1140
 4405SOL    HW124851   0.489   2.390  14.602  0.6663  0.6834 -0.6314
 4405SOL    HW224852   0.495   2.344  14.455  1.7802  0.5189  1.2336
 4406SOL     OW24853   3.435   4.665   2.690  0.1842 -0.2769  0.1766
 4406SOL    HW124854   3.438   0.019   2.664  0.3631  0.6526  3.5185
 4406SOL    HW224855   3.436   4.628   2.601  0.7595  1.5035 -0.5627
 4407SOL     OW24856   3.790   2.722  12.266  0.1477 -0.5038  0.0874
 4407SOL    HW124857   3.844   2.682  12.334  0.6524  1.9413  1.1128
 4407SOL    HW224858   3.801   2.813  12.295 -0.8263 -0.7701  1.2813
 4408SOL     OW24859   2.634   0.970  14.955  0.5919 -0.1414  0.0673
 4408SOL    HW124860   2.585   0.905  15.006 -0.4097  0.3619 -0.2441
 4408SOL    HW224861   2.723   0.961  14.988  0.6647 -2.0648 -0.6936
 4409SOL     OW24862   4.180   2.253   9.162 -0.0883  0.3783  0.1766
 4409SOL    HW124863   4.238   2.284   9.232 -1.8213  3.0640  0.3831
 4409SOL    HW224864   4.171   2.317   9.093 -0.3792  0.0274 -0.1106
 4410SOL     OW24865   0.448   4.171   7.051  0.5827 -0.4724  0.4823
 4410SOL    HW124866   0.376   4.173   6.988  0.7345 -0.4641  0.3075
 4410SOL    HW224867   0.467   4.261   7.079 -0.4533  0.0145 -0.3671
 4411SOL     OW24868   0.015   2.571   3.007  0.1362 -0.2161 -0.1882
 4411SOL    HW124869   0.022   2.584   3.101 -0.5971 -0.3495 -0.1120
 4411SOL    HW224870   0.072   2.639   2.971  1.2293 -1.9351 -1.7502
 4412SOL     OW24871   1.820   4.444   9.338  0.1819  0.0962 -0.0481
 4412SOL    HW124872   1.815   4.394   9.256 -3.4449 -2.0466  1.5165
 4412SOL    HW224873   1.736   4.428   9.381 -0.7004 -0.2100 -1.8910
 4413SOL     OW24874   0.460   3.368   4.915  0.1009  0.2180 -0.7671
 4413SOL    HW124875   0.379   3.400   4.874  0.2644 -0.7887 -1.8614
 4413SOL    HW224876   0.500   3.446   4.954  0.1152  0.2368 -0.8191
 4414SOL     OW24877   3.136   3.901   8.436 -0.4706 -0.0543 -0.3534
 4414SOL    HW124878   3.118   3.821   8.486 -0.8607  0.0023 -0.4041
 4414SOL    HW224879   3.051   3.916   8.397 -0.9889 -2.2861 -0.1129
 4415SOL     OW24880   1.559   0.731   0.705  0.0539  0.2575  0.3712
 4415SOL    HW124881   1.592   0.758   0.790  0.4343  1.8921 -0.2931
 4415SOL    HW224882   1.616   0.781   0.648 -0.2850  0.2229  0.0016
 4416SOL     OW24883   0.713   3.353   1.541 -0.2344  0.1721 -0.4102
 4416SOL    HW124884   0.636   3.314   1.499 -1.0030 -1.2050  2.2384
 4416SOL    HW224885   0.737   3.423   1.481 -1.0429  0.9774  0.2081
 4417SOL     OW24886   0.746   3.630  12.960  0.5450  0.1210 -0.4924
 4417SOL    HW124887   0.678   3.567  12.984  1.1853 -0.0041  1.0491
 4417SOL    HW224888   0.758   3.604  12.869  0.1783  1.0537 -0.7957
 4418SOL     OW24889   4.315   0.076  10.365  0.2032 -0.2318 -0.2817
 4418SOL    HW124890   4.261   0.073  10.444 -0.4112  1.1560 -0.6576
 4418SOL    HW224891   4.368   4.736  10.380  0.8502  0.0843 -0.9572
 4419SOL     OW24892   2.934   2.835  14.364 -0.2943 -0.0999 -0.6735
 4419SOL    HW124893   3.002   2.770  14.379 -0.7607 -0.8035 -1.5696
 4419SOL    HW224894   2.880   2.835  14.443  2.1053  1.1305  0.9611
 4420SOL     OW24895   4.225   4.426   2.626 -0.5945  0.5787  0.0178
 4420SOL    HW124896   4.211   4.369   2.702  1.3754  0.8817  0.6010
 4420SOL    HW224897   4.320   4.417   2.620 -0.4201  1.1407  1.8221
 4421SOL     OW24898   1.763   4.729  17.604  0.1648 -0.3976  0.2988
 4421SOL    HW124899   1.842   0.042  17.587 -0.2154  0.4771  1.1797
 4421SOL    HW224900   1.708   0.009  17.529  0.0279  0.8295  0.7078
 4422SOL     OW24901   0.836   3.830   7.074  0.0806 -0.1650 -0.0192
 4422SOL    HW124902   0.916   3.854   7.026 -0.7026 -0.4490 -1.4525
 4422SOL    HW224903   0.850   3.876   7.157 -2.2168  2.0966 -0.8810
 4423SOL     OW24904   4.271   2.479   4.184 -0.0957  0.1408  0.3875
 4423SOL    HW124905   4.261   2.427   4.264  1.2314 -0.5675  0.0904
 4423SOL    HW224906   4.317   2.420   4.125  0.7320  1.1247  0.0402
 4424SOL     OW24907   0.081   0.886   2.024 -0.3439 -0.0157 -0.1978
 4424SOL    HW124908   0.099   0.876   1.931 -0.3933 -1.4852 -0.0453
 4424SOL    HW224909   0.165   0.928   2.044 -0.7127  0.5665  0.1436
 4425SOL     OW24910   4.039   2.769   9.146 -0.3494  0.6580  0.1880
 4425SOL    HW124911   4.049   2.841   9.083 -2.3324 -0.2563 -1.1858
 4425SOL    HW224912   4.002   2.816   9.221  1.2504  0.5043  1.0724
 4426SOL     OW24913   1.062   0.354   3.563  0.3320 -0.4327 -0.0598
 4426SOL    HW124914   1.097   0.429   3.610  2.2429 -1.3762  0.0396
 4426SOL    HW224915   1.141   0.298   3.561  0.7514  0.1767 -0.7969
 4427SOL     OW24916   0.648   3.709   2.479  0.3013 -0.0248  0.2202
 4427SOL    HW124917   0.696   3.683   2.558  1.1597 -1.2040 -0.6899
 4427SOL    HW224918   0.681   3.798   2.468 -0.7514  0.5435  1.5742
 4428SOL     OW24919   3.279   2.880   4.371 -0.1197 -0.0319  0.0722
 4428SOL    HW124920   3.293   2.953   4.310  2.4820 -0.4178  0.1988
 4428SOL    HW224921   3.341   2.815   4.340  0.2784  2.0022 -3.4431
 4429SOL     OW24922   2.336   1.259  12.982  0.1257  0.1674 -0.1770
 4429SOL    HW124923   2.321   1.224  12.894  0.1260 -0.8394  0.2158
 4429SOL    HW224924   2.417   1.305  12.961  0.1420  0.1923 -0.0574
 4430SOL     OW24925   0.004   3.004  16.358  0.2697 -0.6487 -0.8173
 4430SOL    HW124926   4.710   2.914  16.356  0.2327 -0.6199 -1.4969
 4430SOL    HW224927   0.057   3.011  16.437 -1.5769  0.5762  0.3189
 4431SOL     OW24928   1.046   4.630   4.767  0.1739  0.0839 -0.3097
 4431SOL    HW124929   1.124   4.611   4.818  0.3899 -0.5188 -0.8515
 4431SOL    HW224930   1.017   4.542   4.742 -0.5158 -0.8122  3.7004
 4432SOL     OW24931   4.170   0.384   3.479 -0.2216 -0.1612  0.1019
 4432SOL    HW124932   4.217   0.457   3.520  0.0052  0.5791 -1.5076
 4432SOL    HW224933   4.234   0.318   3.508 -1.8686 -2.2436 -0.9886
 4433SOL     OW24934   3.568   0.814   3.733 -0.0346 -0.1020  0.7019
 4433SOL    HW124935   3.614   0.750   3.679 -0.3185  1.2357 -1.1278
 4433SOL    HW224936   3.548   0.771   3.816  1.3306  0.8949  1.5539
 4434SOL     OW24937   0.708   0.427   1.785 -0.3481 -0.2198 -0.0769
 4434SOL    HW124938   0.681   0.467   1.702  1.3846 -1.4363 -1.2328
 4434SOL    HW224939   0.790   0.384   1.758 -0.5759 -1.3312  1.0190
 4435SOL     OW24940   0.359   2.333   1.283 -0.2555 -0.1730 -0.1026
 4435SOL    HW124941   0.424   2.403   1.290 -0.8115  0.4757 -1.4901
 4435SOL    HW224942   0.278   2.376   1.308  0.9489  2.7175 -1.1851
 4436SOL     OW24943   2.822   0.105   1.398  0.4684  0.4381  0.0632
 4436SOL    HW124944   2.830   0.133   1.307  3.4130 -1.9230 -0.3861
 4436SOL    HW224945   2.879   0.162   1.449  0.4066  1.1606 -0.6739
 4437SOL     OW24946   0.605   1.699   6.847  0.4388 -0.1109 -0.0426
 4437SOL    HW124947   0.671   1.766   6.831 -0.5264  0.5631 -1.1591
 4437SOL    HW224948   0.538   1.744   6.898  0.1526 -2.1397  1.4023
 4438SOL     OW24949   0.104   2.972   4.361 -0.3647 -0.4004  0.3683
 4438SOL    HW124950   0.158   2.894   4.346  1.7316  0.8880  1.0987
 4438SOL    HW224951   0.020   2.944   4.326 -0.6329  1.1530 -0.2023
 4439SOL     OW24952   0.447   3.170   8.036 -0.1478 -0.1598  0.1709
 4439SOL    HW124953   0.444   3.075   8.027  0.3104 -0.1981  0.4382
 4439SOL    HW224954   0.361   3.183   7.996 -0.1998 -2.7293 -0.5637
 4440SOL     OW24955   3.491   2.589   5.286  0.0217  0.3292 -0.1241
 4440SOL    HW124956   3.439   2.613   5.209 -1.6913  2.0647  1.5678
 4440SOL    HW224957   3.467   2.497   5.291 -0.0937  0.3666  0.0135
 4441SOL     OW24958   4.407   1.547   6.079 -0.4098  0.4128  0.4574
 4441SOL    HW124959   4.320   1.517   6.106 -1.2175  2.1654 -0.2325
 4441SOL    HW224960   4.420   1.489   6.004 -0.8366  0.2411  0.5142
 4442SOL     OW24961   3.624   3.430   9.622  0.0783  0.2943 -0.1095
 4442SOL    HW124962   3.714   3.452   9.601 -0.4611  2.5355 -0.0423
 4442SOL    HW224963   3.639   3.403   9.713  0.5930 -0.6816 -0.4786
 4443SOL     OW24964   4.168   1.876   5.505 -0.4436  0.0184 -0.1083
 4443SOL    HW124965   4.199   1.796   5.462  1.7176  1.0278 -0.4320
 4443SOL    HW224966   4.245   1.902   5.555 -0.9642  0.1848  0.5998
 4444SOL     OW24967   4.212   2.357   2.687 -0.3108 -0.1386 -0.2309
 4444SOL    HW124968   4.259   2.315   2.615  2.7804 -2.8307  3.3521
 4444SOL    HW224969   4.263   2.336   2.766 -0.3004  0.1414 -0.1608
 4445SOL     OW24970   2.929   3.064   0.525 -0.0914  0.1417  0.5923
 4445SOL    HW124971   2.928   3.059   0.621 -2.0041 -0.8100  0.5369
 4445SOL    HW224972   2.908   2.973   0.505 -0.5140  0.7549 -1.7379
 4446SOL     OW24973   1.494   4.224   4.626 -0.0340  0.0758  0.2643
 4446SOL    HW124974   1.413   4.214   4.575  1.0764 -0.8380 -1.3350
 4446SOL    HW224975   1.538   4.142   4.604  2.0710  1.1322  0.4946
 4447SOL     OW24976   3.085   3.890   3.034 -0.5281 -0.4111 -0.0193
 4447SOL    HW124977   3.133   3.961   2.991 -1.4315 -0.3661 -0.9296
 4447SOL    HW224978   2.996   3.907   3.004 -0.2748  0.4081 -0.2989
 4448SOL     OW24979   0.364   0.550   7.781 -0.0688 -0.1316  0.2763
 4448SOL    HW124980   0.428   0.615   7.753 -0.2994 -0.6718 -1.5020
 4448SOL    HW224981   0.375   0.546   7.876 -1.3360  0.9047  0.4671
 4449SOL     OW24982   2.106   1.580  13.446 -0.6499 -0.1711 -0.2843
 4449SOL    HW124983   2.129   1.603  13.356  1.9620  3.6467  1.3330
 4449SOL    HW224984   2.076   1.667  13.472 -0.7822  0.2345 -1.7699
 4450SOL     OW24985   0.904   3.242   7.800  0.0494  0.3588 -0.3169
 4450SOL    HW124986   0.835   3.268   7.861  0.1446  0.6174 -0.3193
 4450SOL    HW224987   0.863   3.259   7.716  1.7931 -1.9670 -1.6453
 4451SOL     OW24988   0.815   4.124   4.329 -0.0688  0.1335 -0.4043
 4451SOL    HW124989   0.732   4.166   4.305  0.4733  1.6961  0.4517
 4451SOL    HW224990   0.874   4.166   4.266  1.0390 -3.0216 -1.4546
 4452SOL     OW24991   2.295   4.501  11.638 -0.8399 -0.4682  0.0309
 4452SOL    HW124992   2.343   4.504  11.555  0.5341  1.2820  0.8618
 4452SOL    HW224993   2.368   4.493  11.700  0.1690  2.5327 -0.7743
 4453SOL     OW24994   2.675   1.325   2.097 -0.0846 -0.5376 -0.5259
 4453SOL    HW124995   2.739   1.348   2.165 -1.9933  0.2887  0.9829
 4453SOL    HW224996   2.725   1.250   2.065  0.3671 -0.5521  0.2029
 4454SOL     OW24997   0.432   3.753   3.655  0.8408 -0.0824 -0.4791
 4454SOL    HW124998   0.471   3.790   3.576 -0.6103  0.4020 -0.9811
 4454SOL    HW224999   0.355   3.705   3.624  0.8342 -0.9212  0.8520
 4455SOL     OW25000   4.006   2.532   6.597 -0.3147 -0.3708 -0.3139
 4455SOL    HW125001   3.937   2.469   6.617  0.9311 -1.5081  0.3886
 4455SOL    HW225002   4.049   2.541   6.682  1.9822 -0.3920 -1.4553
 4456SOL     OW25003   1.596   0.508  11.720  0.6203  0.7085  0.1239
 4456SOL    HW125004   1.672   0.564  11.732  1.6000 -0.1240 -2.3600
 4456SOL    HW225005   1.526   0.556  11.765 -0.7886 -1.0648 -0.1502
 4457SOL     OW25006   2.573   2.260   7.622 -0.4681  0.2593  0.1482
 4457SOL    HW125007   2.591   2.167   7.610 -2.0503  0.2532 -2.1087
 4457SOL    HW225008   2.577   2.296   7.533  1.5467  1.1826  0.6032
 4458SOL     OW25009   4.560   0.646   6.903 -0.3237  0.0697  0.1221
 4458SOL    HW125010   4.504   0.691   6.967  1.1974  0.5473  1.1022
 4458SOL    HW225011   4.630   0.710   6.905  2.2232 -2.7047 -0.5927
 4459SOL     OW25012   1.164   4.056   9.380  0.3214 -0.1571 -0.2045
 4459SOL    HW125013   1.189   4.142   9.413 -1.8695  2.1958 -4.7944
 4459SOL    HW225014   1.247   4.008   9.389  0.4071  0.2868  1.4078
 4460SOL     OW25015   1.956   1.961   2.167  0.0199  0.0279  0.1680
 4460SOL    HW125016   1.886   2.019   2.139  0.2265 -0.5367 -1.4698
 4460SOL    HW225017   2.029   1.982   2.109 -0.2327  0.8651  0.1497
 4461SOL     OW25018   4.445   3.364   3.767  0.4371 -0.0770 -0.6401
 4461SOL    HW125019   4.376   3.376   3.701  0.3568  0.1501 -0.5151
 4461SOL    HW225020   4.385   3.314   3.823 -1.2458  1.0665 -1.3999
 4462SOL     OW25021   0.287   0.804  10.563  0.6052  0.0199  0.6274
 4462SOL    HW125022   0.322   0.868  10.625  0.6704  0.2566  0.3423
 4462SOL    HW225023   0.329   0.724  10.595 -0.9783 -0.5128  1.3539
 4463SOL     OW25024   1.157   3.589   3.579 -0.3463 -0.2684 -0.2601
 4463SOL    HW125025   1.135   3.570   3.670 -2.1122  1.5387 -0.2977
 4463SOL    HW225026   1.251   3.606   3.579 -0.0075 -2.1529  1.2406
 4464SOL     OW25027   2.315   0.066   4.303  0.3395  0.1688  0.2177
 4464SOL    HW125028   2.312   0.081   4.397 -0.4758 -0.0435  0.2270
 4464SOL    HW225029   2.257   4.731   4.286 -1.5945  1.4881  1.1524
 4465SOL     OW25030   2.570   3.880   7.555  0.7177 -0.5575  0.2270
 4465SOL    HW125031   2.625   3.810   7.520  0.4794  0.9796 -3.2294
 4465SOL    HW225032   2.480   3.849   7.544  1.0497 -0.9660 -1.2891
 4466SOL     OW25033   4.478   3.319   7.439  0.2771  0.0913  0.4325
 4466SOL    HW125034   4.391   3.315   7.400  0.0506  0.2546  0.9175
 4466SOL    HW225035   4.524   3.380   7.381 -1.2357  0.3187 -0.5067
 4467SOL     OW25036   4.627   4.559   3.569 -0.3214  0.1466  0.3340
 4467SOL    HW125037   4.660   4.473   3.541 -2.4225 -0.3075 -0.7354
 4467SOL    HW225038   4.656   4.608   3.492 -2.2570  1.4037  0.4064
 4468SOL     OW25039   3.733   2.584   7.881  0.2596  0.0754  0.6844
 4468SOL    HW125040   3.703   2.636   7.806  1.0944  0.9915  0.9861
 4468SOL    HW225041   3.786   2.644   7.933 -0.9482 -0.0116  2.0203
 4469SOL     OW25042   2.112   1.016   0.292  0.4792 -0.3044  0.1758
 4469SOL    HW125043   2.091   1.109   0.282  2.5573  0.2853  1.2117
 4469SOL    HW225044   2.102   0.984   0.202  0.5989 -1.0448  0.4285
 4470SOL     OW25045   2.858   3.099  12.337 -0.5824  0.2307 -0.3056
 4470SOL    HW125046   2.890   3.085  12.426 -0.3328 -1.1415 -0.6090
 4470SOL    HW225047   2.925   3.056  12.283  1.2176 -0.2998  2.3906
 4471SOL     OW25048   1.146   3.490   5.149 -0.1100  1.0261  0.3943
 4471SOL    HW125049   1.075   3.522   5.095 -1.0856  1.5672  1.9985
 4471SOL    HW225050   1.135   3.550   5.223  0.6918  0.8185  0.6861
 4472SOL     OW25051   4.375   2.269  16.559  0.3313 -0.2271 -0.3601
 4472SOL    HW125052   4.324   2.330  16.505  1.2707  2.2000  1.4917
 4472SOL    HW225053   4.357   2.293  16.650 -1.4889  2.6081 -1.4621
 4473SOL     OW25054   3.477   3.166   5.306 -0.2888 -0.1583  0.0470
 4473SOL    HW125055   3.505   3.148   5.396  0.1931 -0.4865 -0.1686
 4473SOL    HW225056   3.494   3.260   5.297 -1.0865 -0.2590 -2.4712
 4474SOL     OW25057   1.795   2.313   5.754  0.6708  0.0545  0.0965
 4474SOL    HW125058   1.827   2.392   5.710 -0.5494 -0.4000 -1.6047
 4474SOL    HW225059   1.865   2.279   5.810 -1.2069 -1.7562  1.3270
 4475SOL     OW25060   3.763   0.074   3.124  0.2596 -0.2568  0.1052
 4475SOL    HW125061   3.670   0.063   3.141  0.5155 -0.7876  1.1715
 4475SOL    HW225062   3.775   0.121   3.207 -0.3071 -0.1360  0.1178
 4476SOL     OW25063   0.001   4.605   9.446 -0.3165 -0.3244  0.0465
 4476SOL    HW125064   4.685   4.646   9.379 -1.6765 -0.0738  1.3167
 4476SOL    HW225065   4.685   4.533   9.477  0.8365  0.5367  4.1337
 4477SOL     OW25066   3.805   1.018   6.835  0.2071  0.2503 -0.5025
 4477SOL    HW125067   3.776   0.992   6.747  1.1559 -1.1746 -0.3943
 4477SOL    HW225068   3.775   0.942   6.884  0.8649  0.6307  0.4954
 4478SOL     OW25069   0.604   3.888   4.219 -0.2388 -0.1393  0.0899
 4478SOL    HW125070   0.526   3.834   4.232  0.5069 -1.3800 -0.5608
 4478SOL    HW225071   0.632   3.932   4.299  0.7519 -2.3283  0.9539
 4479SOL     OW25072   4.452   1.891   9.754  0.1853 -0.1330  0.6416
 4479SOL    HW125073   4.435   1.900   9.848  3.9534  1.9706  1.1167
 4479SOL    HW225074   4.365   1.912   9.720  0.5701 -0.3883 -0.4816
 4480SOL     OW25075   1.006   3.131   8.577 -0.2728  0.3076  0.0825
 4480SOL    HW125076   0.937   3.173   8.526 -0.1326 -0.1238 -0.4644
 4480SOL    HW225077   1.083   3.174   8.542  0.1732 -0.5261  0.0319
 4481SOL     OW25078   4.413   2.843  13.562 -0.2426  0.7353 -0.4100
 4481SOL    HW125079   4.376   2.755  13.567 -0.9584  1.0548 -0.0818
 4481SOL    HW225080   4.338   2.898  13.586 -1.2197 -0.7243 -0.1542
 4482SOL     OW25081   1.175   0.339   4.898  0.0730 -0.1284  0.2166
 4482SOL    HW125082   1.098   0.284   4.909  0.9647 -1.1622  1.2854
 4482SOL    HW225083   1.227   0.322   4.977  1.2149 -0.2972 -0.5678
 4483SOL     OW25084   2.973   1.835  12.063  0.0889  0.3190  0.2773
 4483SOL    HW125085   2.900   1.773  12.067  0.0438  0.6207  4.0892
 4483SOL    HW225086   2.930   1.909  12.019  1.2209  1.5468  1.2401
 4484SOL     OW25087   1.631   0.823   3.777  0.3564 -0.6951 -0.2489
 4484SOL    HW125088   1.721   0.855   3.777 -0.2407  0.9731  0.8613
 4484SOL    HW225089   1.602   0.832   3.686 -2.5707  0.4018  0.7999
 4485SOL     OW25090   2.416   3.823  10.291 -0.0305 -0.4630  0.1769
 4485SOL    HW125091   2.491   3.800  10.236 -2.5571 -2.1442 -2.5634
 4485SOL    HW225092   2.347   3.760  10.270  1.6954 -2.6797  1.2300
 4486SOL     OW25093   2.842   1.445   7.527 -0.2484 -0.2921 -0.9818
 4486SOL    HW125094   2.907   1.459   7.596  0.2959 -0.3614 -1.4837
 4486SOL    HW225095   2.842   1.534   7.491 -1.7960 -1.0575 -2.8625
 4487SOL     OW25096   3.527   3.196   6.712 -0.2122  0.1060 -0.7947
 4487SOL    HW125097   3.542   3.234   6.799  1.1636 -4.0430  0.7843
 4487SOL    HW225098   3.440   3.228   6.688 -0.1687  0.8724  0.0403
 4488SOL     OW25099   2.786   1.126   3.980  0.0147  0.6252  0.3166
 4488SOL    HW125100   2.707   1.074   3.993 -0.4022  1.0100 -0.6671
 4488SOL    HW225101   2.804   1.147   4.072 -0.8439 -1.5386  0.9870
 4489SOL     OW25102   2.146   2.173  15.697  0.2666  0.5005  0.1504
 4489SOL    HW125103   2.078   2.211  15.640 -0.9444  0.1754  1.3794
 4489SOL    HW225104   2.223   2.203  15.648  0.7432 -1.6678 -0.4477
 4490SOL     OW25105   4.693   2.685   8.554 -0.1214 -0.0383  0.1204
 4490SOL    HW125106   4.633   2.750   8.590 -1.0765 -1.3335  0.8870
 4490SOL    HW225107   0.000   2.748   8.499 -1.1728  0.6740  0.0520
 4491SOL     OW25108   1.920   0.652  13.102 -0.2598  0.5279 -0.3705
 4491SOL    HW125109   1.991   0.593  13.076 -1.4487 -1.2243  0.3562
 4491SOL    HW225110   1.947   0.743  13.107  2.0898 -0.1783 -0.1471
 4492SOL     OW25111   0.746   3.068   6.466  0.3343  0.2005 -0.2693
 4492SOL    HW125112   0.761   3.008   6.538  1.6937 -0.8859 -1.4596
 4492SOL    HW225113   0.674   3.126   6.489 -0.5456 -0.2546 -1.8750
 4493SOL     OW25114   2.369   0.913   8.191 -0.3426 -0.1845  0.3711
 4493SOL    HW125115   2.375   0.826   8.232  1.1965 -0.5364 -0.6111
 4493SOL    HW225116   2.274   0.906   8.183 -0.1432 -3.7877  0.8169
 4494SOL     OW25117   2.903   3.115  13.875  0.0335 -0.5500 -0.7697
 4494SOL    HW125118   2.926   3.038  13.822 -1.3151  0.8851 -3.4164
 4494SOL    HW225119   2.929   3.070  13.955 -0.1181 -0.4281 -0.6525
 4495SOL     OW25120   3.343   2.528  12.424  0.2096 -0.0988  0.0303
 4495SOL    HW125121   3.300   2.588  12.485  1.2573 -0.4938  1.1572
 4495SOL    HW225122   3.430   2.509  12.459 -0.3151 -2.4856 -0.0101
 4496SOL     OW25123   2.085   3.751   8.982 -0.5308 -0.2796  0.5380
 4496SOL    HW125124   2.005   3.804   8.981  0.3951  1.0971 -0.8063
 4496SOL    HW225125   2.053   3.665   9.010 -0.1653 -0.4681  0.3801
 4497SOL     OW25126   1.231   0.438   7.459  0.3108 -0.3241 -0.3361
 4497SOL    HW125127   1.285   0.362   7.436  2.0054  1.0862 -1.0162
 4497SOL    HW225128   1.284   0.510   7.425  0.0092  0.3443  0.6216
 4498SOL     OW25129   0.800   1.606  15.581 -0.2561  0.0869 -0.0100
 4498SOL    HW125130   0.873   1.658  15.613  0.2555  0.5625 -1.9454
 4498SOL    HW225131   0.835   1.521  15.605  1.0624  0.8514  0.7411
 4499SOL     OW25132   2.385   1.370  16.555  0.5803  0.0366  0.0631
 4499SOL    HW125133   2.320   1.299  16.553  1.5705 -0.9049  0.9198
 4499SOL    HW225134   2.460   1.319  16.585  1.0262  1.5636  1.5138
 4500SOL     OW25135   2.173   2.190   3.083 -0.1112 -0.3305 -0.2866
 4500SOL    HW125136   2.104   2.170   3.146 -0.6403 -0.8547 -1.0373
 4500SOL    HW225137   2.178   2.284   3.102 -0.6134 -0.7944  2.0457
 4501SOL     OW25138   3.907   2.667   1.484 -0.1523  0.6204  0.2351
 4501SOL    HW125139   3.832   2.726   1.487 -1.1081 -0.5577 -0.2931
 4501SOL    HW225140   3.871   2.609   1.417  0.1316  2.0012 -1.1122
 4502SOL     OW25141   3.287   0.876  16.807 -0.1784 -0.7969  0.7431
 4502SOL    HW125142   3.221   0.933  16.767  2.0173  2.1962  1.3822
 4502SOL    HW225143   3.327   0.937  16.869 -0.6717 -0.4062  0.6772
 4503SOL     OW25144   0.082   4.712  13.730 -0.0426 -0.5099  0.1880
 4503SOL    HW125145   0.023   0.016  13.791  1.5237  1.3918  0.3690
 4503SOL    HW225146   0.163   0.025  13.728 -0.5873  0.2329 -3.0025
 4504SOL     OW25147   0.890   0.866  14.471  0.3933 -0.3465 -0.2525
 4504SOL    HW125148   0.824   0.815  14.425 -1.2815  2.2596 -0.6896
 4504SOL    HW225149   0.910   0.804  14.543  0.2604 -0.4345 -0.2917
 4505SOL     OW25150   2.011   2.022   7.980  0.3646  0.1702 -0.2417
 4505SOL    HW125151   2.034   2.115   7.982 -0.6562  0.4751 -1.8307
 4505SOL    HW225152   1.977   2.013   8.069 -0.4593 -0.3474 -0.6020
 4506SOL     OW25153   4.117   3.888   9.796 -0.0660  0.1881 -0.0750
 4506SOL    HW125154   4.146   3.823   9.860 -0.6434  1.7656  1.7609
 4506SOL    HW225155   4.178   3.959   9.817  0.1622 -0.4730  1.4880
 4507SOL     OW25156   4.681   1.172   7.855 -0.5729  0.2196 -0.7087
 4507SOL    HW125157   0.001   1.223   7.799  0.6478 -1.1915 -0.6929
 4507SOL    HW225158   4.715   1.196   7.941 -1.1288  1.8907 -0.9370
 4508SOL     OW25159   3.747   1.594  14.908  0.6740 -0.0521  0.5457
 4508SOL    HW125160   3.788   1.602  14.822  0.8900 -1.4857  0.5149
 4508SOL    HW225161   3.697   1.513  14.897  0.3928  0.2509 -0.3917
 4509SOL     OW25162   2.726   3.504  10.866  0.3705 -0.3201 -0.3400
 4509SOL    HW125163   2.695   3.543  10.783 -1.8936 -3.1946 -0.8069
 4509SOL    HW225164   2.800   3.565  10.875 -0.0524  0.1970 -0.3184
 4510SOL     OW25165   2.516   2.237   0.544  0.2312  0.6901  0.2692
 4510SOL    HW125166   2.481   2.322   0.516  1.1261  0.7553 -0.6759
 4510SOL    HW225167   2.611   2.253   0.544  0.4144 -0.3280 -2.6010
 4511SOL     OW25168   1.070   3.229  12.859  0.5268 -0.2870 -0.5201
 4511SOL    HW125169   1.055   3.178  12.939 -0.0681 -0.5699 -0.8096
 4511SOL    HW225170   1.014   3.177  12.802 -0.4160  0.2532 -0.0842
 4512SOL     OW25171   1.966   3.208   7.020  0.0993  0.0831  0.1072
 4512SOL    HW125172   1.971   3.135   7.082 -0.8404 -0.3072 -0.2783
 4512SOL    HW225173   1.962   3.170   6.932 -0.6315  2.2274 -0.7972
 4513SOL     OW25174   2.925   0.455  11.109 -0.0416  0.5201 -0.1258
 4513SOL    HW125175   2.980   0.463  11.186  0.2426  0.3113 -0.3054
 4513SOL    HW225176   2.906   0.361  11.113 -1.6281  0.8623  0.4918
 4514SOL     OW25177   0.817   1.328   2.403  0.6520  0.1241 -0.5163
 4514SOL    HW125178   0.909   1.333   2.378  0.5267  1.2811 -0.7771
 4514SOL    HW225179   0.776   1.389   2.341  2.3258 -0.0804 -1.8348
 4515SOL     OW25180   2.995   3.691   9.056 -0.1658  0.1809  0.5552
 4515SOL    HW125181   2.951   3.776   9.050 -0.6084 -0.0738  0.1752
 4515SOL    HW225182   2.944   3.658   9.130  0.0323 -0.1744  0.5342
 4516SOL     OW25183   4.643   0.964  15.592  0.5994  0.0061  0.1362
 4516SOL    HW125184   4.702   1.005  15.529  0.5052 -2.0844 -1.3511
 4516SOL    HW225185   4.567   1.021  15.601  0.2013 -0.7620  1.6563
 4517SOL     OW25186   3.549   1.398  14.453 -0.0814  0.2445 -0.0644
 4517SOL    HW125187   3.522   1.310  14.426 -0.7547  0.5444 -0.3676
 4517SOL    HW225188   3.539   1.395  14.548  3.1908 -1.5724  0.2443
 4518SOL     OW25189   2.066   0.733   8.384  0.1381 -0.0116 -0.3751
 4518SOL    HW125190   2.025   0.648   8.364  2.8657 -1.6426  1.0022
 4518SOL    HW225191   1.997   0.791   8.418  0.1678 -1.2318  1.8176
 4519SOL     OW25192   0.493   2.377   1.687  0.1247  0.1025 -0.0872
 4519SOL    HW125193   0.540   2.318   1.746 -1.5997  0.6307  1.8029
 4519SOL    HW225194   0.459   2.322   1.616 -2.0219 -0.4972  1.3761
 4520SOL     OW25195   0.062   2.921   8.469 -0.6650 -0.4229 -0.2109
 4520SOL    HW125196   0.093   2.980   8.400 -4.0650 -0.5824 -1.8706
 4520SOL    HW225197   0.054   2.984   8.541 -0.5093  1.6155 -1.9729
 4521SOL     OW25198   1.153   2.735   6.204 -0.2912 -0.3597  0.0854
 4521SOL    HW125199   1.126   2.673   6.135  0.5292 -0.2834 -0.2964
 4521SOL    HW225200   1.080   2.797   6.202 -0.4911 -0.5889  0.2992
 4522SOL     OW25201   3.457   1.053   3.621 -0.7799 -0.2550 -0.2706
 4522SOL    HW125202   3.509   1.128   3.652 -0.2821 -0.2672 -1.0720
 4522SOL    HW225203   3.506   0.979   3.655  0.7328 -0.0618 -2.0220
 4523SOL     OW25204   1.841   0.830   0.332 -0.1307  0.4219  0.1041
 4523SOL    HW125205   1.916   0.791   0.287  0.3404 -1.2900  2.4465
 4523SOL    HW225206   1.801   0.747   0.356  0.9763 -0.1521 -0.0838
 4524SOL     OW25207   3.690   4.327  16.889 -0.2560  0.4440  0.0936
 4524SOL    HW125208   3.657   4.293  16.972 -0.7052 -1.5324 -0.8907
 4524SOL    HW225209   3.745   4.253  16.864 -0.8496 -0.2670  0.9086
 4525SOL     OW25210   3.252   1.518   3.206 -1.0865  0.2758 -0.2904
 4525SOL    HW125211   3.345   1.530   3.189 -1.3463  2.8957  0.1899
 4525SOL    HW225212   3.223   1.591   3.260 -0.4296  0.2613  0.0855
 4526SOL     OW25213   4.195   0.669   2.918 -0.1044  0.6485  0.0680
 4526SOL    HW125214   4.167   0.694   2.830 -2.9714  3.2537  1.6917
 4526SOL    HW225215   4.152   0.738   2.968  0.3661  1.5549 -0.7806
 4527SOL     OW25216   4.648   1.074   8.285 -0.1841  0.4262  0.2167
 4527SOL    HW125217   4.557   1.099   8.298 -0.7103 -1.1052 -0.4776
 4527SOL    HW225218   4.638   1.020   8.206 -1.4002  1.5827 -0.4237
 4528SOL     OW25219   2.127   3.191   1.782 -0.2296  0.6604  0.6640
 4528SOL    HW125220   2.190   3.178   1.711  1.8035  1.0061  2.3969
 4528SOL    HW225221   2.191   3.218   1.848 -0.1625 -1.3542  1.4284
 4529SOL     OW25222   0.508   3.383  16.943  0.4029  0.2150  0.4580
 4529SOL    HW125223   0.523   3.422  16.856  0.1179 -0.3868  0.1385
 4529SOL    HW225224   0.545   3.295  16.937 -0.4583 -0.1453  0.5072
 4530SOL     OW25225   3.823   2.288   9.583  0.3929  0.0556 -0.2397
 4530SOL    HW125226   3.782   2.204   9.608  0.9429  0.1131  0.8506
 4530SOL    HW225227   3.889   2.256   9.521 -0.9498 -0.2159 -1.5293
 4531SOL     OW25228   0.599   2.479   1.190 -0.4845 -0.0159 -0.3777
 4531SOL    HW125229   0.572   2.470   1.099 -0.6775  1.0509 -0.4273
 4531SOL    HW225230   0.669   2.544   1.183 -0.5845  0.3327  2.0012
 4532SOL     OW25231   1.431   3.693   3.618 -0.4014  0.4876  0.0426
 4532SOL    HW125232   1.428   3.669   3.711  2.0265 -1.5628 -0.4001
 4532SOL    HW225233   1.522   3.668   3.603 -0.7520  0.6095 -2.2152
 4533SOL     OW25234   2.489   0.720  12.180  0.4388 -0.0997  0.2649
 4533SOL    HW125235   2.528   0.634  12.196 -0.6677 -0.9814 -1.7553
 4533SOL    HW225236   2.403   0.704  12.142  0.8736 -1.5071 -0.1389
 4534SOL     OW25237   0.393   1.892   1.567  0.5254  0.5023 -0.2594
 4534SOL    HW125238   0.443   1.881   1.487 -2.0471  0.0749 -1.8106
 4534SOL    HW225239   0.320   1.835   1.543 -1.7402  0.8091  5.7149
 4535SOL     OW25240   3.796   0.851  12.219 -0.3370 -0.6389  0.2950
 4535SOL    HW125241   3.834   0.878  12.136 -1.1763  0.6413  0.3347
 4535SOL    HW225242   3.756   0.927  12.261 -1.9195  0.3012 -2.9326
 4536SOL     OW25243   4.694   2.104   8.264 -0.1518 -0.2362  0.0377
 4536SOL    HW125244   4.650   2.184   8.291 -0.7863  0.3370 -2.6521
 4536SOL    HW225245   4.628   2.060   8.211  1.0850  1.1396 -2.6600
 4537SOL     OW25246   3.803   3.042   6.317  0.6933 -0.6687 -0.2230
 4537SOL    HW125247   3.708   3.039   6.309  0.8133 -2.7507 -1.1058
 4537SOL    HW225248   3.802   3.098   6.394 -2.0927 -0.9887 -0.0425
 4538SOL     OW25249   2.514   0.730   5.869 -0.1363 -0.3948  0.1699
 4538SOL    HW125250   2.439   0.748   5.926 -1.0439  0.7896 -1.3915
 4538SOL    HW225251   2.485   0.776   5.790 -1.1785  0.6574  1.1694
 4539SOL     OW25252   3.706   0.134   4.138 -0.0993  0.7597 -0.1758
 4539SOL    HW125253   3.753   0.068   4.087 -1.4123 -0.5186  0.2721
 4539SOL    HW225254   3.741   0.118   4.226  0.4574 -0.5045 -0.6230
 4540SOL     OW25255   0.401   2.070  14.726 -0.3643  0.1063  0.3392
 4540SOL    HW125256   0.443   1.986  14.745  1.8250  1.4528  1.4698
 4540SOL    HW225257   0.476   2.128  14.729  0.0564 -0.4450  0.5564
 4541SOL     OW25258   1.799   2.751  13.020 -0.2503 -0.2225  0.0853
 4541SOL    HW125259   1.775   2.700  12.943  0.3331  1.0729 -0.9591
 4541SOL    HW225260   1.895   2.751  13.017 -0.2280  0.5208  0.7101
 4542SOL     OW25261   0.434   3.050   4.553  0.1128  0.2286 -0.0521
 4542SOL    HW125262   0.516   3.016   4.517  1.3716  2.3459  0.7433
 4542SOL    HW225263   0.411   3.117   4.489 -0.0893  0.2257  0.0174
 4543SOL     OW25264   2.795   2.852   3.734  0.2070  0.4785 -0.2356
 4543SOL    HW125265   2.869   2.877   3.679  0.1664 -1.1532 -1.0140
 4543SOL    HW225266   2.814   2.892   3.819  2.1309 -2.0940  0.5307
 4544SOL     OW25267   3.775   3.269  11.604 -0.3070  0.0956  0.1166
 4544SOL    HW125268   3.819   3.214  11.540  0.3710  0.3305  0.3750
 4544SOL    HW225269   3.790   3.222  11.686  0.1532 -2.2109 -1.2824
 4545SOL     OW25270   0.104   2.353  13.884  0.1466 -0.2725  0.0728
 4545SOL    HW125271   0.177   2.293  13.870  0.8958  0.4858  0.7102
 4545SOL    HW225272   0.101   2.359  13.980  0.2092  2.6622 -0.1202
 4546SOL     OW25273   1.168   1.956   2.369  0.1289 -0.2324 -0.2465
 4546SOL    HW125274   1.230   1.962   2.442  1.1053 -2.4773 -0.8846
 4546SOL    HW225275   1.228   1.966   2.296 -1.9075  0.7280 -1.7906
 4547SOL     OW25276   3.834   3.767  10.627 -0.2043 -0.1981  0.7212
 4547SOL    HW125277   3.818   3.858  10.654  0.6544  0.5077 -1.1122
 4547SOL    HW225278   3.785   3.728  10.699  0.0499  1.0804  1.5959
 4548SOL     OW25279   4.545   2.164   7.958  0.2118  0.2355 -0.6252
 4548SOL    HW125280   4.623   2.217   7.978 -0.0250 -0.6600  2.5774
 4548SOL    HW225281   4.570   2.075   7.983 -2.6729  0.4442  2.9298
 4549SOL     OW25282   4.416   0.939   8.692 -0.0930  0.4100 -0.4108
 4549SOL    HW125283   4.508   0.959   8.677  0.6266 -1.0226  2.1289
 4549SOL    HW225284   4.400   1.008   8.757  0.0351  1.2232 -1.2328
 4550SOL     OW25285   2.203   2.187   7.364 -0.0274 -0.7655 -0.5126
 4550SOL    HW125286   2.250   2.132   7.428  0.3291 -0.0578 -0.1654
 4550SOL    HW225287   2.278   2.226   7.319 -1.0375  0.5057 -1.0562
 4551SOL     OW25288   3.337   3.610   8.003  0.5611  0.2388 -0.8716
 4551SOL    HW125289   3.397   3.677   8.036  3.7785 -1.3027 -3.5573
 4551SOL    HW225290   3.361   3.610   7.910 -1.4539  2.0721 -1.3888
 4552SOL     OW25291   0.203   2.305   3.945 -0.2017  0.2840 -0.5230
 4552SOL    HW125292   0.158   2.350   3.873  0.3145  0.1155 -0.9493
 4552SOL    HW225293   0.272   2.264   3.893 -0.1980  0.0477 -0.3345
 4553SOL     OW25294   2.743   1.742   7.181  0.2990  0.5450 -0.1619
 4553SOL    HW125295   2.768   1.806   7.114 -0.7852  0.5185 -0.5938
 4553SOL    HW225296   2.665   1.790   7.209 -0.9889 -1.0976 -0.8709
 4554SOL     OW25297   2.533   0.005   8.003  0.5513  0.0372  0.1892
 4554SOL    HW125298   2.492   0.039   7.924  1.5091 -1.2550 -0.8708
 4554SOL    HW225299   2.459   4.719   8.057  1.5653 -1.0710  1.0692
 4555SOL     OW25300   0.946   0.731   4.760  0.2708  0.2440  0.0922
 4555SOL    HW125301   1.015   0.756   4.821  0.6423  3.6860 -1.7428
 4555SOL    HW225302   0.988   0.659   4.713 -1.5356  1.5417 -3.4787
 4556SOL     OW25303   3.864   2.341   8.332  0.5835 -0.6711  0.2532
 4556SOL    HW125304   3.902   2.254   8.345 -0.6589 -1.2307  0.1590
 4556SOL    HW225305   3.811   2.344   8.411 -0.6814 -0.0296 -0.6272
 4557SOL     OW25306   0.457   3.593   4.601  0.1601  1.0354  0.9163
 4557SOL    HW125307   0.440   3.541   4.522  2.0927  2.0840 -0.1868
 4557SOL    HW225308   0.403   3.542   4.662  0.1760 -0.0139  0.0538
 4558SOL     OW25309   1.341   1.348   3.558  0.2769 -0.1180  0.0655
 4558SOL    HW125310   1.280   1.387   3.495  0.6356  0.6676  0.1999
 4558SOL    HW225311   1.416   1.408   3.553  1.4022 -1.5347  0.0392
 4559SOL     OW25312   2.198   1.862   4.000 -0.5954  0.5788  0.1026
 4559SOL    HW125313   2.173   1.828   4.086  0.2268  0.7752  0.4185
 4559SOL    HW225314   2.162   1.797   3.940 -0.4957  1.3612 -0.7954
 4560SOL     OW25315   4.663   2.757   0.721 -0.5929 -0.4418 -0.2900
 4560SOL    HW125316   0.004   2.808   0.735 -0.8519 -0.4177  1.1017
 4560SOL    HW225317   4.700   2.692   0.662 -0.8956 -0.7657 -0.1268
 4561SOL     OW25318   4.438   3.924  11.025  0.3318 -0.0751 -0.3315
 4561SOL    HW125319   4.524   3.884  11.015  1.1567  1.3904  0.9112
 4561SOL    HW225320   4.430   3.923  11.120  1.3605 -2.1567 -0.2739
 4562SOL     OW25321   3.945   4.440  10.019 -0.1244  0.1930  0.4683
 4562SOL    HW125322   4.018   4.500  10.003  0.0638 -0.5816 -1.6032
 4562SOL    HW225323   3.990   4.370  10.066  0.1085 -0.2155 -0.3703
 4563SOL     OW25324   1.210   2.402   3.289  0.3948 -0.4125  0.5247
 4563SOL    HW125325   1.125   2.435   3.318  0.9547  1.9754 -0.4894
 4563SOL    HW225326   1.192   2.309   3.275 -1.9930  0.1429 -0.2320
 4564SOL     OW25327   3.135   2.998   6.016 -0.2226 -1.1555 -0.7571
 4564SOL    HW125328   3.128   2.963   6.105 -1.5423 -0.7234 -0.6882
 4564SOL    HW225329   3.083   2.943   5.957 -1.1937 -0.9451 -0.0913
 4565SOL     OW25330   1.079   0.320   7.793 -0.6782  0.3990 -0.2689
 4565SOL    HW125331   1.134   0.373   7.735  2.2299 -2.3123  0.0162
 4565SOL    HW225332   1.107   0.349   7.880  0.4250  0.4563 -0.6393
 4566SOL     OW25333   0.189   1.089   1.686 -0.0089 -0.4527  0.1317
 4566SOL    HW125334   0.217   1.016   1.741 -1.1541 -0.2187  1.0242
 4566SOL    HW225335   0.118   1.127   1.737  0.6543  0.7614  0.1391
 4567SOL     OW25336   2.292   4.203  16.964 -0.1405 -0.5652 -0.2109
 4567SOL    HW125337   2.325   4.275  17.018 -1.5052 -0.4575  0.4722
 4567SOL    HW225338   2.242   4.238  16.890  0.1304  1.3340  0.5071
 4568SOL     OW25339   1.162   4.300  12.146  0.1544  0.4048  0.7234
 4568SOL    HW125340   1.127   4.376  12.100  2.9705  0.7649 -0.7653
 4568SOL    HW225341   1.239   4.277  12.095 -0.4107  0.0759  0.0115
 4569SOL     OW25342   3.695   2.975   5.741  0.1244 -0.1404  0.6280
 4569SOL    HW125343   3.756   2.902   5.749 -0.0635 -0.5125 -1.5424
 4569SOL    HW225344   3.696   2.982   5.646  1.6709  1.1073  0.7235
 4570SOL     OW25345   0.049   4.328   7.458 -0.8727  0.2822  0.5947
 4570SOL    HW125346   0.103   4.301   7.384 -1.7481  2.2556 -0.7625
 4570SOL    HW225347   4.696   4.317   7.434 -0.5795  1.7526 -1.1965
 4571SOL     OW25348   1.738   2.917  12.622 -0.3404 -0.1436  0.3930
 4571SOL    HW125349   1.775   2.900  12.535 -1.6974 -1.3066  0.0311
 4571SOL    HW225350   1.648   2.888  12.610  0.1783 -1.7512  0.3367
 4572SOL     OW25351   3.615   0.231   5.859 -0.8267  0.1436  0.0111
 4572SOL    HW125352   3.566   0.306   5.893 -1.1818  0.3256 -0.9107
 4572SOL    HW225353   3.544   0.166   5.858 -0.4960 -0.2625  1.7974
 4573SOL     OW25354   1.688   0.091   9.562 -0.4088 -0.5703  0.3984
 4573SOL    HW125355   1.734   0.175   9.557 -1.1455 -0.2890 -1.4247
 4573SOL    HW225356   1.638   0.109   9.642  0.2844  3.2552  0.0062
 4574SOL     OW25357   1.731   1.467   4.539 -0.1160  0.1162 -0.6419
 4574SOL    HW125358   1.725   1.488   4.632 -0.1886 -1.0136 -0.3964
 4574SOL    HW225359   1.711   1.373   4.536 -0.7093  0.2210 -0.0160
 4575SOL     OW25360   4.683   4.662   5.315 -0.0413 -0.2551  0.0079
 4575SOL    HW125361   4.594   4.632   5.332 -0.3821  0.5167 -0.4269
 4575SOL    HW225362   4.702   4.700   5.401 -0.0780  3.4656 -1.5903
 4576SOL     OW25363   3.070   4.253   4.459 -0.2727  0.3077 -0.2504
 4576SOL    HW125364   3.020   4.333   4.449  1.1333  1.1934 -0.1715
 4576SOL    HW225365   3.157   4.276   4.427  0.6178  0.0584  2.0196
 4577SOL     OW25366   4.576   0.773   5.606  0.0990  0.2745  0.7799
 4577SOL    HW125367   4.501   0.832   5.616  0.6487  1.0576  0.3551
 4577SOL    HW225368   4.648   0.814   5.654  1.3872 -0.2520 -0.7067
 4578SOL     OW25369   0.584   3.486   3.924  0.3823  0.3276  0.2104
 4578SOL    HW125370   0.543   3.433   3.992 -0.1756 -0.3761 -0.6768
 4578SOL    HW225371   0.519   3.554   3.905 -0.0818 -0.9903 -2.9761
 4579SOL     OW25372   3.933   2.071  15.176 -0.4689  0.5543 -0.1154
 4579SOL    HW125373   3.966   2.106  15.093 -1.4637 -0.9957 -1.1866
 4579SOL    HW225374   4.012   2.039  15.219 -0.5012  0.6921  0.0423
 4580SOL     OW25375   3.055   1.972  11.525  0.0853 -0.1260 -0.2313
 4580SOL    HW125376   2.977   1.932  11.564 -0.9309  0.5415 -1.5618
 4580SOL    HW225377   3.048   1.952  11.431 -2.3337 -1.4144  0.2147
 4581SOL     OW25378   4.110   2.487   8.493 -0.6340 -0.1683 -0.2972
 4581SOL    HW125379   4.076   2.573   8.518  1.9443  0.9323 -0.5532
 4581SOL    HW225380   4.036   2.426   8.502 -0.4171 -0.4151 -0.1993
 4582SOL     OW25381   4.634   0.597   3.926 -0.0868  0.2602 -0.1833
 4582SOL    HW125382   4.544   0.567   3.913 -0.9441  0.7112  4.7644
 4582SOL    HW225383   4.665   0.632   3.843 -0.1287  0.0682 -0.2783
 4583SOL     OW25384   0.155   1.740  15.144  0.7184  0.2305 -1.0688
 4583SOL    HW125385   0.145   1.648  15.168 -0.4551  0.6098 -0.0991
 4583SOL    HW225386   0.089   1.779  15.201  0.2730  1.5853 -2.5165
 4584SOL     OW25387   0.920   0.669  14.956 -0.4032 -0.1216  0.3015
 4584SOL    HW125388   0.841   0.616  14.968 -1.0129  0.8459  0.5700
 4584SOL    HW225389   0.875   0.748  14.927 -0.0698 -0.5734 -1.4241
 4585SOL     OW25390   0.025   0.407   4.319 -0.6956  0.0166  0.6255
 4585SOL    HW125391   0.083   0.423   4.393 -0.6722 -1.2664  0.8913
 4585SOL    HW225392   4.697   0.472   4.341 -2.9203 -0.8899 -3.3463
 4586SOL     OW25393   2.096   4.290   4.800 -0.3744  0.0176 -0.2441
 4586SOL    HW125394   2.080   4.354   4.869 -1.1081 -0.1146 -0.2931
 4586SOL    HW225395   2.150   4.224   4.844  0.2442 -0.0777 -1.1410
 4587SOL     OW25396   2.738   0.556   2.514 -0.0261 -0.5776  0.4661
 4587SOL    HW125397   2.737   0.589   2.603  0.2410  0.3876  0.1113
 4587SOL    HW225398   2.831   0.572   2.499 -0.0425 -0.1479  0.8219
 4588SOL     OW25399   1.891   0.905  14.784 -0.3280 -0.3084 -0.2310
 4588SOL    HW125400   1.960   0.971  14.776  1.1994 -2.0201 -1.2000
 4588SOL    HW225401   1.915   0.838  14.721 -0.5646  0.1768 -0.8327
 4589SOL     OW25402   3.339   3.470   7.435  0.2236 -0.2671 -0.3617
 4589SOL    HW125403   3.314   3.521   7.358 -1.7391 -2.1568 -1.0062
 4589SOL    HW225404   3.281   3.394   7.425 -1.1370  0.6280  0.6889
 4590SOL     OW25405   1.360   3.336   3.221  0.2038 -0.0245  0.1197
 4590SOL    HW125406   1.440   3.288   3.202 -0.5527 -1.6775  1.1052
 4590SOL    HW225407   1.295   3.275   3.186  1.0051 -1.7520  1.6437
 4591SOL     OW25408   0.133   2.272   9.319 -0.1822  0.1713  0.2169
 4591SOL    HW125409   0.106   2.200   9.263 -0.7577  0.7831 -0.2920
 4591SOL    HW225410   0.177   2.223   9.388 -1.8681  2.1287  2.6960
 4592SOL     OW25411   0.309   3.467   7.623  0.0317  0.0795 -0.2143
 4592SOL    HW125412   0.243   3.410   7.583 -0.4334  0.7569 -0.3964
 4592SOL    HW225413   0.391   3.425   7.595  1.1771  1.9314  0.4013
 4593SOL     OW25414   4.162   1.329  12.532  0.7339 -0.0323 -0.5424
 4593SOL    HW125415   4.190   1.245  12.569  1.3141 -0.1895 -1.3395
 4593SOL    HW225416   4.215   1.392  12.580 -0.3222  0.4254  0.0029
 4594SOL     OW25417   2.193   2.199   2.825  0.3811 -0.7721 -0.1160
 4594SOL    HW125418   2.104   2.165   2.818  0.4510 -0.9480 -0.1514
 4594SOL    HW225419   2.210   2.183   2.918  0.1495 -0.6252 -0.0505
 4595SOL     OW25420   0.943   0.320   1.711 -0.1736  0.0178  0.1873
 4595SOL    HW125421   1.039   0.321   1.709 -0.2101  1.1976 -0.9252
 4595SOL    HW225422   0.938   0.225   1.699  0.4515 -0.0123  0.1556
 4596SOL     OW25423   0.321   2.661   5.217 -0.2358  0.1878  0.0787
 4596SOL    HW125424   0.287   2.713   5.144  2.4832  0.4706 -1.0036
 4596SOL    HW225425   0.248   2.600   5.205  0.5101 -0.6667 -0.0996
 4597SOL     OW25426   4.476   4.529   3.286 -0.5029  0.1818 -0.6213
 4597SOL    HW125427   4.560   4.571   3.269  0.2412 -0.8700  0.4123
 4597SOL    HW225428   4.439   4.510   3.199 -0.0321  2.1828 -1.2626
 4598SOL     OW25429   3.323   2.729   4.689 -0.4945  0.0908 -0.0771
 4598SOL    HW125430   3.233   2.759   4.677 -0.4556  0.9478  1.7953
 4598SOL    HW225431   3.360   2.807   4.731 -2.0848  1.0516 -0.4786
 4599SOL     OW25432   1.594   1.595   1.340 -0.3896 -0.4981  0.0369
 4599SOL    HW125433   1.557   1.680   1.320 -1.3282 -1.2532 -1.4854
 4599SOL    HW225434   1.673   1.620   1.387 -0.4712  0.4010 -0.3116
 4600SOL     OW25435   4.466   2.159   6.700 -0.0798  0.0754  0.4742
 4600SOL    HW125436   4.544   2.104   6.696 -0.5328 -0.4629 -0.8674
 4600SOL    HW225437   4.410   2.109   6.640 -0.2529  0.5841  0.2121
 4601SOL     OW25438   3.550   0.876   1.726  0.1049 -0.0527  0.3412
 4601SOL    HW125439   3.476   0.881   1.786  0.8704  0.4593  1.2318
 4601SOL    HW225440   3.524   0.943   1.662 -1.2235 -0.5746  0.3245
 4602SOL     OW25441   2.126   0.891  16.413 -0.4911 -0.5831  0.0337
 4602SOL    HW125442   2.173   0.969  16.386 -1.1793  0.1751  1.0432
 4602SOL    HW225443   2.179   0.873  16.491 -0.0482  2.9476  0.5262
 4603SOL     OW25444   2.950   4.665   3.538  0.0473  0.1478  0.4998
 4603SOL    HW125445   2.931   0.004   3.486  0.0694  0.4069  0.8861
 4603SOL    HW225446   3.009   4.618   3.478  1.0570 -1.4955  2.7760
 4604SOL     OW25447   4.711   2.771   8.175  0.1197  0.1941 -0.0066
 4604SOL    HW125448   0.021   2.801   8.252  1.3989 -1.4947 -0.1690
 4604SOL    HW225449   4.711   2.676   8.190  0.0126  0.1581 -0.2238
 4605SOL     OW25450   3.320   3.320   3.429 -0.0721  0.2460  0.4654
 4605SOL    HW125451   3.343   3.309   3.337 -2.7563 -2.1298  0.0629
 4605SOL    HW225452   3.227   3.305   3.414  0.1413 -1.2020  0.5377
 4606SOL     OW25453   0.526   4.650  12.546 -0.1558  0.2283  0.5536
 4606SOL    HW125454   0.438   4.615  12.535  1.1066 -2.4415 -0.9311
 4606SOL    HW225455   0.548   4.657  12.453  0.6005  1.2368  0.8046
 4607SOL     OW25456   4.010   4.005   4.485  0.1806 -0.1332  0.6109
 4607SOL    HW125457   3.989   4.049   4.567 -0.4574 -0.2974  0.5391
 4607SOL    HW225458   3.920   3.979   4.465  0.4478 -0.4100 -0.1968
 4608SOL     OW25459   3.511   3.773   4.412 -0.1891  0.1498 -0.2191
 4608SOL    HW125460   3.591   3.800   4.457 -0.7412  0.6544  0.4565
 4608SOL    HW225461   3.540   3.797   4.324 -1.8351 -0.8012 -1.0156
 4609SOL     OW25462   3.402   1.559   8.803  0.2219  0.0357 -0.0356
 4609SOL    HW125463   3.376   1.501   8.731  1.3575 -1.6842  0.9144
 4609SOL    HW225464   3.455   1.510   8.866 -1.2568 -0.6654  0.6733
 4610SOL     OW25465   1.805   0.884   6.175  0.0875  0.0804  0.0052
 4610SOL    HW125466   1.747   0.958   6.195  2.6744  2.4346 -1.1259
 4610SOL    HW225467   1.820   0.897   6.081 -1.4513  0.7555 -0.1584
 4611SOL     OW25468   4.023   0.120   3.369  0.6187 -0.0482  0.0002
 4611SOL    HW125469   4.010   0.211   3.341  0.4052 -0.9200 -2.7788
 4611SOL    HW225470   4.106   0.096   3.327  0.6278 -0.4254  0.2282
 4612SOL     OW25471   2.482   0.068  12.552  0.5317  0.2627  0.3565
 4612SOL    HW125472   2.568   0.045  12.586  1.0124  2.0883  0.3812
 4612SOL    HW225473   2.422   0.071  12.628 -1.8605  0.2146 -1.5249
 4613SOL     OW25474   4.350   0.314  16.478 -0.3274  0.3705  0.1295
 4613SOL    HW125475   4.264   0.279  16.454  2.0537 -4.0253 -2.0340
 4613SOL    HW225476   4.329   0.392  16.529  3.9993 -0.3894  3.1568
 4614SOL     OW25477   0.779   3.896   4.525  0.3247  0.2359 -0.6460
 4614SOL    HW125478   0.797   3.936   4.611 -1.7311  0.3028 -0.2661
 4614SOL    HW225479   0.807   3.967   4.467  1.5749  0.3440  0.0726
 4615SOL     OW25480   2.401   2.893   9.106 -0.1927 -0.0354  0.7960
 4615SOL    HW125481   2.448   2.809   9.106  0.5471  0.3751  3.1774
 4615SOL    HW225482   2.322   2.874   9.056  0.9478 -2.9401  0.0834
 4616SOL     OW25483   0.078   2.664   4.708 -0.0101  0.2593 -0.4073
 4616SOL    HW125484   4.722   2.678   4.708  0.0689  0.7023  3.7298
 4616SOL    HW225485   0.085   2.571   4.728  0.5264  0.5905  0.9142
 4617SOL     OW25486   2.753   1.080   3.253 -0.1185  0.2194 -0.1455
 4617SOL    HW125487   2.795   1.081   3.340 -1.1844 -0.1314  0.3730
 4617SOL    HW225488   2.706   1.163   3.256  0.1914  0.3199  2.7410
 4618SOL     OW25489   1.740   3.527   7.712 -0.4965  0.1826 -0.1884
 4618SOL    HW125490   1.705   3.488   7.792 -1.9248  0.6889 -0.5737
 4618SOL    HW225491   1.713   3.619   7.717 -0.4263  0.2147 -0.4016
 4619SOL     OW25492   4.196   3.367   9.693 -0.0224 -0.7806  0.0824
 4619SOL    HW125493   4.195   3.459   9.668 -0.8311 -0.9580 -0.5418
 4619SOL    HW225494   4.159   3.329   9.613 -1.5936  0.8409  0.0342
 4620SOL     OW25495   1.211   3.989   9.002 -0.6692  0.2705  0.3341
 4620SOL    HW125496   1.149   3.960   9.069 -0.5221 -2.6545 -0.8418
 4620SOL    HW225497   1.185   4.078   8.977 -0.1713  0.5185  0.7011
 4621SOL     OW25498   2.786   0.392  14.217  0.1540  0.1674  0.1113
 4621SOL    HW125499   2.796   0.359  14.306 -3.0250 -1.3758 -0.0979
 4621SOL    HW225500   2.742   0.475  14.235 -0.5841  0.1876 -1.7922
 4622SOL     OW25501   3.684   1.246   6.956 -0.4969 -0.0205  0.2702
 4622SOL    HW125502   3.606   1.203   6.923  0.8341  0.8862 -4.0671
 4622SOL    HW225503   3.747   1.176   6.933 -1.4687 -0.7714 -0.0951
 4623SOL     OW25504   3.285   4.136   4.638 -0.2526  0.1119  0.1649
 4623SOL    HW125505   3.309   4.213   4.587 -0.3082 -1.6118 -2.4593
 4623SOL    HW225506   3.351   4.068   4.628  0.0029  0.1837  1.4142
 4624SOL     OW25507   1.237   3.795  12.857 -0.6326 -0.2456 -0.2511
 4624SOL    HW125508   1.228   3.818  12.950 -0.9582 -1.0839 -0.0733
 4624SOL    HW225509   1.221   3.704  12.882  1.2528 -0.3654  0.5345
 4625SOL     OW25510   1.076   1.947  13.277 -0.0207  0.3603  0.0226
 4625SOL    HW125511   1.114   1.953  13.190  3.1953  1.5184  1.5097
 4625SOL    HW225512   1.033   1.861  13.280  0.0956  0.1941 -3.2588
 4626SOL     OW25513   2.938   0.566   6.279 -0.1468  0.4501  0.5900
 4626SOL    HW125514   2.917   0.523   6.196  2.9913  0.4335 -0.2010
 4626SOL    HW225515   2.860   0.617   6.299  0.0411  0.9533  0.0572
 4627SOL     OW25516   1.900   4.303  10.124 -0.3167  0.2899  0.3711
 4627SOL    HW125517   1.893   4.254  10.206 -0.0838 -1.9449 -0.9242
 4627SOL    HW225518   1.836   4.374  10.126 -1.6221 -0.9069  0.6419
 4628SOL     OW25519   1.572   2.421  10.318 -0.3742  0.1381  0.0048
 4628SOL    HW125520   1.655   2.468  10.320 -0.0397 -0.4409 -0.0260
 4628SOL    HW225521   1.527   2.493  10.274  1.0854  0.5850 -0.7837
 4629SOL     OW25522   0.340   1.199   2.974 -0.1573  0.1797 -0.0767
 4629SOL    HW125523   0.334   1.164   2.885  0.4100 -0.8673  0.2914
 4629SOL    HW225524   0.353   1.123   3.030 -0.4839  0.8087  0.8660
 4630SOL     OW25525   3.376   2.930   2.966 -0.0898  0.0730  0.1598
 4630SOL    HW125526   3.343   2.987   2.897  1.5042  0.0642 -0.6027
 4630SOL    HW225527   3.293   2.909   3.007  0.6427 -0.5268  1.3332
 4631SOL     OW25528   2.568   2.207   4.009  0.6648 -0.2210 -0.1264
 4631SOL    HW125529   2.522   2.208   4.094 -1.2515  1.1400 -1.1742
 4631SOL    HW225530   2.500   2.243   3.952 -0.5542 -1.3195  0.6269
 4632SOL     OW25531   3.564   2.591   7.399 -0.4835 -0.5893  0.0008
 4632SOL    HW125532   3.555   2.582   7.304  0.8728 -1.4829 -0.0407
 4632SOL    HW225533   3.487   2.540   7.426  1.5395 -3.5015  0.2762
 4633SOL     OW25534   1.473   1.592   5.013  0.0435  0.0626 -0.2748
 4633SOL    HW125535   1.428   1.587   5.098 -0.4777 -0.2338 -0.5657
 4633SOL    HW225536   1.467   1.499   4.991 -0.9644  0.0750 -0.0558
 4634SOL     OW25537   1.558   0.862   2.206 -0.2566 -0.5390 -0.3901
 4634SOL    HW125538   1.478   0.880   2.158 -0.9568 -3.5548 -0.3390
 4634SOL    HW225539   1.625   0.830   2.146  0.4918  0.0057  0.1565
 4635SOL     OW25540   2.198   1.955   9.415 -0.3232 -0.2888  0.2102
 4635SOL    HW125541   2.109   1.936   9.388 -0.5085  0.6770  0.1157
 4635SOL    HW225542   2.254   1.890   9.373  0.3180  1.3416 -1.4872
 4636SOL     OW25543   0.365   3.738   1.038  0.2931  0.2557  0.3430
 4636SOL    HW125544   0.303   3.733   1.110 -2.4436  2.9423 -1.8353
 4636SOL    HW225545   0.448   3.721   1.083  2.0686  1.6160 -2.3737
 4637SOL     OW25546   2.806   2.433  17.043  0.3500  0.0879 -0.5519
 4637SOL    HW125547   2.774   2.471  17.124 -1.5914 -1.8257 -0.4151
 4637SOL    HW225548   2.780   2.491  16.971 -0.1653  0.8261  0.2388
 4638SOL     OW25549   1.992   2.381   6.371 -0.4078  0.2376  0.2828
 4638SOL    HW125550   1.999   2.366   6.465  2.5675  0.1278  0.0562
 4638SOL    HW225551   1.948   2.302   6.340  1.0342 -0.2414 -0.5658
 4639SOL     OW25552   3.667   4.228   0.990  0.0424  0.3023 -0.2352
 4639SOL    HW125553   3.633   4.272   1.068 -2.1638  0.1506 -1.1348
 4639SOL    HW225554   3.743   4.284   0.975  0.2942  0.2208  0.7240
 4640SOL     OW25555   4.707   0.830   1.540 -0.4327 -0.3179  0.2274
 4640SOL    HW125556   4.630   0.885   1.556  0.5503  1.4551 -1.1970
 4640SOL    HW225557   4.667   0.746   1.519 -0.9364  0.0485 -0.2768
 4641SOL     OW25558   2.866   1.795   8.405 -0.2193 -0.3022 -0.5418
 4641SOL    HW125559   2.931   1.773   8.337 -0.2969  1.5776 -1.2397
 4641SOL    HW225560   2.789   1.826   8.357 -0.2897 -0.3424 -0.4550
 4642SOL     OW25561   4.596   0.804   2.606  0.2628 -0.1789 -0.5458
 4642SOL    HW125562   4.526   0.743   2.631 -0.2489  0.0963 -1.3151
 4642SOL    HW225563   4.581   0.886   2.652  0.7622 -0.7246  0.5628
 4643SOL     OW25564   2.315   3.960   3.253 -0.0114  0.2637 -0.7610
 4643SOL    HW125565   2.317   3.890   3.187  0.9256  0.4998 -0.9870
 4643SOL    HW225566   2.365   4.033   3.216  0.2113  0.9133  0.8575
 4644SOL     OW25567   2.121   2.428   4.586 -0.2152 -0.2032 -0.6807
 4644SOL    HW125568   2.085   2.402   4.501 -1.7490  0.5987 -0.2664
 4644SOL    HW225569   2.040   2.450   4.632 -0.1846 -1.2893 -0.0803
 4645SOL     OW25570   0.478   2.904   4.015  0.0795  0.0315  0.5191
 4645SOL    HW125571   0.481   2.850   4.094  0.0080  0.3770  0.7580
 4645SOL    HW225572   0.463   2.988   4.058 -1.2247 -0.0776  0.2801
 4646SOL     OW25573   4.409   1.335   5.367 -0.3877  0.0165 -0.5004
 4646SOL    HW125574   4.453   1.314   5.284  1.8091  0.4309  0.5460
 4646SOL    HW225575   4.483   1.378   5.411  0.0700 -0.5951 -0.6676
 4647SOL     OW25576   2.861   3.838  11.625  0.2444  0.4687 -0.7133
 4647SOL    HW125577   2.922   3.834  11.552  0.0762  2.8543 -0.9840
 4647SOL    HW225578   2.857   3.933  11.636 -0.7508 -0.0281  3.2970
 4648SOL     OW25579   1.159   4.388   9.776  0.3590  0.1757 -0.8962
 4648SOL    HW125580   1.154   4.344   9.691  1.2282  0.8420 -1.3012
 4648SOL    HW225581   1.249   4.367   9.800 -0.9810 -2.2577  1.9985
 4649SOL     OW25582   1.609   1.027  15.910  0.0412 -0.0832 -1.0715
 4649SOL    HW125583   1.521   1.020  15.947  0.7416 -0.9699  0.3712
 4649SOL    HW225584   1.636   1.110  15.948 -1.8070  0.1031 -0.1945
 4650SOL     OW25585   3.062   3.180   2.408 -0.1030 -0.0051  0.1932
 4650SOL    HW125586   3.054   3.086   2.424 -1.3196  0.1265  0.4236
 4650SOL    HW225587   2.984   3.202   2.459 -0.0227 -0.2430  0.4183
 4651SOL     OW25588   2.391   3.969   7.085 -0.1879  0.0126  0.8921
 4651SOL    HW125589   2.321   3.988   7.022  0.4163 -1.2646 -0.1427
 4651SOL    HW225590   2.346   3.910   7.145 -1.6141  0.4296  0.2427
 4652SOL     OW25591   4.563   3.702   2.839 -0.5284 -0.4028 -0.3040
 4652SOL    HW125592   4.616   3.773   2.875  1.3988 -3.2174  2.4379
 4652SOL    HW225593   4.630   3.637   2.816 -2.3985 -2.0362 -1.1209
 4653SOL     OW25594   4.447   2.291  15.876 -0.4698  0.3138 -0.1010
 4653SOL    HW125595   4.362   2.306  15.836 -0.1706  0.5232 -0.6501
 4653SOL    HW225596   4.419   2.228  15.943 -2.2828  1.2307  0.0099
 4654SOL     OW25597   3.665   0.357   2.666  0.3424 -0.2964 -0.3127
 4654SOL    HW125598   3.705   0.427   2.615 -0.4683  1.3921  1.3973
 4654SOL    HW225599   3.716   0.345   2.746  1.2025  2.1773 -0.4951
 4655SOL     OW25600   4.156   4.161   4.189 -0.3595  0.2448  0.4027
 4655SOL    HW125601   4.147   4.200   4.101 -1.2594 -1.4277 -0.2495
 4655SOL    HW225602   4.229   4.211   4.223  1.7779 -1.7846 -1.1550
 4656SOL     OW25603   0.575   1.099  15.151 -0.6144  0.5289 -0.3121
 4656SOL    HW125604   0.530   1.042  15.214  0.1218 -0.3752 -0.5923
 4656SOL    HW225605   0.511   1.169  15.145  0.5174  1.7925  2.4376
 4657SOL     OW25606   4.274   0.708   0.696 -0.6824  0.4181  0.6746
 4657SOL    HW125607   4.326   0.631   0.720 -1.3735 -0.1842  0.2143
 4657SOL    HW225608   4.327   0.778   0.734 -1.4303  0.5615  1.4478
 4658SOL     OW25609   1.974   3.229  11.077 -0.1965 -0.9963 -0.5614
 4658SOL    HW125610   1.882   3.232  11.104  0.4113  0.8947  1.3343
 4658SOL    HW225611   2.016   3.265  11.155 -1.3813 -0.8237 -0.0122
 4659SOL     OW25612   1.430   4.734   3.098  0.4181  0.1161  0.3563
 4659SOL    HW125613   1.374   4.657   3.099 -0.1707  0.5208 -0.9005
 4659SOL    HW225614   1.479   4.729   3.015  2.5347  0.3794  1.5868
 4660SOL     OW25615   2.920   2.658   6.894 -0.3581 -0.1089  0.0631
 4660SOL    HW125616   3.008   2.688   6.919 -1.3857  1.8528  1.2950
 4660SOL    HW225617   2.952   2.623   6.811 -3.9218 -0.5481 -1.1140
 4661SOL     OW25618   1.512   2.362  14.469  0.5672 -0.4079 -0.3159
 4661SOL    HW125619   1.426   2.401  14.452  0.6262  0.2536  0.8519
 4661SOL    HW225620   1.494   2.269  14.477 -1.7374 -0.1079 -2.2947
 4662SOL     OW25621   0.766   2.597   4.805 -0.3630  0.4397  0.3790
 4662SOL    HW125622   0.823   2.665   4.839 -0.0380  0.1081  0.4987
 4662SOL    HW225623   0.755   2.549   4.887  3.9955 -1.4941 -0.1448
 4663SOL     OW25624   0.934   3.229   2.406  0.4295  0.1242  0.0515
 4663SOL    HW125625   1.003   3.179   2.362 -1.0317 -1.8952  0.0644
 4663SOL    HW225626   0.959   3.196   2.493  1.2225  2.0297  0.5414
 4664SOL     OW25627   4.275   1.160   0.020 -0.6424  0.2320  0.0243
 4664SOL    HW125628   4.198   1.213   0.043 -1.6219  0.0770 -2.8371
 4664SOL    HW225629   4.297   1.154   0.113  2.2118  0.4300 -0.6438
 4665SOL     OW25630   4.624   1.076   5.433 -0.3636 -0.2897 -0.5791
 4665SOL    HW125631   4.639   1.154   5.487 -0.8523  0.3932 -1.4392
 4665SOL    HW225632   4.707   1.032   5.451 -1.5957 -1.8498  1.3207
 4666SOL     OW25633   1.096   4.369   8.299  0.3376  0.0819 -0.0138
 4666SOL    HW125634   1.185   4.378   8.335  0.3302 -2.2415  0.5774
 4666SOL    HW225635   1.096   4.278   8.269 -3.3743 -0.9240  3.1364
 4667SOL     OW25636   2.407   2.346   5.417 -0.1144 -0.0368  0.5172
 4667SOL    HW125637   2.404   2.250   5.410 -0.1506 -0.0738  1.0010
 4667SOL    HW225638   2.495   2.381   5.428 -0.3534  0.7458 -0.1358
 4668SOL     OW25639   0.239   2.033   5.104  0.1408  0.6744 -0.1417
 4668SOL    HW125640   0.307   2.031   5.171  0.9359  0.8557 -0.9438
 4668SOL    HW225641   0.283   2.028   5.019  1.9348  2.2262  0.6888
 4669SOL     OW25642   4.665   0.094   0.664  0.3121 -0.0585  0.3091
 4669SOL    HW125643   4.666   0.187   0.686  1.7723 -0.3339  1.4099
 4669SOL    HW225644   4.598   0.071   0.728  0.0586  0.6174  0.2867
 4670SOL     OW25645   0.880   2.331  16.686 -0.3715 -0.5927  0.1853
 4670SOL    HW125646   0.925   2.248  16.701 -0.0212 -0.6165 -0.9786
 4670SOL    HW225647   0.907   2.348  16.595 -1.0346  0.8724  0.2686
 4671SOL     OW25648   4.436   3.930   3.258 -0.1876  0.2210  0.5942
 4671SOL    HW125649   4.514   3.896   3.302 -0.8397 -0.4390  1.2305
 4671SOL    HW225650   4.379   3.854   3.249 -0.2758  0.3365  0.1811
 4672SOL     OW25651   1.765   2.052  13.034 -0.7687  0.5390 -0.3387
 4672SOL    HW125652   1.727   2.055  13.122 -0.0511  1.3060 -0.0549
 4672SOL    HW225653   1.802   2.140  13.028  0.2507  0.0955 -0.6109
 4673SOL     OW25654   3.987   3.074   2.398  0.1021  0.3206  0.1138
 4673SOL    HW125655   4.023   3.107   2.480  2.3494 -1.4226 -0.1845
 4673SOL    HW225656   4.056   3.111   2.342  1.7021 -1.1534  1.1154
 4674SOL     OW25657   1.404   0.760   4.441 -0.6078  0.3312 -0.2320
 4674SOL    HW125658   1.492   0.787   4.467 -1.4289  0.5407  2.3115
 4674SOL    HW225659   1.402   0.805   4.357 -1.0549  2.0731  0.7206
 4675SOL     OW25660   1.374   3.608   3.861  0.2734  0.0344 -0.4527
 4675SOL    HW125661   1.289   3.577   3.892  0.9332 -0.9876  0.3444
 4675SOL    HW225662   1.432   3.553   3.914  1.2544  0.1748 -1.3844
 4676SOL     OW25663   3.390   2.261   1.874 -0.2344  0.3298  0.5101
 4676SOL    HW125664   3.454   2.287   1.940 -1.3215  0.3835  1.5413
 4676SOL    HW225665   3.443   2.220   1.805 -1.5219 -0.9027  0.2568
 4677SOL     OW25666   2.988   2.624   6.038 -0.2145  0.7284  0.1538
 4677SOL    HW125667   3.080   2.652   6.045 -0.5164  1.9937 -0.8483
 4677SOL    HW225668   3.001   2.530   6.023  0.0127  0.7023  0.5143
 4678SOL     OW25669   1.536   4.679   7.112  0.6638 -0.5293 -0.3091
 4678SOL    HW125670   1.478   4.664   7.187  1.9256 -1.9102  0.3646
 4678SOL    HW225671   1.582   4.596   7.104  0.9217 -0.5242  1.2782
 4679SOL     OW25672   0.620   2.297   1.403 -0.5272  0.4934  0.0350
 4679SOL    HW125673   0.565   2.250   1.340 -0.0686  1.1380 -0.8452
 4679SOL    HW225674   0.635   2.372   1.346 -1.8577  2.5471  2.4193
 4680SOL     OW25675   2.434   4.043  12.209  0.7555 -0.4912 -0.0411
 4680SOL    HW125676   2.375   3.979  12.169  0.1843  1.0092 -1.5813
 4680SOL    HW225677   2.518   3.997  12.204  1.1375  0.0584  1.3021
 4681SOL     OW25678   2.305   1.114   3.178  0.1666  0.0171  0.0307
 4681SOL    HW125679   2.357   1.149   3.105 -1.4649 -0.8216 -1.5372
 4681SOL    HW225680   2.371   1.114   3.248  1.4769 -1.4073 -1.2063
 4682SOL     OW25681   2.305   1.298   3.831 -0.2128 -0.0801 -0.2543
 4682SOL    HW125682   2.315   1.228   3.767  0.3309  0.9554 -1.3032
 4682SOL    HW225683   2.222   1.265   3.866  0.5287  1.0644  2.6089
 4683SOL     OW25684   3.394   2.063   4.026 -0.6242 -0.4697  0.3257
 4683SOL    HW125685   3.398   1.968   4.016  2.3371 -0.1352 -1.6441
 4683SOL    HW225686   3.489   2.078   4.029 -1.0897  2.5647 -0.5549
 4684SOL     OW25687   1.742   2.653  12.757  0.2191 -0.4008 -0.3126
 4684SOL    HW125688   1.764   2.725  12.697  1.3373 -0.6352 -0.1802
 4684SOL    HW225689   1.650   2.634  12.741  0.4313  1.2204 -3.5479
 4685SOL     OW25690   2.718   3.310  15.757 -0.0562 -0.0152 -0.7731
 4685SOL    HW125691   2.729   3.401  15.731  1.7785  0.7104  2.5083
 4685SOL    HW225692   2.629   3.287  15.729 -0.2188 -1.9930  1.3657
 4686SOL     OW25693   1.843   1.896  12.577  0.1264 -0.0869  0.3088
 4686SOL    HW125694   1.771   1.903  12.514 -1.0304  2.4592  1.9246
 4686SOL    HW225695   1.863   1.802  12.575 -0.0289 -0.1295  1.1738
 4687SOL     OW25696   0.035   0.682   2.388 -0.1765 -0.5996  0.3752
 4687SOL    HW125697   4.733   0.661   2.473 -0.1301  1.5860  0.9367
 4687SOL    HW225698   4.700   0.679   2.327  0.3170  0.8166 -0.2950
 4688SOL     OW25699   3.729   1.049   8.853 -0.1194  0.1589 -0.4825
 4688SOL    HW125700   3.719   0.961   8.887 -0.6608  0.3034 -0.2724
 4688SOL    HW225701   3.700   1.095   8.932  1.1294 -2.2550  1.3862
 4689SOL     OW25702   0.916   4.437  16.272  0.1158  0.1060  0.1378
 4689SOL    HW125703   0.855   4.379  16.229 -1.1885 -0.0135  2.1517
 4689SOL    HW225704   1.001   4.398  16.249 -0.3702 -0.8419 -0.0144
 4690SOL     OW25705   3.335   1.176   6.573 -0.5573 -0.1734  0.1108
 4690SOL    HW125706   3.279   1.126   6.515 -1.4721  3.0028 -1.7613
 4690SOL    HW225707   3.268   1.237   6.604  0.1322  1.7982 -2.2867
 4691SOL     OW25708   4.031   3.689   4.410 -0.6800  0.3397 -0.1620
 4691SOL    HW125709   4.083   3.751   4.358 -0.4229  1.2906  1.2282
 4691SOL    HW225710   3.982   3.644   4.342 -2.3752  0.8774  0.7212
 4692SOL     OW25711   3.075   3.871   6.295 -0.2709 -0.2348 -0.1614
 4692SOL    HW125712   3.026   3.789   6.289  0.8432 -0.9695  0.9163
 4692SOL    HW225713   3.139   3.858   6.226  1.3345 -1.5028  1.5857
 4693SOL     OW25714   2.698   4.576  15.151 -0.5022 -0.2222  0.1662
 4693SOL    HW125715   2.652   4.495  15.130  1.5699 -1.3447 -0.0598
 4693SOL    HW225716   2.785   4.570  15.111 -1.8508 -2.2157 -2.4581
 4694SOL     OW25717   2.518   1.231   8.586  0.1064 -0.1413  0.0013
 4694SOL    HW125718   2.447   1.167   8.579 -0.0165  0.1984 -1.7819
 4694SOL    HW225719   2.470   1.304   8.625  1.6285  2.8691 -3.7826
 4695SOL     OW25720   0.195   3.772   6.011  0.2549 -0.0782  0.5256
 4695SOL    HW125721   0.165   3.773   5.921  1.3575  3.5931  0.1812
 4695SOL    HW225722   0.272   3.829   6.011 -0.2615  0.6244  0.7881
 4696SOL     OW25723   0.936   2.922  10.812  0.8788 -0.3128 -0.1935
 4696SOL    HW125724   0.900   2.997  10.764 -0.8156 -1.1566 -0.2575
 4696SOL    HW225725   0.996   2.949  10.880 -0.4455 -1.7559  1.5494
 4697SOL     OW25726   0.967   3.678   8.320 -0.4020  0.3874  0.1862
 4697SOL    HW125727   1.005   3.615   8.259 -0.2095  0.2460  0.4506
 4697SOL    HW225728   1.016   3.654   8.399 -1.9216 -0.0014  1.0325
 4698SOL     OW25729   1.739   3.220   5.688 -0.1297  0.1842 -0.1024
 4698SOL    HW125730   1.727   3.185   5.599 -0.7374  0.7856 -0.2561
 4698SOL    HW225731   1.753   3.314   5.679  0.5071 -0.0966 -2.2021
 4699SOL     OW25732   4.251   1.654   5.387  0.6831 -0.6711 -0.0757
 4699SOL    HW125733   4.205   1.577   5.357 -1.4405  1.3193 -1.9121
 4699SOL    HW225734   4.319   1.653   5.319 -0.0424  0.1965 -0.8133
 4700SOL     OW25735   1.537   1.153   5.914 -0.2828 -0.2721 -0.5860
 4700SOL    HW125736   1.598   1.135   5.842  1.8613  0.0929  1.1305
 4700SOL    HW225737   1.592   1.182   5.987  0.8450 -1.2351 -1.0520
 4701SOL     OW25738   0.252   2.032   5.638  0.1426  1.0744 -0.0559
 4701SOL    HW125739   0.222   1.983   5.714  1.5945  2.5430  1.4730
 4701SOL    HW225740   0.204   1.982   5.572  0.2437  2.1874 -0.9661
 4702SOL     OW25741   2.413   0.772   0.211  0.2905 -0.2203 -0.1344
 4702SOL    HW125742   2.470   0.711   0.164  0.4707  0.1197 -0.3488
 4702SOL    HW225743   2.471   0.814   0.275  1.1390  0.0238 -1.0737
 4703SOL     OW25744   2.301   4.700  10.858  0.0243 -0.7452 -0.2247
 4703SOL    HW125745   2.331   4.663  10.775 -1.1020  2.1487 -1.8918
 4703SOL    HW225746   2.207   4.686  10.856  0.0958 -1.6308  2.4000
 4704SOL     OW25747   3.367   0.714   3.526  0.0410  0.9644 -0.3835
 4704SOL    HW125748   3.331   0.668   3.602  0.2630  0.7485 -0.4106
 4704SOL    HW225749   3.461   0.705   3.535  0.0406  1.7377  0.3292
 4705SOL     OW25750   2.646   0.489   9.496  0.1171 -0.1202 -0.2679
 4705SOL    HW125751   2.740   0.478   9.504 -0.0122 -1.0605 -0.0724
 4705SOL    HW225752   2.618   0.398   9.501 -0.2408 -0.1133 -2.1467
 4706SOL     OW25753   3.787   2.348  11.487 -0.3214 -0.3163 -0.2025
 4706SOL    HW125754   3.813   2.391  11.569  0.7733 -0.0171 -0.7090
 4706SOL    HW225755   3.860   2.379  11.433  1.5472 -0.2964  2.3077
 4707SOL     OW25756   2.490   3.655  17.518 -0.3890 -0.4582 -1.4338
 4707SOL    HW125757   2.531   3.713  17.582 -1.9840  0.9393 -1.6874
 4707SOL    HW225758   2.486   3.576  17.572  1.6115 -0.2983 -1.0352
 4708SOL     OW25759   0.717   2.521   2.428  0.1708  0.0513 -0.3962
 4708SOL    HW125760   0.781   2.450   2.422 -1.5212 -1.6886  2.0263
 4708SOL    HW225761   0.723   2.540   2.522  3.7433  1.7097 -0.9524
 4709SOL     OW25762   2.867   4.434   4.375 -0.6417 -0.4967 -0.0115
 4709SOL    HW125763   2.772   4.438   4.376 -0.6079  0.2693 -0.0002
 4709SOL    HW225764   2.892   4.376   4.303 -2.7144 -1.5348  0.1189
 4710SOL     OW25765   1.761   0.445   6.899  0.2905 -0.0313 -0.9670
 4710SOL    HW125766   1.759   0.505   6.825  1.5933  0.4064 -0.6366
 4710SOL    HW225767   1.676   0.465   6.939 -0.5338 -2.2141 -1.6038
 4711SOL     OW25768   2.787   0.761   9.267 -0.5137 -0.1493 -0.2172
 4711SOL    HW125769   2.870   0.759   9.313 -1.5648 -1.0918  1.6310
 4711SOL    HW225770   2.795   0.843   9.219 -0.6012  0.8964  1.5420
 4712SOL     OW25771   0.111   3.802   7.263 -0.4245  0.0418 -0.0566
 4712SOL    HW125772   0.161   3.875   7.225  0.2530 -1.1493 -1.4851
 4712SOL    HW225773   0.175   3.760   7.320 -0.3023  0.7891  0.3623
 4713SOL     OW25774   3.519   2.449   2.566 -0.3290 -1.0593  0.0282
 4713SOL    HW125775   3.521   2.517   2.498 -1.0117 -0.6327  0.4331
 4713SOL    HW225776   3.544   2.381   2.503 -1.8844 -0.8929 -0.7530
 4714SOL     OW25777   1.180   4.538   4.998 -0.2088  0.0645  0.3758
 4714SOL    HW125778   1.145   4.450   4.983  2.7039 -1.2869  1.4717
 4714SOL    HW225779   1.249   4.537   4.932 -1.0421 -2.0475 -0.4546
 4715SOL     OW25780   4.375   4.365  10.167 -0.1535  0.1839 -0.1201
 4715SOL    HW125781   4.415   4.401  10.088  1.6593  1.0212  1.1953
 4715SOL    HW225782   4.384   4.432  10.235 -0.6282  1.9925 -1.8244
 4716SOL     OW25783   2.026   3.354  11.347  0.5250  0.2199  0.5317
 4716SOL    HW125784   2.038   3.424  11.411 -0.6377  0.6966  0.2215
 4716SOL    HW225785   1.978   3.292  11.402 -0.9260  0.3041 -0.6376
 4717SOL     OW25786   1.462   1.694   2.371  0.0434  0.4427  0.3939
 4717SOL    HW125787   1.534   1.758   2.375 -0.9150  1.5016  0.6927
 4717SOL    HW225788   1.440   1.686   2.464 -2.2156 -0.5279 -0.2295
 4718SOL     OW25789   2.787   3.469   8.543 -0.2418  0.3770 -0.0571
 4718SOL    HW125790   2.821   3.466   8.453 -0.1209  0.6220 -0.0187
 4718SOL    HW225791   2.761   3.377   8.547  2.6725 -0.4571  0.2441
 4719SOL     OW25792   3.326   3.345   6.482  0.8303 -0.1036 -0.6266
 4719SOL    HW125793   3.245   3.396   6.480  0.2207 -1.0477  0.1331
 4719SOL    HW225794   3.386   3.420   6.479 -0.1745  0.5781 -3.2767
 4720SOL     OW25795   1.902   2.624   2.234 -0.3926 -0.0992 -0.0790
 4720SOL    HW125796   1.949   2.706   2.243 -0.8846  0.4067 -2.1065
 4720SOL    HW225797   1.932   2.566   2.304 -1.0059  0.3688  0.5716
 4721SOL     OW25798   3.692   1.987   7.377 -0.6399 -0.5952 -0.1880
 4721SOL    HW125799   3.779   2.014   7.346 -0.6796 -1.5575 -1.1487
 4721SOL    HW225800   3.706   1.895   7.353  0.9935 -0.4139  0.0212
 4722SOL     OW25801   2.737   2.340   5.794 -0.3833 -0.4163 -0.2280
 4722SOL    HW125802   2.816   2.368   5.748  0.0859 -0.8153  0.3317
 4722SOL    HW225803   2.698   2.423   5.819 -0.6393 -0.8839  0.9406
 4723SOL     OW25804   2.451   3.683   2.467  0.0140 -0.3942  0.2211
 4723SOL    HW125805   2.499   3.637   2.536  0.4797  0.1174  0.2334
 4723SOL    HW225806   2.517   3.721   2.409 -0.6870  0.6710  0.1084
 4724SOL     OW25807   0.658   3.608   7.813  0.5679 -0.2438  0.0720
 4724SOL    HW125808   0.588   3.661   7.850  0.0028 -0.9721  0.0440
 4724SOL    HW225809   0.727   3.628   7.877  1.6301 -2.6859 -0.3177
 4725SOL     OW25810   4.469   0.067   0.863 -0.3598 -0.1110  0.4914
 4725SOL    HW125811   4.525   0.135   0.899 -1.2197 -1.3047  4.0461
 4725SOL    HW225812   4.394   0.087   0.919 -1.3422  2.8000 -1.8139
 4726SOL     OW25813   0.785   4.322   7.955  0.3398  0.1150 -0.0683
 4726SOL    HW125814   0.807   4.295   8.044  0.7260  0.4720 -0.0526
 4726SOL    HW225815   0.865   4.364   7.924 -0.8691  0.7399 -2.3529
 4727SOL     OW25816   3.939   0.156   8.262  0.3189  0.5334 -0.5447
 4727SOL    HW125817   3.958   0.221   8.330  2.3938 -1.0164  0.3497
 4727SOL    HW225818   4.015   0.098   8.271  0.9752  1.5860  0.6642
 4728SOL     OW25819   4.462   0.795   2.236 -0.3728  0.3073 -0.1346
 4728SOL    HW125820   4.374   0.809   2.201 -0.4983 -2.3681 -0.8763
 4728SOL    HW225821   4.450   0.717   2.290  2.0721  0.9198  1.2997
 4729SOL     OW25822   2.547   4.127   6.934 -0.8630  0.3968 -0.3364
 4729SOL    HW125823   2.498   4.058   6.979  1.0173 -0.6241  0.1157
 4729SOL    HW225824   2.581   4.086   6.855  1.6075  1.0548  0.4095
 4730SOL     OW25825   4.254   2.597   7.707  0.2660 -0.1998 -0.1681
 4730SOL    HW125826   4.196   2.666   7.738  0.2599 -0.6362  0.7908
 4730SOL    HW225827   4.269   2.538   7.780 -1.5950 -1.5965 -0.9370
 4731SOL     OW25828   0.219   0.557   1.676 -0.0974 -0.0765  0.2996
 4731SOL    HW125829   0.206   0.493   1.606  1.8326  0.9573 -1.0060
 4731SOL    HW225830   0.145   0.539   1.733 -0.2306 -0.9034 -0.1288
 4732SOL     OW25831   3.830   3.035  10.752 -0.8389  0.2101 -0.0078
 4732SOL    HW125832   3.742   3.048  10.719 -0.9336  0.1424  0.2175
 4732SOL    HW225833   3.883   2.976  10.698 -2.1160 -1.1302  0.2152
 4733SOL     OW25834   0.793   0.103   3.636 -0.6683  0.0869 -0.3606
 4733SOL    HW125835   0.836   0.105   3.551  1.3156 -0.2849  0.6271
 4733SOL    HW225836   0.793   0.195   3.663 -0.2729  0.7581 -2.6678
 4734SOL     OW25837   4.215   2.549   0.023 -0.0984  0.7792 -0.5030
 4734SOL    HW125838   4.304   2.562   0.055 -1.0203  1.1655  1.9018
 4734SOL    HW225839   4.174   2.518   0.103 -0.3769 -2.9878 -2.1163
 4735SOL     OW25840   4.478   0.123  15.380  0.5083  0.4024  0.1739
 4735SOL    HW125841   4.503   0.038  15.344 -0.1547 -0.2332  1.2256
 4735SOL    HW225842   4.540   0.173  15.327  1.9226 -0.4246  1.0543
 4736SOL     OW25843   3.270   1.973  10.473  0.2851 -0.1260  0.1585
 4736SOL    HW125844   3.275   2.062  10.437  1.0192 -0.4393 -0.5056
 4736SOL    HW225845   3.310   1.919  10.406  1.6215 -0.5300  1.2809
 4737SOL     OW25846   0.619   0.707   7.766  0.6411  0.3054  0.0425
 4737SOL    HW125847   0.665   0.641   7.817 -1.0800 -0.8516  0.0999
 4737SOL    HW225848   0.685   0.714   7.697 -0.6104  2.5302 -0.9139
 4738SOL     OW25849   4.252   0.818  15.590  0.2021  0.1311  0.2735
 4738SOL    HW125850   4.184   0.786  15.531  1.2589 -0.4675 -0.6199
 4738SOL    HW225851   4.257   0.911  15.570  1.9936 -0.3967 -1.6738
 4739SOL     OW25852   4.333   1.059   4.900 -0.0689 -0.1528  0.2662
 4739SOL    HW125853   4.284   0.992   4.948 -1.2542 -1.6202 -2.9589
 4739SOL    HW225854   4.379   1.007   4.834 -1.9881 -2.3771  0.6717
 4740SOL     OW25855   1.985   0.595   2.124  0.2173 -0.0995  0.2134
 4740SOL    HW125856   1.891   0.576   2.123  1.0655 -4.2091 -0.6131
 4740SOL    HW225857   1.992   0.662   2.055 -2.2420  1.1671  1.1851
 4741SOL     OW25858   1.779   3.550   7.454 -0.3602 -0.0580 -0.8273
 4741SOL    HW125859   1.764   3.528   7.545 -0.2469 -0.7464 -0.9739
 4741SOL    HW225860   1.765   3.462   7.418  0.4750 -0.4087 -0.2928
 4742SOL     OW25861   3.099   0.389   5.646 -0.2906 -0.1075  0.5572
 4742SOL    HW125862   3.038   0.321   5.674  2.5147 -1.4226  3.4077
 4742SOL    HW225863   3.158   0.338   5.590 -1.9051  0.6968 -1.8972
 4743SOL     OW25864   3.525   3.770   7.166 -0.4007  0.2446  0.2889
 4743SOL    HW125865   3.561   3.698   7.114 -0.3581 -0.3284  1.1066
 4743SOL    HW225866   3.597   3.832   7.158  1.1463 -1.3340  1.9742
 4744SOL     OW25867   4.239   3.521   5.826  0.2841 -0.0652 -0.1167
 4744SOL    HW125868   4.199   3.598   5.787  1.7605  0.3489 -0.8202
 4744SOL    HW225869   4.251   3.561   5.912  2.7836 -2.0848  0.4853
 4745SOL     OW25870   4.712   1.383   4.388  0.4815 -0.1196  0.4087
 4745SOL    HW125871   4.688   1.461   4.338  0.6005  1.2281  2.4824
 4745SOL    HW225872   0.064   1.402   4.410  0.6386  1.2874 -1.4659
 4746SOL     OW25873   4.595   1.732  12.523  0.0877 -0.0422 -0.0949
 4746SOL    HW125874   4.575   1.781  12.443 -0.3030  0.5373  0.3538
 4746SOL    HW225875   4.554   1.646  12.513  0.6546 -0.3828  0.4832
 4747SOL     OW25876   0.830   2.837  13.351  0.0541  0.5989  0.9788
 4747SOL    HW125877   0.760   2.772  13.360 -0.3166  0.6915 -1.3042
 4747SOL    HW225878   0.867   2.786  13.278 -0.5076 -0.2344  1.2703
 4748SOL     OW25879   3.103   2.359   3.984 -0.2530  0.4454  0.1060
 4748SOL    HW125880   3.046   2.303   4.037  1.0732  1.8581  3.0424
 4748SOL    HW225881   3.046   2.433   3.961 -0.7939  1.2313  4.0591
 4749SOL     OW25882   3.028   3.579   2.729 -0.1806  0.0989  0.3358
 4749SOL    HW125883   2.934   3.578   2.710 -0.1285 -0.3546  0.1079
 4749SOL    HW225884   3.039   3.673   2.719  0.1852  0.1548  1.2432
 4750SOL     OW25885   0.550   2.298   8.348 -0.1087 -0.3446 -0.2577
 4750SOL    HW125886   0.561   2.225   8.409  0.1139 -1.1133 -1.2208
 4750SOL    HW225887   0.474   2.263   8.303  1.5510 -2.4034 -1.4696
 4751SOL     OW25888   3.545   2.566   8.844  0.1644  0.0449 -0.8937
 4751SOL    HW125889   3.613   2.633   8.839  0.9065 -0.5831  0.8592
 4751SOL    HW225890   3.578   2.506   8.911 -1.3521  0.6712  0.4175
 4752SOL     OW25891   0.486   4.025   1.522  0.4240  0.7487  0.0224
 4752SOL    HW125892   0.526   3.957   1.468 -0.1489 -0.3002  0.9184
 4752SOL    HW225893   0.435   3.974   1.584 -0.6821 -0.9984 -2.3218
 4753SOL     OW25894   1.831   4.438   5.601  0.6224 -0.4911 -0.0507
 4753SOL    HW125895   1.776   4.451   5.523  0.9412  1.2429  0.0242
 4753SOL    HW225896   1.916   4.434   5.557  0.6117  2.0783 -0.2710
 4754SOL     OW25897   3.389   1.234   3.888  0.4534  0.3765  0.0930
 4754SOL    HW125898   3.345   1.288   3.822 -2.3402 -0.9202  0.8821
 4754SOL    HW225899   3.471   1.281   3.901  1.1163 -0.5584 -0.7160
 4755SOL     OW25900   3.927   0.021   3.986 -0.2301  0.0889 -0.1334
 4755SOL    HW125901   3.989   4.698   4.024 -0.1224  0.5542  0.4435
 4755SOL    HW225902   3.984   0.095   3.966  0.4570  0.2168  2.2671
 4756SOL     OW25903   1.957   3.617   3.691 -0.1319 -0.0359  0.5594
 4756SOL    HW125904   1.980   3.665   3.771 -0.7822 -1.4443  1.5734
 4756SOL    HW225905   2.018   3.653   3.626 -1.7528 -0.5258 -1.2100
 4757SOL     OW25906   0.657   2.479   3.314  0.5297  0.3106  0.5481
 4757SOL    HW125907   0.637   2.452   3.404  1.3391  1.6644  1.1167
 4757SOL    HW225908   0.751   2.465   3.311  0.4635 -0.1318  0.4536
 4758SOL     OW25909   1.210   3.250   4.570 -0.1743  0.0253 -0.3530
 4758SOL    HW125910   1.145   3.233   4.502  0.0361 -0.8506 -0.3341
 4758SOL    HW225911   1.175   3.196   4.641  0.1378  0.6921  0.3093
 4759SOL     OW25912   4.697   0.752   7.448 -0.5774 -0.1446 -0.0453
 4759SOL    HW125913   4.652   0.819   7.500  0.1021 -1.5557  2.3033
 4759SOL    HW225914   0.039   0.732   7.495 -0.3630 -2.2589 -1.3465
 4760SOL     OW25915   3.240   2.092   4.266 -0.2561  0.2561 -0.0701
 4760SOL    HW125916   3.315   2.074   4.209 -2.5693 -1.3856 -2.5670
 4760SOL    HW225917   3.173   2.126   4.207  0.0174  1.8975  0.5537
 4761SOL     OW25918   1.703   0.966  14.410  0.4260 -0.1023 -0.3185
 4761SOL    HW125919   1.758   0.908  14.358  1.8008 -0.8438  1.9436
 4761SOL    HW225920   1.633   0.967  14.345 -1.2235  1.4544  1.4500
 4762SOL     OW25921   4.626   3.583   8.987 -0.6415 -0.0944  0.6076
 4762SOL    HW125922   4.616   3.666   8.942 -0.2316 -0.9869 -1.1500
 4762SOL    HW225923   4.679   3.610   9.062 -2.3617  1.7177  1.1569
 4763SOL     OW25924   4.627   2.890   8.969  0.2681 -0.0070  0.3754
 4763SOL    HW125925   4.692   2.863   8.904  1.0504  2.0233  0.3293
 4763SOL    HW225926   4.556   2.836   8.933  0.2313 -0.4994  1.1779
 4764SOL     OW25927   0.769   0.189   1.171  0.0335 -0.2384  0.4021
 4764SOL    HW125928   0.824   0.264   1.149  0.3447 -0.2768  1.0400
 4764SOL    HW225929   0.754   0.214   1.262 -2.1568 -1.2569  0.3079
 4765SOL     OW25930   3.941   0.500   4.117 -0.2456 -0.1167 -0.3646
 4765SOL    HW125931   3.909   0.454   4.195  1.3824  0.1491  0.4611
 4765SOL    HW225932   3.923   0.589   4.145 -0.1354 -0.1556 -0.1640
 4766SOL     OW25933   1.682   3.263  11.118 -0.4888  0.2156  0.6593
 4766SOL    HW125934   1.626   3.332  11.081 -0.8719  0.2849  1.3704
 4766SOL    HW225935   1.688   3.280  11.212 -0.3944 -0.1614  0.7208
 4767SOL     OW25936   0.991   2.535   7.323 -0.5878 -0.6904  0.3920
 4767SOL    HW125937   0.985   2.440   7.309 -1.5927 -0.2839 -1.9013
 4767SOL    HW225938   0.915   2.577   7.283 -0.4378  0.7154  1.5890
 4768SOL     OW25939   3.459   0.213   7.181  0.0300 -0.6523  0.2165
 4768SOL    HW125940   3.364   0.212   7.181  0.0157  1.6107 -1.5756
 4768SOL    HW225941   3.467   0.148   7.112  0.2177 -0.7589  0.3373
 4769SOL     OW25942   2.710   3.331   6.127  0.2171  0.2428 -0.1843
 4769SOL    HW125943   2.672   3.283   6.053 -0.7537  0.9800 -0.1654
 4769SOL    HW225944   2.803   3.308   6.130  0.0435 -0.1475  1.7550
 4770SOL     OW25945   3.100   3.031  17.006 -0.5801  0.0348  0.0094
 4770SOL    HW125946   3.089   3.094  16.935  0.1599 -1.6709 -1.6181
 4770SOL    HW225947   3.063   2.952  16.968 -1.0674  0.8206 -1.1611
 4771SOL     OW25948   0.702   0.576  15.886  0.2424  0.5428 -0.3404
 4771SOL    HW125949   0.689   0.603  15.795 -2.8246  0.3026  0.0169
 4771SOL    HW225950   0.712   0.481  15.879 -0.2352  0.5581 -1.2255
 4772SOL     OW25951   4.734   2.352  14.647  0.1816 -0.3138  0.4848
 4772SOL    HW125952   0.044   2.274  14.673  0.1660 -1.7172 -3.6030
 4772SOL    HW225953   0.067   2.389  14.595 -2.0861  1.4419 -1.4172
 4773SOL     OW25954   3.322   1.568   3.563 -0.2696 -0.1854  0.1108
 4773SOL    HW125955   3.252   1.622   3.527  0.7454  1.1595  0.1453
 4773SOL    HW225956   3.280   1.493   3.604  0.0813 -0.7894 -0.6310
 4774SOL     OW25957   1.916   0.962  17.378  0.2443 -0.4557 -0.6668
 4774SOL    HW125958   1.823   0.982  17.390  0.1779 -0.3894 -1.2958
 4774SOL    HW225959   1.934   0.888  17.436 -0.1837  0.1663  0.2523
 4775SOL     OW25960   3.701   0.628   5.822 -0.1961 -0.0612  0.8517
 4775SOL    HW125961   3.634   0.604   5.885 -0.8569  0.0776  0.1970
 4775SOL    HW225962   3.667   0.600   5.737 -1.4432  0.9769  1.0152
 4776SOL     OW25963   0.333   3.042   5.741  0.6436 -0.3053 -0.3323
 4776SOL    HW125964   0.334   3.002   5.828  2.6583 -1.5874 -0.9564
 4776SOL    HW225965   0.424   3.068   5.727 -0.3931  3.2847 -0.4567
 4777SOL     OW25966   1.087   0.103  11.026 -0.4008  0.1495 -0.2927
 4777SOL    HW125967   1.105   0.033  10.963  0.8293 -1.4321  1.8099
 4777SOL    HW225968   1.174   0.131  11.052 -1.1869  1.0145  1.3959
 4778SOL     OW25969   1.586   4.629   7.518 -1.0645 -0.2454  0.2180
 4778SOL    HW125970   1.633   4.566   7.463  0.5095  0.6356  0.5740
 4778SOL    HW225971   1.655   4.693   7.536  1.2599 -2.2428 -1.5458
 4779SOL     OW25972   0.805   3.174   1.994 -0.3983  0.0783 -0.0873
 4779SOL    HW125973   0.895   3.171   1.961 -0.2060  4.0112  0.0371
 4779SOL    HW225974   0.795   3.085   2.027 -0.3044  0.5627  1.2486
 4780SOL     OW25975   0.368   4.287   4.810  0.1394 -0.2088  0.4749
 4780SOL    HW125976   0.380   4.373   4.771  0.2568  0.3615  1.7674
 4780SOL    HW225977   0.451   4.247   4.784 -1.3981 -2.5614 -0.8020
 4781SOL     OW25978   2.828   2.691   5.126 -0.0804  0.3459 -0.2686
 4781SOL    HW125979   2.864   2.737   5.202 -0.4071 -0.7610  0.5528
 4781SOL    HW225980   2.762   2.752   5.094  0.2060  0.0683 -1.4068
 4782SOL     OW25981   3.967   3.345   9.224  0.9392 -0.5673  0.1625
 4782SOL    HW125982   4.014   3.334   9.141  1.7082  0.7099  0.4297
 4782SOL    HW225983   3.880   3.308   9.213  0.4669  1.3929 -2.7624
 4783SOL     OW25984   3.529   4.140  13.899  0.3423 -0.3911  0.6881
 4783SOL    HW125985   3.471   4.208  13.932 -2.5863 -1.5851 -1.9710
 4783SOL    HW225986   3.501   4.140  13.807  0.9132  1.9877  0.5373
 4784SOL     OW25987   2.117   2.251   2.104  0.9507  0.2205  0.3381
 4784SOL    HW125988   2.200   2.295   2.086 -0.2313  1.7416 -1.4322
 4784SOL    HW225989   2.119   2.168   2.056 -0.6884  0.2084  0.2913
 4785SOL     OW25990   1.287   1.357   6.864  0.7834  0.3635  0.4110
 4785SOL    HW125991   1.324   1.390   6.946  0.1531 -1.0551  1.2822
 4785SOL    HW225992   1.194   1.380   6.865  0.0995 -2.3237 -2.5264
 4786SOL     OW25993   0.840   4.485   1.912  0.1041  0.0750  0.3085
 4786SOL    HW125994   0.906   4.526   1.857  1.0319 -0.6461  0.8870
 4786SOL    HW225995   0.844   4.548   1.984 -0.7398 -0.8487  1.1733
 4787SOL     OW25996   3.706   2.342   7.571 -0.1179 -0.8673  0.5932
 4787SOL    HW125997   3.760   2.420   7.560  0.3987 -0.6547  4.8584
 4787SOL    HW225998   3.673   2.332   7.481 -1.0465 -2.0582  1.0657
 4788SOL     OW25999   3.839   2.002   9.189  0.0452 -0.0343  0.3131
 4788SOL    HW126000   3.911   2.030   9.245  1.8055 -1.0911 -1.4099
 4788SOL    HW226001   3.804   1.929   9.240  1.0571 -0.2951  0.6365
 4789SOL     OW26002   1.880   4.713   9.415 -0.1534  0.0413  0.0706
 4789SOL    HW126003   1.869   4.618   9.416 -1.9639  0.2584  0.4708
 4789SOL    HW226004   1.814   0.004   9.478  0.3295 -0.1411  0.6709
 4790SOL     OW26005   2.558   3.417  17.660  0.1889 -0.0104  0.0711
 4790SOL    HW126006   2.614   3.339  17.657 -0.7489 -0.6841 -0.0242
 4790SOL    HW226007   2.579   3.457  17.744 -2.6755 -2.0756  1.7770
 4791SOL     OW26008   0.425   3.931   5.739  0.5403 -0.0089  0.1225
 4791SOL    HW126009   0.431   3.939   5.834 -1.3196  2.1518  0.0489
 4791SOL    HW226010   0.427   4.024   5.716 -0.0280 -0.0533 -0.1055
 4792SOL     OW26011   4.485   2.240  10.139 -0.4140  0.2464 -1.0422
 4792SOL    HW126012   4.538   2.240  10.219 -0.1465 -0.8150 -1.2242
 4792SOL    HW226013   4.532   2.301  10.082  0.7135  0.0305 -0.3435
 4793SOL     OW26014   0.115   1.648   2.988 -0.5311 -0.7974 -0.1236
 4793SOL    HW126015   0.087   1.617   2.902 -0.5257 -0.0103 -0.4138
 4793SOL    HW226016   0.136   1.562   3.024  1.4207 -0.3099 -0.1142
 4794SOL     OW26017   1.922   1.270   7.326  0.4347 -0.4696 -0.2171
 4794SOL    HW126018   1.903   1.185   7.285 -2.9374 -0.6707  1.7225
 4794SOL    HW226019   1.858   1.325   7.281 -0.1251 -0.6361  0.3800
 4795SOL     OW26020   4.581   1.003   4.702  0.1675 -0.3000  0.1204
 4795SOL    HW126021   4.647   1.026   4.767 -1.2933 -0.0454  1.5211
 4795SOL    HW226022   4.563   1.092   4.671  2.9730  0.0613 -0.5260
 4796SOL     OW26023   2.868   2.780   7.717 -0.3893  1.0986 -0.4102
 4796SOL    HW126024   2.841   2.728   7.793  2.0770 -1.9876 -1.6582
 4796SOL    HW226025   2.813   2.857   7.731  0.4713  1.7533 -0.6253
 4797SOL     OW26026   0.809   3.801   8.812 -0.1215  0.4951 -0.3910
 4797SOL    HW126027   0.813   3.788   8.717 -0.4532 -0.2340 -0.3107
 4797SOL    HW226028   0.872   3.735   8.841 -0.7638 -1.6418 -3.7083
 4798SOL     OW26029   3.539   1.872   5.199  0.1950 -0.2239 -0.1156
 4798SOL    HW126030   3.526   1.953   5.247 -0.3569 -1.1734  1.3349
 4798SOL    HW226031   3.587   1.902   5.121  0.5207 -0.5571 -0.0453
 4799SOL     OW26032   3.432   4.297  16.189  0.1570 -0.0245 -0.6508
 4799SOL    HW126033   3.348   4.270  16.150 -0.0884 -0.1482 -0.0409
 4799SOL    HW226034   3.490   4.284  16.114  0.4632 -2.1667 -0.0210
 4800SOL     OW26035   3.961   1.768  12.005  0.1897 -0.2261  0.1462
 4800SOL    HW126036   3.950   1.854  11.965 -0.8356  0.3987  1.7924
 4800SOL    HW226037   4.047   1.745  11.968  1.4485  1.7433  1.8053
 4801SOL     OW26038   1.904   2.390   4.904 -0.4898 -0.2784  0.1981
 4801SOL    HW126039   1.836   2.357   4.962  2.3173 -1.9615  2.5456
 4801SOL    HW226040   1.951   2.308   4.886 -2.1358 -1.0340 -0.6271
 4802SOL     OW26041   3.247   4.202   6.948  0.5040 -0.3726  0.0982
 4802SOL    HW126042   3.229   4.284   6.901 -0.7676 -2.5625 -3.2209
 4802SOL    HW226043   3.281   4.234   7.032 -1.6178 -1.5094  1.3843
 4803SOL     OW26044   3.625   2.810   1.773 -0.1903 -0.4804 -0.3711
 4803SOL    HW126045   3.544   2.761   1.787  0.2321 -1.1787 -0.3716
 4803SOL    HW226046   3.597   2.901   1.777  0.7055 -0.3183  1.8191
 4804SOL     OW26047   0.791   1.785   2.417  0.0037  0.0302  0.2484
 4804SOL    HW126048   0.856   1.720   2.392  0.4254  0.2135  0.8658
 4804SOL    HW226049   0.709   1.741   2.394  1.3094 -2.4919  0.4136
 4805SOL     OW26050   3.677   1.997   1.910 -0.7204 -0.0756  0.2184
 4805SOL    HW126051   3.617   2.024   1.841 -0.1423 -1.0722 -0.6804
 4805SOL    HW226052   3.756   1.994   1.856 -2.9430 -1.6561 -2.9397
 4806SOL     OW26053   3.451   3.414  15.789  0.1716 -0.1823 -0.0820
 4806SOL    HW126054   3.497   3.338  15.754  1.8895  0.7443  0.1059
 4806SOL    HW226055   3.418   3.375  15.870 -1.8945  0.7960 -0.4562
 4807SOL     OW26056   4.669   3.003  11.839  0.2061 -0.3127 -0.9310
 4807SOL    HW126057   4.596   2.963  11.887 -0.6772  0.7960 -1.3386
 4807SOL    HW226058   4.628   3.083  11.806  0.5602  0.5230  0.6326
 4808SOL     OW26059   0.807   0.744   3.354 -0.1063 -0.5152  0.0817
 4808SOL    HW126060   0.783   0.831   3.384 -1.3310 -0.5037 -0.9536
 4808SOL    HW226061   0.843   0.716   3.439  0.1120 -1.8282 -0.4423
 4809SOL     OW26062   4.557   4.519  17.646 -0.4439 -0.0180  0.1398
 4809SOL    HW126063   4.591   4.439  17.685 -1.0666  0.7886  2.2960
 4809SOL    HW226064   4.495   4.484  17.581  0.6685  1.6101 -1.7808
 4810SOL     OW26065   3.854   0.928   2.510  0.2453  0.3474 -0.5530
 4810SOL    HW126066   3.846   0.833   2.498  1.9731  0.3793 -1.9216
 4810SOL    HW226067   3.849   0.936   2.606  0.1754  1.9979 -0.6929
 4811SOL     OW26068   3.185   2.080   9.448 -0.0232  0.1232  0.3572
 4811SOL    HW126069   3.206   2.069   9.541 -1.7461 -0.0740  0.7118
 4811SOL    HW226070   3.167   2.173   9.438  0.5135 -0.0500 -2.1767
 4812SOL     OW26071   4.590   0.559   2.842 -0.0502  0.2034 -0.4096
 4812SOL    HW126072   4.573   0.482   2.896 -0.6803  1.0952  0.6687
 4812SOL    HW226073   4.656   0.527   2.781 -1.2304 -0.3570 -1.4010
 4813SOL     OW26074   1.966   2.517  17.125 -0.1686  0.5005 -0.1892
 4813SOL    HW126075   2.026   2.444  17.137  0.1088  0.3894 -2.2891
 4813SOL    HW226076   1.994   2.570  17.200  0.8643 -1.0579  0.5191
 4814SOL     OW26077   2.113   3.501  10.551  0.4669 -0.1427  0.2060
 4814SOL    HW126078   2.133   3.451  10.630  0.0181  1.2942  1.2341
 4814SOL    HW226079   2.154   3.445  10.486 -0.4873 -0.7525  0.1269
 4815SOL     OW26080   0.617   0.560   2.713 -0.2646  0.4905 -0.2463
 4815SOL    HW126081   0.663   0.522   2.787  0.4648  0.4751 -0.7160
 4815SOL    HW226082   0.675   0.533   2.642 -0.4425  1.0590 -0.6088
 4816SOL     OW26083   3.396   1.168  11.131 -0.4696 -0.1803  0.1705
 4816SOL    HW126084   3.315   1.118  11.125  0.2916 -1.1428 -1.9589
 4816SOL    HW226085   3.401   1.180  11.226 -1.0904  0.2931  0.1415
 4817SOL     OW26086   2.094   2.856   2.810  0.7301  0.3323  0.0019
 4817SOL    HW126087   2.111   2.763   2.792  2.8333  0.5972  0.5150
 4817SOL    HW226088   2.047   2.882   2.731  0.4705  1.8693  0.6685
 4818SOL     OW26089   4.404   0.991   5.682 -0.1456  0.1519  0.0078
 4818SOL    HW126090   4.346   1.049   5.634 -0.1960 -0.8743 -1.1781
 4818SOL    HW226091   4.345   0.924   5.716 -0.4466  1.3793  1.8605
 4819SOL     OW26092   3.779   3.492   6.290  0.7527 -0.1317 -0.2380
 4819SOL    HW126093   3.872   3.489   6.312  0.3874  0.8395  1.4082
 4819SOL    HW226094   3.775   3.579   6.248  2.1388  0.8222  1.6494
 4820SOL     OW26095   1.379   4.460  12.831 -0.0260  0.1008 -0.1819
 4820SOL    HW126096   1.393   4.505  12.914  3.1938  1.3086 -1.3665
 4820SOL    HW226097   1.454   4.494  12.782 -1.0229  1.2242 -0.9355
 4821SOL     OW26098   3.614   3.825  14.332  0.0707  0.2660 -0.0966
 4821SOL    HW126099   3.693   3.808  14.383 -0.5809 -0.5611  0.6450
 4821SOL    HW226100   3.587   3.910  14.369 -0.9505 -0.8224  1.6441
 4822SOL     OW26101   3.694   2.098   4.024  0.0629  0.3980  0.0989
 4822SOL    HW126102   3.731   2.180   4.056  0.4989  1.2441 -2.5750
 4822SOL    HW226103   3.692   2.108   3.929 -1.0949 -1.4815 -0.0654
 4823SOL     OW26104   0.698   4.437  10.695  0.4877  0.4280 -0.3335
 4823SOL    HW126105   0.755   4.363  10.676  0.5004 -0.0277  1.5563
 4823SOL    HW226106   0.628   4.424  10.630  0.9980 -0.2208 -0.7506
 4824SOL     OW26107   1.090   4.168   9.985  0.0711  0.0175 -0.1555
 4824SOL    HW126108   1.084   4.102  10.053 -1.7359  1.9328  1.5558
 4824SOL    HW226109   0.997   4.168   9.962  0.3475  2.9706 -1.3304
 4825SOL     OW26110   0.329   2.907  17.142  0.1384  0.1884 -0.1656
 4825SOL    HW126111   0.330   2.890  17.236 -0.2282  0.9475 -0.0212
 4825SOL    HW226112   0.241   2.873  17.122  0.7353 -1.4603 -0.0007
 4826SOL     OW26113   4.004   4.266   1.231  0.2491 -0.3673 -0.2220
 4826SOL    HW126114   3.963   4.339   1.185 -2.0005 -1.3725  0.1797
 4826SOL    HW226115   4.097   4.278   1.210  0.3638  2.1774  1.7528
 4827SOL     OW26116   1.710   1.151   3.845 -0.9411  0.0270 -0.0079
 4827SOL    HW126117   1.767   1.137   3.921  0.5523 -0.2503 -1.1761
 4827SOL    HW226118   1.693   1.061   3.816  2.6521 -1.0266  1.1628
 4828SOL     OW26119   0.804   1.173  10.124  0.4721 -0.5704  0.4336
 4828SOL    HW126120   0.890   1.141  10.097  2.0221  2.0035  2.4405
 4828SOL    HW226121   0.779   1.204  10.037  2.5263  0.9990  0.4170
 4829SOL     OW26122   3.916   2.840   8.319  0.2190  0.4458 -0.1940
 4829SOL    HW126123   3.848   2.881   8.372 -0.3087 -1.0967  0.3164
 4829SOL    HW226124   3.883   2.751   8.316  1.5942  0.0268 -3.0873
 4830SOL     OW26125   3.703   1.637   4.452 -0.0332  0.7442  0.2766
 4830SOL    HW126126   3.715   1.678   4.538  1.2902 -1.5860  1.1857
 4830SOL    HW226127   3.747   1.696   4.391  0.2935 -0.8401 -1.0048
 4831SOL     OW26128   0.772   3.358   9.024 -0.2080  0.2724  0.1643
 4831SOL    HW126129   0.845   3.347   9.084  0.7699 -1.0206 -1.2946
 4831SOL    HW226130   0.806   3.298   8.958  0.4934  1.6860 -0.7766
 4832SOL     OW26131   0.181   2.619   7.277 -0.2138 -0.1381  0.2115
 4832SOL    HW126132   0.184   2.577   7.191  0.9501 -0.7312  0.5464
 4832SOL    HW226133   0.211   2.705   7.248 -1.1808  0.3772  0.7359
 4833SOL     OW26134   3.332   1.049   9.758 -0.0757 -0.2283 -0.1877
 4833SOL    HW126135   3.298   0.965   9.787 -1.6422  1.1806  2.0807
 4833SOL    HW226136   3.423   1.034   9.781  0.4368  0.8926 -1.4938
 4834SOL     OW26137   4.056   3.713   3.521  0.0692  0.3893 -0.3654
 4834SOL    HW126138   4.028   3.772   3.592 -1.8211 -0.1916 -0.6183
 4834SOL    HW226139   4.020   3.750   3.440 -0.7848  0.5049  0.0626
 4835SOL     OW26140   4.217   1.876  15.024 -0.2315 -0.4366  0.1763
 4835SOL    HW126141   4.145   1.812  15.029 -0.7474  0.0330 -1.0299
 4835SOL    HW226142   4.207   1.934  15.099 -1.2625  1.7896 -1.6961
 4836SOL     OW26143   1.854   0.190   7.417  0.4557 -0.0855 -0.3413
 4836SOL    HW126144   1.937   0.236   7.404 -0.9034  2.3960 -0.2988
 4836SOL    HW226145   1.879   0.102   7.388 -0.5094  0.2086 -2.1054
 4837SOL     OW26146   2.639   2.132   8.905 -0.3450 -0.1378 -0.7479
 4837SOL    HW126147   2.665   2.201   8.966 -1.0092 -2.6529  2.3703
 4837SOL    HW226148   2.554   2.164   8.875  0.4008  2.5096  0.0336
 4838SOL     OW26149   3.048   1.910   6.258 -0.4135 -0.1791 -0.0695
 4838SOL    HW126150   3.044   1.973   6.330 -0.6060  0.3688 -0.5657
 4838SOL    HW226151   3.136   1.873   6.256 -0.3946 -0.0920 -0.7782
 4839SOL     OW26152   3.445   4.714   3.260  0.3477 -0.2088 -0.0668
 4839SOL    HW126153   3.448   4.733   3.354 -0.1223 -0.5635  0.0173
 4839SOL    HW226154   3.512   4.646   3.258  0.1892 -0.3300 -1.2990
 4840SOL     OW26155   0.460   1.832   6.181  0.1123  0.2367  0.1871
 4840SOL    HW126156   0.550   1.859   6.201  0.4836 -1.2942  0.5867
 4840SOL    HW226157   0.464   1.752   6.129 -2.2968  0.3574 -0.1801
 4841SOL     OW26158   2.191   1.489   2.010  0.0221  0.0752  0.8817
 4841SOL    HW126159   2.251   1.445   2.071 -0.7834 -2.5352 -0.2490
 4841SOL    HW226160   2.213   1.579   2.033 -1.3530  0.7485 -0.4655
 4842SOL     OW26161   2.406   3.724   8.482 -0.2970  0.0810  0.1722
 4842SOL    HW126162   2.344   3.794   8.466  0.2293  0.5107  0.0183
 4842SOL    HW226163   2.360   3.667   8.544 -2.1883  0.2528 -1.0901
 4843SOL     OW26164   4.625   3.116   6.091 -0.1867  0.1390 -0.1025
 4843SOL    HW126165   4.705   3.122   6.039 -0.3696 -0.9421 -0.5068
 4843SOL    HW226166   4.579   3.200   6.081  0.7690  0.6513 -0.1399
 4844SOL     OW26167   0.923   4.475  11.064  0.2458  0.0299 -0.0689
 4844SOL    HW126168   0.993   4.486  11.000  0.8746 -0.4175  0.5331
 4844SOL    HW226169   0.846   4.503  11.015  0.2289 -1.1530 -0.7080
 4845SOL     OW26170   1.777   4.012   3.669  0.5517  0.2651  0.4684
 4845SOL    HW126171   1.797   3.941   3.607  0.6638  0.3797  0.3734
 4845SOL    HW226172   1.836   4.074   3.626  1.6130  0.5544  2.3497
 4846SOL     OW26173   2.634   1.988   7.630  0.0726  0.0588  0.1477
 4846SOL    HW126174   2.726   1.965   7.646  0.5551 -0.0620 -2.8675
 4846SOL    HW226175   2.589   1.921   7.682  0.9304 -0.8666 -0.3021
 4847SOL     OW26176   2.824   1.191   4.298 -0.7341  0.0599 -0.2121
 4847SOL    HW126177   2.838   1.120   4.360  0.8547 -2.0674 -3.0224
 4847SOL    HW226178   2.780   1.250   4.360  0.1459  2.2012 -1.6098
 4848SOL     OW26179   3.889   2.590   5.143 -0.5723 -0.4358 -0.3861
 4848SOL    HW126180   3.838   2.510   5.130 -0.6495 -0.4137 -0.2141
 4848SOL    HW226181   3.962   2.556   5.195 -1.3883  0.6904  1.4815
 4849SOL     OW26182   2.388   2.187   8.425  0.4119  0.5502  0.0598
 4849SOL    HW126183   2.417   2.253   8.363 -1.8852 -0.0203 -1.6560
 4849SOL    HW226184   2.355   2.119   8.365 -0.6678 -0.1821  1.4729
 4850SOL     OW26185   1.511   0.232   3.603  0.1021  0.8506 -0.5789
 4850SOL    HW126186   1.540   0.317   3.570 -0.4794  0.3021 -2.4772
 4850SOL    HW226187   1.593   0.196   3.636  0.2112  1.7708  0.1395
 4851SOL     OW26188   4.453   3.984  12.426  0.0080  0.1061 -0.1602
 4851SOL    HW126189   4.386   3.916  12.422 -0.0040  0.3164 -3.2670
 4851SOL    HW226190   4.486   3.963  12.339 -1.1896 -0.4848 -0.4682
 4852SOL     OW26191   0.043   2.322   7.717  0.1919 -0.0302 -0.1681
 4852SOL    HW126192   4.727   2.246   7.702  0.1485  0.1345 -0.8398
 4852SOL    HW226193   0.057   2.350   7.627 -1.7484 -2.7574 -1.2994
 4853SOL     OW26194   3.915   3.367   5.478 -1.0330  0.3520 -0.0599
 4853SOL    HW126195   3.999   3.373   5.433 -0.1857 -1.3819  1.2894
 4853SOL    HW226196   3.940   3.343   5.567  1.6031  0.6306 -0.7504
 4854SOL     OW26197   1.465   2.772   8.901 -0.9223 -0.7666 -0.0960
 4854SOL    HW126198   1.439   2.713   8.830  1.5330 -1.5462 -0.3442
 4854SOL    HW226199   1.493   2.720   8.976  0.2153 -0.0401 -0.0113
 4855SOL     OW26200   0.712   3.652  16.976 -0.2509 -0.0820 -0.0735
 4855SOL    HW126201   0.732   3.622  16.888 -0.8719  2.8898 -1.2063
 4855SOL    HW226202   0.616   3.648  16.975 -0.1844 -2.2410  1.9796
 4856SOL     OW26203   3.209   0.784   9.787  0.0073 -0.0814  0.2925
 4856SOL    HW126204   3.166   0.699   9.774  0.9443 -0.3842 -0.7604
 4856SOL    HW226205   3.188   0.801   9.879 -0.7540 -0.6438  0.2283
 4857SOL     OW26206   2.469   1.545   3.835 -0.4949  0.1362 -0.6526
 4857SOL    HW126207   2.402   1.478   3.824 -1.2103  0.7379  0.1091
 4857SOL    HW226208   2.548   1.490   3.825 -0.3077 -0.2023  2.8687
 4858SOL     OW26209   2.984   2.083  15.661  0.4697 -0.3106 -0.1772
 4858SOL    HW126210   3.075   2.105  15.645  0.7746  0.0578  2.1281
 4858SOL    HW226211   2.943   2.161  15.624 -1.2251 -1.3216 -0.4643
 4859SOL     OW26212   0.828   4.170   3.525  0.0918 -0.2996  0.3707
 4859SOL    HW126213   0.877   4.252   3.515 -0.4869  0.1105  0.9052
 4859SOL    HW226214   0.903   4.112   3.537  0.5454  0.1678 -0.2123
 4860SOL     OW26215   3.762   2.080   3.175 -0.5273 -0.1950 -0.3032
 4860SOL    HW126216   3.729   2.101   3.263  2.8907  1.0790  0.6770
 4860SOL    HW226217   3.814   2.158   3.157 -0.5536  0.5914  2.9545
 4861SOL     OW26218   3.439   4.599   6.811  0.4827 -0.1540  0.1124
 4861SOL    HW126219   3.525   4.574   6.846  0.5332  0.5899  0.5121
 4861SOL    HW226220   3.375   4.567   6.874  0.2896 -0.3111 -0.1643
 4862SOL     OW26221   4.127   3.856  14.610 -0.0302 -0.3102 -0.7706
 4862SOL    HW126222   4.209   3.881  14.653 -0.7878  0.6412  0.1409
 4862SOL    HW226223   4.112   3.944  14.574 -0.5777 -0.1498 -0.1453
 4863SOL     OW26224   1.473   4.263   2.649 -0.1944  0.0347 -1.0989
 4863SOL    HW126225   1.503   4.200   2.584  1.5664 -1.8709  1.5672
 4863SOL    HW226226   1.512   4.339   2.605  0.1827  0.1785 -0.5121
 4864SOL     OW26227   4.187   0.521   2.215 -0.1147  0.1164  0.0697
 4864SOL    HW126228   4.104   0.475   2.199  0.6120 -1.3142  0.3813
 4864SOL    HW226229   4.250   0.484   2.153 -0.6422  0.2366 -0.5416
 4865SOL     OW26230   0.372   1.037   2.690  0.2243  0.0245  0.8201
 4865SOL    HW126231   0.308   0.998   2.630  1.0573  1.2637 -0.8997
 4865SOL    HW226232   0.433   0.963   2.699  0.7731  0.3217 -0.4091
 4866SOL     OW26233   2.912   2.403   3.004 -0.3249  0.2067 -0.6348
 4866SOL    HW126234   2.887   2.420   3.095  0.8687  1.5220 -0.5533
 4866SOL    HW226235   2.912   2.492   2.969  1.2314  0.7557  0.7679
 4867SOL     OW26236   3.487   3.409   4.442 -0.3355 -0.1234 -0.3083
 4867SOL    HW126237   3.536   3.339   4.398 -0.5316 -0.0775 -0.6004
 4867SOL    HW226238   3.557   3.473   4.453  0.2953 -0.7172 -0.8616
 4868SOL     OW26239   2.442   2.282   9.461  0.3737 -0.0305 -0.6572
 4868SOL    HW126240   2.356   2.284   9.419  1.0360  2.9351 -1.9171
 4868SOL    HW226241   2.500   2.238   9.399  0.1405 -0.4383 -0.5860
 4869SOL     OW26242   3.110   3.711   5.905  0.7379  0.5469  0.5613
 4869SOL    HW126243   3.087   3.659   5.982 -1.8506 -0.4631 -0.8732
 4869SOL    HW226244   3.153   3.645   5.850  0.9842  0.0113  1.4017
 4870SOL     OW26245   3.097   1.578  11.467  0.2641 -0.8229 -0.4027
 4870SOL    HW126246   3.017   1.546  11.510  0.0029 -0.6408 -0.7562
 4870SOL    HW226247   3.071   1.565  11.376 -1.2354 -1.6150  0.1253
 4871SOL     OW26248   2.486   1.142   6.028  0.1904  0.1164 -0.1730
 4871SOL    HW126249   2.445   1.220   5.990  0.7603 -0.9099 -2.9178
 4871SOL    HW226250   2.464   1.082   5.957 -3.1909  0.7630  0.3085
 4872SOL     OW26251   0.408   1.729   5.078 -0.2132  0.3702  0.3659
 4872SOL    HW126252   0.459   1.674   5.138 -1.4177 -1.5973 -0.4393
 4872SOL    HW226253   0.385   1.806   5.130 -2.3541  0.0001 -0.0393
 4873SOL     OW26254   2.072   4.036  17.617 -0.0590  0.2825 -0.4687
 4873SOL    HW126255   1.996   3.989  17.650  1.1534  0.6271  2.8314
 4873SOL    HW226256   2.142   3.971  17.603  0.6435  1.2242 -1.3470
 4874SOL     OW26257   0.804   0.476  14.534  0.1720  0.1619  0.5416
 4874SOL    HW126258   0.880   0.524  14.566  1.2595 -1.1071 -0.1196
 4874SOL    HW226259   0.761   0.543  14.481  3.7220  2.8993  1.1033
 4875SOL     OW26260   2.907   2.082   5.767 -0.3110  0.2959  0.2821
 4875SOL    HW126261   2.830   2.137   5.779 -0.0606 -0.0532  3.4742
 4875SOL    HW226262   2.884   2.009   5.826  2.8412  0.3746  1.5776
 4876SOL     OW26263   0.463   1.435   1.977 -0.1787  0.1607 -0.1563
 4876SOL    HW126264   0.431   1.393   2.056  1.1568 -1.2041 -0.3448
 4876SOL    HW226265   0.451   1.362   1.915  1.5174  1.2994 -1.8103
 4877SOL     OW26266   2.889   3.664   6.505 -0.1851  0.0963  0.1369
 4877SOL    HW126267   2.833   3.605   6.452  1.9416  0.3154 -2.3414
 4877SOL    HW226268   2.824   3.730   6.527 -0.8170 -0.1685 -0.9199
 4878SOL     OW26269   1.995   1.569   0.208 -0.4781  0.1750  0.2597
 4878SOL    HW126270   2.017   1.642   0.266 -0.3292 -0.6603  1.2331
 4878SOL    HW226271   2.042   1.599   0.130  0.5989 -0.0767  0.8124
 4879SOL     OW26272   3.691   2.283  12.283 -0.2100  0.8301  0.1244
 4879SOL    HW126273   3.720   2.209  12.230 -1.4679 -0.6218  1.4281
 4879SOL    HW226274   3.752   2.354  12.262 -0.0306  0.8302  0.6483
 4880SOL     OW26275   4.076   1.725   4.954 -0.0300  0.1178  0.4556
 4880SOL    HW126276   4.078   1.633   4.931 -1.2145  0.1982  0.0333
 4880SOL    HW226277   3.996   1.729   5.006 -0.7214 -0.1469 -0.5961
 4881SOL     OW26278   2.741   3.619   2.872 -0.3367 -0.0867  0.3781
 4881SOL    HW126279   2.780   3.555   2.930  1.3264  2.0754  1.6472
 4881SOL    HW226280   2.765   3.704   2.909 -0.0488 -0.5732  1.2947
 4882SOL     OW26281   1.781   3.346   7.252  0.1757  0.0607  0.3548
 4882SOL    HW126282   1.756   3.257   7.228 -1.9482  0.9910 -0.9446
 4882SOL    HW226283   1.876   3.344   7.236  0.2747  0.2668  0.9199
 4883SOL     OW26284   2.250   3.924  16.877  0.2467 -0.3047  0.5670
 4883SOL    HW126285   2.261   4.019  16.870 -3.2615  0.0495 -0.0255
 4883SOL    HW226286   2.252   3.904  16.971 -0.4039 -2.3243  0.1472
 4884SOL     OW26287   3.663   2.286  11.916  0.6015 -0.0868  0.3107
 4884SOL    HW126288   3.653   2.210  11.859  1.0076  1.0585 -1.2815
 4884SOL    HW226289   3.700   2.258  12.000 -1.8147 -1.3043  0.9803
 4885SOL     OW26290   4.067   1.814  15.573  0.6733  0.0538  0.8841
 4885SOL    HW126291   3.976   1.810  15.543  0.1007  0.1763  2.6493
 4885SOL    HW226292   4.109   1.782  15.493  0.1743 -0.3931  0.8018
 4886SOL     OW26293   1.512   3.361  16.936  0.7804 -0.6393 -0.4349
 4886SOL    HW126294   1.590   3.417  16.937  1.0162 -0.9694 -0.3287
 4886SOL    HW226295   1.449   3.414  16.888  0.7342 -1.7183 -1.5571
 4887SOL     OW26296   4.304   3.520   4.698 -0.2268 -0.7117  0.1504
 4887SOL    HW126297   4.272   3.430   4.698 -0.1973 -0.7170 -2.4498
 4887SOL    HW226298   4.319   3.537   4.791 -1.8995  1.1177  0.0888
 4888SOL     OW26299   1.159   4.026   3.114  0.5244  0.8304 -0.2407
 4888SOL    HW126300   1.237   4.028   3.058  0.3794  1.7128 -0.4078
 4888SOL    HW226301   1.176   3.935   3.141 -0.3527  0.3236 -1.4094
 4889SOL     OW26302   0.636   0.626   2.108 -0.3239  0.4291 -0.0237
 4889SOL    HW126303   0.596   0.622   2.021  1.5730  0.1676 -0.8799
 4889SOL    HW226304   0.589   0.703   2.140 -0.8122 -0.1661  0.7139
 4890SOL     OW26305   0.820   2.172   3.366  0.2974 -0.2804 -0.5321
 4890SOL    HW126306   0.838   2.103   3.430  0.2083  1.6830  1.6328
 4890SOL    HW226307   0.737   2.206   3.402 -0.3206 -0.0267 -2.2222
 4891SOL     OW26308   3.294   1.994  13.514 -0.1788 -0.4219  0.3799
 4891SOL    HW126309   3.334   1.910  13.536 -0.5552 -0.0687  2.4117
 4891SOL    HW226310   3.267   1.974  13.424 -1.5327 -1.0085  0.9122
 4892SOL     OW26311   4.618   3.564   6.886 -0.1656 -0.2210 -0.4505
 4892SOL    HW126312   4.649   3.567   6.977  0.6466  0.7900 -0.7654
 4892SOL    HW226313   4.619   3.658   6.867 -4.7195 -0.1296 -0.1785
 4893SOL     OW26314   2.536   4.263   0.991 -0.1118  0.1856 -0.0618
 4893SOL    HW126315   2.587   4.195   0.947 -1.3149 -0.0011 -1.1969
 4893SOL    HW226316   2.446   4.233   0.974  0.4516 -0.6242 -1.6375
 4894SOL     OW26317   2.395   1.345   2.137 -0.2431 -0.1095 -0.1290
 4894SOL    HW126318   2.487   1.346   2.110  0.3352 -0.3960  1.8631
 4894SOL    HW226319   2.375   1.255   2.163 -1.1967  0.4993  1.2421
 4895SOL     OW26320   1.084   3.257   3.140  0.2934  0.1598 -0.4874
 4895SOL    HW126321   1.022   3.208   3.194  0.6189  0.8071  0.4820
 4895SOL    HW226322   1.044   3.344   3.141  1.7124  0.8340 -3.7299
 4896SOL     OW26323   0.846   3.956   4.778  0.1471  0.1209 -0.0381
 4896SOL    HW126324   0.882   3.868   4.773 -1.1447 -0.4455  0.7372
 4896SOL    HW226325   0.922   4.013   4.786  1.1287 -1.3029  0.6550
 4897SOL     OW26326   4.142   0.198   9.831  0.0406  0.0777  0.1990
 4897SOL    HW126327   4.059   0.151   9.844  0.8921 -1.6589 -0.6170
 4897SOL    HW226328   4.144   0.260   9.903  2.7026 -0.6223  0.7355
 4898SOL     OW26329   0.066   0.707  14.157  0.5938  0.1850  0.4655
 4898SOL    HW126330   0.098   0.636  14.213 -1.1518 -1.6879 -0.9144
 4898SOL    HW226331   0.141   0.710  14.097 -0.5436 -1.1266 -1.0393
 4899SOL     OW26332   3.162   4.142   9.845  0.1464  0.6031 -0.4080
 4899SOL    HW126333   3.171   4.130   9.940 -2.9433 -1.5590 -0.4028
 4899SOL    HW226334   3.111   4.222   9.833  1.6378  1.6859  0.4419
 4900SOL     OW26335   0.456   3.103   2.708  0.0268  0.1008 -0.4268
 4900SOL    HW126336   0.478   3.015   2.738  1.1117  0.7519  0.6551
 4900SOL    HW226337   0.364   3.082   2.725 -0.5399  1.8862 -1.3304
 4901SOL     OW26338   0.722   0.866   6.543  0.4935 -0.1079 -0.4179
 4901SOL    HW126339   0.774   0.877   6.463 -0.3078 -1.5813 -1.1320
 4901SOL    HW226340   0.717   0.957   6.574 -2.3892  0.0380 -1.3635
 4902SOL     OW26341   0.069   4.512   7.648 -0.3374 -0.1055  0.4573
 4902SOL    HW126342   0.066   4.434   7.591  0.5981 -0.4136  0.8367
 4902SOL    HW226343   4.722   4.548   7.624 -1.5192 -1.4291  2.6723
 4903SOL     OW26344   0.115   2.293   3.489 -0.5478 -0.4558  0.1993
 4903SOL    HW126345   0.066   2.213   3.504 -0.9711 -0.4034 -0.9568
 4903SOL    HW226346   0.049   2.325   3.428 -1.1621  0.8289  1.5370
 4904SOL     OW26347   3.231   3.920  12.629 -0.4464 -0.0847 -0.0776
 4904SOL    HW126348   3.326   3.925  12.640 -0.5063  0.4857  0.1615
 4904SOL    HW226349   3.193   3.871  12.702  1.4793  1.0204  1.6655
 4905SOL     OW26350   3.688   3.113   7.020 -0.0775 -0.6389 -0.0556
 4905SOL    HW126351   3.688   3.036   7.078  1.8137 -2.2553 -2.2153
 4905SOL    HW226352   3.777   3.113   6.984  0.2721  0.1700  0.8259
 4906SOL     OW26353   3.681   0.084   6.975 -0.0762 -0.1536  0.6379
 4906SOL    HW126354   3.737   0.151   7.014 -1.0919 -0.7128  3.0860
 4906SOL    HW226355   3.729   0.003   6.991 -0.4332 -0.3237  0.8570
 4907SOL     OW26356   3.975   3.466  11.678  0.1785 -0.2901  0.1014
 4907SOL    HW126357   3.919   3.401  11.637 -0.2141  1.2625 -1.8277
 4907SOL    HW226358   4.053   3.469  11.623  0.0868 -0.5138 -0.0402
 4908SOL     OW26359   3.207   4.627   8.576  0.1223  0.0339  0.5585
 4908SOL    HW126360   3.237   4.631   8.486  1.1516  0.3771  0.9219
 4908SOL    HW226361   3.278   4.681   8.610  0.9834 -0.4667 -0.4824
 4909SOL     OW26362   0.459   2.565   7.481  0.1194  0.1870  0.5303
 4909SOL    HW126363   0.403   2.604   7.549 -1.1794 -0.5801 -0.0914
 4909SOL    HW226364   0.417   2.482   7.460  1.1677 -0.3018  0.3997
 4910SOL     OW26365   2.545   2.529   7.226 -0.1746  0.3037 -0.3674
 4910SOL    HW126366   2.481   2.601   7.222 -0.7937 -0.0809  2.0986
 4910SOL    HW226367   2.566   2.515   7.134  1.4619 -3.0861  0.5382
 4911SOL     OW26368   2.924   4.490  12.278 -0.2369  0.0756 -0.6465
 4911SOL    HW126369   2.858   4.553  12.307 -0.2006 -1.2391  2.2647
 4911SOL    HW226370   2.882   4.434  12.213 -1.5950 -2.0319  2.0237
 4912SOL     OW26371   0.199   2.931   2.311  0.3887  0.2366  0.5839
 4912SOL    HW126372   0.282   2.884   2.316 -0.2705 -0.9999 -0.0020
 4912SOL    HW226373   0.224   3.002   2.370 -0.1209  0.2681  0.7656
 4913SOL     OW26374   3.454   2.126   3.310  0.5412 -0.0382  0.0001
 4913SOL    HW126375   3.388   2.057   3.304 -0.3211  0.7300  0.6030
 4913SOL    HW226376   3.402   2.191   3.263  0.9393 -0.6535 -1.2943
 4914SOL     OW26377   1.463   4.017   8.677  0.0127 -0.1280 -0.1135
 4914SOL    HW126378   1.453   4.106   8.645  2.1763 -0.1877 -0.9079
 4914SOL    HW226379   1.480   3.968   8.597  1.0765  1.4703 -0.8643
 4915SOL     OW26380   2.124   2.360   3.942  0.3760  0.0272  0.2960
 4915SOL    HW126381   2.054   2.303   3.972  1.4009 -1.0277  0.6878
 4915SOL    HW226382   2.088   2.404   3.865  1.7920  0.9248  0.1561
 4916SOL     OW26383   2.369   0.556   5.118 -0.2693 -0.4030  0.0375
 4916SOL    HW126384   2.285   0.602   5.116 -0.1967 -0.2704  0.0783
 4916SOL    HW226385   2.394   0.549   5.026 -0.0876 -0.7291  0.1123
 4917SOL     OW26386   0.471   0.930   0.461  0.4495  0.1192  0.9968
 4917SOL    HW126387   0.413   0.941   0.386 -1.5853 -0.2589  2.4943
 4917SOL    HW226388   0.529   0.865   0.422  1.2365  0.8232  1.0112
 4918SOL     OW26389   0.366   3.764   4.199  0.3175  0.9475  0.0336
 4918SOL    HW126390   0.353   3.727   4.112 -0.2422  0.7233  0.2094
 4918SOL    HW226391   0.275   3.766   4.229  0.3304 -1.9217  0.2420
 4919SOL     OW26392   3.790   4.072   3.099  0.0078  0.0294 -0.3482
 4919SOL    HW126393   3.739   4.044   3.023 -1.4607 -0.9764  1.0126
 4919SOL    HW226394   3.745   4.029   3.172 -1.1083  0.8829 -0.5300
 4920SOL     OW26395   1.338   3.829   9.418 -0.0481  0.0024  0.5768
 4920SOL    HW126396   1.318   3.759   9.357 -1.4987  1.2807 -0.4282
 4920SOL    HW226397   1.433   3.837   9.411 -0.4221  1.5816 -2.8830
 4921SOL     OW26398   2.458   1.540  13.437  0.3658  0.7358 -0.2019
 4921SOL    HW126399   2.464   1.458  13.387 -1.4475  0.9830 -0.8104
 4921SOL    HW226400   2.437   1.599  13.364  0.8297  3.4043  1.8390
 4922SOL     OW26401   4.232   0.522   6.362  0.1259 -0.6050  0.6042
 4922SOL    HW126402   4.232   0.574   6.282 -1.0354 -0.3011  0.8025
 4922SOL    HW226403   4.238   0.598   6.420  1.6418 -0.4288  0.2194
 4923SOL     OW26404   1.953   2.041  13.660 -0.5653 -0.0493 -0.5189
 4923SOL    HW126405   1.949   2.136  13.661 -2.2170 -0.1327 -0.4730
 4923SOL    HW226406   1.887   2.029  13.727  0.5020  2.1234  0.9192
 4924SOL     OW26407   2.694   2.587   2.831  0.2505 -0.1873  0.1309
 4924SOL    HW126408   2.670   2.584   2.923 -0.0912  2.6578  0.1409
 4924SOL    HW226409   2.710   2.680   2.812 -0.9730 -0.0311 -0.1197
 4925SOL     OW26410   2.809   2.822   5.982  0.0330 -0.5548  0.1603
 4925SOL    HW126411   2.873   2.849   5.915  1.8190 -0.9347  1.7055
 4925SOL    HW226412   2.869   2.772   6.038 -1.8517 -1.8162  1.0447
 4926SOL     OW26413   1.106   2.504   6.565  0.1862 -0.1325  0.0028
 4926SOL    HW126414   1.126   2.443   6.494  0.3071  2.3134 -2.0753
 4926SOL    HW226415   1.190   2.510   6.610  0.6320  0.0795 -0.8502
 4927SOL     OW26416   1.258   3.725   5.692  0.5970  0.2380 -0.1810
 4927SOL    HW126417   1.261   3.635   5.661  0.4354 -0.5764  2.1623
 4927SOL    HW226418   1.238   3.728   5.786 -3.1939  1.8437 -1.0300
 4928SOL     OW26419   3.113   2.396   4.290 -0.3951 -0.4277 -0.3802
 4928SOL    HW126420   3.041   2.457   4.274  0.5299  1.1307  1.3082
 4928SOL    HW226421   3.179   2.454   4.330  0.4814 -1.7997  0.1708
 4929SOL     OW26422   1.159   0.573  15.339  0.0761 -0.1473 -0.4492
 4929SOL    HW126423   1.248   0.543  15.356 -0.5907 -2.2183 -0.6704
 4929SOL    HW226424   1.174   0.667  15.350  0.1017  0.1938 -3.2689
 4930SOL     OW26425   3.796   0.339   5.054 -0.0886  0.1757 -0.2290
 4930SOL    HW126426   3.765   0.252   5.078  0.7290  0.0525  0.3984
 4930SOL    HW226427   3.838   0.324   4.969  0.0614  1.6512 -0.4185
 4931SOL     OW26428   0.099   4.654   5.096  0.4288 -0.0917  0.4976
 4931SOL    HW126429   0.176   4.668   5.152  1.8382  1.8387 -1.8941
 4931SOL    HW226430   0.025   4.673   5.154  0.0449  1.4972 -0.5337
 4932SOL     OW26431   2.994   3.815   5.114 -0.2374 -0.4350  0.5148
 4932SOL    HW126432   2.963   3.791   5.027 -0.2610 -0.1261  0.4400
 4932SOL    HW226433   3.079   3.852   5.093 -0.9606  0.9984  0.1185
 4933SOL     OW26434   1.396   0.339  12.030  0.4703  0.1758 -0.1077
 4933SOL    HW126435   1.383   0.411  11.968 -2.4768 -0.0411  0.2681
 4933SOL    HW226436   1.458   0.282  11.985 -1.7052 -1.1224 -1.4803
 4934SOL     OW26437   0.274   3.169   7.829  0.6253  0.0328 -0.0475
 4934SOL    HW126438   0.318   3.154   7.746 -0.3786  0.9864 -0.7561
 4934SOL    HW226439   0.192   3.123   7.810  0.6472 -0.4892  1.0938
 4935SOL     OW26440   0.541   4.525   5.954 -0.3638 -0.3238 -0.6172
 4935SOL    HW126441   0.459   4.570   5.971 -0.7335 -0.7101 -1.3753
 4935SOL    HW226442   0.562   4.508   6.046  1.4921 -0.2948 -1.0301
 4936SOL     OW26443   0.780   3.655   4.256  0.2159  0.0516 -0.1003
 4936SOL    HW126444   0.733   3.737   4.245  2.2900  1.4167  1.2547
 4936SOL    HW226445   0.743   3.632   4.341  1.5704  0.3182  0.5607
 4937SOL     OW26446   0.355   3.987   7.283 -0.1175  0.4287  0.2537
 4937SOL    HW126447   0.284   4.018   7.227 -0.9137 -2.0794 -0.1010
 4937SOL    HW226448   0.428   3.979   7.220 -0.3107  0.8420 -0.0255
 4938SOL     OW26449   4.444   4.608   5.374 -0.5956 -0.3728 -0.4460
 4938SOL    HW126450   4.392   4.655   5.440 -3.0663 -1.5245 -1.5702
 4938SOL    HW226451   4.457   4.534   5.432  0.3372 -2.1677 -2.9619
 4939SOL     OW26452   1.174   2.143   0.081 -0.3343  0.1861 -0.2893
 4939SOL    HW126453   1.221   2.070   0.120  1.3511  0.4077 -1.8584
 4939SOL    HW226454   1.195   2.207   0.149  0.9416 -2.5789  1.9162
 4940SOL     OW26455   0.150   0.930   8.666  0.4080  0.0686 -0.0159
 4940SOL    HW126456   0.190   1.010   8.632  0.5536 -0.1084 -0.2625
 4940SOL    HW226457   0.223   0.871   8.645  2.3619  2.5258 -0.1590
 4941SOL     OW26458   1.047   2.605  14.264  0.6892 -0.1572  0.0095
 4941SOL    HW126459   1.071   2.696  14.285 -0.3315 -0.0108  0.5570
 4941SOL    HW226460   0.975   2.616  14.202 -0.9409 -0.3771  1.8443
 4942SOL     OW26461   2.894   3.195   0.067 -0.1339 -0.1843  0.1866
 4942SOL    HW126462   2.831   3.192  17.748  0.5409 -1.7689 -0.3569
 4942SOL    HW226463   2.967   3.135   0.049  0.2780  0.2066  0.5293
 4943SOL     OW26464   0.953   1.794   1.514  0.3879  0.0223 -0.4733
 4943SOL    HW126465   0.947   1.824   1.424 -0.7273 -0.9320 -0.7197
 4943SOL    HW226466   0.885   1.728   1.525  1.2524 -0.8628 -0.4169
 4944SOL     OW26467   1.599   3.497   8.247 -0.0072  0.1059  0.0714
 4944SOL    HW126468   1.541   3.541   8.308 -1.3103 -0.5336 -0.7090
 4944SOL    HW226469   1.637   3.573   8.203 -0.8554  0.6823  0.3437
 4945SOL     OW26470   3.854   1.240   1.930  0.3972 -0.1216 -0.1874
 4945SOL    HW126471   3.766   1.270   1.911  0.9839  0.5465 -1.8345
 4945SOL    HW226472   3.876   1.193   1.850 -1.7252  0.2015 -0.9457
 4946SOL     OW26473   0.331   2.743   4.614  0.5840 -0.1580 -0.3687
 4946SOL    HW126474   0.304   2.741   4.522  1.5851 -1.3288 -0.6361
 4946SOL    HW226475   0.246   2.758   4.656  0.7663 -1.8934  0.6070
 4947SOL     OW26476   3.915   0.577  15.605  1.0138  0.0732 -0.7957
 4947SOL    HW126477   3.978   0.566  15.533 -0.5134  1.5914 -2.3448
 4947SOL    HW226478   3.958   0.527  15.675 -2.3124 -2.1028 -0.3012
 4948SOL     OW26479   2.389   2.395   1.128 -0.0551 -0.2511 -0.0085
 4948SOL    HW126480   2.446   2.386   1.051  0.5809  1.9127  0.2266
 4948SOL    HW226481   2.388   2.301   1.147  1.7615 -0.3217 -0.2114
 4949SOL     OW26482   0.807   1.908   7.423  1.0291  0.3065  0.3217
 4949SOL    HW126483   0.848   1.952   7.497  0.2039  0.8236  0.4715
 4949SOL    HW226484   0.758   1.843   7.474 -0.5090  0.1534 -1.3409
 4950SOL     OW26485   1.430   0.037   1.918 -0.1926 -0.0158 -0.0686
 4950SOL    HW126486   1.458   4.730   1.839  0.3403  0.3963 -0.1148
 4950SOL    HW226487   1.462   4.724   1.992  0.0153  0.7767  0.3943
 4951SOL     OW26488   2.355   0.481   2.962  0.0559  0.5943 -0.7786
 4951SOL    HW126489   2.417   0.413   2.989  0.9620  1.8335  0.2515
 4951SOL    HW226490   2.266   0.447   2.956  0.7422 -1.4893  0.8840
 4952SOL     OW26491   2.676   2.227   3.513  0.2499  1.0750  0.0369
 4952SOL    HW126492   2.731   2.149   3.498  0.4257  1.2707 -0.3348
 4952SOL    HW226493   2.719   2.267   3.588 -0.4365  1.1678  0.3781
 4953SOL     OW26494   4.245   0.298   8.437  0.3114 -0.1970 -0.2220
 4953SOL    HW126495   4.155   0.327   8.453  0.2289  0.1708 -1.3374
 4953SOL    HW226496   4.265   0.338   8.352 -2.1642  1.6476  0.0454
 4954SOL     OW26497   4.228   1.178   8.220 -0.8130 -0.0125 -0.0316
 4954SOL    HW126498   4.261   1.219   8.141  2.0273  1.2452  1.8070
 4954SOL    HW226499   4.298   1.203   8.281  0.1200 -3.0930  0.1845
 4955SOL     OW26500   2.259   2.484   8.079 -0.4817 -0.0321 -0.2005
 4955SOL    HW126501   2.335   2.431   8.104  0.1289  0.5103 -0.9271
 4955SOL    HW226502   2.285   2.575   8.070  1.1730 -0.5875 -0.9591
 4956SOL     OW26503   2.534   0.842   5.061  0.2625 -0.7988  0.2685
 4956SOL    HW126504   2.595   0.916   5.070  0.4393 -0.7161 -1.4644
 4956SOL    HW226505   2.590   0.778   5.103 -2.0702 -1.6777  2.0045
 4957SOL     OW26506   1.440   1.591  10.543 -0.2010 -0.1536  0.3233
 4957SOL    HW126507   1.489   1.661  10.588  1.3151 -0.6986 -0.4757
 4957SOL    HW226508   1.357   1.596  10.591  0.0086 -1.0794  0.7758
 4958SOL     OW26509   2.824   3.067   2.686 -0.3358 -0.0368 -0.4565
 4958SOL    HW126510   2.824   3.149   2.638 -0.3387  0.8818  1.1009
 4958SOL    HW226511   2.773   3.015   2.624 -0.6294  2.3918 -2.2210
 4959SOL     OW26512   0.006   2.525   2.296  0.2465 -0.1519  0.3377
 4959SOL    HW126513   0.031   2.595   2.235 -1.8081  2.0153  1.9779
 4959SOL    HW226514   4.654   2.552   2.310  1.1160  1.9072  1.9886
 4960SOL     OW26515   2.354   0.729   7.878 -0.2298  0.4753  0.6578
 4960SOL    HW126516   2.262   0.727   7.905 -0.2821 -1.4183  0.3042
 4960SOL    HW226517   2.367   0.635   7.871  0.2090  0.5448  0.5612
 4961SOL     OW26518   0.393   0.614   6.988  0.4070  0.1770  1.0749
 4961SOL    HW126519   0.387   0.689   6.928 -2.8471  1.6494  3.2783
 4961SOL    HW226520   0.303   0.584   6.980  0.0830  1.0383  1.5203
 4962SOL     OW26521   4.249   2.613  13.531 -0.0224  0.2511  0.5144
 4962SOL    HW126522   4.278   2.560  13.605  1.0605 -0.2805 -0.2802
 4962SOL    HW226523   4.163   2.647  13.555  0.4085  0.7384  1.3293
 4963SOL     OW26524   2.671   3.842   6.505  0.3588  0.1060  0.7290
 4963SOL    HW126525   2.653   3.929   6.469  1.7501 -0.4992 -1.4615
 4963SOL    HW226526   2.590   3.794   6.489  0.8053 -0.4327  0.1020
 4964SOL     OW26527   3.649   2.706   7.644  0.2600 -1.7280  0.3423
 4964SOL    HW126528   3.624   2.774   7.581  0.0322  0.1586  2.4479
 4964SOL    HW226529   3.583   2.650   7.605  0.0694 -2.0909  1.2011
 4965SOL     OW26530   1.587   3.281   7.573  0.4396  0.3270  0.2241
 4965SOL    HW126531   1.556   3.191   7.579 -0.6300  0.7914  1.9287
 4965SOL    HW226532   1.620   3.297   7.662 -0.3519 -0.9988  0.7595
 4966SOL     OW26533   0.585   2.239  13.446  0.5530  0.1279 -0.3115
 4966SOL    HW126534   0.609   2.152  13.413  0.3883  0.3676 -1.0622
 4966SOL    HW226535   0.548   2.216  13.531  1.1443  2.1035  0.4732
 4967SOL     OW26536   3.660   1.187  15.873  0.2460  0.4425 -0.7125
 4967SOL    HW126537   3.616   1.233  15.802 -3.7705 -0.6357  1.0987
 4967SOL    HW226538   3.691   1.111  15.824 -1.2061 -0.4582 -0.2308
 4968SOL     OW26539   3.758   1.070  15.655 -0.7829 -0.0196  0.1087
 4968SOL    HW126540   3.747   0.981  15.688 -0.0205 -0.6376 -1.3342
 4968SOL    HW226541   3.843   1.061  15.612  0.5439  0.2140  2.6595
 4969SOL     OW26542   1.844   1.785   0.548 -0.2752  0.3899 -0.0511
 4969SOL    HW126543   1.912   1.782   0.480  0.4453 -0.0535  0.6944
 4969SOL    HW226544   1.872   1.855   0.607 -0.0264 -0.4414  0.8052
 4970SOL     OW26545   0.170   2.803  16.791 -0.2895  0.3960 -0.4059
 4970SOL    HW126546   0.231   2.870  16.760  0.1991 -0.2708 -0.8937
 4970SOL    HW226547   0.162   2.821  16.884 -0.5812  2.3198 -0.8028
 4971SOL     OW26548   2.308   1.080   6.956  0.2641  0.2390  0.1910
 4971SOL    HW126549   2.305   1.132   7.037 -2.7071 -0.9675  0.8404
 4971SOL    HW226550   2.398   1.085   6.924  0.5146  0.7736  0.9589
 4972SOL     OW26551   0.897   4.309   6.012  0.3411  0.7646 -0.3359
 4972SOL    HW126552   0.890   4.311   6.107  0.8443  0.5870 -0.2948
 4972SOL    HW226553   0.902   4.216   5.989  3.5653  1.1025 -1.0984
 4973SOL     OW26554   3.144   1.856   9.300 -0.4969  0.1374  0.3140
 4973SOL    HW126555   3.234   1.830   9.284  0.1234  2.4108  0.1229
 4973SOL    HW226556   3.160   1.927   9.363 -1.4352  0.7403 -0.1309
 4974SOL     OW26557   3.022   1.446  10.977  0.2079 -0.2783  0.1677
 4974SOL    HW126558   3.104   1.400  10.998 -0.1224 -1.0003 -0.1223
 4974SOL    HW226559   3.062   1.502  10.910 -1.3121 -0.2563 -0.7137
 4975SOL     OW26560   2.494   0.984   9.438 -0.2097 -0.4355  0.5918
 4975SOL    HW126561   2.490   1.028   9.522 -0.7173 -0.5683  0.6384
 4975SOL    HW226562   2.536   0.900   9.460  0.2127 -0.5786 -0.7656
 4976SOL     OW26563   1.615   1.339   5.643  0.1683 -0.0510  0.2480
 4976SOL    HW126564   1.582   1.398   5.710  1.0868 -0.5341  1.1126
 4976SOL    HW226565   1.606   1.400   5.570 -0.4759  0.7750  1.0244
 4977SOL     OW26566   4.470   2.931   5.774 -0.1254  0.5543 -0.3253
 4977SOL    HW126567   4.389   2.880   5.778  0.0423  0.4193  1.3052
 4977SOL    HW226568   4.465   2.985   5.853 -1.0892  1.3885 -0.9602
 4978SOL     OW26569   1.330   4.517   0.793 -0.0429 -0.4021  0.6503
 4978SOL    HW126570   1.398   4.458   0.827 -0.4928 -1.1763  0.2195
 4978SOL    HW226571   1.294   4.548   0.875  0.2036 -0.1547  0.6650
 4979SOL     OW26572   2.089   1.258   5.903 -0.0018 -0.4182 -0.4474
 4979SOL    HW126573   2.047   1.267   5.988 -2.0823 -1.4017 -1.3670
 4979SOL    HW226574   2.182   1.270   5.922 -0.0239  0.7836 -1.1050
 4980SOL     OW26575   3.167   0.224  15.980  0.2037  0.2416 -0.2283
 4980SOL    HW126576   3.146   0.170  15.904 -1.6998 -0.7186  0.9743
 4980SOL    HW226577   3.215   0.296  15.939  1.7388 -0.2892  0.6576
 4981SOL     OW26578   1.548   3.722  15.396 -0.4209 -0.0503  0.2813
 4981SOL    HW126579   1.488   3.688  15.462 -1.3321  1.6224  0.3222
 4981SOL    HW226580   1.632   3.695  15.433 -0.1260  0.3513 -0.0931
 4982SOL     OW26581   1.713   1.016   9.200 -0.1807  0.3322  0.3029
 4982SOL    HW126582   1.804   1.043   9.206 -0.0896 -0.3882  2.2339
 4982SOL    HW226583   1.684   1.082   9.137 -0.3146 -0.4009 -0.4018
 4983SOL     OW26584   2.723   2.865  10.201 -0.3920  0.2387 -0.0154
 4983SOL    HW126585   2.765   2.836  10.120  0.4065 -0.0151  0.4922
 4983SOL    HW226586   2.635   2.885  10.170 -1.0489 -1.5465  0.7487
 4984SOL     OW26587   0.118   2.921   3.690 -0.0692 -0.7205 -0.0349
 4984SOL    HW126588   0.072   2.998   3.657 -0.2867 -1.2605 -0.9902
 4984SOL    HW226589   0.207   2.956   3.687 -0.7601  1.0949  0.5916
 4985SOL     OW26590   1.091   4.283   1.425  0.3549 -0.0851 -0.5533
 4985SOL    HW126591   1.049   4.357   1.381  1.2131  0.7430  0.0297
 4985SOL    HW226592   1.085   4.301   1.519  0.7283  2.3724 -0.9840
 4986SOL     OW26593   2.173   2.722   0.072  0.0734  0.1372 -0.1341
 4986SOL    HW126594   2.215   2.703  17.741  0.8435  2.0438 -0.1880
 4986SOL    HW226595   2.094   2.767   0.043  0.6950  1.9803  1.0294
 4987SOL     OW26596   4.274   2.592   1.843  0.1807  0.3192 -0.1070
 4987SOL    HW126597   4.240   2.616   1.757  0.2894  0.5073 -0.0964
 4987SOL    HW226598   4.286   2.675   1.889  1.5270 -0.9127  1.7646
 4988SOL     OW26599   0.190   1.110   6.178  0.0760 -0.1952  0.0526
 4988SOL    HW126600   0.164   1.018   6.186  0.0553 -0.2249 -0.3598
 4988SOL    HW226601   0.285   1.101   6.170  0.1988  1.1240  0.0461
 4989SOL     OW26602   2.265   2.930   5.478 -0.3782 -0.5671 -0.0033
 4989SOL    HW126603   2.355   2.948   5.505 -0.3535  0.4236 -0.7251
 4989SOL    HW226604   2.247   2.852   5.529 -0.2579  0.7294  2.0050
 4990SOL     OW26605   1.794   0.217  15.168  0.3689 -0.2678  0.7681
 4990SOL    HW126606   1.797   0.181  15.257 -0.8675 -0.2704  0.8125
 4990SOL    HW226607   1.720   0.276  15.185  0.6658  0.0523  0.9523
 4991SOL     OW26608   1.794   3.839   8.715  0.4050 -0.4979  0.4800
 4991SOL    HW126609   1.835   3.924   8.728  2.5742 -1.1703 -1.9095
 4991SOL    HW226610   1.755   3.826   8.802  0.2611 -0.5870  0.4019
 4992SOL     OW26611   3.735   0.967   4.923 -0.2484 -0.2070 -0.1591
 4992SOL    HW126612   3.729   0.901   4.992  0.2626  0.4852  0.5416
 4992SOL    HW226613   3.647   0.957   4.886 -0.8299 -1.5079  1.5399
 4993SOL     OW26614   2.186   4.575  13.215  0.6453 -0.8048  0.3864
 4993SOL    HW126615   2.150   4.489  13.235  1.3583 -1.1864  0.0321
 4993SOL    HW226616   2.277   4.546  13.209  0.7571 -0.2640 -0.5365
 4994SOL     OW26617   3.499   3.826  16.717 -0.0929 -0.4905 -0.1797
 4994SOL    HW126618   3.463   3.860  16.799  2.5519 -1.9569  1.5821
 4994SOL    HW226619   3.535   3.907  16.680 -1.4349  0.1634 -0.0573
 4995SOL     OW26620   3.274   2.188   3.813  0.1448 -0.7505 -0.4618
 4995SOL    HW126621   3.197   2.233   3.848 -1.0392 -1.3671 -2.2972
 4995SOL    HW226622   3.321   2.170   3.894 -0.0776 -0.9352 -0.3752
 4996SOL     OW26623   4.247   4.409   0.614  0.2950 -0.5003 -0.4751
 4996SOL    HW126624   4.311   4.439   0.679 -1.4930  3.5382 -0.6179
 4996SOL    HW226625   4.278   4.469   0.546  0.0732 -0.6602 -0.7183
 4997SOL     OW26626   4.485   3.761   5.776  0.1387  0.2454  0.3376
 4997SOL    HW126627   4.467   3.685   5.830 -0.1926 -1.2803 -1.9209
 4997SOL    HW226628   4.461   3.721   5.692 -0.8784  3.7822 -1.0893
 4998SOL     OW26629   1.948   0.289   5.250  0.1553 -0.5697 -0.0001
 4998SOL    HW126630   1.926   0.347   5.323  1.8907 -0.6511  0.6007
 4998SOL    HW226631   2.041   0.307   5.240 -0.9075  3.9908 -1.7707
 4999SOL     OW26632   2.311   3.071   4.096  0.2445  0.4033  0.9168
 4999SOL    HW126633   2.262   3.080   4.015 -0.9957  0.3414  1.6617
 4999SOL    HW226634   2.371   3.001   4.072  3.0599  2.4167  2.0715
 5000SOL     OW26635   0.578   0.159   7.031 -0.4187 -0.1253  0.1624
 5000SOL    HW126636   0.636   0.235   7.029 -1.7093  0.9101  1.9734
 5000SOL    HW226637   0.630   0.104   7.089 -0.3491 -0.7006 -0.4451
 5001SOL     OW26638   4.007   2.270   4.846 -0.0432  0.5898  0.4110
 5001SOL    HW126639   4.075   2.303   4.905 -1.1426 -0.7156  2.4168
 5001SOL    HW226640   3.967   2.203   4.903  0.2771  1.8447  2.0947
 5002SOL     OW26641   0.857   2.478   2.886 -0.2237  0.3687  0.9488
 5002SOL    HW126642   0.865   2.424   2.807  4.7381  0.1750  1.5630
 5002SOL    HW226643   0.834   2.415   2.954  0.5921 -0.5468  0.3741
 5003SOL     OW26644   1.020   3.006  10.060 -0.2696 -0.7005 -0.1246
 5003SOL    HW126645   1.000   3.073   9.996 -0.6665 -0.5648  0.1398
 5003SOL    HW226646   0.934   2.964  10.061 -1.4608  1.7575  1.3465
 5004SOL     OW26647   1.735   1.541   4.287  0.0558  0.1297 -0.3173
 5004SOL    HW126648   1.744   1.519   4.379 -3.9893 -2.8123 -0.6040
 5004SOL    HW226649   1.698   1.628   4.302  0.0618 -0.4228  2.8340
 5005SOL     OW26650   0.559   0.497   7.514 -0.3468 -0.0958 -0.0860
 5005SOL    HW126651   0.646   0.456   7.514 -0.3980 -0.2034  0.3321
 5005SOL    HW226652   0.504   0.420   7.529  0.5220 -0.4567  1.2782
 5006SOL     OW26653   4.612   1.594   4.855 -0.3251 -0.0534 -0.4103
 5006SOL    HW126654   4.629   1.500   4.855 -1.8990 -0.3569 -3.9514
 5006SOL    HW226655   4.537   1.601   4.913  1.3735  0.7901  1.6884
 5007SOL     OW26656   0.194   2.464  12.811  0.3579  0.3115  0.0460
 5007SOL    HW126657   0.125   2.494  12.871  0.1440  1.7490 -0.9260
 5007SOL    HW226658   0.273   2.506  12.843  0.5126 -0.8466  1.2006
 5008SOL     OW26659   2.312   0.012   4.002 -0.0885 -0.0177  0.3510
 5008SOL    HW126660   2.319   0.038   4.094  1.7178 -0.1998  0.2680
 5008SOL    HW226661   2.218   0.028   3.997 -0.2177 -0.8066  0.1699
 5009SOL     OW26662   4.672   3.045   2.348  0.2031  0.4367 -0.0970
 5009SOL    HW126663   4.657   3.127   2.302 -0.9367  1.4363  2.0976
 5009SOL    HW226664   0.021   3.020   2.319 -0.7675  0.2028 -2.8017
 5010SOL     OW26665   3.126   4.381   6.759  0.1369  0.2627 -0.2232
 5010SOL    HW126666   3.177   4.458   6.735  2.8178 -1.0458  1.2162
 5010SOL    HW226667   3.182   4.319   6.713  1.5945  0.3666  1.4018
 5011SOL     OW26668   2.950   3.900   0.424 -0.1804 -0.0059 -0.3482
 5011SOL    HW126669   2.968   3.833   0.358  2.6733  0.8034 -0.3742
 5011SOL    HW226670   2.855   3.901   0.430 -0.1671 -0.2433 -0.1100
 5012SOL     OW26671   0.546   3.229  10.352 -0.1797 -0.2285  0.0981
 5012SOL    HW126672   0.620   3.181  10.388 -2.1701 -1.9199  1.9036
 5012SOL    HW226673   0.502   3.159  10.304  0.7019 -1.2395  0.7884
 5013SOL     OW26674   3.397   4.560   2.454  0.9588 -0.1521 -0.3760
 5013SOL    HW126675   3.412   4.543   2.361 -1.6220  1.1347 -1.0157
 5013SOL    HW226676   3.340   4.487   2.475  0.8648  0.1759  0.4933
 5014SOL     OW26677   1.170   1.394   4.213  0.4446 -0.1252 -0.0516
 5014SOL    HW126678   1.221   1.471   4.190 -3.4168  2.2628 -0.5407
 5014SOL    HW226679   1.172   1.344   4.131  2.1461  1.4046 -0.9396
 5015SOL     OW26680   1.829   2.110   7.311  0.3606  0.0253 -0.0137
 5015SOL    HW126681   1.804   2.112   7.403  0.4116 -0.7829  0.0202
 5015SOL    HW226682   1.769   2.043   7.280  0.8009 -0.4159  0.0690
 5016SOL     OW26683   1.921   1.510   6.066  0.5083  0.1008  0.0017
 5016SOL    HW126684   1.918   1.572   5.993 -1.1116 -1.2273 -1.0444
 5016SOL    HW226685   1.849   1.450   6.047 -0.7424  2.0835 -1.4498
 5017SOL     OW26686   1.824   2.774   3.518 -0.1768  0.3773  0.2128
 5017SOL    HW126687   1.898   2.767   3.578 -1.1103  0.0540  1.3374
 5017SOL    HW226688   1.878   2.782   3.439 -0.7295 -0.2980 -0.2355
 5018SOL     OW26689   4.069   4.043   6.072 -0.0544 -0.0879  0.2827
 5018SOL    HW126690   4.043   3.970   6.016  1.7419  0.0441 -0.7282
 5018SOL    HW226691   4.055   4.106   6.002 -2.3309  0.1448  0.9376
 5019SOL     OW26692   2.163   4.340  13.795  0.2533  0.4588 -0.1704
 5019SOL    HW126693   2.090   4.328  13.857  0.3139 -0.3234 -0.2481
 5019SOL    HW226694   2.230   4.348  13.863 -1.2785 -0.9481  1.5113
 5020SOL     OW26695   0.469   4.704   8.797 -0.1278 -0.4144 -0.4739
 5020SOL    HW126696   0.494   0.008   8.715 -1.5640  3.8064  1.2789
 5020SOL    HW226697   0.507   4.619   8.776 -1.4556 -0.5129 -2.3934
 5021SOL     OW26698   2.815   3.584   9.231 -0.3728 -0.2085  0.8374
 5021SOL    HW126699   2.746   3.637   9.270 -0.3327  0.1429  0.4350
 5021SOL    HW226700   2.809   3.504   9.284  0.8918 -1.4062 -0.8243
 5022SOL     OW26701   3.289   2.621   3.249  0.0049 -0.2728 -0.5051
 5022SOL    HW126702   3.289   2.635   3.344 -1.7092  1.1342 -0.7194
 5022SOL    HW226703   3.288   2.525   3.248  1.8137 -0.2676 -2.7322
 5023SOL     OW26704   0.788   2.236   2.376  0.0558  0.0779 -0.7342
 5023SOL    HW126705   0.793   2.178   2.301  1.3620  1.3376 -1.6226
 5023SOL    HW226706   0.876   2.222   2.412 -0.2952 -0.5424 -0.1166
 5024SOL     OW26707   0.316   0.695   8.629  0.2318  0.2346 -0.5239
 5024SOL    HW126708   0.387   0.631   8.630 -1.2145 -1.3320  1.2519
 5024SOL    HW226709   0.256   0.643   8.577  1.0536 -0.0197 -1.2167
 5025SOL     OW26710   2.000   3.586   2.760 -0.4480  0.0351  0.3812
 5025SOL    HW126711   2.085   3.613   2.725 -0.2974 -0.0653  0.6763
 5025SOL    HW226712   1.938   3.650   2.725 -1.5533 -2.3516 -1.9867
 5026SOL     OW26713   0.781   1.572  15.309 -0.0955  0.6673 -0.2065
 5026SOL    HW126714   0.791   1.597  15.401  0.2022  0.3054 -0.1368
 5026SOL    HW226715   0.771   1.654  15.261  0.4122  0.5042 -0.6028
 5027SOL     OW26716   3.728   2.702   9.189  0.3553  0.1961 -0.1753
 5027SOL    HW126717   3.757   2.650   9.114  1.0474 -0.0921  0.2936
 5027SOL    HW226718   3.727   2.644   9.265 -0.6371  0.8951  0.3408
 5028SOL     OW26719   1.808   4.641  10.312  0.1862  0.0260 -0.6034
 5028SOL    HW126720   1.836   4.635  10.403 -1.0876  1.8020 -0.1098
 5028SOL    HW226721   1.761   4.725  10.311  0.0951 -0.0350 -1.5368
 5029SOL     OW26722   1.063   2.757  13.562 -0.1905  0.2745  0.1119
 5029SOL    HW126723   0.995   2.781  13.499 -0.4014 -3.7192 -1.2288
 5029SOL    HW226724   1.094   2.669  13.540  1.4253  1.2537 -1.5457
 5030SOL     OW26725   1.376   3.248   6.225 -0.1089  0.3418 -0.2748
 5030SOL    HW126726   1.371   3.342   6.241 -0.3257  0.4081 -0.7240
 5030SOL    HW226727   1.471   3.239   6.221 -0.2282 -0.9971 -0.2007
 5031SOL     OW26728   0.336   3.123   2.455 -0.1337  0.7441  0.2537
 5031SOL    HW126729   0.355   3.119   2.549 -0.2592  0.0621  0.2497
 5031SOL    HW226730   0.417   3.160   2.419 -0.5708 -1.3924 -2.8943
 5032SOL     OW26731   3.218   3.134   5.546  0.0116  0.0536  0.2045
 5032SOL    HW126732   3.233   3.051   5.591  0.4408 -0.5326 -1.0078
 5032SOL    HW226733   3.161   3.112   5.472  3.9054  1.2750 -3.1307
 5033SOL     OW26734   3.927   1.373   5.153 -0.1784  0.6672 -0.2969
 5033SOL    HW126735   3.957   1.282   5.147  0.2603  0.4983  4.1230
 5033SOL    HW226736   3.979   1.413   5.084 -0.7772  0.8029 -0.6701
 5034SOL     OW26737   4.351   1.513   6.424  0.1886 -0.6078 -1.0049
 5034SOL    HW126738   4.408   1.539   6.497 -1.1040  0.6261 -0.4342
 5034SOL    HW226739   4.320   1.597   6.390 -0.4634  0.0780  1.2517
 5035SOL     OW26740   2.914   1.844  11.287 -0.0247  0.4944  0.4559
 5035SOL    HW126741   2.968   1.836  11.208 -0.5836 -0.9733  0.2235
 5035SOL    HW226742   2.860   1.767  11.272 -0.2014  0.3490  1.8515
 5036SOL     OW26743   2.757   4.533  16.462  0.2852  1.0894 -0.0828
 5036SOL    HW126744   2.766   4.484  16.544 -0.4624 -1.0110 -1.2630
 5036SOL    HW226745   2.846   4.526  16.428  0.2455 -2.2513  0.5214
 5037SOL     OW26746   3.354   0.754   4.488  0.5210  0.2655  0.1109
 5037SOL    HW126747   3.407   0.677   4.509 -0.6908  0.2802  3.2452
 5037SOL    HW226748   3.398   0.832   4.523 -0.8069  0.9501  0.2721
 5038SOL     OW26749   3.023   2.002   6.826 -0.1408  0.4605  0.1213
 5038SOL    HW126750   3.084   1.980   6.897 -1.1435 -1.0728  0.5118
 5038SOL    HW226751   3.086   1.995   6.754  0.7561 -0.2371  0.9623
 5039SOL     OW26752   0.400   1.112  17.485  0.6266 -0.3077 -0.5725
 5039SOL    HW126753   0.317   1.149  17.517  0.5984  1.0610 -2.2125
 5039SOL    HW226754   0.375   1.027  17.448 -0.0366  0.0579 -0.9752
 5040SOL     OW26755   2.238   1.572   5.619  0.2939  0.2941 -0.2435
 5040SOL    HW126756   2.160   1.524   5.648  0.9605 -0.1300  0.8567
 5040SOL    HW226757   2.314   1.536   5.666  0.1731  0.7689  0.3178
 5041SOL     OW26758   0.593   1.886   6.544  0.8202 -0.2060 -0.3879
 5041SOL    HW126759   0.541   1.953   6.589 -1.2452 -2.1840  0.1984
 5041SOL    HW226760   0.663   1.882   6.609 -0.3200  1.0207  0.9428
 5042SOL     OW26761   3.859   3.059   2.681 -0.3525 -0.2737  0.3011
 5042SOL    HW126762   3.867   3.009   2.762  1.2926  2.0193  1.5591
 5042SOL    HW226763   3.947   3.094   2.673 -0.8463  0.5014 -1.6665
 5043SOL     OW26764   0.308   0.627   2.444  0.4650 -0.6198 -0.1155
 5043SOL    HW126765   0.213   0.624   2.430  0.2831 -0.3289  1.0287
 5043SOL    HW226766   0.322   0.721   2.434 -0.2949 -0.4432  0.4840
 5044SOL     OW26767   2.342   2.593  15.383 -0.4681 -0.2302  0.2943
 5044SOL    HW126768   2.401   2.571  15.454  0.8789  0.1352 -0.7133
 5044SOL    HW226769   2.252   2.564  15.401 -0.1837 -0.6279  1.0489
 5045SOL     OW26770   3.092   1.882   2.937 -0.5407 -0.1248 -0.7647
 5045SOL    HW126771   3.173   1.831   2.945 -0.1397  0.2723 -2.2244
 5045SOL    HW226772   3.021   1.818   2.941 -0.1418 -0.5485 -0.4780
 5046SOL     OW26773   2.524   3.379  13.007 -0.4698 -0.4184  0.5311
 5046SOL    HW126774   2.492   3.467  12.989 -1.7294 -1.0162 -0.1277
 5046SOL    HW226775   2.613   3.395  12.974 -0.8540  1.0689  0.2206
 5047SOL     OW26776   2.221   3.010   3.361  0.0997 -0.1745 -0.2521
 5047SOL    HW126777   2.175   3.079   3.408 -3.7163 -1.8019 -1.5748
 5047SOL    HW226778   2.156   2.976   3.299 -0.4890 -0.5057  0.5487
 5048SOL     OW26779   4.524   2.697   6.140  0.7945 -0.6920 -0.5130
 5048SOL    HW126780   4.430   2.714   6.148  0.8751  0.9982 -3.1793
 5048SOL    HW226781   4.542   2.680   6.048 -3.6554  2.3349 -1.9345
 5049SOL     OW26782   4.251   2.373   3.071  0.5091  0.1480  0.0697
 5049SOL    HW126783   4.309   2.320   3.015 -0.6272 -1.6996  0.6300
 5049SOL    HW226784   4.206   2.300   3.113 -0.2263  1.0937  0.9101
 5050SOL     OW26785   0.027   3.213   3.138  0.0968 -0.1294  0.4650
 5050SOL    HW126786   4.723   3.177   3.215  0.8925  0.7951  1.3376
 5050SOL    HW226787   0.098   3.252   3.188  1.3867  1.0761 -2.2858
 5051SOL     OW26788   0.872   1.715   1.025  0.2992  0.4395  1.2072
 5051SOL    HW126789   0.874   1.779   0.953  1.2555 -0.8779  0.0689
 5051SOL    HW226790   0.953   1.665   1.016  0.0259  0.2999 -0.6345
 5052SOL     OW26791   2.528   1.015   3.880 -0.2059 -0.7990 -0.1095
 5052SOL    HW126792   2.458   1.054   3.828 -2.2044 -3.3480  0.7113
 5052SOL    HW226793   2.586   0.993   3.808 -0.3717 -3.2273  0.5014
 5053SOL     OW26794   0.669   3.754   0.899  0.9633  0.5607  0.2926
 5053SOL    HW126795   0.707   3.675   0.862 -0.6615 -0.8211  1.5728
 5053SOL    HW226796   0.659   3.721   0.988  1.3146  1.2140  0.5721
 5054SOL     OW26797   0.901   0.679   3.977 -0.1205 -0.4161 -0.0966
 5054SOL    HW126798   0.881   0.586   3.967  0.1535 -0.4307 -0.5459
 5054SOL    HW226799   0.990   0.694   3.945  0.9685 -1.1013  2.6768
 5055SOL     OW26800   1.218   2.385   3.011 -0.1110  0.3168 -0.6249
 5055SOL    HW126801   1.172   2.456   2.965 -2.7944 -1.2002 -0.2716
 5055SOL    HW226802   1.237   2.427   3.095 -1.2409 -2.3359  0.9388
 5056SOL     OW26803   2.996   3.441   5.718 -0.1108 -0.6750 -0.0817
 5056SOL    HW126804   3.081   3.440   5.762  0.6821  3.6001 -1.5335
 5056SOL    HW226805   2.967   3.352   5.737 -2.6955 -0.1141 -1.3839
 5057SOL     OW26806   1.372   1.191   3.797  0.0720  0.0614  0.1468
 5057SOL    HW126807   1.290   1.192   3.845 -0.1260  1.2267 -0.2073
 5057SOL    HW226808   1.347   1.247   3.723  1.0096 -0.6456 -0.7198
 5058SOL     OW26809   0.811   3.348   3.193 -0.1135  0.0696  0.4596
 5058SOL    HW126810   0.788   3.397   3.272 -0.7551 -0.1304  0.4049
 5058SOL    HW226811   0.776   3.408   3.128  0.2878  0.7463  0.8725
 5059SOL     OW26812   0.613   1.746   4.622 -0.2210 -0.0976  0.0236
 5059SOL    HW126813   0.542   1.808   4.636  1.2770  1.3498  1.3084
 5059SOL    HW226814   0.608   1.696   4.703 -1.0530  1.2774  0.8151
 5060SOL     OW26815   4.396   4.223   4.326  0.1297  0.8888 -0.0505
 5060SOL    HW126816   4.484   4.185   4.334  0.0219  0.6833  0.1545
 5060SOL    HW226817   4.408   4.317   4.315 -1.4399  0.6448 -3.9911
 5061SOL     OW26818   2.760   0.026  14.158  0.2442  0.3612  0.0643
 5061SOL    HW126819   2.799   4.712  14.088  0.9563 -0.4760  1.0746
 5061SOL    HW226820   2.706   0.075  14.097 -0.1929 -0.1669  0.0247
 5062SOL     OW26821   2.279   0.084   6.674 -0.7179 -0.2812 -0.1366
 5062SOL    HW126822   2.185   0.069   6.680 -1.1479  2.5711  0.4859
 5062SOL    HW226823   2.314   0.001   6.706  0.3539 -0.3864 -1.5666
 5063SOL     OW26824   2.554   1.548   1.461  0.1914  0.1228 -0.4329
 5063SOL    HW126825   2.514   1.614   1.404 -0.9223 -0.4227 -0.2948
 5063SOL    HW226826   2.504   1.468   1.440 -1.0292  0.5484  0.8525
 5064SOL     OW26827   4.247   2.038   4.068  0.2496 -0.6842 -0.0277
 5064SOL    HW126828   4.338   2.054   4.094 -0.8331  1.4271  2.4403
 5064SOL    HW226829   4.219   2.016   4.157  0.4503 -2.4242 -0.4053
 5065SOL     OW26830   1.632   0.709  15.832  1.0402  0.2776 -0.0912
 5065SOL    HW126831   1.601   0.797  15.810  0.7985  0.5225  1.2643
 5065SOL    HW226832   1.605   0.706  15.923  0.1109  2.3058 -0.2903
 5066SOL     OW26833   0.096   0.169  17.741 -0.6033  0.2309  0.1872
 5066SOL    HW126834   0.137   0.251  17.713 -1.4235  0.2773 -0.8653
 5066SOL    HW226835   0.004   0.193  17.752 -1.5371 -2.4935 -1.8814
 5067SOL     OW26836   1.339   0.473   7.874 -0.3314 -0.0481  0.0616
 5067SOL    HW126837   1.268   0.531   7.846 -1.9049 -1.8850  0.2539
 5067SOL    HW226838   1.395   0.534   7.922  0.2346 -0.4990 -0.0319
 5068SOL     OW26839   0.981   1.431  15.664  0.7868  0.4649  0.0145
 5068SOL    HW126840   0.963   1.373  15.738  1.8326  1.4169  1.0170
 5068SOL    HW226841   1.076   1.420  15.669  0.8753  1.6381  0.8740
 5069SOL     OW26842   0.048   4.396   6.349 -0.1976 -0.1842 -0.2159
 5069SOL    HW126843   0.141   4.406   6.368  0.3004 -1.2475 -2.0795
 5069SOL    HW226844   0.020   4.445   6.426  1.5137  0.7774 -0.2132
 5070SOL     OW26845   3.054   3.545  15.605  0.2561 -0.2663  0.0564
 5070SOL    HW126846   3.007   3.534  15.522 -0.7055  1.5001  0.3730
 5070SOL    HW226847   3.144   3.530  15.576  0.3638  1.5266 -0.4886
 5071SOL     OW26848   0.680   1.534  14.266 -0.1748 -0.0339  0.3202
 5071SOL    HW126849   0.599   1.491  14.293  1.4269 -2.4108  1.3115
 5071SOL    HW226850   0.659   1.581  14.185  1.1530  0.5444  0.3013
 5072SOL     OW26851   3.894   4.713   3.622  0.2092 -0.3770 -0.0817
 5072SOL    HW126852   3.938   4.734   3.539  1.5736 -1.1167  0.4543
 5072SOL    HW226853   3.929   0.034   3.688  2.4926 -1.7384 -0.0629
 5073SOL     OW26854   2.284   1.174  13.730 -0.0744  0.2250 -0.2076
 5073SOL    HW126855   2.252   1.259  13.700 -1.6485  0.0238  0.9544
 5073SOL    HW226856   2.344   1.154  13.658  1.2064 -1.3482  1.2745
 5074SOL     OW26857   1.279   4.458   3.070 -0.1230  0.5159 -0.7015
 5074SOL    HW126858   1.348   4.413   3.022 -0.6639  0.3706 -1.3424
 5074SOL    HW226859   1.246   4.388   3.127 -0.8366 -0.3741 -2.2196
 5075SOL     OW26860   0.390   4.035  15.436 -0.5558 -0.0795  0.6106
 5075SOL    HW126861   0.354   4.124  15.429 -2.1121 -0.6682  1.1069
 5075SOL    HW226862   0.436   4.025  15.353  1.2547 -0.3984  1.6483
 5076SOL     OW26863   4.671   2.132   3.264  0.3681 -0.5400 -0.0979
 5076SOL    HW126864   0.002   2.067   3.271 -0.0933 -1.1340 -0.9788
 5076SOL    HW226865   4.658   2.130   3.169  0.8459 -3.4422 -0.0946
 5077SOL     OW26866   4.709   1.498   2.773  0.3606  0.5398  0.0133
 5077SOL    HW126867   4.738   1.470   2.686 -0.9057 -1.4616  0.2445
 5077SOL    HW226868   4.656   1.574   2.749 -0.4333  0.2635  0.8923
 5078SOL     OW26869   1.238   2.219   5.556  0.3414  0.8418 -0.3301
 5078SOL    HW126870   1.285   2.263   5.485 -0.8305  1.4432 -0.7275
 5078SOL    HW226871   1.193   2.289   5.604  0.5474  1.5130 -1.1145
 5079SOL     OW26872   2.715   1.109   0.748 -0.0113 -0.9812  0.6160
 5079SOL    HW126873   2.642   1.168   0.729 -0.0472 -0.9152  0.9664
 5079SOL    HW226874   2.662   1.029   0.752  0.5093 -1.2315  2.7492
 5080SOL     OW26875   3.124   1.911   4.892 -0.5937 -0.2682  0.2702
 5080SOL    HW126876   3.206   1.919   4.843 -1.0322  0.7463 -0.3061
 5080SOL    HW226877   3.157   1.881   4.977 -0.9310  0.5479  0.6887
 5081SOL     OW26878   4.391   1.534   5.015  0.5073  0.3347  0.5635
 5081SOL    HW126879   4.361   1.457   4.968  0.0771  0.1290  1.1597
 5081SOL    HW226880   4.335   1.516   5.091  0.6302  1.1186  0.8459
 5082SOL     OW26881   0.920   2.256  12.314  0.1250 -0.0089 -0.0019
 5082SOL    HW126882   0.876   2.242  12.230  0.8220  0.1416 -0.3940
 5082SOL    HW226883   0.897   2.349  12.318  1.1310  0.2247  0.2114
 5083SOL     OW26884   4.546   0.452   8.294 -0.5150  0.1956 -0.2076
 5083SOL    HW126885   4.517   0.470   8.383 -0.4618  0.9153 -0.3348
 5083SOL    HW226886   4.541   0.541   8.259 -3.1947 -0.7664 -2.2905
 5084SOL     OW26887   4.070   2.765   8.578  0.1154  0.2794 -0.2148
 5084SOL    HW126888   4.076   2.859   8.595  0.6612  0.3943 -1.0138
 5084SOL    HW226889   4.132   2.765   8.505  0.0030 -0.3503 -0.3134
 5085SOL     OW26890   2.826   3.695   4.869 -0.3818  0.4263  0.4306
 5085SOL    HW126891   2.844   3.647   4.788  0.4147  1.1632  0.1710
 5085SOL    HW226892   2.784   3.775   4.838  1.5183  0.2395 -2.6960
 5086SOL     OW26893   3.950   2.448   7.771 -0.0085 -0.0589 -0.0856
 5086SOL    HW126894   3.942   2.484   7.682 -1.5635 -1.2691 -0.4459
 5086SOL    HW226895   3.893   2.511   7.814 -0.8571 -1.1647  0.4224
 5087SOL     OW26896   4.011   0.747  12.326  0.1282 -0.2758  0.1631
 5087SOL    HW126897   4.024   0.683  12.256 -2.8199 -0.4226 -0.2678
 5087SOL    HW226898   3.936   0.794  12.289  0.9845 -0.3372 -1.6477
 5088SOL     OW26899   0.557   0.426   3.440  0.4172  0.0790  0.0484
 5088SOL    HW126900   0.610   0.348   3.419 -0.1527  0.7306 -3.7285
 5088SOL    HW226901   0.562   0.472   3.357  1.5868 -1.2422 -0.6151
 5089SOL     OW26902   2.332   0.332   4.196  0.1065 -0.2387  0.1849
 5089SOL    HW126903   2.387   0.259   4.224 -1.1581  0.0734  3.4860
 5089SOL    HW226904   2.248   0.285   4.189  0.0787 -0.0390 -0.8751
 5090SOL     OW26905   1.347   1.726   7.092  0.2537 -0.6751  0.5326
 5090SOL    HW126906   1.294   1.751   7.016 -1.2932 -1.9891  1.1864
 5090SOL    HW226907   1.294   1.768   7.159  0.1175 -0.7782  0.4898
 5091SOL     OW26908   0.836   4.059   5.916  0.2246  0.4237 -1.1395
 5091SOL    HW126909   0.779   3.992   5.955  2.2697 -0.0400  1.0770
 5091SOL    HW226910   0.775   4.075   5.844 -1.2743 -1.6415 -0.3316
 5092SOL     OW26911   1.126   1.478  16.151  0.5493 -0.1523  0.0629
 5092SOL    HW126912   1.060   1.499  16.085 -0.6636 -2.9388  0.4229
 5092SOL    HW226913   1.149   1.569  16.170 -1.0104 -0.0615  1.5043
 5093SOL     OW26914   0.362   2.997   3.078 -0.0516 -0.4299  0.0391
 5093SOL    HW126915   0.289   2.992   3.140  1.3098  0.3342  1.6676
 5093SOL    HW226916   0.313   2.974   2.999 -2.2013 -1.1490  1.5620
 5094SOL     OW26917   0.969   0.289  17.103 -0.3055  0.8334  0.2254
 5094SOL    HW126918   1.022   0.282  17.024 -2.4888  1.9611 -1.3349
 5094SOL    HW226919   0.892   0.239  17.079 -0.2052 -0.8875  3.4989
 5095SOL     OW26920   1.683   3.550   9.738  0.2411  0.3349  0.4251
 5095SOL    HW126921   1.634   3.504   9.806  0.2913 -0.0206  0.2213
 5095SOL    HW226922   1.768   3.507   9.753  0.3037  0.3169  0.0376
 5096SOL     OW26923   4.371   3.962   5.299  0.3120 -0.4777 -0.0399
 5096SOL    HW126924   4.454   3.920   5.323  0.3134 -0.1505  0.5398
 5096SOL    HW226925   4.366   3.937   5.207  0.5475  2.2060 -0.7891
 5097SOL     OW26926   4.638   1.269  10.835  0.3558  0.2283 -0.2428
 5097SOL    HW126927   4.720   1.239  10.874  1.5106  1.1924 -1.8993
 5097SOL    HW226928   4.630   1.361  10.861  1.2412  0.3813 -0.5182
 5098SOL     OW26929   0.115   1.113  10.693 -0.2054  0.2814  0.4279
 5098SOL    HW126930   0.119   1.102  10.788  0.5539 -0.3626  0.3189
 5098SOL    HW226931   0.198   1.075  10.667  0.5833  3.0129 -0.9899
 5099SOL     OW26932   4.020   3.610   1.533  0.0450 -0.2316 -0.4839
 5099SOL    HW126933   3.970   3.586   1.456  1.0023  1.1447 -1.5463
 5099SOL    HW226934   4.069   3.529   1.544  0.8457  0.1732 -1.0870
 5100SOL     OW26935   1.580   1.131   1.537 -0.0097  0.2056  0.1662
 5100SOL    HW126936   1.596   1.215   1.580 -0.7625 -0.5115  1.8462
 5100SOL    HW226937   1.560   1.071   1.609 -0.7764  0.3173  0.0484
 5101SOL     OW26938   0.323   1.246   7.747 -0.3108 -0.1467  0.4715
 5101SOL    HW126939   0.231   1.236   7.721 -0.4717 -0.8867  1.3312
 5101SOL    HW226940   0.322   1.341   7.760  1.8956 -0.4488  2.9338
 5102SOL     OW26941   4.328   1.857   4.905 -0.5938 -0.3178 -0.2585
 5102SOL    HW126942   4.290   1.939   4.938  0.2760 -0.4906  1.1881
 5102SOL    HW226943   4.269   1.787   4.933 -2.1016  1.7553  1.8423
 5103SOL     OW26944   2.288   1.071  10.858  0.8461  0.0022  0.1133
 5103SOL    HW126945   2.217   1.120  10.815  0.0977  1.4462  2.9615
 5103SOL    HW226946   2.369   1.109  10.825  0.1362  0.7371 -0.7905
 5104SOL     OW26947   4.444   1.347   5.916  0.3765  0.0185  0.3133
 5104SOL    HW126948   4.484   1.260   5.918 -0.9360 -0.6197 -1.0172
 5104SOL    HW226949   4.354   1.322   5.895  1.2224 -1.6138 -1.3043
 5105SOL     OW26950   4.407   4.261   7.348 -0.8306 -0.6229 -0.1774
 5105SOL    HW126951   4.347   4.318   7.396 -0.2564 -0.2882  0.1383
 5105SOL    HW226952   4.354   4.262   7.268  2.2898 -0.8005 -2.2664
 5106SOL     OW26953   2.817   4.072   8.127 -0.2115  0.3012 -0.2374
 5106SOL    HW126954   2.858   4.108   8.048  0.6993  1.4703  0.7872
 5106SOL    HW226955   2.786   4.148   8.177 -0.9227  0.8914 -1.5566
 5107SOL     OW26956   2.736   1.214   8.440 -0.2411  0.3164  0.5364
 5107SOL    HW126957   2.658   1.211   8.496 -0.3038  1.7341  0.5381
 5107SOL    HW226958   2.740   1.309   8.429 -2.1164  0.5559  2.0148
 5108SOL     OW26959   2.259   1.230   8.864 -0.6339 -0.4223 -0.0328
 5108SOL    HW126960   2.233   1.176   8.790  0.0255 -3.6861  2.1384
 5108SOL    HW226961   2.176   1.258   8.902  0.8114  0.8662  2.1663
 5109SOL     OW26962   2.069   0.509   7.870 -0.7457 -0.0276 -0.4336
 5109SOL    HW126963   2.084   0.602   7.887  2.6708 -1.2020  3.0175
 5109SOL    HW226964   2.161   0.486   7.860 -0.4288  1.5865 -1.1700
 5110SOL     OW26965   2.486   3.713   3.714 -0.1635 -0.4355 -0.4239
 5110SOL    HW126966   2.403   3.759   3.724  0.5044  0.3063  1.7878
 5110SOL    HW226967   2.527   3.768   3.647 -1.4192  1.9520  0.7682
 5111SOL     OW26968   1.149   2.717   4.729 -0.5778 -0.2879 -0.4938
 5111SOL    HW126969   1.074   2.749   4.779 -1.8373 -2.8911 -0.7089
 5111SOL    HW226970   1.214   2.729   4.798 -1.6097 -0.2663  0.4737
 5112SOL     OW26971   0.826   1.615   3.654 -0.5011  0.5236  0.5353
 5112SOL    HW126972   0.801   1.560   3.580  0.1613  0.4231  0.3847
 5112SOL    HW226973   0.770   1.691   3.642 -1.4052 -0.2861 -0.2702
 5113SOL     OW26974   0.106   1.919   8.684 -0.1449  0.1617  0.3263
 5113SOL    HW126975   0.057   1.931   8.603 -0.1774  0.5421  0.4063
 5113SOL    HW226976   0.195   1.938   8.654 -0.9454  2.1495 -0.7578
 5114SOL     OW26977   1.221   2.061   7.049  0.2362  0.2015 -0.3058
 5114SOL    HW126978   1.228   2.023   6.962  0.4635  0.1101 -0.2476
 5114SOL    HW226979   1.132   2.034   7.073  0.8669  1.0053  3.0256
 5115SOL     OW26980   0.791   0.182  10.731 -0.3755 -0.3500  0.3013
 5115SOL    HW126981   0.696   0.172  10.742 -0.0877 -2.1045  1.2209
 5115SOL    HW226982   0.787   0.273  10.703 -2.9429 -0.8158 -0.8080
 5116SOL     OW26983   0.504   1.745  13.776 -0.3959 -0.0785 -0.0468
 5116SOL    HW126984   0.495   1.840  13.766  0.2280 -0.0271 -0.1559
 5116SOL    HW226985   0.466   1.708  13.697 -0.4494 -1.2791  0.5452
 5117SOL     OW26986   2.708   3.833  16.607 -0.2761 -1.0006 -0.6970
 5117SOL    HW126987   2.701   3.928  16.606  0.9116 -0.9265 -1.6073
 5117SOL    HW226988   2.625   3.808  16.568 -1.4976  2.0107 -0.0321
 5118SOL     OW26989   2.449   1.080   4.402 -0.0840  1.2091 -0.3254
 5118SOL    HW126990   2.501   1.062   4.323 -1.7091 -1.6399 -0.7253
 5118SOL    HW226991   2.368   1.106   4.357  0.9530  2.6208 -1.4007
 5119SOL     OW26992   0.150   1.035  15.137  0.2947  0.3729  0.3350
 5119SOL    HW126993   0.123   1.036  15.228  1.7908  1.4069  0.7634
 5119SOL    HW226994   0.192   0.949  15.138  0.0609  0.2607  0.4858
 5120SOL     OW26995   2.407   1.010   4.668  0.2291 -0.2703 -0.0984
 5120SOL    HW126996   2.420   1.033   4.576 -0.4701  1.2751  0.1966
 5120SOL    HW226997   2.324   1.053   4.685  0.9904  2.1299 -2.4815
 5121SOL     OW26998   4.112   2.161  14.874 -0.0585 -0.1038 -0.6387
 5121SOL    HW126999   4.125   2.225  14.945 -0.8210 -1.5227  0.7657
 5121SOL    HW227000   4.017   2.155  14.880  0.1010 -0.4987  1.7696
 5122SOL     OW27001   0.049   2.420   7.473  0.2195  0.0449 -0.1531
 5122SOL    HW127002   4.699   2.432   7.438  1.4784  0.9105 -3.0683
 5122SOL    HW227003   0.097   2.481   7.418 -0.0639  2.1723  1.9679
 5123SOL     OW27004   3.488   4.407   7.678  0.2910  0.0056  0.2188
 5123SOL    HW127005   3.528   4.464   7.744 -1.9081 -0.1588  1.7086
 5123SOL    HW227006   3.422   4.474   7.656  0.6385  0.0444 -0.6878
 5124SOL     OW27007   0.061   0.217  11.892 -0.2697 -0.4463 -0.2061
 5124SOL    HW127008   0.039   0.185  11.804  0.6335 -1.6192  0.0012
 5124SOL    HW227009   4.711   0.237  11.922 -1.1918 -0.4142 -2.8724
 5125SOL     OW27010   0.384   0.981   5.865  0.6422 -0.1408 -0.0420
 5125SOL    HW127011   0.294   0.984   5.831 -0.1991 -0.4549  2.1149
 5125SOL    HW227012   0.388   0.888   5.889 -1.5421 -0.0307  0.8079
 5126SOL     OW27013   2.254   2.781   6.425 -0.2410 -0.3037 -0.0872
 5126SOL    HW127014   2.229   2.691   6.405 -2.5971  0.2863  0.1288
 5126SOL    HW227015   2.210   2.799   6.508  1.4236 -0.2651  0.7692
 5127SOL     OW27016   3.016   4.647   2.746  0.1198  0.0293  0.3522
 5127SOL    HW127017   2.930   4.624   2.782 -0.4222  0.2256 -0.8025
 5127SOL    HW227018   3.026   4.707   2.819  1.8167  2.0700 -1.5842
 5128SOL     OW27019   3.600   3.317   1.678 -0.4970  0.0787 -0.4006
 5128SOL    HW127020   3.648   3.290   1.756 -0.7930 -0.8821 -0.5453
 5128SOL    HW227021   3.509   3.296   1.702 -0.1158 -2.8614 -1.5990
 5129SOL     OW27022   1.829   0.498   5.416  0.5294  0.0109  0.2838
 5129SOL    HW127023   1.773   0.535   5.484 -0.4303  0.3370 -0.6775
 5129SOL    HW227024   1.835   0.568   5.350 -0.2898 -1.9024 -1.8035
 5130SOL     OW27025   4.557   0.110   2.870 -0.0872  0.1086  0.2292
 5130SOL    HW127026   4.462   0.098   2.880 -0.5802  2.9121 -1.1582
 5130SOL    HW227027   4.564   0.200   2.902  0.5907  0.9530 -2.3321
 5131SOL     OW27028   2.060   3.355   7.389  0.3939  0.6384  0.1257
 5131SOL    HW127029   2.142   3.331   7.432  1.6767  0.4711 -2.4033
 5131SOL    HW227030   1.995   3.320   7.450  1.2834  0.0149  0.7188
 5132SOL     OW27031   2.274   1.732   2.204  0.3822  0.0139  0.5484
 5132SOL    HW127032   2.259   1.744   2.298 -0.0042  0.2022  0.4644
 5132SOL    HW227033   2.369   1.743   2.211  0.4072  1.6078 -2.3761
 5133SOL     OW27034   2.199   1.439   1.338  0.2119  0.1082  0.1648
 5133SOL    HW127035   2.174   1.439   1.431 -1.3879 -1.1493 -0.2668
 5133SOL    HW227036   2.132   1.483   1.285 -2.6323 -2.1038  1.9271
 5134SOL     OW27037   1.098   3.891   6.933  0.1346  0.2083 -0.0357
 5134SOL    HW127038   1.129   3.835   6.862 -0.1012 -0.7491  0.6045
 5134SOL    HW227039   1.172   3.880   6.993  1.9239 -0.9788 -2.4742
 5135SOL     OW27040   4.284   3.757  12.367  0.4454 -0.3376 -0.5312
 5135SOL    HW127041   4.260   3.780  12.277  1.4333  2.5947 -0.0436
 5135SOL    HW227042   4.223   3.684  12.378 -0.7324  0.8250  0.6738
 5136SOL     OW27043   3.924   3.822  12.994  0.1634  0.9025  0.0291
 5136SOL    HW127044   3.984   3.753  12.967 -2.4575 -0.3205 -2.6947
 5136SOL    HW227045   3.974   3.882  13.050  2.5152 -1.0391  0.0163
 5137SOL     OW27046   0.043   1.499   0.526  0.4410 -0.0073  0.1152
 5137SOL    HW127047   0.067   1.424   0.472  2.2697  1.1410 -0.6837
 5137SOL    HW227048   0.132   1.535   0.522  0.4851  0.1066  1.8909
 5138SOL     OW27049   1.776   2.870  10.237 -0.5435 -0.3018  0.4684
 5138SOL    HW127050   1.823   2.953  10.245 -1.2166  0.0987  0.2616
 5138SOL    HW227051   1.729   2.902  10.160  1.4757 -0.9814 -1.0668
 5139SOL     OW27052   1.735   2.344   3.173  0.1983  0.1393 -0.3142
 5139SOL    HW127053   1.739   2.267   3.230 -0.1605  1.4212  1.4290
 5139SOL    HW227054   1.714   2.300   3.090 -1.0566 -0.1340  0.1519
 5140SOL     OW27055   1.732   1.020   2.737 -0.0228 -0.5334 -0.0386
 5140SOL    HW127056   1.677   1.079   2.684  1.8857  0.0277 -1.3712
 5140SOL    HW227057   1.672   0.949   2.761 -0.1941  0.0008  1.0952
 5141SOL     OW27058   2.826   4.681   7.316 -0.2143  0.0892 -0.6242
 5141SOL    HW127059   2.808   4.587   7.320  1.7210 -0.2973 -0.8625
 5141SOL    HW227060   2.747   4.735   7.312 -0.1668  0.0826 -1.7122
 5142SOL     OW27061   4.294   1.454  12.343  0.1059  0.0463  0.0122
 5142SOL    HW127062   4.371   1.472  12.397 -0.4008  2.0975  0.0280
 5142SOL    HW227063   4.241   1.405  12.406  1.7477 -2.2376 -0.3787
 5143SOL     OW27064   1.672   2.414   6.874  0.8075  0.1014  0.3347
 5143SOL    HW127065   1.615   2.355   6.824  0.0704  1.9885 -1.0627
 5143SOL    HW227066   1.668   2.492   6.818  1.8340 -0.0207  0.1100
 5144SOL     OW27067   0.522   2.118   6.679 -0.0445  0.0342 -0.3755
 5144SOL    HW127068   0.529   2.200   6.631  2.8335  0.1057  0.1851
 5144SOL    HW227069   0.431   2.108   6.709 -0.9782 -0.6705 -3.4712
 5145SOL     OW27070   3.342   4.127  13.352 -0.2729 -0.2888  0.1818
 5145SOL    HW127071   3.292   4.139  13.432  1.4312 -1.2127  1.3776
 5145SOL    HW227072   3.395   4.052  13.379  0.3863 -0.3838 -1.3542
 5146SOL     OW27073   2.868   1.945   4.776 -0.2820 -0.2415  0.0920
 5146SOL    HW127074   2.940   1.944   4.839  1.1159  1.1630 -1.4503
 5146SOL    HW227075   2.914   1.928   4.694 -0.5984  1.9114 -0.5479
 5147SOL     OW27076   0.086   1.175  13.515  0.2204  0.2297 -0.5560
 5147SOL    HW127077   0.150   1.131  13.571  0.5663  1.5347  0.0811
 5147SOL    HW227078   0.135   1.172  13.433  2.1193 -1.3421  0.6343
 5148SOL     OW27079   1.004   4.018   1.562 -0.1121 -0.2231 -0.5952
 5148SOL    HW127080   0.977   4.107   1.585 -0.8990 -0.2022 -1.5858
 5148SOL    HW227081   0.984   3.973   1.644  0.2750  2.3032  0.8905
 5149SOL     OW27082   2.840   3.956   2.905  0.0139 -0.0827  0.4347
 5149SOL    HW127083   2.789   4.037   2.916 -2.0713 -1.3037 -0.2662
 5149SOL    HW227084   2.816   3.939   2.814  0.8404 -0.8188  0.3560
 5150SOL     OW27085   3.488   1.410   9.768  0.6575  0.7518 -0.2144
 5150SOL    HW127086   3.479   1.392   9.861  1.7610 -0.1357 -0.2739
 5150SOL    HW227087   3.402   1.371   9.752  1.1320 -0.9148  1.2962
 5151SOL     OW27088   3.211   0.681   3.132 -0.0218  0.0601 -0.0411
 5151SOL    HW127089   3.144   0.744   3.159 -0.0250 -0.0246  0.1507
 5151SOL    HW227090   3.253   0.717   3.054  0.5553  1.3713  0.8746
 5152SOL     OW27091   1.922   3.502   8.050 -0.0734  0.0191 -0.0423
 5152SOL    HW127092   2.011   3.469   8.035 -0.6464 -1.8012  0.6946
 5152SOL    HW227093   1.945   3.593   8.029  1.6256 -0.6211 -1.0036
 5153SOL     OW27094   2.291   0.090  15.988 -0.2296 -0.4427 -0.3234
 5153SOL    HW127095   2.337   0.060  15.910  0.2369 -0.0349 -0.2070
 5153SOL    HW227096   2.201   0.079  15.955 -0.4845  0.6667 -0.0191
 5154SOL     OW27097   3.988   3.978   1.837  0.2034  0.0593 -0.1575
 5154SOL    HW127098   4.040   3.931   1.773  0.6247  0.6937 -0.2816
 5154SOL    HW227099   4.003   3.948   1.927  1.7393 -1.0353 -0.7805
 5155SOL     OW27100   3.847   1.590  10.276  0.5288 -0.6120 -0.1208
 5155SOL    HW127101   3.832   1.625  10.364 -0.4328 -1.1581 -0.0644
 5155SOL    HW227102   3.940   1.585  10.253  0.8799  1.3581  0.8959
 5156SOL     OW27103   0.571   4.140   8.159 -0.1712 -0.0536  0.4295
 5156SOL    HW127104   0.494   4.090   8.188  0.0922 -1.5907 -1.4484
 5156SOL    HW227105   0.551   4.229   8.185  1.2894  0.7207 -1.1141
 5157SOL     OW27106   4.062   1.908  10.710  0.1867  0.7378  0.4846
 5157SOL    HW127107   4.037   1.899  10.618  0.8021 -0.9393  0.4852
 5157SOL    HW227108   4.119   1.833  10.727 -0.1183  0.0655 -1.4916
 5158SOL     OW27109   1.284   1.167  15.864  0.1204  0.5200  0.1266
 5158SOL    HW127110   1.198   1.195  15.895  0.6740  0.1838  1.9291
 5158SOL    HW227111   1.319   1.127  15.943 -0.1616 -0.6220 -0.3277
 5159SOL     OW27112   2.837   3.943  12.665  0.1741 -0.2205  0.4120
 5159SOL    HW127113   2.912   4.001  12.653 -0.7198  0.5977 -1.1561
 5159SOL    HW227114   2.832   3.916  12.573 -0.8625 -0.6648  0.5975
 5160SOL     OW27115   2.855   3.212   1.535 -0.3877  0.4324  0.7392
 5160SOL    HW127116   2.950   3.219   1.526 -0.3157 -1.9386 -0.4740
 5160SOL    HW227117   2.828   3.302   1.552  3.6676  1.7323  0.2258
 5161SOL     OW27118   2.941   4.051   3.554 -0.1060 -1.0347  0.3090
 5161SOL    HW127119   2.977   3.965   3.571  2.0095 -0.1143  0.5032
 5161SOL    HW227120   2.860   4.045   3.605  0.1972  1.2951  1.0647
 5162SOL     OW27121   0.709   3.850   9.072  0.4097 -0.1295  0.0529
 5162SOL    HW127122   0.712   3.855   8.976  2.0148  2.1296  0.2173
 5162SOL    HW227123   0.659   3.931   9.080 -0.2391 -0.3504 -1.5978
 5163SOL     OW27124   2.290   3.540   3.773  0.4100 -0.1374  0.4405
 5163SOL    HW127125   2.375   3.579   3.754  0.8811 -1.1202  0.5325
 5163SOL    HW227126   2.307   3.455   3.812 -3.5081 -0.8564  0.6499
 5164SOL     OW27127   1.775   2.359   5.287 -0.1578 -0.1799  0.0398
 5164SOL    HW127128   1.780   2.414   5.364 -1.1582  1.2254 -0.9044
 5164SOL    HW227129   1.721   2.407   5.224 -0.1804 -0.8146 -0.4241
 5165SOL     OW27130   4.201   2.938   3.865 -0.3058  0.1354  0.0203
 5165SOL    HW127131   4.184   2.910   3.775  3.0349 -0.8593 -0.3299
 5165SOL    HW227132   4.117   2.923   3.908  0.3497  0.7471  1.4828
 5166SOL     OW27133   0.013   3.478   5.474 -0.1518  0.4417  0.6384
 5166SOL    HW127134   0.071   3.413   5.435 -0.6211  0.2944  0.1799
 5166SOL    HW227135   4.666   3.434   5.475  0.7155 -1.2731  0.4833
 5167SOL     OW27136   0.895   0.130   7.905 -0.0976 -0.6346  0.2771
 5167SOL    HW127137   0.874   0.142   7.812  1.9820  0.0000 -0.1120
 5167SOL    HW227138   0.987   0.157   7.907  0.2017 -1.6149 -0.5655
 5168SOL     OW27139   4.499   1.651   2.598  0.0424  0.2810 -0.2515
 5168SOL    HW127140   4.516   1.570   2.549  0.4421  0.3372 -0.2041
 5168SOL    HW227141   4.446   1.618   2.670  1.5388 -2.0048 -0.1960
 5169SOL     OW27142   0.308   2.525  16.615  0.1077  0.1812  0.4932
 5169SOL    HW127143   0.350   2.483  16.690 -0.3645  1.6400  1.5966
 5169SOL    HW227144   0.265   2.597  16.662 -0.8581  0.8724 -1.4482
 5170SOL     OW27145   0.139   3.696  14.718  0.4201  0.1830 -0.0169
 5170SOL    HW127146   0.096   3.638  14.655  2.7299  1.9740 -3.2952
 5170SOL    HW227147   0.155   3.769  14.658  0.1836 -0.0331 -0.3450
 5171SOL     OW27148   1.719   3.210  16.337 -0.2012 -0.1300 -0.5067
 5171SOL    HW127149   1.632   3.249  16.326  0.2282  0.8793 -0.3206
 5171SOL    HW227150   1.741   3.181  16.248  0.1816 -1.4726  0.0347
 5172SOL     OW27151   0.768   0.408  10.957  0.2261  0.2850 -0.1228
 5172SOL    HW127152   0.773   0.336  11.020  0.5453  1.9751  1.8076
 5172SOL    HW227153   0.856   0.444  10.971  0.3063  0.3787 -0.9072
 5173SOL     OW27154   2.050   4.530   6.570  0.5903  0.0457  0.6666
 5173SOL    HW127155   2.043   4.505   6.662 -0.5716 -2.1063  0.0044
 5173SOL    HW227156   2.009   4.616   6.563  0.8161  0.1461  0.5495
 5174SOL     OW27157   2.739   0.100   4.090  0.1569 -0.4792 -0.0904
 5174SOL    HW127158   2.817   0.110   4.144 -1.2259  0.6722  1.7068
 5174SOL    HW227159   2.697   0.022   4.128  2.2230 -1.2629  0.5762
 5175SOL     OW27160   3.504   4.501   3.728  0.3416 -0.2031 -0.3920
 5175SOL    HW127161   3.559   4.506   3.806  0.8471 -2.6023 -0.5937
 5175SOL    HW227162   3.486   4.407   3.716 -0.9769  0.3018 -2.4775
 5176SOL     OW27163   3.355   2.313   6.122 -0.1559 -0.1609 -0.0396
 5176SOL    HW127164   3.321   2.252   6.057 -0.4222 -0.0946  0.0355
 5176SOL    HW227165   3.284   2.310   6.187 -0.5365 -0.7286 -0.4728
 5177SOL     OW27166   1.029   0.872   2.383 -0.2608  0.2596  0.2038
 5177SOL    HW127167   1.047   0.903   2.471 -1.8787 -0.3836  0.7657
 5177SOL    HW227168   0.939   0.902   2.371 -0.2433 -0.0242 -0.7029
 5178SOL     OW27169   1.060   3.801   2.710 -0.5363  0.6409  0.2479
 5178SOL    HW127170   0.965   3.789   2.707 -0.2414 -1.4865 -1.1750
 5178SOL    HW227171   1.065   3.895   2.725  1.0432  0.6057 -0.0349
 5179SOL     OW27172   0.993   1.923   3.107  0.3443 -0.1097  0.4131
 5179SOL    HW127173   1.051   1.850   3.086  1.0664 -0.2880  3.0649
 5179SOL    HW227174   1.016   1.981   3.034  2.3118 -0.4979  0.7261
 5180SOL     OW27175   2.740   0.718   2.894 -0.5532 -0.3567  0.0167
 5180SOL    HW127176   2.707   0.776   2.962  2.0437 -0.7593  1.6455
 5180SOL    HW227177   2.691   0.739   2.815 -2.3273 -1.5522  0.8091
 5181SOL     OW27178   1.372   3.136   7.935 -0.0770  0.4030  0.4398
 5181SOL    HW127179   1.433   3.073   7.897 -0.1052  0.5256  0.1934
 5181SOL    HW227180   1.312   3.081   7.986 -0.4047  0.3873  0.0346
 5182SOL     OW27181   2.833   2.302   8.971  0.2819  0.0479  0.2879
 5182SOL    HW127182   2.848   2.238   8.902  0.4910 -1.1173  1.4155
 5182SOL    HW227183   2.911   2.355   8.955 -0.7798  1.5919  0.1785
 5183SOL     OW27184   0.870   0.659  16.096 -0.1733  0.5635 -0.7423
 5183SOL    HW127185   0.865   0.750  16.066  1.3161  1.0415  0.4937
 5183SOL    HW227186   0.809   0.611  16.040  0.9047 -1.8293  0.1450
 5184SOL     OW27187   1.820   4.106   5.688 -0.0962 -0.3629 -0.3447
 5184SOL    HW127188   1.734   4.147   5.687  0.3377  0.5859  0.8861
 5184SOL    HW227189   1.850   4.125   5.599 -0.7261 -1.4691 -0.7918
 5185SOL     OW27190   2.586   3.688   5.816  0.2176 -0.0559  0.0579
 5185SOL    HW127191   2.526   3.728   5.753  0.5379 -0.9640 -0.8194
 5185SOL    HW227192   2.673   3.703   5.779  0.1417 -1.3399 -0.6532
 5186SOL     OW27193   4.551   3.144  17.433  0.6559 -0.3346 -0.3800
 5186SOL    HW127194   4.480   3.089  17.467  0.9555  0.4666  1.5305
 5186SOL    HW227195   4.618   3.125  17.499  1.5334 -0.7011 -1.3624
 5187SOL     OW27196   1.139   0.312   6.449 -0.4710  0.3278 -0.1388
 5187SOL    HW127197   1.174   0.401   6.451 -0.3875  0.3160 -0.9326
 5187SOL    HW227198   1.118   0.304   6.356 -2.4476  2.8522  0.0953
 5188SOL     OW27199   3.742   4.349   1.850  0.3390 -0.1101 -0.2639
 5188SOL    HW127200   3.814   4.348   1.788  0.8992 -0.5387  0.3905
 5188SOL    HW227201   3.710   4.438   1.839 -2.5513 -1.4241 -2.4895
 5189SOL     OW27202   3.218   1.523   8.403  0.0504  1.1130  0.5737
 5189SOL    HW127203   3.165   1.451   8.368  0.5279  0.5997  0.9004
 5189SOL    HW227204   3.292   1.475   8.441  0.1955  1.9872  1.3749
 5190SOL     OW27205   2.616   0.831   7.927  0.5778  0.3595  0.2970
 5190SOL    HW127206   2.526   0.800   7.927  0.9367 -0.6560 -1.3027
 5190SOL    HW227207   2.646   0.754   7.976  0.6554 -0.0703 -0.4305
 5191SOL     OW27208   1.971   3.582   7.225  0.6914  0.0730 -0.4903
 5191SOL    HW127209   1.905   3.602   7.292  0.1862  0.2926 -1.0531
 5191SOL    HW227210   2.016   3.501   7.250  1.1522  0.9152  1.3547
 5192SOL     OW27211   0.122   3.736   8.781  0.6361  0.0622  0.1425
 5192SOL    HW127212   0.177   3.668   8.821  0.4808 -0.2091 -0.1015
 5192SOL    HW227213   0.043   3.739   8.834  1.7350 -1.4911  1.8440
 5193SOL     OW27214   0.242   0.560   2.075  0.6224 -0.0889 -0.2243
 5193SOL    HW127215   0.149   0.583   2.079  0.9636  0.6808  2.6405
 5193SOL    HW227216   0.239   0.468   2.101  1.1805  0.0267  0.2402
 5194SOL     OW27217   0.162   0.222   0.987  0.2778 -0.2597  0.1938
 5194SOL    HW127218   0.233   0.209   1.050  2.2171 -0.0280 -1.9490
 5194SOL    HW227219   0.195   0.188   0.904 -2.0837 -0.7507 -0.5642
 5195SOL     OW27220   3.522   3.798   4.974  0.0212 -0.4037 -0.2843
 5195SOL    HW127221   3.609   3.784   5.011  0.0071 -0.8330 -0.4185
 5195SOL    HW227222   3.519   3.745   4.895 -0.0041 -0.3329 -0.3312
 5196SOL     OW27223   2.954   1.558   1.908 -0.0997  0.4668  0.7290
 5196SOL    HW127224   3.011   1.535   1.981 -1.6512 -1.9792  1.1766
 5196SOL    HW227225   2.969   1.477   1.858  0.8969  0.0010  1.7952
 5197SOL     OW27226   2.036   3.567   9.980 -0.8568 -0.0571 -0.2720
 5197SOL    HW127227   1.978   3.636   9.947 -0.5245 -0.8460 -2.5196
 5197SOL    HW227228   1.977   3.496  10.006 -1.1868  0.3070 -0.0321
 5198SOL     OW27229   4.411   0.045   6.511  0.1578  0.2802 -0.3422
 5198SOL    HW127230   4.481   0.107   6.534  0.0352  1.0847 -2.1555
 5198SOL    HW227231   4.381   0.080   6.427 -0.2458  1.1065  0.1471
 5199SOL     OW27232   4.375   3.948  16.423  0.7365  0.2696  0.1403
 5199SOL    HW127233   4.453   3.911  16.382  0.7547 -0.0279  0.4434
 5199SOL    HW227234   4.403   4.022  16.476 -0.3214  0.4629  0.4379
 5200SOL     OW27235   2.589   1.480   9.463  0.1375  0.3413 -0.1463
 5200SOL    HW127236   2.575   1.396   9.421  0.6422  0.4034 -0.4327
 5200SOL    HW227237   2.600   1.538   9.388 -1.4349  0.2635 -0.4399
 5201SOL     OW27238   3.878   2.286   3.424 -0.0626 -0.3894  0.1407
 5201SOL    HW127239   3.817   2.219   3.455  2.4092 -2.6933  0.0121
 5201SOL    HW227240   3.825   2.339   3.366  0.8257  1.2424  0.8195
 5202SOL     OW27241   3.904   3.849  14.789  0.1540  0.3955 -0.7780
 5202SOL    HW127242   3.985   3.842  14.737  0.5427  0.0285 -0.1246
 5202SOL    HW227243   3.945   3.877  14.870 -0.5695  0.2985 -0.3825
 5203SOL     OW27244   1.220   4.262   2.772  0.1956 -0.2790  0.3588
 5203SOL    HW127245   1.299   4.277   2.721  2.3537 -2.5508  3.0083
 5203SOL    HW227246   1.254   4.186   2.819 -0.2136 -1.9433 -2.1005
 5204SOL     OW27247   4.494   3.569  13.700 -0.1419 -0.3708  0.7117
 5204SOL    HW127248   4.579   3.547  13.740  0.8138  1.3752 -0.4006
 5204SOL    HW227249   4.494   3.664  13.709  0.1323 -0.2965 -0.0830
 5205SOL     OW27250   2.356   2.746   3.408 -0.1090 -0.3736 -0.3699
 5205SOL    HW127251   2.435   2.758   3.356  0.6120 -1.8663  0.3837
 5205SOL    HW227252   2.308   2.827   3.390  0.3100 -0.1141 -0.3243
 5206SOL     OW27253   0.924   3.515   6.315 -0.3086 -0.7215 -0.2769
 5206SOL    HW127254   0.878   3.580   6.370  1.0001  0.6782 -0.8531
 5206SOL    HW227255   0.839   3.472   6.305 -1.4870  0.9620  2.4908
 5207SOL     OW27256   3.096   1.901  12.321  0.1836  0.4610 -0.6762
 5207SOL    HW127257   3.076   1.869  12.233  1.5342  0.2097 -0.8934
 5207SOL    HW227258   3.106   1.991  12.290 -0.0948  0.8391  0.3377
 5208SOL     OW27259   0.313   3.381   6.326  0.8093 -0.5621  0.2144
 5208SOL    HW127260   0.367   3.405   6.401  0.9803 -1.7263  0.4612
 5208SOL    HW227261   0.296   3.461   6.275  2.2143  0.2593  1.0111
 5209SOL     OW27262   2.333   1.843   1.928  0.2345  0.0157  0.3212
 5209SOL    HW127263   2.357   1.789   1.853 -0.7262  0.1529 -0.0845
 5209SOL    HW227264   2.351   1.779   1.997  0.4031 -0.6769 -0.3657
 5210SOL     OW27265   3.008   4.656   5.762 -0.4034  0.3803 -0.6293
 5210SOL    HW127266   2.990   4.624   5.674  0.7071  0.8390 -1.0257
 5210SOL    HW227267   2.926   4.664   5.810 -0.8297 -2.6617 -0.8569
 5211SOL     OW27268   0.298   2.437   2.494 -0.2093 -0.4997  0.2581
 5211SOL    HW127269   0.371   2.378   2.476  2.7009  2.8346  1.1787
 5211SOL    HW227270   0.267   2.446   2.404 -0.1204 -0.7167  0.2069
 5212SOL     OW27271   1.097   0.292  11.455  0.3269 -0.2256 -0.8319
 5212SOL    HW127272   1.154   0.269  11.529 -0.4635  0.0993 -0.1262
 5212SOL    HW227273   1.076   0.204  11.426  0.8169 -1.1328  1.5509
 5213SOL     OW27274   0.590   4.271   8.604  0.0340 -0.3511 -0.1432
 5213SOL    HW127275   0.665   4.219   8.574 -1.1245 -0.9440 -2.0026
 5213SOL    HW227276   0.527   4.232   8.543  0.8746 -0.8619 -0.6836
 5214SOL     OW27277   1.116   3.830   7.701 -0.4973 -0.3560  0.1563
 5214SOL    HW127278   1.195   3.874   7.669 -0.2249 -0.6214  0.4710
 5214SOL    HW227279   1.106   3.891   7.774  2.3427  0.9540 -0.5294
 5215SOL     OW27280   3.453   3.793   5.268 -0.2385 -0.2160 -0.6317
 5215SOL    HW127281   3.430   3.702   5.286  0.2979  0.1991  2.2452
 5215SOL    HW227282   3.508   3.783   5.190  0.3079  1.6514 -0.4798
 5216SOL     OW27283   2.804   1.296  11.223 -0.1389 -0.4250 -0.2172
 5216SOL    HW127284   2.724   1.336  11.257 -0.0598 -0.2477 -0.2397
 5216SOL    HW227285   2.860   1.373  11.223 -0.6894 -0.0247  1.8761
 5217SOL     OW27286   0.656   2.037   4.860 -0.0664 -0.1022 -0.1935
 5217SOL    HW127287   0.560   2.040   4.852  0.0669  3.2964 -0.9586
 5217SOL    HW227288   0.673   2.008   4.949 -0.2112  1.7491  0.4367
 5218SOL     OW27289   3.315   2.274   6.571  0.3958 -0.2629  1.1897
 5218SOL    HW127290   3.331   2.227   6.653  0.3096 -1.8556  0.2892
 5218SOL    HW227291   3.387   2.336   6.575 -0.0412  0.2116  1.5937
 5219SOL     OW27292   0.632   1.865   9.720  0.7163 -0.1992  0.3540
 5219SOL    HW127293   0.699   1.797   9.714  1.3722  0.6299 -1.5747
 5219SOL    HW227294   0.555   1.833   9.673  0.4466  1.8626 -0.6113
 5220SOL     OW27295   2.436   0.528  16.048 -0.3847  0.3577  0.4574
 5220SOL    HW127296   2.444   0.517  15.953 -0.5391  2.0781  0.2437
 5220SOL    HW227297   2.347   0.499  16.068 -1.2678  1.5608 -1.7118
 5221SOL     OW27298   3.641   2.362   1.561 -0.1589 -0.7452 -0.0504
 5221SOL    HW127299   3.695   2.337   1.485 -3.8676 -3.3687 -1.8145
 5221SOL    HW227300   3.595   2.438   1.525 -1.0001 -1.3964 -0.3643
 5222SOL     OW27301   3.530   1.571   3.198 -0.0906  0.4583  0.3370
 5222SOL    HW127302   3.521   1.492   3.252  1.2206  0.7137  0.9059
 5222SOL    HW227303   3.624   1.569   3.182  0.2114  2.4324  1.9234
 5223SOL     OW27304   1.395   2.063   4.263  0.7700 -0.4861  0.2656
 5223SOL    HW127305   1.455   2.123   4.218 -2.8234  2.0239 -1.2229
 5223SOL    HW227306   1.367   2.113   4.340 -0.1102 -0.4462 -0.0764
 5224SOL     OW27307   0.571   3.984   3.095 -0.2589  0.1839 -0.4960
 5224SOL    HW127308   0.638   4.004   3.161 -0.3922 -1.4850  0.1389
 5224SOL    HW227309   0.498   4.040   3.121  0.6329  0.4965  1.3252
 5225SOL     OW27310   1.871   1.439   0.653  0.0033  0.4349 -0.1208
 5225SOL    HW127311   1.904   1.526   0.675 -0.7403  0.5496  0.5318
 5225SOL    HW227312   1.916   1.414   0.572 -1.2755  0.6293 -0.8883
 5226SOL     OW27313   3.858   2.674  12.544 -0.1140  0.0879 -0.2818
 5226SOL    HW127314   3.932   2.728  12.571  0.0092 -0.4721  0.4902
 5226SOL    HW227315   3.794   2.716  12.601 -0.4826 -2.4359  1.1427
 5227SOL     OW27316   0.754   2.470   6.835 -0.3823  0.5135  0.0918
 5227SOL    HW127317   0.758   2.508   6.923 -2.6838  1.6208 -0.3037
 5227SOL    HW227318   0.664   2.439   6.830 -0.6288  1.1469  0.6144
 5228SOL     OW27319   3.717   4.062   6.393 -0.2117  1.0836  0.4308
 5228SOL    HW127320   3.764   4.121   6.335  1.4784 -0.9636 -0.2836
 5228SOL    HW227321   3.760   4.086   6.475  0.0959 -2.8153  1.4494
 5229SOL     OW27322   2.614   0.565   8.184 -0.0943  0.1192  0.0301
 5229SOL    HW127323   2.520   0.576   8.167 -0.3767 -0.6886  1.0438
 5229SOL    HW227324   2.613   0.494   8.248 -0.3600  0.0326 -0.0692
 5230SOL     OW27325   4.618   1.771   3.771 -0.3645  0.9279 -0.2471
 5230SOL    HW127326   4.629   1.738   3.682 -0.8051 -0.4524  0.2042
 5230SOL    HW227327   4.545   1.833   3.763  1.0219  2.8466  1.8582
 5231SOL     OW27328   0.274   3.252  15.358  0.6840  0.0792  0.1759
 5231SOL    HW127329   0.302   3.218  15.273  1.4050 -2.7233  1.5236
 5231SOL    HW227330   0.271   3.168  15.403  0.9659  1.2918  2.4252
 5232SOL     OW27331   4.085   2.826   2.690 -0.1369  0.1236  0.3973
 5232SOL    HW127332   4.085   2.737   2.726  1.7160  1.0081  2.5586
 5232SOL    HW227333   4.060   2.882   2.763  1.9070  0.1422  1.0822
 5233SOL     OW27334   4.389   0.789  10.111  0.4194 -0.0136 -0.1935
 5233SOL    HW127335   4.469   0.839  10.127 -1.0781  1.6469  2.2215
 5233SOL    HW227336   4.427   0.711  10.150  1.3123  1.4706  1.9285
 5234SOL     OW27337   0.477   0.236   4.864  0.6016  0.8834 -0.5148
 5234SOL    HW127338   0.532   0.251   4.787 -0.0813 -1.8164 -1.5035
 5234SOL    HW227339   0.513   0.304   4.921 -0.5519  0.0083  1.2563
 5235SOL     OW27340   4.401   2.672   7.136  0.1322 -0.2627 -0.3699
 5235SOL    HW127341   4.319   2.716   7.113  0.7990  1.3657  0.3728
 5235SOL    HW227342   4.469   2.740   7.128  0.0739 -0.1472  0.1344
 5236SOL     OW27343   4.164   0.838   0.330  0.1843  0.0055  1.0540
 5236SOL    HW127344   4.224   0.908   0.303 -0.3039  0.1526  0.3759
 5236SOL    HW227345   4.083   0.882   0.304 -0.8876 -2.6819 -0.0857
 5237SOL     OW27346   0.422   2.602   8.683  0.1245 -0.2213  0.3555
 5237SOL    HW127347   0.507   2.559   8.675  0.2365  0.4523 -2.3837
 5237SOL    HW227348   0.432   2.677   8.623 -1.6228 -0.2150  0.0657
 5238SOL     OW27349   3.501   0.997   8.278  0.3605  0.4634 -1.0736
 5238SOL    HW127350   3.447   0.960   8.209 -1.0550 -0.8290  0.7089
 5238SOL    HW227351   3.431   1.007   8.343  1.4581 -1.6091  0.4252
 5239SOL     OW27352   2.800   2.814  14.587  0.3516 -0.6400  0.3556
 5239SOL    HW127353   2.772   2.863  14.665  0.4799 -0.0946  0.0562
 5239SOL    HW227354   2.793   2.734  14.639 -0.5727 -1.5449 -1.1666
 5240SOL     OW27355   0.387   4.153   4.486  0.2620 -0.0044  0.9118
 5240SOL    HW127356   0.457   4.194   4.537  0.0056  1.7871 -0.1433
 5240SOL    HW227357   0.316   4.151   4.549 -2.0208 -0.3018 -1.6508
 5241SOL     OW27358   2.390   3.063   7.153 -0.1735 -0.2155  0.1903
 5241SOL    HW127359   2.474   3.099   7.182 -0.1484  0.2191 -0.4211
 5241SOL    HW227360   2.358   3.133   7.096 -2.7305 -0.4302  1.4001
 5242SOL     OW27361   0.162   2.743   6.886 -0.2586 -0.8478 -0.0228
 5242SOL    HW127362   0.224   2.757   6.814  0.8953  1.9872  1.5075
 5242SOL    HW227363   0.092   2.803   6.859  0.2945 -0.2469 -0.1543
 5243SOL     OW27364   1.815   3.548   3.147  0.1714 -0.0828  0.3803
 5243SOL    HW127365   1.786   3.456   3.152  2.5979 -0.8659 -0.0622
 5243SOL    HW227366   1.798   3.561   3.241  0.9479 -3.3031  0.9791
 5244SOL     OW27367   3.124   2.183  17.465 -0.0816  0.0171  0.3745
 5244SOL    HW127368   3.194   2.230  17.510  2.4717 -0.5148 -3.0156
 5244SOL    HW227369   3.175   2.104  17.443 -3.6351 -2.6744  1.8197
 5245SOL     OW27370   4.444   2.755   3.482  0.4409  0.4053  0.1416
 5245SOL    HW127371   4.472   2.762   3.391 -0.5687 -0.9779 -0.2734
 5245SOL    HW227372   4.530   2.751   3.524  0.6159  1.5271 -0.1264
 5246SOL     OW27373   0.790   3.467   1.924 -0.4987  0.1365 -0.2165
 5246SOL    HW127374   0.770   3.383   1.965  0.1785 -0.5337 -1.2439
 5246SOL    HW227375   0.883   3.466   1.946 -0.5835 -1.6771  0.1136
 5247SOL     OW27376   2.265   3.660   5.183  0.0163  0.6766  0.5946
 5247SOL    HW127377   2.326   3.689   5.251  0.8924 -1.0738  0.5333
 5247SOL    HW227378   2.288   3.568   5.179  0.7108  0.9027 -0.6696
 5248SOL     OW27379   0.445   3.571   7.971  0.0901  0.1017 -0.6844
 5248SOL    HW127380   0.418   3.519   8.047  0.8913 -1.6402 -1.6098
 5248SOL    HW227381   0.411   3.518   7.900 -0.5916 -0.5118  0.1000
 5249SOL     OW27382   2.842   3.687   2.527 -0.1948 -0.3538 -0.1583
 5249SOL    HW127383   2.863   3.624   2.458  1.4066 -0.2932  0.2665
 5249SOL    HW227384   2.927   3.720   2.557 -0.3881  0.8074 -0.8976
 5250SOL     OW27385   0.729   4.676  11.439  0.5966 -0.3850 -0.1648
 5250SOL    HW127386   0.742   4.700  11.347 -1.1470  0.6362 -0.1453
 5250SOL    HW227387   0.821   4.677  11.463  0.3713  1.1421  0.6187
 5251SOL     OW27388   1.664   4.531   6.574  0.5964 -1.2235 -0.2538
 5251SOL    HW127389   1.705   4.459   6.527  1.4929 -2.2358  2.0871
 5251SOL    HW227390   1.575   4.495   6.579  0.4742 -0.8732  0.1453
 5252SOL     OW27391   1.410   1.660   8.779 -0.5013  0.3467 -0.0185
 5252SOL    HW127392   1.487   1.638   8.726 -1.3284  1.2616 -1.6328
 5252SOL    HW227393   1.412   1.578   8.827 -0.6842 -0.1050 -0.7908
 5253SOL     OW27394   2.607   3.935   6.140  0.0242  0.0633 -0.2028
 5253SOL    HW127395   2.653   3.965   6.062 -1.5787  1.0346 -0.7752
 5253SOL    HW227396   2.664   3.983   6.200  1.4242 -1.5439 -0.2365
 5254SOL     OW27397   3.528   0.702  10.905  0.0521 -0.6951  0.2808
 5254SOL    HW127398   3.448   0.727  10.859  0.6203 -0.5567 -0.6246
 5254SOL    HW227399   3.483   0.657  10.976  2.8021 -3.1462  0.4527
 5255SOL     OW27400   2.054   1.633   7.209  0.6359  0.2476  0.0202
 5255SOL    HW127401   2.132   1.678   7.241  0.6537 -0.0844  0.4525
 5255SOL    HW227402   1.987   1.665   7.270 -0.3137 -0.0271 -0.8816
 5256SOL     OW27403   2.431   1.572  11.524 -0.0293 -0.1280  0.3402
 5256SOL    HW127404   2.345   1.584  11.485  0.1886  0.4175  0.0416
 5256SOL    HW227405   2.411   1.564  11.618 -3.9001  1.8794 -0.3354
 5257SOL     OW27406   3.286   0.831   3.942  0.1832 -0.3367  0.2882
 5257SOL    HW127407   3.251   0.860   3.858  0.4388  0.9303  0.6252
 5257SOL    HW227408   3.293   0.738   3.919  2.0377  0.6483 -2.9914
 5258SOL     OW27409   1.913   3.055   5.504 -0.5857  0.0818 -0.4526
 5258SOL    HW127410   1.928   3.081   5.413  2.0206 -1.7132 -0.5262
 5258SOL    HW227411   1.975   3.112   5.550 -2.4580  0.0539  2.0992
 5259SOL     OW27412   0.171   1.063  13.258  0.1384 -0.2025 -0.4155
 5259SOL    HW127413   0.210   1.007  13.191  0.5363 -1.2882  0.7107
 5259SOL    HW227414   0.102   1.004  13.288  0.4735 -0.0497  0.6595
 5260SOL     OW27415   3.408   1.282   9.193 -0.5272  0.2704  0.2166
 5260SOL    HW127416   3.322   1.321   9.181 -0.6721 -0.5459 -1.5131
 5260SOL    HW227417   3.393   1.216   9.260 -1.3980  0.1520 -0.0909
 5261SOL     OW27418   2.916   2.689   3.279 -0.3538 -0.1458 -0.5855
 5261SOL    HW127419   2.870   2.749   3.221  1.3344  0.7265 -1.0388
 5261SOL    HW227420   3.003   2.728   3.267 -0.5456  0.7179  0.7473
 5262SOL     OW27421   1.213   2.799  16.766  0.1190  0.0837 -0.2985
 5262SOL    HW127422   1.129   2.803  16.719 -0.7683  1.4416  1.3944
 5262SOL    HW227423   1.241   2.714  16.733  1.1325 -0.1935  1.2683
 5263SOL     OW27424   1.989   3.085  10.843  0.0236 -0.1463  0.2547
 5263SOL    HW127425   1.946   3.125  10.919 -2.6428  0.9123 -1.7797
 5263SOL    HW227426   2.080   3.109  10.860  0.5201 -1.5860 -0.4004
 5264SOL     OW27427   3.053   2.491  15.188 -0.0948  0.2729 -0.5655
 5264SOL    HW127428   3.081   2.400  15.188  0.5195  0.4610 -0.1938
 5264SOL    HW227429   3.138   2.530  15.208 -0.6982  0.2564  2.1190
 5265SOL     OW27430   0.705   4.685   6.687  0.2027  0.3764 -0.2845
 5265SOL    HW127431   0.754   4.608   6.715 -1.7131 -0.1545  1.5401
 5265SOL    HW227432   0.772   0.013   6.705  0.8232 -0.3368  0.0348
 5266SOL     OW27433   2.645   0.144   7.238  0.9525  0.2434 -0.0211
 5266SOL    HW127434   2.565   0.192   7.219  2.0075 -0.1659 -5.4792
 5266SOL    HW227435   2.645   0.073   7.173  1.2386  1.7631 -1.6623
 5267SOL     OW27436   4.493   4.601   8.772 -0.2108 -0.0749  0.7184
 5267SOL    HW127437   4.514   4.578   8.862 -0.9805  0.9930  1.1695
 5267SOL    HW227438   4.580   4.605   8.733  0.6310 -0.6622  2.5511
 5268SOL     OW27439   1.622   0.558   0.403 -0.0198 -0.1980  0.2507
 5268SOL    HW127440   1.551   0.613   0.435 -0.7203 -1.6184  1.1257
 5268SOL    HW227441   1.560   0.507   0.351 -0.5671 -0.6005  1.3038
 5269SOL     OW27442   1.796   4.580   0.356  0.1328  0.0583 -0.5817
 5269SOL    HW127443   1.796   4.637   0.433  1.0309  1.1331 -1.3791
 5269SOL    HW227444   1.856   4.511   0.383 -1.2314 -0.9273 -0.1151
 5270SOL     OW27445   2.848   2.429   3.275  0.0269 -0.2915 -0.0339
 5270SOL    HW127446   2.914   2.375   3.319  0.3970 -0.0048 -0.2458
 5270SOL    HW227447   2.878   2.518   3.292 -0.3266 -0.0273 -0.8261
 5271SOL     OW27448   0.977   4.561   7.836 -0.5265 -0.3551 -0.8915
 5271SOL    HW127449   1.064   4.532   7.807 -0.0530  0.3055 -0.1325
 5271SOL    HW227450   1.001   4.651   7.859  0.8545 -0.6047 -1.3240
 5272SOL     OW27451   1.613   4.477   5.391 -0.2000 -0.1048 -0.0508
 5272SOL    HW127452   1.578   4.517   5.311 -3.9615 -1.5740  0.8405
 5272SOL    HW227453   1.561   4.520   5.459  1.4504 -2.1269  2.4402
 5273SOL     OW27454   3.774   3.636   5.455 -0.4875  0.5660  0.4449
 5273SOL    HW127455   3.683   3.609   5.472 -0.8239 -0.1232 -2.4272
 5273SOL    HW227456   3.808   3.547   5.454  1.5234  1.3599 -0.8338
 5274SOL     OW27457   3.668   0.365   7.302  0.4708  0.4722  0.2700
 5274SOL    HW127458   3.627   0.390   7.385 -0.2961  1.4424 -0.3950
 5274SOL    HW227459   3.591   0.327   7.259 -0.0215  2.1684 -0.3663
 5275SOL     OW27460   0.953   2.970   8.199 -0.0706 -0.0045 -0.0361
 5275SOL    HW127461   0.981   2.927   8.280 -1.6184  2.4172  1.7672
 5275SOL    HW227462   0.862   2.941   8.198 -0.1081  0.1418 -0.7977
 5276SOL     OW27463   1.261   1.279  10.059 -0.1164  0.3819 -0.8224
 5276SOL    HW127464   1.266   1.349   9.994 -0.1716  0.2970 -0.9171
 5276SOL    HW227465   1.297   1.317  10.139  0.3522 -0.6147 -0.5716
 5277SOL     OW27466   0.412   4.299   9.252  0.5474 -0.5228  0.1847
 5277SOL    HW127467   0.473   4.369   9.276  2.0889 -1.1167 -1.9276
 5277SOL    HW227468   0.381   4.275   9.339 -2.2504 -0.1245 -0.7106
 5278SOL     OW27469   3.044   0.948   6.694 -0.6666 -0.0576 -0.0810
 5278SOL    HW127470   3.092   1.002   6.632  0.3146  0.5355  1.1796
 5278SOL    HW227471   3.052   0.859   6.658 -0.8335 -0.2067  0.2465
 5279SOL     OW27472   4.633   2.054   7.625  0.1624  0.1808 -0.4708
 5279SOL    HW127473   4.587   2.012   7.697 -0.9999 -1.1483 -1.9660
 5279SOL    HW227474   4.563   2.108   7.590  1.2919 -0.1874 -3.3140
 5280SOL     OW27475   4.117   3.139   2.622  0.2353 -0.5543 -0.2921
 5280SOL    HW127476   4.182   3.103   2.562  1.1255 -0.1041  0.3863
 5280SOL    HW227477   4.168   3.162   2.700  0.8517 -0.6034 -0.6857
 5281SOL     OW27478   0.329   0.781   8.209 -0.4510  0.6342 -0.2316
 5281SOL    HW127479   0.328   0.815   8.299 -2.7588  0.1372 -0.0800
 5281SOL    HW227480   0.407   0.829   8.179 -1.4065  0.1085 -3.4794
 5282SOL     OW27481   3.510   4.206  15.440 -0.1677  0.1739 -0.4798
 5282SOL    HW127482   3.509   4.114  15.464 -0.7249  0.6431  1.3136
 5282SOL    HW227483   3.451   4.192  15.366 -0.9045 -0.8180  0.2981
 5283SOL     OW27484   0.059   2.495   6.702 -0.5870 -0.1763 -0.3349
 5283SOL    HW127485   0.007   2.525   6.627  0.0921 -1.6495 -1.3943
 5283SOL    HW227486   0.074   2.575   6.752 -3.1404  0.0539  0.0808
 5284SOL     OW27487   0.816   2.956  11.306  0.2347  0.2054 -0.0822
 5284SOL    HW127488   0.774   3.022  11.250 -0.2731  1.5971  1.9235
 5284SOL    HW227489   0.743   2.902  11.339  0.2309 -0.1725 -0.7104
 5285SOL     OW27490   3.272   0.909   2.168 -0.3257  0.9483 -0.2810
 5285SOL    HW127491   3.210   0.982   2.164 -0.1994  1.1748  1.9512
 5285SOL    HW227492   3.218   0.831   2.178  0.8808  0.1636  0.0782
 5286SOL     OW27493   0.682   0.883   8.301  0.3612 -0.3748 -0.4531
 5286SOL    HW127494   0.758   0.848   8.347 -0.2597 -0.0572  0.7915
 5286SOL    HW227495   0.683   0.834   8.219  1.4346 -0.2880 -0.4964
 5287SOL     OW27496   4.174   3.387  14.551  0.5232 -0.3995 -0.0391
 5287SOL    HW127497   4.144   3.470  14.587 -1.5833 -0.7076 -1.1262
 5287SOL    HW227498   4.222   3.407  14.470  0.6610 -0.0465  0.1312
 5288SOL     OW27499   3.143   0.694  12.093  0.3168 -0.1900  0.1986
 5288SOL    HW127500   3.230   0.687  12.132  0.3386 -0.7573  0.0490
 5288SOL    HW227501   3.109   0.766  12.146 -0.1556 -0.4455  0.2423
 5289SOL     OW27502   3.962   1.644   4.092 -0.3563 -0.6019  0.5998
 5289SOL    HW127503   4.014   1.674   4.166  0.2992  2.0342 -0.9221
 5289SOL    HW227504   3.881   1.693   4.101 -0.5156 -0.3704 -1.9683
 5290SOL     OW27505   3.849   1.811  10.092 -0.4189  0.1791  0.3094
 5290SOL    HW127506   3.943   1.810  10.111 -0.1406 -2.2545 -1.2662
 5290SOL    HW227507   3.824   1.728  10.131  0.0510  0.7033  1.7096
 5291SOL     OW27508   0.222   0.891  14.594  0.8389  0.2950 -0.1816
 5291SOL    HW127509   0.179   0.870  14.511 -1.0853  1.0574  0.6435
 5291SOL    HW227510   0.176   0.836  14.658  0.9879 -1.9394 -1.9992
 5292SOL     OW27511   1.842   2.458   4.128  0.1003 -0.1213 -0.2307
 5292SOL    HW127512   1.930   2.441   4.163 -0.1019  0.8065  0.7107
 5292SOL    HW227513   1.868   2.543   4.093 -2.2138  1.1335  1.1207
 5293SOL     OW27514   4.141   1.737  11.364 -0.4706  0.5828  0.4819
 5293SOL    HW127515   4.223   1.766  11.404 -0.3295  0.6756  0.1286
 5293SOL    HW227516   4.098   1.676  11.425  0.0655  0.8566  1.1280
 5294SOL     OW27517   3.138   1.627  14.343 -0.1028 -0.0156  0.0398
 5294SOL    HW127518   3.209   1.600  14.286 -1.3580  0.1246 -1.6111
 5294SOL    HW227519   3.087   1.688  14.289  0.3164  0.1384 -0.1758
 5295SOL     OW27520   0.071   2.283   6.273 -0.6386  0.6028  0.0338
 5295SOL    HW127521   0.136   2.270   6.204 -1.6080  1.5510 -1.0663
 5295SOL    HW227522   0.125   2.281   6.352 -1.3433 -0.1328  0.4990
 5296SOL     OW27523   3.238   2.804   9.514  0.2038 -0.7861 -0.0636
 5296SOL    HW127524   3.259   2.711   9.500 -1.0768 -1.3215  1.6200
 5296SOL    HW227525   3.321   2.829   9.557 -0.7647 -0.4975  1.6520
 5297SOL     OW27526   1.571   0.714   1.000 -0.1208  0.6119  0.2079
 5297SOL    HW127527   1.569   0.808   1.017  0.8819  0.7918 -0.6606
 5297SOL    HW227528   1.488   0.689   1.040 -0.8384  0.3347 -1.4368
 5298SOL     OW27529   3.618   3.148  15.745  0.3414 -0.0082  0.3548
 5298SOL    HW127530   3.710   3.153  15.721  0.6415  2.1869  1.9401
 5298SOL    HW227531   3.620   3.057  15.774 -3.3091  0.1185  1.0497
 5299SOL     OW27532   1.295   3.814   5.105 -1.0571  0.0276 -0.2216
 5299SOL    HW127533   1.334   3.794   5.189  0.9480  0.8637 -0.9539
 5299SOL    HW227534   1.255   3.900   5.116 -1.4991 -0.1500 -0.4156
 5300SOL     OW27535   1.706   0.921   0.560  0.2522  0.3806 -0.5653
 5300SOL    HW127536   1.764   0.910   0.484  1.5476 -2.3284  0.8253
 5300SOL    HW227537   1.721   1.001   0.610 -0.9495 -1.1757  2.2502
 5301SOL     OW27538   3.455   4.186   5.680  0.1750 -0.3221 -0.3379
 5301SOL    HW127539   3.482   4.276   5.664  0.3802 -0.1107  1.1228
 5301SOL    HW227540   3.442   4.147   5.594 -0.9541  0.2032 -0.4026
 5302SOL     OW27541   2.604   1.863   4.787 -0.1334 -0.1134  0.4986
 5302SOL    HW127542   2.542   1.907   4.728 -0.8830  1.3629  2.4008
 5302SOL    HW227543   2.689   1.903   4.767  0.0528  0.1739  1.8954
 5303SOL     OW27544   3.717   3.270   6.142 -0.6572 -0.1299 -0.3433
 5303SOL    HW127545   3.639   3.243   6.190 -1.4259  1.6577 -0.6050
 5303SOL    HW227546   3.749   3.332   6.208 -1.4501 -1.2725  1.1145
 5304SOL     OW27547   0.621   1.078   3.807  0.0337  0.4437  0.2822
 5304SOL    HW127548   0.672   1.045   3.881  0.2645 -2.9233 -1.4028
 5304SOL    HW227549   0.634   1.004   3.748  2.2012  4.5881 -4.4625
 5305SOL     OW27550   0.576   4.100   5.284  0.3797 -0.3052 -0.1603
 5305SOL    HW127551   0.617   4.082   5.199  1.4768  0.6476  0.1646
 5305SOL    HW227552   0.490   4.131   5.255 -0.0799 -1.3756  0.0614
 5306SOL     OW27553   4.305   1.091   3.861 -0.0151 -0.0504 -0.3603
 5306SOL    HW127554   4.279   1.030   3.930  2.5299 -0.4768  0.2185
 5306SOL    HW227555   4.395   1.060   3.851  0.2747  0.9959 -1.0270
 5307SOL     OW27556   1.858   1.919   8.208  0.2131  0.7585  0.3076
 5307SOL    HW127557   1.818   1.853   8.265 -0.1131  0.6247 -0.0741
 5307SOL    HW227558   1.899   1.973   8.275  0.8338 -0.0884  0.6168
 5308SOL     OW27559   2.813   1.155   1.210 -0.0724 -0.2004 -0.4868
 5308SOL    HW127560   2.741   1.145   1.148  0.2370 -0.3145 -0.8282
 5308SOL    HW227561   2.875   1.200   1.152 -1.4740 -0.8502 -2.5036
 5309SOL     OW27562   4.191   3.647   7.447 -0.1156  0.5048 -0.2583
 5309SOL    HW127563   4.102   3.673   7.422  0.1149  2.5323  1.0571
 5309SOL    HW227564   4.241   3.684   7.375  0.5380 -2.3357 -1.2708
 5310SOL     OW27565   3.791   0.830   7.576  0.2781  0.0501 -0.1803
 5310SOL    HW127566   3.855   0.853   7.644 -0.9846 -0.7133  1.2743
 5310SOL    HW227567   3.735   0.764   7.618  2.5691 -0.9811  1.2403
 5311SOL     OW27568   0.891   2.403   9.881  0.5147  0.0381  0.7579
 5311SOL    HW127569   0.831   2.471   9.848 -1.0514 -1.6447  0.1296
 5311SOL    HW227570   0.954   2.382   9.812  0.7801 -1.6480  1.5320
 5312SOL     OW27571   3.888   2.487  16.897  0.6542 -0.3293  0.1817
 5312SOL    HW127572   3.863   2.574  16.927 -1.6895 -0.8985 -0.1539
 5312SOL    HW227573   3.809   2.459  16.852  0.7457  1.0417 -0.8051
 5313SOL     OW27574   0.165   0.639   3.027  0.2588 -0.6744 -0.2350
 5313SOL    HW127575   0.196   0.624   2.938 -1.2444 -1.3065 -0.6394
 5313SOL    HW227576   0.070   0.640   3.024  0.2283  0.1926  0.7294
 5314SOL     OW27577   3.384   0.298   3.832  0.0095 -0.1652 -0.3550
 5314SOL    HW127578   3.375   0.211   3.872  1.9169 -0.9882 -1.6942
 5314SOL    HW227579   3.478   0.302   3.814  0.2625  0.1979  1.0818
 5315SOL     OW27580   4.438   1.318  11.619 -0.2306  0.9025  0.7166
 5315SOL    HW127581   4.498   1.297  11.690  1.3432 -2.7598 -1.7227
 5315SOL    HW227582   4.362   1.358  11.662 -0.7634  1.4216 -0.7072
 5316SOL     OW27583   2.368   3.191   3.537  0.0488 -0.3998 -0.5234
 5316SOL    HW127584   2.380   3.104   3.575  1.9584  0.8039  1.6455
 5316SOL    HW227585   2.427   3.195   3.462 -0.1421 -2.4654 -0.7767
 5317SOL     OW27586   4.228   3.715   8.489  1.0417 -0.1044  0.0506
 5317SOL    HW127587   4.209   3.694   8.398  2.2850 -0.2398 -0.1735
 5317SOL    HW227588   4.147   3.759   8.513  0.3036 -1.9943  1.0211
 5318SOL     OW27589   4.724   3.907   8.122  0.5440  0.1799 -0.2109
 5318SOL    HW127590   0.074   3.891   8.090  0.6277 -0.4388  0.3222
 5318SOL    HW227591   4.678   3.923   8.040  0.7930  0.5930 -0.2725
 5319SOL     OW27592   2.445   2.896   1.725  0.3776  0.3008  0.3033
 5319SOL    HW127593   2.433   2.985   1.692 -0.8239  0.2417  0.6053
 5319SOL    HW227594   2.540   2.911   1.731  0.4694  0.2373 -1.0426
 5320SOL     OW27595   3.665   3.626   4.813 -0.0269  1.0025 -0.1548
 5320SOL    HW127596   3.728   3.566   4.852 -0.2821  1.2774  0.6805
 5320SOL    HW227597   3.676   3.593   4.724 -0.8497  0.3456 -0.0085
 5321SOL     OW27598   4.004   1.067   0.242 -0.2638  0.1529  0.3487
 5321SOL    HW127599   4.020   1.149   0.195 -1.6153 -0.8195 -1.8124
 5321SOL    HW227600   4.087   1.073   0.290 -0.0973 -0.6383  0.1589
 5322SOL     OW27601   0.584   3.114   5.749  0.1530 -0.1858 -0.0668
 5322SOL    HW127602   0.654   3.137   5.810 -1.5211  2.0241  1.0370
 5322SOL    HW227603   0.641   3.112   5.673  0.8470  0.9008  0.4168
 5323SOL     OW27604   0.757   1.437   2.163 -0.2166 -0.0522 -0.2181
 5323SOL    HW127605   0.722   1.437   2.074  0.4227 -0.6983 -0.4744
 5323SOL    HW227606   0.851   1.451   2.152 -0.2174 -0.7884 -1.2017
 5324SOL     OW27607   3.192   2.776   2.172 -0.0291 -0.4758 -0.2984
 5324SOL    HW127608   3.202   2.859   2.125  0.8915  0.4731  1.5467
 5324SOL    HW227609   3.124   2.792   2.237 -0.7810  0.7067 -1.3635
 5325SOL     OW27610   3.387   4.334   8.132 -0.0060  0.0080 -0.4882
 5325SOL    HW127611   3.468   4.332   8.081  0.5455 -3.7643  0.5369
 5325SOL    HW227612   3.405   4.419   8.172  0.1619  0.1723 -0.9115
 5326SOL     OW27613   0.238   1.894   5.891 -0.2839  0.2679 -0.4311
 5326SOL    HW127614   0.274   1.943   5.965  0.8633 -0.6129 -0.3996
 5326SOL    HW227615   0.227   1.808   5.931  0.4781  0.0869 -0.6079
 5327SOL     OW27616   4.425   1.445   3.645 -0.1183  0.4616  0.0687
 5327SOL    HW127617   4.352   1.506   3.646 -0.0803  0.5025  1.8788
 5327SOL    HW227618   4.463   1.454   3.733  0.2717 -1.4688  0.0958
 5328SOL     OW27619   1.196   0.098   8.918 -0.0633  0.3338  0.3220
 5328SOL    HW127620   1.157   0.032   8.975  1.7230 -0.8690  0.1488
 5328SOL    HW227621   1.150   0.179   8.937 -1.2506  0.2334 -2.0883
 5329SOL     OW27622   2.316   3.547   8.203  0.1614 -0.2504 -0.2475
 5329SOL    HW127623   2.279   3.620   8.253 -0.4452  0.3378 -1.5487
 5329SOL    HW227624   2.407   3.577   8.193 -0.8796  3.1412  0.7006
 5330SOL     OW27625   0.537   4.232   4.058 -0.1302 -0.2215  0.1586
 5330SOL    HW127626   0.494   4.289   3.993  2.0691  0.0376 -1.0501
 5330SOL    HW227627   0.568   4.305   4.112 -0.1835  2.3511 -3.2861
 5331SOL     OW27628   1.035   0.786   0.106  0.3140 -0.2587  0.6129
 5331SOL    HW127629   0.974   0.748   0.169  0.4374  2.6222  2.4552
 5331SOL    HW227630   1.026   0.727   0.031  0.1207  0.4271  0.1024
 5332SOL     OW27631   0.743   4.644   7.726 -0.0295  0.1784 -0.7073
 5332SOL    HW127632   0.804   4.593   7.780 -1.5443 -2.2202 -1.2547
 5332SOL    HW227633   0.797   4.718   7.698  1.8854 -1.5077 -1.5050
 5333SOL     OW27634   4.608   0.551   3.453 -0.1285  0.6609 -0.4098
 5333SOL    HW127635   4.521   0.519   3.433 -0.1591  1.2193 -1.1563
 5333SOL    HW227636   4.656   0.471   3.478  0.4971  0.9764 -0.5867
 5334SOL     OW27637   2.086   1.221   8.070  0.4118 -0.6367 -0.2213
 5334SOL    HW127638   2.056   1.162   8.140 -1.2737  1.0130  0.4546
 5334SOL    HW227639   2.128   1.157   8.012  0.5128  0.1373 -1.0064
 5335SOL     OW27640   3.924   2.604   4.155 -0.0902 -0.1405 -0.2196
 5335SOL    HW127641   3.997   2.652   4.117  0.1220 -2.0988 -2.2294
 5335SOL    HW227642   3.966   2.567   4.233  0.0477  1.5059  0.4751
 5336SOL     OW27643   0.627   3.165   6.804 -0.1655 -0.3335  0.8955
 5336SOL    HW127644   0.638   3.260   6.799 -0.1889 -0.3762  0.1158
 5336SOL    HW227645   0.714   3.128   6.823  0.4930  0.8977  0.2965
 5337SOL     OW27646   0.556   2.391  12.190 -0.3842 -0.2232  0.0735
 5337SOL    HW127647   0.554   2.444  12.269 -0.7198 -1.1424  0.6792
 5337SOL    HW227648   0.602   2.448  12.129 -0.9529 -0.6982 -0.8014
 5338SOL     OW27649   2.815   2.727   1.976 -0.0066  0.4163 -0.8186
 5338SOL    HW127650   2.760   2.658   1.938  0.8390 -1.0530  0.6136
 5338SOL    HW227651   2.761   2.800   2.007  0.7563  1.7581 -2.6469
 5339SOL     OW27652   3.313   1.154   3.038  0.0998  0.2319  0.5879
 5339SOL    HW127653   3.287   1.205   2.961  0.5050 -0.2818  0.1047
 5339SOL    HW227654   3.365   1.090   2.988 -0.8846  0.4376 -0.6859
 5340SOL     OW27655   0.150   4.035   2.063 -0.0706  0.6373 -0.3416
 5340SOL    HW127656   0.237   4.047   2.102  1.0007 -2.5873 -1.6864
 5340SOL    HW227657   0.134   4.114   2.011 -2.4989  0.5963  0.3623
 5341SOL     OW27658   2.565   0.011   9.789  0.5173  0.3106 -0.1284
 5341SOL    HW127659   2.472   4.735   9.770  0.7191 -1.3016  0.1807
 5341SOL    HW227660   2.599   4.662   9.802  2.4181  1.6609  4.0279
 5342SOL     OW27661   0.853   2.371   7.961 -0.2490  0.1941 -0.2604
 5342SOL    HW127662   0.876   2.279   7.972  2.1229  0.9722  1.3181
 5342SOL    HW227663   0.935   2.406   7.925  0.6583 -0.3799  1.2262
 5343SOL     OW27664   2.627   3.963   7.257 -0.0658 -0.0411  0.5490
 5343SOL    HW127665   2.545   4.003   7.229  0.9132  0.5025 -1.5536
 5343SOL    HW227666   2.620   3.870   7.233 -2.3367 -0.2742  2.0845
 5344SOL     OW27667   0.624   3.616   1.135  0.3575 -0.0144  0.1082
 5344SOL    HW127668   0.668   3.621   1.220 -1.4492  0.5059  1.0215
 5344SOL    HW227669   0.582   3.531   1.146 -1.1598  0.4863 -1.8597
 5345SOL     OW27670   0.974   3.570  13.648  0.4574  0.2830 -0.1862
 5345SOL    HW127671   0.922   3.515  13.590 -0.4958 -0.0661  0.9812
 5345SOL    HW227672   0.912   3.592  13.718  0.0169  0.7887 -0.7333
 5346SOL     OW27673   4.651   4.184   8.192 -0.0068  0.0154 -0.4892
 5346SOL    HW127674   4.658   4.097   8.153 -0.6641  0.1803 -0.9821
 5346SOL    HW227675   4.738   4.196   8.232  0.9432 -2.6594 -1.7783
 5347SOL     OW27676   1.645   0.980   1.032  0.1627 -0.7870  0.2625
 5347SOL    HW127677   1.686   0.981   0.945  3.0541  1.0117  1.6139
 5347SOL    HW227678   1.714   1.024   1.083  0.1774 -0.6418  0.1200
 5348SOL     OW27679   2.715   2.156  11.076 -0.1446 -0.1275  0.5060
 5348SOL    HW127680   2.763   2.143  11.157 -1.5344 -0.7378  1.2395
 5348SOL    HW227681   2.735   2.071  11.036  0.2884  0.6380 -0.9224
 5349SOL     OW27682   2.421   2.669   8.492 -0.4213 -0.5057 -0.0381
 5349SOL    HW127683   2.451   2.760   8.490 -4.3255  0.7415 -2.7323
 5349SOL    HW227684   2.482   2.627   8.432  0.0850  0.6978 -0.3691
 5350SOL     OW27685   1.856   2.005   4.280  0.3011 -0.0676 -0.1649
 5350SOL    HW127686   1.810   2.088   4.267 -1.1291 -0.7455  0.6009
 5350SOL    HW227687   1.848   1.994   4.375  2.6503 -1.4247 -0.1240
 5351SOL     OW27688   0.195   1.986   3.735 -0.2512 -0.1216  0.1073
 5351SOL    HW127689   0.191   2.054   3.668 -0.2422 -1.8384 -1.6430
 5351SOL    HW227690   0.119   1.933   3.708  0.7034 -0.8540 -1.1663
 5352SOL     OW27691   1.274   1.922  14.930 -0.0762  0.6048  0.3570
 5352SOL    HW127692   1.233   1.836  14.938  3.2498 -0.9233  0.9552
 5352SOL    HW227693   1.256   1.945  14.839 -1.0738  1.5636  0.7920
 5353SOL     OW27694   2.184   3.803   1.842 -0.4635 -0.1386  0.3397
 5353SOL    HW127695   2.191   3.721   1.793  1.3847  0.3467 -0.2316
 5353SOL    HW227696   2.089   3.813   1.849 -0.4389 -1.4492  2.4698
 5354SOL     OW27697   2.889   4.129  11.651  0.4844  0.3829  0.0544
 5354SOL    HW127698   2.901   4.216  11.614  0.4057  0.1667 -0.4900
 5354SOL    HW227699   2.941   4.140  11.730 -0.8943 -0.4430  1.0876
 5355SOL     OW27700   1.300   0.788   5.346  0.0988 -0.0080 -0.1832
 5355SOL    HW127701   1.232   0.852   5.368  1.7588  1.3976  0.8403
 5355SOL    HW227702   1.366   0.850   5.316  0.0723  0.3989  0.6056
 5356SOL     OW27703   0.719   2.108  13.958  0.1194 -0.3128 -0.7056
 5356SOL    HW127704   0.766   2.030  13.989 -0.8893 -1.2710 -1.6077
 5356SOL    HW227705   0.697   2.161  14.035 -0.1729 -0.4774 -0.6770
 5357SOL     OW27706   2.395   2.293   2.001  0.0200  0.2174  0.4604
 5357SOL    HW127707   2.428   2.206   1.980 -0.4281 -0.5229  2.9074
 5357SOL    HW227708   2.403   2.345   1.921  0.9559 -2.4809 -1.1791
 5358SOL     OW27709   2.746   0.478   4.326 -0.2731 -0.2202  0.7225
 5358SOL    HW127710   2.787   0.486   4.240 -1.0927  0.1651  0.3698
 5358SOL    HW227711   2.662   0.439   4.306  0.7950 -2.3841  0.4890
 5359SOL     OW27712   0.144   0.620   0.683 -0.5251 -0.3080  0.4480
 5359SOL    HW127713   0.181   0.630   0.596 -0.4441  0.0688  0.5247
 5359SOL    HW227714   0.189   0.537   0.700 -0.1113 -0.7360 -2.7312
 5360SOL     OW27715   1.957   2.153   8.843  0.3053  0.4229 -0.4377
 5360SOL    HW127716   1.911   2.235   8.860 -1.0258 -0.7159  1.3786
 5360SOL    HW227717   1.983   2.165   8.751  1.0888 -3.1696 -0.6873
 5361SOL     OW27718   2.913   0.278   3.139 -0.7299 -0.0413  0.2673
 5361SOL    HW127719   2.995   0.325   3.154 -0.5253  0.4878 -2.3828
 5361SOL    HW227720   2.844   0.344   3.130 -0.5366  0.1638  0.2948
 5362SOL     OW27721   3.644   1.417   9.045 -0.4225 -0.3373 -0.5393
 5362SOL    HW127722   3.566   1.366   9.065  0.6701 -0.9107  2.2741
 5362SOL    HW227723   3.700   1.404   9.122 -0.3105 -1.7488 -0.8613
 5363SOL     OW27724   1.619   2.616   4.592  0.1287  0.1813 -0.2151
 5363SOL    HW127725   1.672   2.616   4.513 -0.1034 -3.4559 -0.3757
 5363SOL    HW227726   1.578   2.530   4.585 -0.6979  0.5550 -0.0011
 5364SOL     OW27727   1.720   0.203   0.336  0.1396  0.1462  0.3537
 5364SOL    HW127728   1.693   0.176   0.424 -0.1666 -0.2446  0.1382
 5364SOL    HW227729   1.790   0.140   0.317  0.6804  1.9552 -3.4861
 5365SOL     OW27730   4.042   4.134   7.488 -0.1070  0.2715 -0.1019
 5365SOL    HW127731   4.089   4.218   7.478  3.5310 -1.9329 -1.5102
 5365SOL    HW227732   4.022   4.121   7.580  0.2807  0.4200  0.0047
 5366SOL     OW27733   4.671   3.203  10.577 -0.5600  0.4903 -0.0939
 5366SOL    HW127734   4.701   3.181  10.666 -2.3100 -0.5824  0.2300
 5366SOL    HW227735   0.014   3.205  10.528  1.4124 -1.0406  3.1285
 5367SOL     OW27736   2.033   0.963  15.294 -0.7771 -0.6797  0.3273
 5367SOL    HW127737   1.997   1.016  15.222 -0.2759  0.6931  1.0754
 5367SOL    HW227738   1.956   0.953  15.349 -0.7890 -0.6654  0.3133
 5368SOL     OW27739   3.135   0.304   8.610 -0.3364  0.6636 -0.0768
 5368SOL    HW127740   3.214   0.254   8.588  0.8599  1.9264  1.2958
 5368SOL    HW227741   3.144   0.374   8.546 -1.8788  1.3340  0.4449
 5369SOL     OW27742   2.940   1.676   6.116 -0.3137 -0.0457  0.5423
 5369SOL    HW127743   2.844   1.680   6.110 -0.1122  1.0354 -2.1160
 5369SOL    HW227744   2.964   1.761   6.152 -2.0044 -0.0759  1.7472
 5370SOL     OW27745   0.679   2.441  10.326  0.0783  0.1112  0.1368
 5370SOL    HW127746   0.652   2.350  10.336  0.7716 -0.2458 -1.3481
 5370SOL    HW227747   0.654   2.479  10.411 -0.8483 -2.0919  0.8341
 5371SOL     OW27748   4.518   3.538   5.908 -0.3796 -0.4031  0.6152
 5371SOL    HW127749   4.482   3.470   5.964  1.6578  0.4212  2.8865
 5371SOL    HW227750   4.594   3.486   5.881  0.3972 -0.2540  2.5073
 5372SOL     OW27751   2.805   4.411  14.646 -0.2398 -0.5052  0.3913
 5372SOL    HW127752   2.831   4.482  14.704  0.7301 -1.0318  0.6066
 5372SOL    HW227753   2.723   4.385  14.688 -1.0100 -0.0096 -0.8003
 5373SOL     OW27754   2.427   2.617   8.770  0.2325 -0.6648 -0.2401
 5373SOL    HW127755   2.403   2.707   8.794 -0.6290 -0.9467 -0.0610
 5373SOL    HW227756   2.401   2.621   8.678 -0.4373 -1.5438 -0.0836
 5374SOL     OW27757   3.887   2.065   5.011 -0.1955 -0.4933  0.3766
 5374SOL    HW127758   3.864   2.062   5.104  1.5687  1.1691  0.8662
 5374SOL    HW227759   3.818   2.015   4.968  0.8247 -0.6533 -1.1001
 5375SOL     OW27760   2.560   2.805  17.722 -0.1658 -0.0483  0.1929
 5375SOL    HW127761   2.552   2.733   0.032  0.1202  1.2467  1.7061
 5375SOL    HW227762   2.531   2.875   0.027  0.2536  1.0415 -0.9334
 5376SOL     OW27763   1.990   1.362   8.914  0.2799  0.1861  0.6378
 5376SOL    HW127764   1.966   1.365   8.822 -0.0840  1.7275  0.7727
 5376SOL    HW227765   1.904   1.349   8.955  0.3514 -2.9026 -0.2350
 5377SOL     OW27766   3.773   0.367   8.751 -0.3180  0.3616 -0.4606
 5377SOL    HW127767   3.710   0.360   8.823 -1.8468  1.2065 -1.7101
 5377SOL    HW227768   3.774   0.283   8.705  2.5007 -0.1148  0.4901
 5378SOL     OW27769   1.120   4.091   4.728  0.1714  0.0393 -0.5803
 5378SOL    HW127770   1.159   4.004   4.716 -2.4129 -1.2183  0.3424
 5378SOL    HW227771   1.199   4.127   4.767  0.2107  1.4207 -1.9260
 5379SOL     OW27772   3.758   3.227   6.530 -0.2940  0.0865 -0.2898
 5379SOL    HW127773   3.756   3.206   6.623 -1.4350  1.2295 -0.0527
 5379SOL    HW227774   3.715   3.312   6.523 -0.0401  0.4121  2.1854
 5380SOL     OW27775   2.061   0.635   7.011  0.2854  0.4332 -0.0219
 5380SOL    HW127776   2.146   0.676   6.996  0.1409  0.5766 -0.4363
 5380SOL    HW227777   2.004   0.700   6.971  0.4013  0.5803  0.0492
 5381SOL     OW27778   3.180   0.949   4.395 -0.0575 -0.1786  0.0105
 5381SOL    HW127779   3.224   1.023   4.354  1.2115 -1.0000 -0.1182
 5381SOL    HW227780   3.249   0.882   4.394  0.5206  0.4194 -0.1778
 5382SOL     OW27781   3.421   3.237   0.487  0.0499  0.5472  0.7497
 5382SOL    HW127782   3.394   3.270   0.572 -2.8300 -0.2123  0.1072
 5382SOL    HW227783   3.456   3.154   0.520 -1.9558 -0.6375 -0.1637
 5383SOL     OW27784   2.762   4.411  16.716  0.3817 -0.0923 -0.2632
 5383SOL    HW127785   2.679   4.417  16.763 -0.5497  0.2870 -1.9569
 5383SOL    HW227786   2.827   4.421  16.786 -2.3089 -1.7521  2.4784
 5384SOL     OW27787   3.485   1.808   9.955 -0.5172 -0.6767  0.2636
 5384SOL    HW127788   3.508   1.728  10.003  1.0291  0.5545  1.5709
 5384SOL    HW227789   3.395   1.791   9.929 -0.4443  0.7549 -0.9420
 5385SOL     OW27790   0.331   4.223   5.085 -0.3013  0.1512  0.0929
 5385SOL    HW127791   0.343   4.260   4.998 -0.3414  0.1399  0.0825
 5385SOL    HW227792   0.267   4.289   5.111  1.2081  1.4755  0.3881
 5386SOL     OW27793   1.731   1.691   4.813 -0.0930  0.0681  0.3527
 5386SOL    HW127794   1.783   1.699   4.893  0.1711 -0.6275  0.2510
 5386SOL    HW227795   1.721   1.595   4.814 -4.1879  0.4636  0.9259
 5387SOL     OW27796   0.401   0.802   2.211 -0.4270 -0.1004 -0.7661
 5387SOL    HW127797   0.396   0.880   2.156 -0.3820  0.4367  0.0009
 5387SOL    HW227798   0.345   0.731   2.179 -0.0161 -1.5383  1.7394
 5388SOL     OW27799   1.310   2.396   3.594  0.3942 -0.0524 -0.4754
 5388SOL    HW127800   1.241   2.341   3.557 -0.3322 -0.1353  1.0068
 5388SOL    HW227801   1.275   2.480   3.563  1.2418  0.8325  0.9243
 5389SOL     OW27802   2.408   2.301   6.039 -0.5349  0.2272  0.1367
 5389SOL    HW127803   2.458   2.307   5.957 -3.0338 -3.1625 -1.6401
 5389SOL    HW227804   2.438   2.382   6.080 -0.3839 -0.2581  0.9741
 5390SOL     OW27805   3.950   2.219   5.678 -0.3278  0.4951  0.2631
 5390SOL    HW127806   3.904   2.229   5.761 -3.0973 -0.0899 -1.1755
 5390SOL    HW227807   3.994   2.139   5.706  0.8018  1.2711  0.7089
 5391SOL     OW27808   1.921   0.563   3.101  0.2681  0.7069 -0.5525
 5391SOL    HW127809   1.975   0.600   3.171  0.6753 -0.0529 -0.4604
 5391SOL    HW227810   1.870   0.634   3.062  1.7383  3.9155  3.3608
 5392SOL     OW27811   1.564   3.426   4.061 -0.4075 -0.1603 -0.1100
 5392SOL    HW127812   1.654   3.452   4.081 -0.3752  0.1297 -0.6147
 5392SOL    HW227813   1.586   3.379   3.980 -1.6317  2.7348 -2.1502
 5393SOL     OW27814   4.211   1.468   5.210 -0.0340  0.4569  0.3954
 5393SOL    HW127815   4.274   1.408   5.251  0.2641  1.4180  1.3532
 5393SOL    HW227816   4.130   1.437   5.250  0.7242 -0.5023  1.1854
 5394SOL     OW27817   2.317   1.932   2.894  0.6232  0.2278  0.5401
 5394SOL    HW127818   2.386   1.991   2.864 -0.9823  1.8570  0.1042
 5394SOL    HW227819   2.267   1.994   2.945  2.0606  0.0911  2.1128
 5395SOL     OW27820   0.656   3.865   5.985  0.5401  0.5385 -0.5849
 5395SOL    HW127821   0.609   3.811   5.922  0.1308  0.7139 -0.4315
 5395SOL    HW227822   0.692   3.808   6.053  1.7142 -0.1039 -1.7467
 5396SOL     OW27823   1.270   0.600  10.930 -0.2330  0.3800  0.2060
 5396SOL    HW127824   1.325   0.595  11.008 -0.2839  1.0770  0.2855
 5396SOL    HW227825   1.335   0.600  10.860  0.1120  2.3841  0.5277
 5397SOL     OW27826   4.522   0.917   3.777  0.2433 -0.2402  0.0875
 5397SOL    HW127827   4.606   0.888   3.740  0.4871 -0.0785  0.5091
 5397SOL    HW227828   4.466   0.917   3.700  1.8167  0.2247 -1.0649
 5398SOL     OW27829   0.288   0.517   3.813  0.2844  0.0957 -0.3129
 5398SOL    HW127830   0.289   0.477   3.726 -1.0354 -0.8350  0.0960
 5398SOL    HW227831   0.239   0.598   3.801  1.3566  1.0640  1.7977
 5399SOL     OW27832   3.120   0.633   4.372  0.0063 -0.4603  0.5611
 5399SOL    HW127833   3.181   0.651   4.300  0.0410 -1.2284  0.4018
 5399SOL    HW227834   3.178   0.660   4.442 -1.4537  0.5824  1.3619
 5400SOL     OW27835   3.693   1.798  10.469 -0.4599  0.7272 -0.0711
 5400SOL    HW127836   3.643   1.751  10.403 -0.9725  0.7195  0.3246
 5400SOL    HW227837   3.649   1.776  10.552  0.2850 -0.0831  0.1064
 5401SOL     OW27838   0.392   1.334  11.807  0.0007  0.2137 -0.1861
 5401SOL    HW127839   0.339   1.260  11.836 -1.0809  1.0620  0.0027
 5401SOL    HW227840   0.447   1.349  11.884 -3.2865 -0.7568  2.3386
 5402SOL     OW27841   4.312   4.181   8.927 -0.0664  0.4509 -0.3212
 5402SOL    HW127842   4.310   4.225   9.012  0.1310 -0.6591  0.2698
 5402SOL    HW227843   4.345   4.252   8.873  0.3223  1.2670  0.9842
 5403SOL     OW27844   2.090   0.307   9.130  0.0760 -0.3949 -0.2966
 5403SOL    HW127845   2.023   0.240   9.136 -1.0940  0.7542 -0.5102
 5403SOL    HW227846   2.105   0.334   9.221 -0.4369  0.0914 -0.3601
 5404SOL     OW27847   0.447   0.071   4.055 -0.1196 -0.4806  0.2752
 5404SOL    HW127848   0.516   0.075   3.990  0.3717 -0.9880  0.7633
 5404SOL    HW227849   0.400   0.149   4.026  0.2690 -0.4785 -0.3217
 5405SOL     OW27850   1.990   1.696   2.229  0.2345 -0.4153 -0.2277
 5405SOL    HW127851   2.084   1.713   2.228  0.1789  0.0088  1.3534
 5405SOL    HW227852   1.956   1.784   2.209  0.9401  0.3384  1.8967
 5406SOL     OW27853   3.498   0.993   7.121 -0.0099 -0.7167  0.0067
 5406SOL    HW127854   3.412   1.025   7.151 -0.2422 -1.0308 -0.3261
 5406SOL    HW227855   3.491   1.010   7.026 -0.8121  2.5508  0.6215
 5407SOL     OW27856   2.932   2.107  16.572 -0.0669 -0.1999  0.1960
 5407SOL    HW127857   2.946   2.082  16.663 -0.0571  1.0701  0.5533
 5407SOL    HW227858   2.837   2.095  16.575 -0.1669 -0.2351 -2.5821
 5408SOL     OW27859   4.316   0.459   1.713 -0.0181  0.1284  0.6685
 5408SOL    HW127860   4.377   0.391   1.687 -1.0620 -1.0212  1.2408
 5408SOL    HW227861   4.374   0.535   1.721  1.5888 -0.7992 -1.8593
 5409SOL     OW27862   3.665   2.649   2.755  0.1331 -0.3139 -0.1025
 5409SOL    HW127863   3.684   2.693   2.672 -1.6390  1.2778  0.3371
 5409SOL    HW227864   3.706   2.568   2.723  0.9687 -0.2692  0.8713
 5410SOL     OW27865   2.735   1.270   8.819 -0.2992 -0.5133 -0.2255
 5410SOL    HW127866   2.689   1.303   8.743 -0.2524 -0.6581 -0.3179
 5410SOL    HW227867   2.679   1.208   8.866  0.9388 -0.8187  0.8474
 5411SOL     OW27868   4.668   1.239  11.747 -0.1823  0.2676 -0.2968
 5411SOL    HW127869   4.707   1.300  11.809 -0.8254 -0.9716  1.3401
 5411SOL    HW227870   4.691   1.163  11.801  1.2579 -0.8859 -2.5002
 5412SOL     OW27871   4.186   2.816   6.798  0.7059  0.0082  0.3100
 5412SOL    HW127872   4.161   2.724   6.813 -1.0422  0.5703  0.8759
 5412SOL    HW227873   4.183   2.858   6.884  2.8595  1.1870 -0.2039
 5413SOL     OW27874   4.010   1.561   6.028 -0.0921  0.0850  0.0898
 5413SOL    HW127875   3.984   1.471   6.010 -1.3862  0.6557 -0.8635
 5413SOL    HW227876   4.075   1.549   6.097 -0.4899 -0.1810  0.4138
 5414SOL     OW27877   2.587   1.341   3.105  0.2403 -0.5632  0.0985
 5414SOL    HW127878   2.539   1.406   3.158 -2.2445 -1.0443 -1.5942
 5414SOL    HW227879   2.532   1.305   3.035  0.3321  0.2508 -0.3917
 5415SOL     OW27880   2.416   1.306   1.348 -0.2445  0.0069  0.5434
 5415SOL    HW127881   2.334   1.350   1.323  1.4157  1.7501 -1.9153
 5415SOL    HW227882   2.396   1.310   1.442  1.4338  2.0105  0.8345
 5416SOL     OW27883   0.627   2.776   5.274  0.3387  0.1459 -0.5491
 5416SOL    HW127884   0.682   2.702   5.248  0.2729  0.3107 -1.1548
 5416SOL    HW227885   0.577   2.743   5.349 -1.5975  1.4184 -1.2714
 5417SOL     OW27886   2.393   4.650   5.972 -0.2549 -0.3972  0.0930
 5417SOL    HW127887   2.423   4.613   6.054 -1.7349  1.6012  1.5420
 5417SOL    HW227888   2.447   4.599   5.912  1.9500  1.2348  0.7055
 5418SOL     OW27889   4.736   3.730   6.420  0.2197  0.6474  0.7354
 5418SOL    HW127890   4.666   3.702   6.361 -0.0977 -1.6205  2.1998
 5418SOL    HW227891   4.736   3.654   6.478 -0.5685 -0.4296 -0.6623
 5419SOL     OW27892   3.738   0.207   0.272  0.7046  0.7964 -0.3030
 5419SOL    HW127893   3.708   0.144   0.337  0.6254  0.0015 -1.1134
 5419SOL    HW227894   3.662   0.260   0.296 -0.2147 -1.6977  2.2555
 5420SOL     OW27895   0.189   0.447  17.656  0.1463 -0.1303  0.2896
 5420SOL    HW127896   0.254   0.467  17.589 -0.9623  0.3417 -0.6562
 5420SOL    HW227897   0.232   0.436  17.740 -0.0935  0.4209  0.4867
 5421SOL     OW27898   2.838   3.164  10.120 -0.3369 -0.0108 -0.6936
 5421SOL    HW127899   2.861   3.257  10.128  1.3473 -0.7820  3.3354
 5421SOL    HW227900   2.752   3.182  10.081 -0.1675  0.5030 -0.8322
 5422SOL     OW27901   0.254   4.630   6.255 -0.3170  0.2630 -0.4648
 5422SOL    HW127902   0.198   4.595   6.186 -0.1247  0.1291 -0.5500
 5422SOL    HW227903   0.228   4.722   6.261  0.7593  0.4176  1.7826
 5423SOL     OW27904   0.356   0.370  15.325  0.4793  0.0170 -0.0752
 5423SOL    HW127905   0.430   0.430  15.337 -0.2560  0.5891  1.6343
 5423SOL    HW227906   0.350   0.369  15.230  0.0137  1.2292 -0.0560
 5424SOL     OW27907   3.856   2.229   5.981 -0.1960  0.1032 -0.0875
 5424SOL    HW127908   3.835   2.271   6.065 -0.4354  1.1688 -0.6774
 5424SOL    HW227909   3.943   2.193   6.001  0.3672  0.4031 -2.0124
 5425SOL     OW27910   2.788   1.114   6.766  0.2805  0.1069  0.1827
 5425SOL    HW127911   2.789   1.157   6.681 -0.4612 -1.1612 -0.4566
 5425SOL    HW227912   2.867   1.065   6.746 -0.1065 -0.6020  0.4130
 5426SOL     OW27913   0.783   3.160  16.150  0.0607  1.2143  0.0211
 5426SOL    HW127914   0.839   3.119  16.085 -0.6304 -0.3793  0.4290
 5426SOL    HW227915   0.702   3.150  16.100  2.3056  0.4405 -3.4357
 5427SOL     OW27916   2.094   2.971   0.300  0.2787  0.4600  0.1370
 5427SOL    HW127917   2.043   3.052   0.296  0.2264  0.4399  0.4394
 5427SOL    HW227918   2.126   2.978   0.390  0.6138  0.7970 -0.0091
 5428SOL     OW27919   3.642   3.360  10.932 -0.2145  0.1176 -0.1319
 5428SOL    HW127920   3.613   3.287  10.878  1.4550 -0.7585  0.1504
 5428SOL    HW227921   3.721   3.320  10.968 -0.0884  2.3905  2.1363
 5429SOL     OW27922   1.371   0.579   5.498 -0.0736 -0.8899  0.5618
 5429SOL    HW127923   1.360   0.658   5.445  1.7035 -0.0986  1.3576
 5429SOL    HW227924   1.336   0.507   5.445  0.7118  0.2339 -1.4838
 5430SOL     OW27925   2.134   2.768   8.893  0.0041  0.5541 -0.2122
 5430SOL    HW127926   2.184   2.791   8.815 -0.7906  1.1134 -0.5522
 5430SOL    HW227927   2.068   2.710   8.854  0.7325  0.1719 -0.8665
 5431SOL     OW27928   4.243   4.161   4.762 -0.2244 -0.1687 -0.2588
 5431SOL    HW127929   4.255   4.175   4.668  2.2134  1.7218  0.3258
 5431SOL    HW227930   4.245   4.066   4.768 -0.8927 -0.0947  1.1173
 5432SOL     OW27931   0.289   0.714   6.011  0.2808  0.3719 -0.7407
 5432SOL    HW127932   0.365   0.678   5.964 -0.6535 -2.7212  0.1395
 5432SOL    HW227933   0.306   0.678   6.098  0.2425  0.6699 -0.6122
 5433SOL     OW27934   2.782   2.643   7.917  0.7057  0.0585 -0.6276
 5433SOL    HW127935   2.756   2.569   7.862 -0.6139  1.7400 -2.2540
 5433SOL    HW227936   2.851   2.597   7.966  0.0309 -1.7627 -1.3666
 5434SOL     OW27937   3.433   1.130   6.859  0.3905 -0.0505 -0.1012
 5434SOL    HW127938   3.337   1.134   6.859  0.4166  0.5571  0.7457
 5434SOL    HW227939   3.445   1.093   6.772 -0.6021  1.0001 -0.6963
 5435SOL     OW27940   3.536   2.221   7.751 -0.1294  0.2833  0.0558
 5435SOL    HW127941   3.585   2.280   7.693  1.5969 -1.3259 -0.1102
 5435SOL    HW227942   3.583   2.247   7.830  1.1397 -0.0634 -0.5929
 5436SOL     OW27943   0.015   4.323   5.971 -0.3996  0.5067  0.0693
 5436SOL    HW127944   0.100   4.282   5.957 -0.8888 -0.7635  0.8192
 5436SOL    HW227945   4.714   4.240   5.996 -1.4940  0.8358 -0.5727
 5437SOL     OW27946   1.044   1.289   7.655 -0.0029  0.7897  0.0269
 5437SOL    HW127947   1.019   1.358   7.594 -3.8744 -0.5249  0.1469
 5437SOL    HW227948   1.030   1.339   7.735 -0.8655  0.8059 -0.1396
 5438SOL     OW27949   0.551   0.274   2.629 -0.6127  0.1201 -0.0459
 5438SOL    HW127950   0.484   0.322   2.679 -0.0389 -0.4636  1.2830
 5438SOL    HW227951   0.585   0.341   2.569  0.0609  0.9168  1.2059
 5439SOL     OW27952   3.394   4.240   2.703  0.7964 -0.1282  0.4585
 5439SOL    HW127953   3.474   4.267   2.659 -0.3899  1.7025 -0.5884
 5439SOL    HW227954   3.332   4.313   2.697 -0.0418 -0.9208 -0.4340
 5440SOL     OW27955   3.408   4.631  16.242  0.2414 -0.3463 -0.3071
 5440SOL    HW127956   3.392   4.648  16.149  1.0297  1.6176 -0.0839
 5440SOL    HW227957   3.484   4.572  16.243  1.0232  0.6903  0.6140
 5441SOL     OW27958   0.802   3.286   3.965  0.0775  0.0044 -0.2622
 5441SOL    HW127959   0.881   3.303   4.017 -0.1178  1.9311 -0.5840
 5441SOL    HW227960   0.745   3.360   3.986 -0.4841 -0.3661 -0.4785
 5442SOL     OW27961   4.647   0.979  14.729  0.5458  0.1436 -0.1158
 5442SOL    HW127962   4.690   0.897  14.756  0.3471 -0.7677 -2.5812
 5442SOL    HW227963   4.716   1.046  14.733  1.0324 -0.3581  0.0263
 5443SOL     OW27964   2.088   3.018   8.931  0.3396 -0.4075  0.2398
 5443SOL    HW127965   2.017   3.039   8.870 -1.1257  0.1610  2.1374
 5443SOL    HW227966   2.123   2.931   8.910  0.2970 -0.7216  1.4558
 5444SOL     OW27967   0.077   0.298   7.907 -0.2915  0.0888 -0.8982
 5444SOL    HW127968   0.127   0.256   7.838 -0.6147 -2.4239  0.4024
 5444SOL    HW227969   0.151   0.319   7.964 -2.2358  0.7775  1.4236
 5445SOL     OW27970   4.527   3.779   4.751  0.8297 -0.0230  0.3987
 5445SOL    HW127971   4.503   3.872   4.749  0.5675 -0.0774  1.0926
 5445SOL    HW227972   4.439   3.749   4.732  0.0237  2.7839 -0.3743
 5446SOL     OW27973   1.874   3.149   6.749 -0.4713 -0.6534  0.5283
 5446SOL    HW127974   1.796   3.159   6.695  0.2793 -0.9723 -0.5972
 5446SOL    HW227975   1.938   3.110   6.689 -0.2941  0.9293 -0.3078
 5447SOL     OW27976   1.011   2.148   2.165  0.5441 -0.0827  0.1694
 5447SOL    HW127977   1.031   2.079   2.228 -0.3529  0.4031  0.9925
 5447SOL    HW227978   0.955   2.101   2.103 -0.0814  1.7389 -0.6519
 5448SOL     OW27979   3.013   4.134  12.647  0.4391  0.2047 -0.0508
 5448SOL    HW127980   3.037   4.208  12.592  1.3122 -1.0659 -1.3461
 5448SOL    HW227981   3.102   4.106  12.667 -0.9332 -4.4466 -0.6276
 5449SOL     OW27982   4.369   2.386   5.396 -0.5213 -0.0522  0.0754
 5449SOL    HW127983   4.407   2.334   5.325 -1.0728 -1.5434  0.8690
 5449SOL    HW227984   4.368   2.332   5.475  2.3135  1.7597  1.3360
 5450SOL     OW27985   3.172   3.300  10.998  0.0320  0.0052 -0.2604
 5450SOL    HW127986   3.134   3.269  11.081 -0.1284 -0.4420 -0.4998
 5450SOL    HW227987   3.264   3.311  11.023  0.3537 -2.1181 -0.4493
 5451SOL     OW27988   0.572   2.058  16.715 -0.3382 -0.3898  0.1791
 5451SOL    HW127989   0.567   2.124  16.646  3.2207 -1.0156 -0.6641
 5451SOL    HW227990   0.572   2.118  16.790 -1.5251  0.6880 -0.6738
 5452SOL     OW27991   1.794   3.917   1.393 -0.7017 -0.1006 -0.0023
 5452SOL    HW127992   1.736   3.987   1.363 -1.5812 -0.8579 -0.0794
 5452SOL    HW227993   1.789   3.866   1.311 -0.5291 -1.4471  0.8173
 5453SOL     OW27994   3.509   3.589   2.382 -0.1066 -0.4207 -0.3496
 5453SOL    HW127995   3.563   3.563   2.456 -1.6161  2.0626  1.6390
 5453SOL    HW227996   3.473   3.508   2.346  1.6541 -2.0736  1.6167
 5454SOL     OW27997   3.628   0.100   8.316  0.0792 -0.3701 -0.3207
 5454SOL    HW127998   3.675   0.057   8.244  1.1440  2.5500 -1.3563
 5454SOL    HW227999   3.625   0.195   8.305  1.4519 -0.6850 -3.4172
 5455SOL     OW28000   1.994   3.523   4.287  0.0348  0.3864  0.4615
 5455SOL    HW128001   2.070   3.465   4.285  0.1312  0.5733 -1.5025
 5455SOL    HW228002   1.943   3.487   4.215  0.3459  0.0809  0.3946
 5456SOL     OW28003   4.170   4.635   1.962 -0.2332  0.2228 -0.3835
 5456SOL    HW128004   4.125   4.720   1.958  0.9539  0.9240  1.2081
 5456SOL    HW228005   4.207   4.644   2.050  2.4296  0.8907 -1.5744
 5457SOL     OW28006   1.308   3.284   2.766 -0.1337 -0.0906  0.3700
 5457SOL    HW128007   1.364   3.235   2.706 -0.7717  0.3358 -0.5790
 5457SOL    HW228008   1.378   3.335   2.807  0.6691 -1.7876  1.0853
 5458SOL     OW28009   3.884   3.345   4.647  0.1083  0.0303 -0.1487
 5458SOL    HW128010   3.833   3.265   4.653  1.9943 -1.0027  2.3901
 5458SOL    HW228011   3.923   3.345   4.734  0.6985  2.6848 -0.4072
 5459SOL     OW28012   1.721   0.448   6.502  0.3505 -0.1783  0.0860
 5459SOL    HW128013   1.694   0.376   6.444  3.5914 -2.2152  1.1093
 5459SOL    HW228014   1.760   0.511   6.442 -2.2627  0.9692 -0.4280
 5460SOL     OW28015   0.991   0.009   6.165  0.3509 -0.5866 -0.1134
 5460SOL    HW128016   1.025   4.678   6.109  2.3380  0.0283  0.3269
 5460SOL    HW228017   0.903   4.714   6.182  0.1014 -1.7071 -3.6092
 5461SOL     OW28018   3.945   2.612   5.950  0.2471  0.2013 -0.1888
 5461SOL    HW128019   3.876   2.554   5.918  2.6377 -1.0372 -3.1617
 5461SOL    HW228020   4.001   2.561   6.009 -0.4520 -1.3227 -0.8318
 5462SOL     OW28021   2.642   3.090   0.613 -0.2252  0.5028 -0.6849
 5462SOL    HW128022   2.660   3.132   0.528  2.0380 -0.1555 -0.5389
 5462SOL    HW228023   2.731   3.056   0.623 -1.3919 -2.8472 -1.6365
 5463SOL     OW28024   0.984   0.655  14.619 -0.0477  0.3598  0.3243
 5463SOL    HW128025   1.074   0.623  14.625  0.0272  0.0582 -2.2606
 5463SOL    HW228026   0.975   0.681  14.711  0.9627  0.8368  0.2882
 5464SOL     OW28027   3.798   4.512   8.283 -0.5227  0.1087  0.1143
 5464SOL    HW128028   3.777   4.551   8.198  0.8579  0.3741 -0.1015
 5464SOL    HW228029   3.849   4.434   8.261  0.2090  0.2739  1.2392
 5465SOL     OW28030   2.645   4.273   7.159  0.4340  0.2558  0.7638
 5465SOL    HW128031   2.661   4.326   7.081  1.2006 -0.2646  0.5661
 5465SOL    HW228032   2.641   4.182   7.130 -0.6795  0.5682 -0.0342
 5466SOL     OW28033   0.370   1.451   4.790 -0.0089  0.4781 -0.1593
 5466SOL    HW128034   0.452   1.496   4.811 -0.2779  0.7703  0.2778
 5466SOL    HW228035   0.305   1.517   4.815  0.8717  1.0448  0.6582
 5467SOL     OW28036   3.852   1.653  10.812  0.1477 -0.9202  0.1889
 5467SOL    HW128037   3.775   1.676  10.760  0.8820 -0.8916 -0.8986
 5467SOL    HW228038   3.898   1.737  10.824  1.2352 -1.6179  0.8927
 5468SOL     OW28039   0.712   2.904   2.366 -0.1343 -0.2857 -0.3307
 5468SOL    HW128040   0.623   2.901   2.403 -0.0455 -1.2272 -0.1929
 5468SOL    HW228041   0.760   2.934   2.443  0.4924 -1.1295 -0.3994
 5469SOL     OW28042   0.284   1.766   2.217  0.2828 -0.4951  0.5149
 5469SOL    HW128043   0.258   1.774   2.309  2.3829 -2.6476  1.2944
 5469SOL    HW228044   0.377   1.777   2.233  0.1257  1.2250  0.2868
 5470SOL     OW28045   1.089   3.022   3.321  0.0125  0.5621 -0.3880
 5470SOL    HW128046   1.092   3.083   3.394 -0.2116 -0.1874  0.2484
 5470SOL    HW228047   1.183   3.007   3.313  0.3872  2.1759  1.0095
 5471SOL     OW28048   4.634   0.354   3.066  0.3158  0.5893 -0.2978
 5471SOL    HW128049   4.597   0.376   3.151 -0.9613  1.5841 -1.1157
 5471SOL    HW228050   4.724   0.340   3.097 -0.4898 -0.7702  1.4399
 5472SOL     OW28051   1.317   1.645   4.191  0.0145 -0.0101 -0.3163
 5472SOL    HW128052   1.288   1.725   4.235 -2.1628 -1.0734  0.1710
 5472SOL    HW228053   1.409   1.648   4.216  0.6256 -0.0892 -2.5414
 5473SOL     OW28054   3.785   2.141  12.960  0.4082 -0.1055  0.4646
 5473SOL    HW128055   3.781   2.082  12.885 -0.2871 -0.1222  0.5189
 5473SOL    HW228056   3.852   2.095  13.011  1.5822  0.6591 -0.3910
 5474SOL     OW28057   3.401   0.063   5.122  0.2457  0.4539 -0.1061
 5474SOL    HW128058   3.417   0.118   5.045 -1.4916 -0.4983 -1.1689
 5474SOL    HW228059   3.473   0.085   5.181 -0.2640  0.0537  0.6604
 5475SOL     OW28060   2.675   0.333   2.372 -0.2040 -0.2004  0.1176
 5475SOL    HW128061   2.620   0.281   2.431  1.6245 -2.8728 -0.5128
 5475SOL    HW228062   2.721   0.373   2.445 -0.1538 -1.8118  0.9851
 5476SOL     OW28063   0.561   3.168   3.038  0.2706  0.3606 -0.5650
 5476SOL    HW128064   0.560   3.167   3.134  0.5087 -0.2999 -0.5657
 5476SOL    HW228065   0.496   3.098   3.031  0.3908  0.2001 -0.0904
 5477SOL     OW28066   0.212   1.666   7.316 -0.6466 -0.3581  0.1865
 5477SOL    HW128067   0.247   1.583   7.351  0.6602  0.3858  0.6602
 5477SOL    HW228068   0.252   1.720   7.384  0.6995 -1.9616  0.6906
 5478SOL     OW28069   0.152   1.838  16.824  0.1480  0.2168 -0.1543
 5478SOL    HW128070   0.234   1.875  16.791  0.7268  0.9392  2.1226
 5478SOL    HW228071   0.107   1.811  16.744  1.5991  0.8899 -1.1954
 5479SOL     OW28072   0.418   0.164   5.136  0.1744  0.4662 -0.0179
 5479SOL    HW128073   0.437   0.151   5.043  1.1309  1.8702 -0.0143
 5479SOL    HW228074   0.371   0.086   5.166  0.8191 -0.6816 -1.9851
 5480SOL     OW28075   0.175   1.195   4.118  0.6125 -0.1702  0.2209
 5480SOL    HW128076   0.173   1.209   4.213  2.9939 -0.0717  0.2491
 5480SOL    HW228077   0.228   1.267   4.084 -0.0867  0.0448 -0.4116
 5481SOL     OW28078   0.753   1.162   2.993  0.1552 -0.2580  0.2880
 5481SOL    HW128079   0.703   1.211   2.927  1.4034  0.7891  0.1151
 5481SOL    HW228080   0.836   1.205   2.972  0.7746 -3.2780 -3.3499
 5482SOL     OW28081   0.380   4.717   1.692 -0.4980  0.3850 -0.4449
 5482SOL    HW128082   0.324   0.051   1.722 -1.9658 -1.4034  1.1534
 5482SOL    HW228083   0.440   4.702   1.765 -1.1285  0.1188  0.0173
 5483SOL     OW28084   0.278   0.070   0.770  0.1871 -0.0146  0.2591
 5483SOL    HW128085   0.366   0.040   0.790  0.5611  0.9723  0.0562
 5483SOL    HW228086   0.261   0.003   0.703 -0.3884 -1.6259  2.0021
 5484SOL     OW28087   2.061   1.643   7.879 -0.3354  0.5421  0.0370
 5484SOL    HW128088   2.024   1.571   7.930 -2.1327  0.5071 -1.3059
 5484SOL    HW228089   1.978   1.669   7.840 -0.2633 -0.0079 -0.4880
 5485SOL     OW28090   0.972   4.654  14.646  0.0819  0.4709  0.0215
 5485SOL    HW128091   1.053   4.602  14.650 -0.5229 -0.2921  2.1156
 5485SOL    HW228092   1.002   0.001  14.676  0.4881 -0.3646  1.9735
 5486SOL     OW28093   3.275   3.595   7.185 -0.0928 -0.3183 -0.2349
 5486SOL    HW128094   3.227   3.657   7.130  1.0337  1.1765  0.4785
 5486SOL    HW228095   3.355   3.647   7.192  0.2211 -0.5463 -2.0428
 5487SOL     OW28096   3.814   0.100   5.994  0.2161 -0.9758 -0.4032
 5487SOL    HW128097   3.880   0.120   5.928  1.4275  0.9801  1.4363
 5487SOL    HW228098   3.741   0.148   5.954  0.3406  1.2500  2.0400
 5488SOL     OW28099   1.407   1.233  12.801  0.1924 -0.0781 -0.2298
 5488SOL    HW128100   1.377   1.152  12.760  1.7930 -1.7865  1.9840
 5488SOL    HW228101   1.361   1.281  12.732 -0.9143 -2.3790 -1.0897
 5489SOL     OW28102   0.646   1.469   5.402 -0.5873 -0.4860 -0.1716
 5489SOL    HW128103   0.624   1.457   5.495  1.7474  0.6784  0.5296
 5489SOL    HW228104   0.714   1.534   5.386 -1.6938  1.4531  2.9051
 5490SOL     OW28105   1.488   3.338  16.355 -0.0946  0.4638 -0.0198
 5490SOL    HW128106   1.525   3.424  16.373  1.3225  0.0793 -1.0982
 5490SOL    HW228107   1.425   3.320  16.424 -0.4813  1.2162 -0.1800
 5491SOL     OW28108   4.291   0.599   9.466  0.0047  0.5827  0.0231
 5491SOL    HW128109   4.271   0.537   9.537 -1.1064  0.6171 -0.2598
 5491SOL    HW228110   4.284   0.550   9.384 -0.3330  0.2191  0.2688
 5492SOL     OW28111   2.095   0.584   5.978  0.6819  0.1949  0.2075
 5492SOL    HW128112   2.117   0.669   5.940 -0.8693  0.9826  1.1020
 5492SOL    HW228113   2.000   0.573   5.970  1.1433 -2.2540 -2.0279
 5493SOL     OW28114   2.952   3.179   4.028  0.1669  0.3486 -0.3612
 5493SOL    HW128115   2.870   3.135   4.005  0.2558 -0.1353  0.2333
 5493SOL    HW228116   2.973   3.131   4.108  1.8861  1.2970 -0.2433
 5494SOL     OW28117   4.351   3.458   7.128  0.1738  0.2244 -0.0875
 5494SOL    HW128118   4.363   3.435   7.036 -0.1989 -0.8272  0.1256
 5494SOL    HW228119   4.439   3.434   7.158  0.0561 -0.8257 -0.5760
 5495SOL     OW28120   2.547   1.077   8.888 -0.6559  0.1785 -0.8548
 5495SOL    HW128121   2.454   1.093   8.875 -0.7456 -0.5917 -1.1043
 5495SOL    HW228122   2.564   1.008   8.824  0.7607  1.2456 -1.6496
 5496SOL     OW28123   1.693   2.328   1.717  0.1836 -0.7451 -0.2301
 5496SOL    HW128124   1.644   2.337   1.635  1.9914 -0.7263 -1.3244
 5496SOL    HW228125   1.747   2.252   1.696  0.4200 -0.1916 -1.6190
 5497SOL     OW28126   2.893   1.798   9.402 -0.2021  0.0336 -0.5955
 5497SOL    HW128127   2.934   1.838   9.326  0.4566  0.5226  0.0156
 5497SOL    HW228128   2.950   1.826   9.474 -1.6051 -0.8155  0.8474
 5498SOL     OW28129   2.885   4.220   6.138 -0.2749 -0.1128 -0.0325
 5498SOL    HW128130   2.978   4.198   6.141 -0.3928 -0.5467  0.4856
 5498SOL    HW228131   2.852   4.154   6.198  2.1844  0.3458  1.8432
 5499SOL     OW28132   0.445   0.050  17.120 -0.2633  0.5712 -0.1514
 5499SOL    HW128133   0.452   0.072  17.027  1.0585  1.5852  0.1830
 5499SOL    HW228134   0.370   4.729  17.124 -0.4483  0.8518  0.6223
 5500SOL     OW28135   2.734   0.131   6.568  0.2325 -0.1266 -0.0267
 5500SOL    HW128136   2.722   0.172   6.654  0.1716  1.4322 -0.7742
 5500SOL    HW228137   2.824   0.103   6.583  0.3985  0.3666 -0.0998
 5501SOL     OW28138   1.278   3.994   4.353 -0.2566 -0.3566  0.0576
 5501SOL    HW128139   1.210   3.935   4.388 -0.8165  0.3637  0.1903
 5501SOL    HW228140   1.225   4.022   4.279  2.4551  0.4057 -1.5814
 5502SOL     OW28141   1.124   1.198  14.013  0.1830 -0.0929 -0.2755
 5502SOL    HW128142   1.137   1.212  14.107  3.3291 -1.9698 -0.4520
 5502SOL    HW228143   1.038   1.239  13.998 -0.2894 -0.9718  0.0381
 5503SOL     OW28144   1.208   4.316   9.046  0.0620  0.5586 -0.4846
 5503SOL    HW128145   1.124   4.300   9.088 -0.3761 -0.5274 -1.7759
 5503SOL    HW228146   1.232   4.393   9.098  2.6907  0.3231 -1.3406
 5504SOL     OW28147   0.705   3.442   6.815 -0.1598 -0.0053 -0.1796
 5504SOL    HW128148   0.688   3.523   6.766  0.5623 -0.6020 -1.4251
 5504SOL    HW228149   0.771   3.474   6.875  0.2783 -0.2962 -0.5039
 5505SOL     OW28150   1.323   0.441   1.046  0.3872 -0.1372  0.8913
 5505SOL    HW128151   1.270   0.517   1.021  1.2871  0.1193 -0.2539
 5505SOL    HW228152   1.256   0.374   1.060 -0.1652  0.3237  0.4409
 5506SOL     OW28153   4.365   3.948   8.307  0.1902 -0.3965  0.1783
 5506SOL    HW128154   4.407   3.997   8.378 -4.2862  1.8447  1.2605
 5506SOL    HW228155   4.430   3.881   8.286 -0.3664 -0.7946 -0.2635
 5507SOL     OW28156   4.307   4.718  15.098 -0.0848 -0.4479 -0.2815
 5507SOL    HW128157   4.313   4.667  15.179  1.3970 -1.4301 -0.9973
 5507SOL    HW228158   4.216   4.730  15.073 -0.6845 -0.7361  1.7968
 5508SOL     OW28159   4.446   1.524   1.694 -0.2307 -0.3549  0.4696
 5508SOL    HW128160   4.438   1.578   1.616 -0.4285  0.0695  0.7815
 5508SOL    HW228161   4.438   1.578   1.773 -0.3586 -0.9564  0.8721
 5509SOL     OW28162   2.065   1.618   3.801  0.0181  0.5615 -0.2782
 5509SOL    HW128163   2.041   1.553   3.866 -3.3634 -0.6845 -2.8098
 5509SOL    HW228164   2.079   1.563   3.724  1.7136  2.0687 -1.0842
 5510SOL     OW28165   3.527   1.540  16.172  0.5736  0.0703 -0.2172
 5510SOL    HW128166   3.479   1.457  16.176 -0.8455  0.9004  0.1083
 5510SOL    HW228167   3.573   1.539  16.256  1.3438  2.1259 -0.6204
 5511SOL     OW28168   3.433   2.301   4.402 -0.3357  0.1791  0.2305
 5511SOL    HW128169   3.373   2.244   4.451 -1.5094 -0.7532 -2.2836
 5511SOL    HW228170   3.396   2.388   4.418  0.0269  0.5148 -0.7272
 5512SOL     OW28171   0.106   1.122  10.973 -0.3592 -0.0710  0.0947
 5512SOL    HW128172   0.069   1.121  11.061 -0.4294 -0.1981  0.0638
 5512SOL    HW228173   0.167   1.195  10.989 -0.3977 -0.3048  1.2678
 5513SOL     OW28174   1.280   0.464   8.177 -0.1440 -0.3487 -0.2557
 5513SOL    HW128175   1.213   0.425   8.120 -0.7815 -0.1932  0.3903
 5513SOL    HW228176   1.273   0.409   8.255 -1.3694 -1.4838 -1.1505
 5514SOL     OW28177   1.507   0.355   3.084  0.1978  0.2388  0.2942
 5514SOL    HW128178   1.524   0.294   3.155  0.5931  1.0238  0.8756
 5514SOL    HW228179   1.512   0.432   3.141  1.5831 -2.4827  3.7904
 5515SOL     OW28180   0.583   1.638  11.924  0.4871 -0.7386 -0.4183
 5515SOL    HW128181   0.584   1.547  11.955 -0.6134 -0.6471 -0.1213
 5515SOL    HW228182   0.668   1.672  11.954  0.4988 -2.1819  1.1928
 5516SOL     OW28183   0.210   3.048   2.798  0.1855 -0.6836 -0.6623
 5516SOL    HW128184   0.148   3.119   2.815 -0.0141 -1.3775  1.4863
 5516SOL    HW228185   0.149   2.984   2.760 -0.3518  0.2628 -1.4025
 5517SOL     OW28186   3.390   0.009  16.712  0.6412 -0.0976  0.0311
 5517SOL    HW128187   3.479   0.039  16.730  0.4642  0.1860  0.4311
 5517SOL    HW228188   3.376   0.052  16.627 -0.3547  0.5805  0.5367
 5518SOL     OW28189   2.731   4.651   5.642 -0.4494  0.1317  0.1937
 5518SOL    HW128190   2.657   4.599   5.674 -2.5458  3.4874  0.7036
 5518SOL    HW228191   2.695   4.738   5.626 -1.0108  0.1310  1.4531
 5519SOL     OW28192   3.441   0.198   2.651 -0.0711  0.1316 -0.0190
 5519SOL    HW128193   3.529   0.232   2.662 -0.6053  1.3606  0.4221
 5519SOL    HW228194   3.382   0.252   2.704 -0.5400 -0.9374  0.5529
 5520SOL     OW28195   0.385   1.326   5.659  0.1227  0.4320  0.1799
 5520SOL    HW128196   0.469   1.365   5.636  0.2688  0.5307  0.8919
 5520SOL    HW228197   0.356   1.288   5.576  0.5129  1.2170 -0.3116
 5521SOL     OW28198   2.742   2.808  15.822 -0.3195  0.4033  0.5515
 5521SOL    HW128199   2.703   2.796  15.736  1.1545 -0.3022 -0.0118
 5521SOL    HW228200   2.770   2.898  15.806  2.9536 -0.7406 -0.2369
 5522SOL     OW28201   0.964   4.034   2.915 -0.0473 -0.1681 -0.1287
 5522SOL    HW128202   0.905   3.974   2.962  0.8987 -1.2027 -0.2616
 5522SOL    HW228203   1.030   4.052   2.982  1.4290  1.5193 -2.0469
 5523SOL     OW28204   3.938   0.388   2.156 -0.0182  0.2050 -0.3185
 5523SOL    HW128205   3.864   0.385   2.216  0.2792  0.8929  0.0909
 5523SOL    HW228206   3.903   0.462   2.106  2.8202  1.4146 -0.4826
 5524SOL     OW28207   3.374   2.745   7.157  0.6525  0.0521 -0.2506
 5524SOL    HW128208   3.355   2.686   7.230 -1.4808  1.6845  0.5016
 5524SOL    HW228209   3.403   2.686   7.087 -0.2525 -1.1950  0.4230
 5525SOL     OW28210   4.716   1.206   2.425 -0.0009  0.3689 -0.4448
 5525SOL    HW128211   4.711   1.133   2.363 -0.3688 -1.4930  1.8177
 5525SOL    HW228212   4.643   1.185   2.483 -0.3233  1.6777 -0.3728
 5526SOL     OW28213   2.546   0.628   3.612  0.0861 -0.2208  0.3621
 5526SOL    HW128214   2.637   0.627   3.640  0.1367  1.7690  0.2691
 5526SOL    HW228215   2.507   0.556   3.661 -0.2688  0.7081  1.4367
 5527SOL     OW28216   0.667   1.156   5.061  0.4649  0.2505 -0.2905
 5527SOL    HW128217   0.719   1.154   4.981  1.3449  0.4483  0.2804
 5527SOL    HW228218   0.730   1.183   5.127 -0.3912  0.4962  0.4244
 5528SOL     OW28219   0.373   0.033   5.579  0.1466  0.8892  0.1124
 5528SOL    HW128220   0.323   0.048   5.659 -0.7823 -1.9654  0.0639
 5528SOL    HW228221   0.449   4.725   5.615 -0.4278  0.0526  0.2281
 5529SOL     OW28222   4.109   1.133   7.222 -0.1702  0.2031  0.0260
 5529SOL    HW128223   4.017   1.113   7.240 -0.0106 -0.6355 -0.0649
 5529SOL    HW228224   4.099   1.225   7.201 -0.9541 -0.0751 -0.8289
 5530SOL     OW28225   0.013   4.373   5.603  0.4513  0.2654 -0.0870
 5530SOL    HW128226   4.666   4.347   5.635  0.4297  1.8587  1.1781
 5530SOL    HW228227   0.056   4.288   5.604 -2.4379 -1.1967 -1.0908
 5531SOL     OW28228   4.381   4.582   7.295 -0.2973 -0.2304  0.1661
 5531SOL    HW128229   4.331   4.662   7.310 -1.7860 -1.0947 -0.2113
 5531SOL    HW228230   4.338   4.531   7.227 -1.0349  0.1037  0.3884
 5532SOL     OW28231   0.877   3.041  15.105 -0.1017 -0.0281 -0.0120
 5532SOL    HW128232   0.900   3.048  15.012 -1.4173  0.6299 -0.2903
 5532SOL    HW228233   0.831   2.960  15.123  1.0377 -0.6803 -0.0184
 5533SOL     OW28234   0.892   0.072   2.854 -0.1329  0.1339 -0.5617
 5533SOL    HW128235   0.874   4.733   2.906  0.1407  1.6251  1.7671
 5533SOL    HW228236   0.984   0.077   2.878  0.0211  0.9533 -1.3004
 5534SOL     OW28237   0.427   4.640  15.075 -0.0564 -0.8927 -0.0560
 5534SOL    HW128238   0.516   4.662  15.103 -0.2069 -1.7045  1.0927
 5534SOL    HW228239   0.441   4.565  15.017 -1.0567 -0.9989 -0.1538
 5535SOL     OW28240   3.690   2.749   2.515 -0.3393 -0.1849 -0.2512
 5535SOL    HW128241   3.749   2.790   2.452  0.9194 -0.3088  0.8661
 5535SOL    HW228242   3.605   2.745   2.471  0.8663  0.4672 -2.6083
 5536SOL     OW28243   4.280   2.868  11.540  0.3486  0.0038  0.1400
 5536SOL    HW128244   4.221   2.910  11.478  1.8090  1.4987 -0.2602
 5536SOL    HW228245   4.354   2.930  11.542 -0.0923  0.5393 -0.1173
 5537SOL     OW28246   4.150   2.182   6.009  0.1216 -0.3480 -0.4461
 5537SOL    HW128247   4.212   2.117   6.041  1.2452  1.3488  0.8559
 5537SOL    HW228248   4.204   2.212   5.936  1.0813 -1.8313 -0.3488
 5538SOL     OW28249   4.019   3.222   9.828  0.1424 -0.8029  0.0438
 5538SOL    HW128250   4.060   3.286   9.770  1.5033 -1.3426  0.4222
 5538SOL    HW228251   3.998   3.287   9.896  3.4352  1.4648 -1.1136
 5539SOL     OW28252   1.353   2.977   3.276 -0.2057 -0.5819  0.1831
 5539SOL    HW128253   1.375   2.929   3.197  1.4979 -0.1494  0.4085
 5539SOL    HW228254   1.417   3.048   3.269 -2.9601  1.7458 -1.5948
 5540SOL     OW28255   0.088   4.464   3.161  0.0359  0.0344 -0.2656
 5540SOL    HW128256   0.030   4.523   3.113  1.3675  0.6985 -1.0690
 5540SOL    HW228257   0.089   4.387   3.104 -2.2249  0.6134 -1.0998
 5541SOL     OW28258   3.479   3.686   3.160  0.2683  0.2880  0.0577
 5541SOL    HW128259   3.498   3.743   3.234 -0.3055 -0.6736  0.9364
 5541SOL    HW228260   3.396   3.728   3.138  1.1067  1.6270 -0.5746
 5542SOL     OW28261   4.707   2.200  12.730 -0.4136  0.1811  0.1347
 5542SOL    HW128262   4.618   2.196  12.765  0.6221 -1.2967  2.6343
 5542SOL    HW228263   4.711   2.108  12.705 -0.0879  0.4535 -0.7980
 5543SOL     OW28264   0.201   0.877   2.517  0.3204 -0.1631 -0.5231
 5543SOL    HW128265   0.160   0.867   2.603  1.4396  1.5319  0.2267
 5543SOL    HW228266   0.127   0.841   2.468 -0.5186  3.3278 -1.8022
 5544SOL     OW28267   3.911   0.026   9.859  0.0117  0.4839 -0.1345
 5544SOL    HW128268   3.876   0.017   9.771  1.0010  0.3448 -0.5116
 5544SOL    HW228269   3.848   4.716   9.912 -0.0957  0.7107 -0.0517
 5545SOL     OW28270   3.915   1.801   2.881 -0.4692 -0.3590 -0.3360
 5545SOL    HW128271   3.825   1.828   2.861  0.5098  2.3809 -1.1305
 5545SOL    HW228272   3.948   1.811   2.791 -0.0585  1.1408 -0.0181
 5546SOL     OW28273   3.996   2.311  12.745 -0.2051 -0.6087 -0.5170
 5546SOL    HW128274   4.047   2.338  12.821 -2.9384  2.0526  0.3356
 5546SOL    HW228275   4.045   2.233  12.719 -0.0415 -1.4887  2.4688
 5547SOL     OW28276   4.169   2.017   8.792 -0.1904 -0.8410 -0.0398
 5547SOL    HW128277   4.211   2.019   8.878 -2.2797  1.0158  0.9367
 5547SOL    HW228278   4.076   2.025   8.811 -0.3277 -1.2500 -0.5712
 5548SOL     OW28279   4.581   0.601   1.492  0.1953 -0.0553  0.2622
 5548SOL    HW128280   4.609   0.549   1.417  1.6710  1.6346 -0.3507
 5548SOL    HW228281   4.498   0.643   1.467  0.2086 -0.2770 -0.1519
 5549SOL     OW28282   3.304   1.618   1.869  0.0294 -0.0346  0.4611
 5549SOL    HW128283   3.303   1.539   1.814  2.0975  1.0551 -1.1683
 5549SOL    HW228284   3.395   1.634   1.895  0.9958 -1.8527 -1.7291
 5550SOL     OW28285   1.520   0.702   7.987  0.2690 -0.0577 -0.0403
 5550SOL    HW128286   1.596   0.686   8.043  0.6942 -1.1839 -0.9622
 5550SOL    HW228287   1.450   0.715   8.052 -1.0114 -1.2314 -1.1929
 5551SOL     OW28288   3.779   1.407   9.335 -0.1874  0.0163  0.2508
 5551SOL    HW128289   3.838   1.356   9.391 -0.9057 -0.2204  0.7821
 5551SOL    HW228290   3.728   1.449   9.404 -1.5903 -1.6664  0.2393
 5552SOL     OW28291   0.659   0.675  14.419  0.5642  0.0743  0.2752
 5552SOL    HW128292   0.570   0.640  14.417  0.8984 -0.6331 -1.6721
 5552SOL    HW228293   0.623   0.760  14.444  0.6547  0.4149 -0.7685
 5553SOL     OW28294   1.493   0.008   2.817  0.1890  0.5794  0.0879
 5553SOL    HW128295   1.534   0.056   2.746 -3.6835  1.1840 -1.7666
 5553SOL    HW228296   1.548   4.669   2.809 -1.9835 -1.2272  2.5548
 5554SOL     OW28297   1.423   3.941  15.610  0.0421  0.2259  0.4000
 5554SOL    HW128298   1.412   3.946  15.515  0.8064  1.8326  0.3972
 5554SOL    HW228299   1.516   3.916  15.612  0.2592  1.1456  2.0824
 5555SOL     OW28300   1.406   0.090   0.733 -0.9826  0.1952  0.0979
 5555SOL    HW128301   1.324   0.139   0.742 -0.5086  0.5381  2.5206
 5555SOL    HW228302   1.440   0.104   0.821 -1.9765 -1.6932  0.7614
 5556SOL     OW28303   4.548   2.070  12.271 -0.3280 -0.0739 -0.4053
 5556SOL    HW128304   4.499   2.055  12.351  0.7520  2.1239  0.6665
 5556SOL    HW228305   4.582   2.155  12.298  0.3879  0.0830 -1.7767
 5557SOL     OW28306   4.115   2.405  11.422  0.1135 -0.2395 -0.4098
 5557SOL    HW128307   4.106   2.310  11.429 -0.1469 -0.0045  2.3314
 5557SOL    HW228308   4.102   2.423  11.515 -0.8046 -0.8712 -0.4120
 5558SOL     OW28309   2.142   1.663   6.934  0.3930  0.1639 -0.8997
 5558SOL    HW128310   2.206   1.592   6.934  0.1198 -0.1007  2.8862
 5558SOL    HW228311   2.113   1.647   7.024 -0.2631 -0.5337 -1.2225
 5559SOL     OW28312   3.294   0.518   5.802 -0.2078 -0.2181 -0.0032
 5559SOL    HW128313   3.228   0.463   5.759 -1.9395  3.2612 -1.7928
 5559SOL    HW228314   3.236   0.585   5.840  0.0142  0.4164 -0.7921
 5560SOL     OW28315   4.015   2.797   7.456  0.0638 -0.0938  0.0080
 5560SOL    HW128316   3.969   2.831   7.379 -1.6973  0.0899  1.1273
 5560SOL    HW228317   4.025   2.883   7.498  1.2046 -0.0162 -0.4226
 5561SOL     OW28318   2.981   2.428   7.143  0.0653  0.0269  0.2758
 5561SOL    HW128319   3.058   2.481   7.122  0.2155 -1.2709 -2.5063
 5561SOL    HW228320   2.990   2.364   7.072 -1.8180 -0.2310  0.2915
 5562SOL     OW28321   1.583   3.788  11.208  0.3100 -0.1434  0.4745
 5562SOL    HW128322   1.510   3.841  11.239  0.1412 -0.5601  0.7836
 5562SOL    HW228323   1.630   3.780  11.291 -0.2920  0.3329  0.8633
 5563SOL     OW28324   1.769   1.466   9.358  0.1951 -0.0742  0.2385
 5563SOL    HW128325   1.711   1.498   9.427  0.7806  0.1370  0.6254
 5563SOL    HW228326   1.746   1.373   9.347  0.6542 -0.0868 -0.6470
 5564SOL     OW28327   2.488   2.982   7.732  0.3792  0.5408  0.1154
 5564SOL    HW128328   2.430   3.032   7.789 -0.6628  0.2332 -0.6605
 5564SOL    HW228329   2.563   2.972   7.790 -0.7156 -1.0083  1.2762
 5565SOL     OW28330   4.324   3.576   3.311  0.1839  0.8154  0.1149
 5565SOL    HW128331   4.259   3.532   3.366  1.2039  0.3950  0.9848
 5565SOL    HW228332   4.338   3.506   3.247 -1.2828 -0.6611  1.4286
 5566SOL     OW28333   1.102   1.819  15.238 -0.3348 -0.1114 -0.5942
 5566SOL    HW128334   1.082   1.726  15.253 -3.1211  0.6044  0.1269
 5566SOL    HW228335   1.071   1.832  15.149  3.0314 -0.1853 -1.7685
 5567SOL     OW28336   2.498   0.200   0.478  0.0291  0.3354 -0.5991
 5567SOL    HW128337   2.492   0.292   0.453  0.4025  0.7033  0.6403
 5567SOL    HW228338   2.451   0.203   0.562 -0.6737 -2.8705 -0.8692
 5568SOL     OW28339   0.617   3.723   1.441 -0.1272  0.4048  0.0770
 5568SOL    HW128340   0.644   3.763   1.523 -0.4230  0.0798  0.3293
 5568SOL    HW228341   0.535   3.677   1.460 -0.9630  1.7333 -0.3277
 5569SOL     OW28342   3.852   3.715   2.533 -0.4814  0.0302  0.6914
 5569SOL    HW128343   3.922   3.665   2.576 -0.8221 -0.8219  0.2434
 5569SOL    HW228344   3.869   3.698   2.440 -2.0260 -2.0669  0.7835
 5570SOL     OW28345   3.129   3.246   3.718 -0.3438 -0.0852 -0.7978
 5570SOL    HW128346   3.087   3.306   3.656 -3.0486 -0.4889  0.6262
 5570SOL    HW228347   3.168   3.182   3.658  0.5841  0.0917 -0.3741
 5571SOL     OW28348   0.765   2.963  17.189  0.0224  0.4452 -0.2885
 5571SOL    HW128349   0.704   2.944  17.260  1.7867 -0.2073  1.0236
 5571SOL    HW228350   0.833   2.899  17.208 -0.9098  0.0418  1.6947
 5572SOL     OW28351   1.013   4.613   4.148 -0.1085  0.2169  0.1224
 5572SOL    HW128352   0.942   4.609   4.085 -0.7812 -1.6508  1.0137
 5572SOL    HW228353   1.009   4.706   4.173 -1.5428 -0.0979  1.0302
 5573SOL     OW28354   0.451   1.666   6.477 -0.3356 -0.1952 -0.4383
 5573SOL    HW128355   0.496   1.751   6.473 -1.3607  0.5395  3.4313
 5573SOL    HW228356   0.388   1.671   6.406 -1.2770 -0.0282  0.4057
 5574SOL     OW28357   1.750   3.398   6.462  0.0584  0.3106 -0.1233
 5574SOL    HW128358   1.826   3.425   6.514 -0.0760  0.1857  0.1429
 5574SOL    HW228359   1.737   3.311   6.500  1.5205  0.6097  1.1050
 5575SOL     OW28360   0.698   1.705   3.009  0.1065  0.6263  0.7313
 5575SOL    HW128361   0.624   1.645   3.016  0.9156 -0.3546  0.9245
 5575SOL    HW228362   0.735   1.695   3.097  0.8264  1.3646  0.5113
 5576SOL     OW28363   2.540   4.735   1.830  0.1013 -0.4202 -0.0310
 5576SOL    HW128364   2.483   0.072   1.816  1.3702  0.6772  0.6436
 5576SOL    HW228365   2.588   0.019   1.910  1.7581  0.6797 -1.3341
 5577SOL     OW28366   4.207   2.795   2.351  0.1552 -0.3501  0.2964
 5577SOL    HW128367   4.146   2.868   2.339 -0.1884 -0.4806  1.2779
 5577SOL    HW228368   4.289   2.845   2.350  1.1052 -1.9111 -0.5771
 5578SOL     OW28369   0.047   0.210   1.239  0.3271 -0.2802 -0.3876
 5578SOL    HW128370   0.125   0.175   1.281 -0.8291  0.6417  2.5459
 5578SOL    HW228371   0.070   0.188   1.149 -0.3824  1.4226 -0.9988
 5579SOL     OW28372   4.657   0.232   4.881 -0.7494  0.0639 -0.6065
 5579SOL    HW128373   0.000   0.189   4.858  0.7699  2.0343  1.1635
 5579SOL    HW228374   4.589   0.170   4.855 -0.8767 -0.0038 -0.1116
 5580SOL     OW28375   2.327   1.501   2.898  0.1753  0.1371 -0.3054
 5580SOL    HW128376   2.377   1.466   2.824 -1.2757  0.0543 -1.2385
 5580SOL    HW228377   2.256   1.441   2.920  1.6555 -2.2988 -2.1985
 5581SOL     OW28378   0.740   1.452   6.869  0.6138 -0.3723  0.0139
 5581SOL    HW128379   0.662   1.402   6.846  0.1771  0.9401 -1.3580
 5581SOL    HW228380   0.694   1.535   6.873  3.9152  1.4834  0.0428
 5582SOL     OW28381   1.379   0.294   2.460  0.0057  0.0747  0.6791
 5582SOL    HW128382   1.415   0.271   2.374  1.1119  3.1344  0.3398
 5582SOL    HW228383   1.459   0.297   2.512 -1.1386  0.5486  2.3986
 5583SOL     OW28384   1.837   0.217   6.048 -0.1132  0.2359 -0.5718
 5583SOL    HW128385   1.861   0.176   5.964 -0.1548 -0.1860 -0.3796
 5583SOL    HW228386   1.752   0.176   6.065  0.0541  1.3360  2.8448
 5584SOL     OW28387   1.399   0.689   0.467  0.3172 -0.4006 -0.3556
 5584SOL    HW128388   1.436   0.746   0.535 -0.7806 -0.4187  0.2596
 5584SOL    HW228389   1.336   0.747   0.427  0.9310 -2.0354 -3.6919
 5585SOL     OW28390   0.353   1.045   3.857 -0.1505 -0.1070 -0.2127
 5585SOL    HW128391   0.449   1.038   3.852 -0.0487  0.2659  1.3329
 5585SOL    HW228392   0.340   1.112   3.791  1.1768  0.9919  0.6460
 5586SOL     OW28393   0.683   2.928   7.745 -0.1466 -0.2925 -0.0931
 5586SOL    HW128394   0.661   2.923   7.838  1.0610 -0.1931  0.1889
 5586SOL    HW228395   0.775   2.951   7.755  0.1546 -0.5423 -2.1896
 5587SOL     OW28396   4.012   3.983   8.076  0.4824  0.0840  0.2180
 5587SOL    HW128397   3.920   3.954   8.079  0.7504 -0.8126 -0.1900
 5587SOL    HW228398   4.031   4.016   8.164  1.3012 -0.9475  0.4313
 5588SOL     OW28399   1.474   2.834   2.057 -0.1177 -0.1421 -0.5155
 5588SOL    HW128400   1.491   2.818   1.965 -1.1809  1.2320 -0.9511
 5588SOL    HW228401   1.381   2.855   2.052 -0.2806 -0.8897 -0.5183
 5589SOL     OW28402   2.316   0.739  11.426 -0.4902  0.3201 -0.0906
 5589SOL    HW128403   2.273   0.659  11.394 -1.2830  1.3200 -1.5160
 5589SOL    HW228404   2.311   0.722  11.520 -0.5959  1.1231  0.0470
 5590SOL     OW28405   2.829   2.393   3.745  0.3210 -0.0868  0.6903
 5590SOL    HW128406   2.886   2.321   3.719 -1.1437 -0.3852 -1.6755
 5590SOL    HW228407   2.881   2.431   3.816  0.0847  0.9107  0.3345
 5591SOL     OW28408   0.716   4.477   4.817  0.5065  0.1492 -0.0826
 5591SOL    HW128409   0.662   4.545   4.776 -1.2684 -2.4295 -2.0007
 5591SOL    HW228410   0.802   4.518   4.830  0.6529 -0.1223 -0.1936
 5592SOL     OW28411   4.373   2.395  12.271  0.9260  0.4780  0.2701
 5592SOL    HW128412   4.438   2.351  12.325  0.3487  3.0654  3.0322
 5592SOL    HW228413   4.407   2.389  12.181  0.5163  0.3278  0.1252
 5593SOL     OW28414   1.085   0.550   4.618  0.0399 -0.2682  1.0899
 5593SOL    HW128415   1.084   0.597   4.535 -1.7432  0.7540  1.6769
 5593SOL    HW228416   1.166   0.499   4.617 -0.2059 -0.6272  0.3408
 5594SOL     OW28417   1.892   2.202  17.281 -0.0118  0.1001  0.2794
 5594SOL    HW128418   1.803   2.169  17.287 -0.0380  0.0120 -0.6086
 5594SOL    HW228419   1.933   2.153  17.210  2.3710  0.5185  1.3556
 5595SOL     OW28420   2.739   1.819  11.778  0.1249  0.2353 -0.1008
 5595SOL    HW128421   2.774   1.893  11.828  1.0336  0.4048 -0.9837
 5595SOL    HW228422   2.795   1.744  11.796  0.7848  0.6196 -0.5368
 5596SOL     OW28423   4.043   0.241   2.730 -0.2671  0.6174  0.1616
 5596SOL    HW128424   3.964   0.266   2.778 -1.1416 -0.1397 -0.8871
 5596SOL    HW228425   4.000   0.165   2.691  1.7134  0.0381 -0.8748
 5597SOL     OW28426   3.375   2.040   8.491  0.2699 -0.6481  0.1832
 5597SOL    HW128427   3.347   2.103   8.424  0.4214  0.4211  1.1235
 5597SOL    HW228428   3.414   2.086   8.566  1.5079  0.3531 -1.0629
 5598SOL     OW28429   1.052   2.770  13.825 -0.0112 -0.0187 -0.0060
 5598SOL    HW128430   1.111   2.695  13.829 -0.6751 -0.5287  0.3217
 5598SOL    HW228431   1.043   2.785  13.731 -0.9336 -3.7232 -0.4954
 5599SOL     OW28432   4.128   0.231   5.214  0.1139  0.3188  0.5059
 5599SOL    HW128433   4.129   0.301   5.279 -1.1902  0.4210  0.4154
 5599SOL    HW228434   4.215   0.238   5.175  0.2988  3.3121  1.4674
 5600SOL     OW28435   2.326   3.514   6.026  0.1606  0.6443 -1.1634
 5600SOL    HW128436   2.290   3.587   5.975  2.7892  1.5046 -1.7907
 5600SOL    HW228437   2.420   3.530   6.017  0.7356 -0.9093  2.1291
 5601SOL     OW28438   0.535   1.313  14.068 -0.1751 -0.3703 -0.3514
 5601SOL    HW128439   0.516   1.351  14.153  0.8740 -0.4373 -0.0873
 5601SOL    HW228440   0.449   1.304  14.026 -0.7081  2.6496  0.0754
 5602SOL     OW28441   1.896   2.186   9.117 -0.4383  0.0489  0.4262
 5602SOL    HW128442   1.833   2.249   9.081  1.3880  1.2939 -0.5672
 5602SOL    HW228443   1.925   2.135   9.041 -0.3089  0.3793  0.2561
 5603SOL     OW28444   4.060   3.518  14.283  0.3501  0.1097  0.1141
 5603SOL    HW128445   4.008   3.498  14.205  2.1940  1.4005 -1.4538
 5603SOL    HW228446   4.012   3.590  14.322 -0.4488  0.1495 -0.9499
 5604SOL     OW28447   1.435   4.657   9.202  0.1760 -0.8844 -0.1528
 5604SOL    HW128448   1.432   4.719   9.274  1.5366  0.4742 -1.2678
 5604SOL    HW228449   1.526   4.666   9.172 -0.9861  1.7674 -2.8364
 5605SOL     OW28450   4.003   3.071   1.747 -0.1842 -0.1514 -0.4955
 5605SOL    HW128451   3.948   3.017   1.690 -0.8324 -0.0332  0.0189
 5605SOL    HW228452   4.033   3.005   1.809 -1.7548  1.3000  1.8086
 5606SOL     OW28453   3.809   1.749   6.055  0.2568 -0.5842  0.4143
 5606SOL    HW128454   3.734   1.690   6.061  0.3450 -0.7401 -0.0335
 5606SOL    HW228455   3.867   1.678   6.026 -0.6035 -1.5687  1.0972
 5607SOL     OW28456   1.970   3.317   3.384  0.1756 -0.4600  0.5674
 5607SOL    HW128457   2.035   3.324   3.454  2.8970 -1.5995 -1.8462
 5607SOL    HW228458   2.027   3.324   3.308 -0.1864  2.4576  0.5289
 5608SOL     OW28459   1.453   4.068   9.133 -0.0447  0.2232 -0.0861
 5608SOL    HW128460   1.480   4.077   9.041  1.7970  1.9327  0.6196
 5608SOL    HW228461   1.369   4.024   9.120  1.6815 -2.6088 -1.7037
 5609SOL     OW28462   2.145   1.859   5.924 -0.2323  0.2684  0.0086
 5609SOL    HW128463   2.189   1.933   5.881 -0.0208  0.3772  0.4132
 5609SOL    HW228464   2.072   1.897   5.973 -1.2067 -1.7380  0.1195
 5610SOL     OW28465   2.564   4.345   4.612  0.0664 -0.1256 -0.2240
 5610SOL    HW128466   2.589   4.274   4.671  0.9398  0.6346  0.3370
 5610SOL    HW228467   2.470   4.336   4.598 -0.1245  0.6734  0.5413
 5611SOL     OW28468   2.470   0.578   2.423  0.2948 -0.2061  0.0321
 5611SOL    HW128469   2.442   0.493   2.388 -1.0814  0.2090  0.1371
 5611SOL    HW228470   2.562   0.560   2.441  0.3863  0.2510  0.0140
 5612SOL     OW28471   1.424   3.549   0.739 -0.1947 -0.5120 -0.0698
 5612SOL    HW128472   1.506   3.502   0.754 -0.4313 -0.8964  0.0317
 5612SOL    HW228473   1.401   3.520   0.651  1.4866  3.8949 -1.9139
 5613SOL     OW28474   3.033   2.574  12.698  0.0822 -0.1270 -0.2460
 5613SOL    HW128475   2.993   2.514  12.635 -2.2099  0.8397  0.2790
 5613SOL    HW228476   3.120   2.582  12.658  0.2119 -1.0602 -0.1522
 5614SOL     OW28477   0.080   3.756   4.254  0.5703  0.3854  0.6067
 5614SOL    HW128478   4.738   3.773   4.302  0.4343  1.2115  0.0932
 5614SOL    HW228479   0.101   3.848   4.237 -0.3391  0.4279 -0.3192
 5615SOL     OW28480   3.146   4.370   5.042 -0.0565  0.0822  0.8498
 5615SOL    HW128481   3.233   4.337   5.064 -0.1306  0.0339  1.0609
 5615SOL    HW228482   3.086   4.296   5.042 -1.0275  0.8691  1.4276
 5616SOL     OW28483   2.210   0.111  16.807 -0.1067  0.1948 -0.3315
 5616SOL    HW128484   2.210   0.037  16.746  1.6218 -0.4999  0.5145
 5616SOL    HW228485   2.299   0.143  16.791  0.6054 -1.9558 -0.7055
 5617SOL     OW28486   4.367   1.846   2.433 -0.3880 -0.5235  0.2628
 5617SOL    HW128487   4.316   1.772   2.399 -0.4531 -0.7988  0.9490
 5617SOL    HW228488   4.414   1.800   2.503 -1.6263 -1.9044  0.2011
 5618SOL     OW28489   3.554   1.815  15.553  0.1303 -0.0364 -0.2315
 5618SOL    HW128490   3.569   1.725  15.583 -0.1558  0.5705  1.6602
 5618SOL    HW228491   3.459   1.816  15.548 -0.0850 -1.6753  4.2221
 5619SOL     OW28492   3.568   1.650   6.328  0.2951  0.1865  0.0261
 5619SOL    HW128493   3.650   1.692   6.303  0.5994  0.3734  1.2971
 5619SOL    HW228494   3.550   1.594   6.252 -0.3345 -0.8391  0.9145
 5620SOL     OW28495   2.497   0.281   6.125 -0.5047  0.2830  0.3898
 5620SOL    HW128496   2.413   0.327   6.126 -0.8368 -0.3200  0.8652
 5620SOL    HW228497   2.479   0.232   6.206  2.9948 -3.4648 -1.0908
 5621SOL     OW28498   2.255   3.390   8.986  0.6581  0.4263  0.2296
 5621SOL    HW128499   2.190   3.355   9.047  1.1522 -2.0002 -0.6615
 5621SOL    HW228500   2.335   3.366   9.034  0.5391  1.3895  0.9327
 5622SOL     OW28501   2.290   1.581   8.262 -0.4096  0.0662 -0.2770
 5622SOL    HW128502   2.224   1.646   8.234 -0.2741 -0.0523 -0.8724
 5622SOL    HW228503   2.271   1.514   8.196 -0.7734 -0.7642  0.6853
 5623SOL     OW28504   2.973   4.218   1.859 -0.3894 -0.5094 -0.1811
 5623SOL    HW128505   2.950   4.310   1.844  2.1840  0.0717 -0.7116
 5623SOL    HW228506   2.984   4.215   1.954 -2.0584  0.0252  0.0272
 5624SOL     OW28507   3.262   0.222   0.556  0.6216 -0.1532  0.4268
 5624SOL    HW128508   3.212   0.298   0.585  1.5550  1.1689 -1.4172
 5624SOL    HW228509   3.336   0.274   0.525  0.7914 -1.4765 -1.3530
 5625SOL     OW28510   3.636   0.753   7.820  0.1728  0.3685  0.2213
 5625SOL    HW128511   3.692   0.783   7.892  1.2424  2.9932 -1.7281
 5625SOL    HW228512   3.559   0.730   7.872  1.0262 -1.7011  0.5618
 5626SOL     OW28513   1.413   4.681  12.996  0.8882  0.2011  0.0411
 5626SOL    HW128514   1.395   4.684  13.090 -1.5558  0.0818 -0.4147
 5626SOL    HW228515   1.343   4.734  12.957  0.5765  1.0666  1.8068
 5627SOL     OW28516   3.086   1.520  15.974  0.1772  0.1906 -0.5673
 5627SOL    HW128517   3.113   1.611  15.965  1.0699  0.0900  1.1434
 5627SOL    HW228518   3.162   1.473  15.939  0.2430  0.3163 -0.5918
 5628SOL     OW28519   0.835   4.083   8.748 -0.1872 -0.3648  0.0148
 5628SOL    HW128520   0.796   4.002   8.781  0.7445 -0.7076  0.2629
 5628SOL    HW228521   0.833   4.070   8.653  1.3415 -0.3795 -0.0073
 5629SOL     OW28522   0.930   1.719   6.950 -0.7476  0.6063 -0.7754
 5629SOL    HW128523   0.940   1.769   7.031  0.3788 -0.7413 -0.0873
 5629SOL    HW228524   0.893   1.639   6.986  0.1681  1.1840  1.4740
 5630SOL     OW28525   2.795   1.171   5.694  0.2574 -0.4004 -0.2766
 5630SOL    HW128526   2.787   1.258   5.733 -0.3127 -0.5311 -0.1063
 5630SOL    HW228527   2.850   1.125   5.758  1.2573 -1.9821 -2.2563
 5631SOL     OW28528   0.361   0.369   2.413  0.3748 -0.2857  0.6420
 5631SOL    HW128529   0.455   0.377   2.430  0.5570  0.2994 -0.6500
 5631SOL    HW228530   0.340   0.462   2.412 -1.2549 -0.6848 -2.1672
 5632SOL     OW28531   2.387   0.565   4.866 -0.2846 -0.2249  0.1634
 5632SOL    HW128532   2.326   0.603   4.803  0.9450  2.1631  0.4113
 5632SOL    HW228533   2.470   0.555   4.817  1.1126 -1.1513  2.7340
 5633SOL     OW28534   1.536   3.668   5.708 -0.0977  0.1571  0.2436
 5633SOL    HW128535   1.482   3.627   5.775  0.3283 -0.5764  0.1442
 5633SOL    HW228536   1.482   3.726   5.655 -0.3660 -0.9392 -0.7053
 5634SOL     OW28537   1.764   0.214   4.153 -0.2133 -0.2394 -0.0651
 5634SOL    HW128538   1.682   0.187   4.195 -0.6933 -2.4380 -2.4193
 5634SOL    HW228539   1.793   0.277   4.219  1.2255  0.0754 -1.0097
 5635SOL     OW28540   3.075   3.540   4.370  0.1374  0.0596 -0.1334
 5635SOL    HW128541   2.989   3.505   4.350 -1.6245  3.1265  1.9998
 5635SOL    HW228542   3.106   3.562   4.283 -1.4549  0.6010 -0.5610
 5636SOL     OW28543   2.807   1.734   5.383 -0.2494  0.1181  0.0200
 5636SOL    HW128544   2.881   1.746   5.442 -0.5582  3.2074 -0.2354
 5636SOL    HW228545   2.850   1.754   5.300  2.2408 -2.1303  0.7701
 5637SOL     OW28546   0.556   2.892  16.981 -0.0682  0.1023  0.0642
 5637SOL    HW128547   0.471   2.877  17.023 -0.0925 -0.5214 -0.2109
 5637SOL    HW228548   0.626   2.879  17.045  0.4726  0.1081 -0.5212
 5638SOL     OW28549   0.914   2.386  16.413  0.6346  0.2417 -0.4065
 5638SOL    HW128550   0.942   2.463  16.364  1.6167  0.6526  0.8031
 5638SOL    HW228551   0.821   2.380  16.391  0.3787 -0.5932  0.8771
 5639SOL     OW28552   0.856   0.685   1.880 -0.0482 -0.1105  0.3640
 5639SOL    HW128553   0.768   0.684   1.918 -0.2797 -2.5618 -0.2441
 5639SOL    HW228554   0.880   0.600   1.919  1.2882  0.8039  1.5367
 5640SOL     OW28555   2.348   0.363   6.674 -0.7939 -0.2606  0.8861
 5640SOL    HW128556   2.346   0.268   6.688 -0.2220 -0.6800 -1.8352
 5640SOL    HW228557   2.260   0.382   6.639  0.3428  3.2380 -0.0059
 5641SOL     OW28558   1.002   2.506   1.631 -0.2444 -0.0786  0.3253
 5641SOL    HW128559   1.015   2.427   1.682 -0.2001 -0.4696 -0.2990
 5641SOL    HW228560   0.917   2.532   1.667 -0.7448 -0.8444 -0.3085
 5642SOL     OW28561   3.824   4.119   8.479  0.1245 -0.4409 -0.0691
 5642SOL    HW128562   3.732   4.092   8.474  0.0445  0.0629 -1.2492
 5642SOL    HW228563   3.868   4.088   8.400  1.0139 -1.0221  0.6612
 5643SOL     OW28564   0.408   4.698  11.626  0.2495 -0.3025 -0.1407
 5643SOL    HW128565   0.469   0.006  11.570 -1.0931  1.5371 -0.0665
 5643SOL    HW228566   0.437   4.608  11.610  0.1064 -0.5291  0.8347
 5644SOL     OW28567   1.955   1.391   5.432 -0.1003  0.0574 -0.0834
 5644SOL    HW128568   1.996   1.381   5.518 -0.7178  0.4200  0.2525
 5644SOL    HW228569   1.959   1.486   5.439  0.0525 -0.1080  2.0282
 5645SOL     OW28570   2.710   2.158   2.646  0.3603 -0.3559 -0.1019
 5645SOL    HW128571   2.770   2.198   2.708 -1.4891  1.2298  0.6546
 5645SOL    HW228572   2.629   2.204   2.669  1.3116  1.4022 -0.3309
 5646SOL     OW28573   2.088   3.188   4.347 -0.1929 -0.7811 -0.0806
 5646SOL    HW128574   2.124   3.231   4.270  0.1651  0.3017  0.6971
 5646SOL    HW228575   2.145   3.220   4.417 -1.1842 -0.5913  0.6505
 5647SOL     OW28576   1.481   3.967   5.910  0.2825 -0.6444 -0.2290
 5647SOL    HW128577   1.482   3.952   5.816  0.5280 -2.2852  0.0311
 5647SOL    HW228578   1.396   3.932   5.939 -0.3546 -0.2692 -1.6947
 5648SOL     OW28579   1.284   4.576   8.028  0.3555  0.1011  0.2183
 5648SOL    HW128580   1.248   4.643   7.970 -2.0026 -1.0232  0.3883
 5648SOL    HW228581   1.244   4.605   8.110 -1.6888 -0.4789 -0.5741
 5649SOL     OW28582   0.120   1.910   1.790 -0.0625  0.9176 -0.3492
 5649SOL    HW128583   0.177   1.847   1.834  1.4682  1.4776 -1.5423
 5649SOL    HW228584   0.174   1.989   1.795  0.4477  0.5198  0.4836
 5650SOL     OW28585   2.371   4.328   4.209  0.3091 -0.0622  0.4440
 5650SOL    HW128586   2.329   4.243   4.195  0.2894  0.0424 -0.1289
 5650SOL    HW228587   2.419   4.333   4.126 -1.2489 -1.7149 -0.5593
 5651SOL     OW28588   0.329   4.183   1.327  0.0231 -0.1416  0.3336
 5651SOL    HW128589   0.359   4.259   1.376 -0.0698  1.4820 -2.1558
 5651SOL    HW228590   0.389   4.121   1.368  0.5944 -0.3101 -0.7534
 5652SOL     OW28591   1.816   2.645   8.991  0.0213 -0.2648  0.5226
 5652SOL    HW128592   1.871   2.673   9.064  1.4061 -0.3008 -0.5163
 5652SOL    HW228593   1.779   2.730   8.970  0.0859 -0.2732  0.3797
 5653SOL     OW28594   3.654   3.073   2.486  0.4345 -0.1196  0.2066
 5653SOL    HW128595   3.697   3.065   2.571  1.0015  0.8750  0.0130
 5653SOL    HW228596   3.703   3.144   2.444  0.9655 -0.8232 -0.3652
 5654SOL     OW28597   3.519   2.581  17.033 -0.2719 -0.0332 -0.1549
 5654SOL    HW128598   3.469   2.604  16.955  1.9648  2.9301 -0.6769
 5654SOL    HW228599   3.601   2.629  17.030 -0.2400 -0.0775 -0.0060
 5655SOL     OW28600   2.130   1.786  11.687 -0.1311 -0.4446  0.2832
 5655SOL    HW128601   2.195   1.820  11.625  0.0877  1.1574  1.4259
 5655SOL    HW228602   2.177   1.704  11.706  0.8284 -1.1330 -4.9162
 5656SOL     OW28603   2.228   3.919   8.458  0.4439  0.0569  0.1548
 5656SOL    HW128604   2.167   3.856   8.495 -1.5769  0.4546 -2.5302
 5656SOL    HW228605   2.165   3.964   8.401  1.0309  1.5683  0.6932
 5657SOL     OW28606   2.210   2.981   8.116 -0.8540 -0.0616  0.0982
 5657SOL    HW128607   2.182   3.059   8.164 -0.8291 -1.8696  3.0480
 5657SOL    HW228608   2.127   2.934   8.122 -1.8889  1.7829  0.1771
 5658SOL     OW28609   3.191   1.940   6.631 -0.5989  0.5532 -0.1845
 5658SOL    HW128610   3.155   1.851   6.623  2.8891 -1.0879  2.0951
 5658SOL    HW228611   3.279   1.923   6.664 -0.0840  0.7215 -1.4687
 5659SOL     OW28612   0.670   3.769   2.979  0.1146  0.1549 -0.8128
 5659SOL    HW128613   0.620   3.840   3.019 -0.8287 -1.4640  0.8792
 5659SOL    HW228614   0.758   3.784   3.014 -0.7951  0.5343  1.3149
 5660SOL     OW28615   2.935   1.230   0.040  0.2232 -0.2524 -0.5041
 5660SOL    HW128616   2.989   1.279   0.102  0.1870  0.0633 -0.7246
 5660SOL    HW228617   2.856   1.276   0.067  1.1341  1.2661 -0.4104
 5661SOL     OW28618   1.333   3.744   9.687 -0.3868 -0.4206  0.3291
 5661SOL    HW128619   1.349   3.777   9.599 -0.4536  0.0773  0.5007
 5661SOL    HW228620   1.237   3.748   9.684 -0.4219 -1.8848 -0.7498
 5662SOL     OW28621   1.844   3.078  11.545  0.0993 -0.2297 -0.1758
 5662SOL    HW128622   1.758   3.105  11.512 -0.4808 -0.4947  1.1279
 5662SOL    HW228623   1.831   3.098  11.638  3.4005  1.3887 -0.0575
 5663SOL     OW28624   0.025   1.898   2.627 -0.2267 -0.3165 -0.0329
 5663SOL    HW128625   4.669   1.910   2.625 -0.2249 -0.4399 -1.2766
 5663SOL    HW228626   0.038   1.880   2.720 -0.0919 -2.1334 -0.4117
 5664SOL     OW28627   1.123   0.807   1.748  0.6427 -0.0317 -0.0537
 5664SOL    HW128628   1.128   0.750   1.671 -1.7875 -0.4896  0.1243
 5664SOL    HW228629   1.068   0.755   1.807 -1.0660  2.7138  0.8096
 5665SOL     OW28630   3.475   2.353   9.375 -0.0011  0.1325  0.5930
 5665SOL    HW128631   3.415   2.363   9.301  0.3588  0.8029  0.3866
 5665SOL    HW228632   3.549   2.308   9.334 -1.0292 -0.9027 -0.1053
 5666SOL     OW28633   2.670   4.322   3.508 -0.4706 -0.0686  0.0497
 5666SOL    HW128634   2.717   4.329   3.592 -1.4365 -0.9148  0.6671
 5666SOL    HW228635   2.579   4.325   3.538 -0.7264  0.3398 -0.7782
 5667SOL     OW28636   4.651   4.123  10.960  0.4602 -0.3717 -0.2206
 5667SOL    HW128637   4.729   4.122  11.016  0.2007 -2.6249  0.1137
 5667SOL    HW228638   4.581   4.111  11.024  0.0302 -1.7583 -0.9622
 5668SOL     OW28639   2.156   0.975   5.294 -0.0925  0.0961 -0.2754
 5668SOL    HW128640   2.188   0.939   5.211 -1.0453  2.3048 -1.5933
 5668SOL    HW228641   2.207   1.054   5.304 -1.2855  0.4932  2.8129
 5669SOL     OW28642   2.584   3.382   5.592 -0.3643 -0.4385 -0.3180
 5669SOL    HW128643   2.636   3.435   5.532 -0.5259  0.2170  0.1248
 5669SOL    HW228644   2.495   3.415   5.582 -0.4484 -0.3253  0.8868
 5670SOL     OW28645   0.975   2.859   5.286  0.1032  0.3585  0.4425
 5670SOL    HW128646   0.951   2.903   5.204  0.3871 -0.2331  0.0477
 5670SOL    HW228647   0.905   2.899   5.338 -0.7423 -0.7594  0.1812
 5671SOL     OW28648   4.329   0.950   2.887  0.2886  0.7022  0.0695
 5671SOL    HW128649   4.422   0.969   2.882  0.0932  1.8984  0.8900
 5671SOL    HW228650   4.330   0.866   2.932  2.8528 -0.1386 -1.5611
 5672SOL     OW28651   0.244   2.820   8.187 -0.6146  0.6351  0.5516
 5672SOL    HW128652   0.170   2.850   8.134 -0.1496 -1.6324 -1.4152
 5672SOL    HW228653   0.297   2.768   8.127 -0.9552 -1.0324  1.7043
 5673SOL     OW28654   3.820   2.807   7.008 -0.0290 -0.6843  0.4521
 5673SOL    HW128655   3.855   2.776   6.925  0.0227  0.9944 -0.1539
 5673SOL    HW228656   3.800   2.722   7.046  1.2278 -0.8890  0.6525
 5674SOL     OW28657   3.747   2.367   5.136  0.0620 -0.3565 -0.5161
 5674SOL    HW128658   3.705   2.332   5.057  1.1500 -1.2830 -0.6885
 5674SOL    HW228659   3.794   2.287   5.160 -0.7709 -0.0976  1.8929
 5675SOL     OW28660   2.354   3.654  17.255  0.7347  0.0610 -0.5852
 5675SOL    HW128661   2.352   3.747  17.233  1.7882 -0.1713 -1.6705
 5675SOL    HW228662   2.391   3.656  17.344  1.8050  0.8415 -1.0408
 5676SOL     OW28663   0.210   2.584  14.248 -0.1715  0.0035  0.0379
 5676SOL    HW128664   0.230   2.497  14.212  0.6497  0.7792 -1.3845
 5676SOL    HW228665   0.172   2.636  14.177 -1.0974 -0.7159  0.0026
 5677SOL     OW28666   4.275   2.792   2.047  0.3269  0.2488  0.6492
 5677SOL    HW128667   4.201   2.848   2.072 -1.6813 -2.0534 -0.1232
 5677SOL    HW228668   4.348   2.849   2.071  1.8450 -0.9357 -1.1394
 5678SOL     OW28669   0.149   4.632  16.359  0.4797  1.0361  0.8923
 5678SOL    HW128670   0.168   4.705  16.302  2.2854 -2.6134 -3.1640
 5678SOL    HW228671   0.119   4.568  16.295  1.6480 -0.1977  1.5722
 5679SOL     OW28672   0.603   1.442   8.375  0.0777 -0.2157  0.0272
 5679SOL    HW128673   0.593   1.351   8.347 -2.3548 -1.2032  4.1644
 5679SOL    HW228674   0.516   1.456   8.412  0.6806  0.9015  1.0101
 5680SOL     OW28675   1.007   0.347   0.775  0.2260  0.2768  0.0626
 5680SOL    HW128676   1.086   0.314   0.732  0.1738  0.6935 -0.3506
 5680SOL    HW228677   1.005   0.437   0.742  1.8830  0.6094  0.8468
 5681SOL     OW28678   3.254   3.194   6.745  0.0947  0.8573 -0.4754
 5681SOL    HW128679   3.193   3.133   6.704 -0.5245  1.2587 -0.1465
 5681SOL    HW228680   3.246   3.174   6.838 -0.6539  0.7804 -0.5549
 5682SOL     OW28681   3.717   3.545   1.567 -0.0776 -0.6280 -0.2049
 5682SOL    HW128682   3.644   3.485   1.582  0.1487 -0.1243  2.9184
 5682SOL    HW228683   3.721   3.580   1.656 -0.5895 -0.5806 -0.1998
 5683SOL     OW28684   2.073   0.678   3.284 -0.4893  0.1327  0.1319
 5683SOL    HW128685   2.151   0.647   3.330 -0.7763 -0.6444  0.0993
 5683SOL    HW228686   2.116   0.720   3.209 -1.4779  1.5019  0.3459
 5684SOL     OW28687   4.374   2.224  14.616  0.0676  0.5867 -0.4484
 5684SOL    HW128688   4.326   2.142  14.603  2.6443 -0.8844 -0.7043
 5684SOL    HW228689   4.299   2.281  14.633  0.9553  1.3272  0.9324
 5685SOL     OW28690   4.237   3.692  11.410  0.3127  0.1035 -0.4395
 5685SOL    HW128691   4.225   3.632  11.483  0.3282 -2.4146 -2.5028
 5685SOL    HW228692   4.197   3.651  11.333 -0.5081  1.5099 -0.7666
 5686SOL     OW28693   1.947   0.456   1.360  0.9301 -0.1086  0.1947
 5686SOL    HW128694   1.948   0.544   1.399  0.9180 -0.4973  1.0701
 5686SOL    HW228695   1.899   0.469   1.278 -0.4616  0.7138  1.1365
 5687SOL     OW28696   1.740   0.732   8.161 -0.0775 -0.6229 -0.1820
 5687SOL    HW128697   1.780   0.818   8.155  1.7945 -1.6089 -1.8485
 5687SOL    HW228698   1.810   0.668   8.178  0.0874 -0.4403 -0.1735
 5688SOL     OW28699   4.529   0.148   2.051  0.3061 -0.2962  0.8934
 5688SOL    HW128700   4.553   0.240   2.047 -0.8005 -0.0606 -0.0568
 5688SOL    HW228701   4.571   0.122   1.969 -0.6378 -0.6752  0.5305
 5689SOL     OW28702   2.846   1.332  12.911 -0.1398 -0.3346  0.0644
 5689SOL    HW128703   2.892   1.288  12.983 -1.6960  0.8281  1.7517
 5689SOL    HW228704   2.928   1.341  12.862 -0.0268  0.6101  0.4185
 5690SOL     OW28705   1.225   0.259   4.113  0.0254 -0.7004 -0.6762
 5690SOL    HW128706   1.285   0.198   4.068  0.5579 -0.6062 -0.0958
 5690SOL    HW228707   1.222   0.228   4.203  1.4297  1.0622 -0.0207
 5691SOL     OW28708   0.426   2.594   2.018 -0.1895 -0.4462  0.2673
 5691SOL    HW128709   0.406   2.683   2.047  1.6342  0.4770 -1.3451
 5691SOL    HW228710   0.455   2.549   2.097 -1.0853  1.7494  1.8728
 5692SOL     OW28711   0.997   2.216  13.164 -0.2385 -0.0917 -0.1221
 5692SOL    HW128712   1.058   2.261  13.106 -2.6392 -0.3728 -2.8297
 5692SOL    HW228713   1.031   2.128  13.184 -0.9884 -0.1254  0.9869
 5693SOL     OW28714   1.558   3.728   8.929  0.3616  0.7295  0.1255
 5693SOL    HW128715   1.559   3.654   8.990 -2.0813  0.9097  0.3674
 5693SOL    HW228716   1.599   3.800   8.976 -0.5243  1.5445 -0.3486
 5694SOL     OW28717   1.691   0.419   8.212  0.5798 -0.1519  0.3013
 5694SOL    HW128718   1.721   0.383   8.295 -1.2501 -1.9974  0.1645
 5694SOL    HW228719   1.684   0.511   8.239  1.9638  0.0820 -0.1046
 5695SOL     OW28720   3.623   1.929   9.431 -0.0360  0.3732 -0.0475
 5695SOL    HW128721   3.613   1.887   9.517 -2.1281 -0.8274 -0.8712
 5695SOL    HW228722   3.694   1.872   9.405  0.2790 -0.4236  2.5051
 5696SOL     OW28723   3.671   4.449  15.410  0.3739  0.2714  0.3105
 5696SOL    HW128724   3.626   4.413  15.333 -0.1406  1.1462  0.2032
 5696SOL    HW228725   3.633   4.536  15.422  0.7763  0.4021  0.6118
 5697SOL     OW28726   3.274   2.034   1.955  0.0742 -0.0745 -0.5590
 5697SOL    HW128727   3.300   2.119   1.922 -0.2664 -0.2697 -1.3273
 5697SOL    HW228728   3.233   2.058   2.038 -1.1041 -1.2763 -0.7827
 5698SOL     OW28729   3.664   3.607  17.638  0.4934  0.1781 -0.4708
 5698SOL    HW128730   3.631   3.636  17.723  0.1467  1.9232 -1.2092
 5698SOL    HW228731   3.738   3.666  17.628  0.0553  0.7934 -0.0756
 5699SOL     OW28732   4.381   4.594   0.469  0.4885 -0.2301  0.3014
 5699SOL    HW128733   4.345   4.615   0.382 -2.0737 -0.3828  1.3131
 5699SOL    HW228734   4.370   4.678   0.512  0.4559 -0.2945  0.4182
 5700SOL     OW28735   0.986   0.901   9.844  0.3500 -0.2431 -0.3768
 5700SOL    HW128736   0.928   0.854   9.783  2.1283  0.9615 -2.9399
 5700SOL    HW228737   0.956   0.864   9.928  2.0531  3.6025  1.9153
 5701SOL     OW28738   0.366   2.740  11.659  0.4536  0.1771  0.0711
 5701SOL    HW128739   0.405   2.819  11.622 -1.3051  0.5255 -1.0838
 5701SOL    HW228740   0.330   2.771  11.742 -0.8980  2.4651 -1.3486
 5702SOL     OW28741   4.541   2.738   4.729  0.2924  0.0157  0.0875
 5702SOL    HW128742   4.507   2.663   4.779 -2.4941  0.8252 -0.6466
 5702SOL    HW228743   4.514   2.720   4.639 -0.4798  0.7537  0.1708
 5703SOL     OW28744   1.624   0.824  10.557 -0.2208 -0.0547  0.0900
 5703SOL    HW128745   1.536   0.786  10.564 -0.5801  1.0701  1.4970
 5703SOL    HW228746   1.646   0.801  10.647  2.3651 -1.7182 -0.9805
 5704SOL     OW28747   0.574   0.675  17.679  0.1787  0.0706 -0.1024
 5704SOL    HW128748   0.538   0.724  17.753 -0.4916 -1.1805  0.4130
 5704SOL    HW228749   0.616   0.595  17.712  0.2498  0.7859  1.5218
 5705SOL     OW28750   3.140   1.301   4.586 -0.6384 -0.2302 -0.2728
 5705SOL    HW128751   3.202   1.280   4.517 -1.1201  0.2101 -0.8476
 5705SOL    HW228752   3.082   1.226   4.570 -0.8363 -0.4285  1.4105
 5706SOL     OW28753   4.416   2.576   4.922 -0.3234  0.0877 -0.3784
 5706SOL    HW128754   4.398   2.607   5.011 -1.5163  0.5033 -0.7679
 5706SOL    HW228755   4.334   2.532   4.898 -0.1444 -1.6665  2.1983
 5707SOL     OW28756   3.259   4.312   8.749 -0.0241 -0.3108 -0.0871
 5707SOL    HW128757   3.263   4.216   8.757  0.9664 -0.2900 -0.2627
 5707SOL    HW228758   3.167   4.336   8.751 -0.0727 -0.3821 -1.4306
 5708SOL     OW28759   0.434   1.813   7.047 -0.1315 -0.2618  0.0589
 5708SOL    HW128760   0.458   1.896   7.086 -0.2890  0.1811 -0.7902
 5708SOL    HW228761   0.339   1.809   7.059  0.1055 -2.3690  1.4350
 5709SOL     OW28762   3.001   4.427   5.924  0.2736  0.4302 -0.3106
 5709SOL    HW128763   2.964   4.404   5.838  0.5836 -0.8544 -0.1067
 5709SOL    HW228764   3.093   4.421   5.900  0.3380 -0.1205  0.0700
 5710SOL     OW28765   1.335   3.352   2.191 -0.0959  0.2447 -0.4671
 5710SOL    HW128766   1.319   3.418   2.259 -0.1257 -1.1774  0.8940
 5710SOL    HW228767   1.419   3.381   2.158 -1.3888  4.4872 -0.0280
 5711SOL     OW28768   1.902   0.387   4.552  0.1871 -0.4144  0.1097
 5711SOL    HW128769   1.974   0.407   4.492 -2.3499  3.0229 -1.7344
 5711SOL    HW228770   1.848   0.344   4.486 -1.5389  0.3095  1.0564
 5712SOL     OW28771   0.788   3.800   8.520 -0.0335  0.3540  0.5843
 5712SOL    HW128772   0.835   3.735   8.469 -3.3676 -2.3065  0.8580
 5712SOL    HW228773   0.795   3.869   8.454  0.0352  1.5382  1.8226
 5713SOL     OW28774   0.186   0.107   0.245  0.2116  0.2476 -0.2020
 5713SOL    HW128775   0.131   0.168   0.294  0.1032 -0.8662  1.0589
 5713SOL    HW228776   0.138   0.105   0.162 -0.3600 -1.2731  0.1697
 5714SOL     OW28777   1.310   0.949   6.240 -0.6025 -0.3610  0.2326
 5714SOL    HW128778   1.382   0.891   6.262  0.5908  0.2559 -1.9758
 5714SOL    HW228779   1.283   0.981   6.326 -1.9909 -0.0489 -0.3262
 5715SOL     OW28780   1.657   3.655   2.709 -0.3483 -0.2980 -0.0289
 5715SOL    HW128781   1.646   3.578   2.653  0.2161 -2.1026  2.3621
 5715SOL    HW228782   1.694   3.707   2.637  0.5785 -1.5750 -0.4826
 5716SOL     OW28783   1.492   1.223   8.754  0.0578 -0.6074 -0.3126
 5716SOL    HW128784   1.494   1.304   8.704  0.6700 -0.2539  0.2838
 5716SOL    HW228785   1.513   1.166   8.680 -0.9785 -2.3741  0.7465
 5717SOL     OW28786   2.440   0.466   3.846  0.4519  0.1253  0.1101
 5717SOL    HW128787   2.400   0.542   3.888 -2.4295 -1.4093  0.1668
 5717SOL    HW228788   2.500   0.436   3.915 -0.0753 -1.3122 -0.0723
 5718SOL     OW28789   1.293   3.430   5.859 -0.5526  0.2207  0.1485
 5718SOL    HW128790   1.219   3.485   5.884 -0.2879  0.6274  0.0517
 5718SOL    HW228791   1.246   3.359   5.815  0.9229  0.2619 -1.5002
 5719SOL     OW28792   3.489   2.702   5.914 -0.1675  0.2401 -0.1311
 5719SOL    HW128793   3.566   2.646   5.925  0.1890  0.2822 -2.5423
 5719SOL    HW228794   3.503   2.742   5.829 -1.2657  2.2852  0.6583
 5720SOL     OW28795   3.276   3.673   2.540 -0.5745  0.5487  0.1669
 5720SOL    HW128796   3.366   3.666   2.508 -0.9422 -4.4211  0.3482
 5720SOL    HW228797   3.243   3.589   2.508 -2.2067  0.8680  1.0625
 5721SOL     OW28798   1.926   1.658   5.842  0.2436  0.1925  0.3253
 5721SOL    HW128799   2.007   1.706   5.826 -1.1755  2.3613 -0.3242
 5721SOL    HW228800   1.880   1.694   5.766 -0.0293 -1.4724 -0.2986
 5722SOL     OW28801   3.037   0.971  10.399  0.6099 -0.5362 -0.3550
 5722SOL    HW128802   3.034   0.917  10.321 -0.8262  1.4331 -1.6771
 5722SOL    HW228803   3.028   0.905  10.468  0.8458  0.3710  0.5470
 5723SOL     OW28804   4.242   3.915  15.998  0.3072 -0.5063 -0.1896
 5723SOL    HW128805   4.289   3.947  15.922  0.5283 -0.5762 -0.0834
 5723SOL    HW228806   4.167   3.976  15.997  0.8498  0.2309  2.5946
 5724SOL     OW28807   3.326   2.078   4.547 -0.2825  0.4503  0.3351
 5724SOL    HW128808   3.290   2.068   4.459  0.2918  1.1399  0.0197
 5724SOL    HW228809   3.278   2.150   4.588 -1.2131 -0.1441  0.2932
 5725SOL     OW28810   0.540   3.796   7.522 -0.7242  0.4087 -0.0195
 5725SOL    HW128811   0.627   3.755   7.526 -0.7298  0.3705 -0.3533
 5725SOL    HW228812   0.506   3.797   7.612 -1.8430  1.9160 -0.4785
 5726SOL     OW28813   4.132   1.307   1.020  0.0603  0.5262  0.2332
 5726SOL    HW128814   4.038   1.303   1.001  0.1776 -1.9977  0.1419
 5726SOL    HW228815   4.146   1.401   1.026  0.4422  0.4327  0.8051
 5727SOL     OW28816   0.778   2.799   6.046 -0.3635 -0.6647  0.2156
 5727SOL    HW128817   0.805   2.861   5.978 -0.6088 -1.1051 -0.2827
 5727SOL    HW228818   0.824   2.846   6.115 -0.6521 -3.0642  2.0368
 5728SOL     OW28819   4.130   2.484   5.275  0.5240  0.0952 -0.0663
 5728SOL    HW128820   4.195   2.474   5.344  1.1101 -2.6832 -1.0192
 5728SOL    HW228821   4.154   2.419   5.209  0.2135  0.0401 -0.1290
 5729SOL     OW28822   3.721   0.803  15.670  0.2809  0.3457 -0.5284
 5729SOL    HW128823   3.645   0.753  15.639 -0.1862  0.6517  0.1452
 5729SOL    HW228824   3.795   0.746  15.650  0.7152  1.6920 -2.7384
 5730SOL     OW28825   3.509   1.532   2.906 -0.2436 -0.4892  0.0670
 5730SOL    HW128826   3.510   1.491   2.992 -2.2558 -1.6596 -0.4644
 5730SOL    HW228827   3.530   1.452   2.857 -1.9786 -0.7606 -0.2544
 5731SOL     OW28828   2.735   1.234  17.035 -0.0805  0.4833 -0.0918
 5731SOL    HW128829   2.668   1.264  17.096  0.1109 -1.5961  1.1338
 5731SOL    HW228830   2.807   1.285  17.073 -0.7399  1.5471 -0.2666
 5732SOL     OW28831   0.298   1.426  10.367  0.3101 -0.2868 -0.4763
 5732SOL    HW128832   0.267   1.415  10.457 -0.1050  0.7260 -0.4937
 5732SOL    HW228833   0.333   1.513  10.382 -1.0929  0.2601 -0.3222
 5733SOL     OW28834   0.293   1.451  10.106 -0.4197 -0.1353  0.2629
 5733SOL    HW128835   0.377   1.474  10.065 -1.2148  0.3344 -1.1193
 5733SOL    HW228836   0.317   1.429  10.196 -1.8307 -0.6541  0.5046
 5734SOL     OW28837   4.404   2.018  12.470  0.5096  0.1481 -0.0479
 5734SOL    HW128838   4.382   2.081  12.539 -0.5498  0.2891 -0.5190
 5734SOL    HW228839   4.351   1.941  12.494  0.7876 -0.4549 -1.3888
 5735SOL     OW28840   4.654   3.400   2.984  0.2369  0.2377 -0.1863
 5735SOL    HW128841   4.682   3.331   3.044 -2.2206 -0.1167  0.5723
 5735SOL    HW228842   4.731   3.403   2.927 -0.1061 -0.2754 -0.6725
 5736SOL     OW28843   0.120   0.177   2.739 -0.3635 -0.2277  0.3854
 5736SOL    HW128844   0.028   0.151   2.746 -0.1860 -1.1639 -0.7479
 5736SOL    HW228845   0.149   0.106   2.682  1.5546  2.4896 -2.0080
 5737SOL     OW28846   2.109   1.194   1.916  0.4323  0.0070 -0.2189
 5737SOL    HW128847   2.014   1.187   1.902  0.1315  2.3423  0.7270
 5737SOL    HW228848   2.113   1.225   2.006  0.3183 -2.4175  0.6303
 5738SOL     OW28849   2.008   1.543  14.430  0.3517 -0.0392 -0.4076
 5738SOL    HW128850   2.031   1.467  14.377 -3.3572 -1.5084  0.1388
 5738SOL    HW228851   2.014   1.506  14.519 -0.9677  1.2684  0.2254
 5739SOL     OW28852   3.800   0.230  11.688  0.2789 -0.4098 -0.1770
 5739SOL    HW128853   3.780   0.202  11.598 -2.7507 -2.0118  1.0172
 5739SOL    HW228854   3.840   0.150  11.723  0.5489  0.3507  1.2246
 5740SOL     OW28855   4.508   4.073   1.485 -0.1517 -0.2290  0.0310
 5740SOL    HW128856   4.598   4.085   1.454 -0.6582  0.0643 -1.2944
 5740SOL    HW228857   4.448   4.093   1.414  0.8732  2.5003 -0.0735
 5741SOL     OW28858   1.413   0.808  12.906 -0.4677  0.5024 -0.0106
 5741SOL    HW128859   1.373   0.882  12.953  0.1766  0.1474  1.1208
 5741SOL    HW228860   1.501   0.813  12.944 -0.9400  0.4748  1.0987
 5742SOL     OW28861   3.039   0.556   9.807 -0.1816  0.1624 -0.1437
 5742SOL    HW128862   3.007   0.537   9.719  0.5586 -0.3023 -0.3187
 5742SOL    HW228863   2.957   0.547   9.855 -0.8349  1.0586 -1.1106
 5743SOL     OW28864   2.867   1.633   2.397 -0.4160  0.3354  0.5673
 5743SOL    HW128865   2.847   1.724   2.378 -1.0639 -0.0440 -0.5655
 5743SOL    HW228866   2.778   1.597   2.390 -0.8503  1.8626 -1.5403
 5744SOL     OW28867   4.162   1.722   6.371  0.3702  0.3786  0.1261
 5744SOL    HW128868   4.081   1.684   6.403 -0.1894  0.7975 -0.7763
 5744SOL    HW228869   4.130   1.770   6.294 -0.4133  0.6738  0.6361
 5745SOL     OW28870   3.925   2.172   1.725 -0.0869  0.1851  0.2288
 5745SOL    HW128871   3.928   2.258   1.767  1.2300  0.0838  0.3354
 5745SOL    HW228872   3.908   2.188   1.633 -0.5893  3.2067  0.8473
 5746SOL     OW28873   4.502   0.611  16.670  0.2899 -0.1088  0.1323
 5746SOL    HW128874   4.479   0.687  16.723  0.0620  0.1876 -0.3937
 5746SOL    HW228875   4.427   0.553  16.686  1.4045 -1.2859  1.0623
 5747SOL     OW28876   2.283   3.162   6.471  0.5107 -0.3536 -0.1989
 5747SOL    HW128877   2.364   3.171   6.521  0.4310 -1.1840  0.0717
 5747SOL    HW228878   2.293   3.241   6.418 -0.4750 -0.0435  0.0693
 5748SOL     OW28879   3.893   4.485   2.827 -0.7935  0.0109  0.7147
 5748SOL    HW128880   3.811   4.534   2.836 -0.0352  0.7364  3.5497
 5748SOL    HW228881   3.854   4.407   2.788  1.2959  0.2607 -1.8099
 5749SOL     OW28882   4.719   3.339   5.855  0.2753  0.5042 -0.1136
 5749SOL    HW128883   0.021   3.284   5.922 -2.1759  0.7706  1.6138
 5749SOL    HW228884   0.055   3.378   5.810 -0.3223  0.0294 -1.5452
 5750SOL     OW28885   2.190   2.361  11.375 -0.1342  0.0875 -0.7212
 5750SOL    HW128886   2.271   2.362  11.425 -0.1679  1.2026 -0.6970
 5750SOL    HW228887   2.172   2.455  11.369  0.0144  0.2192  0.8562
 5751SOL     OW28888   1.968   2.688   4.865 -0.5935  0.7388 -0.1310
 5751SOL    HW128889   1.954   2.594   4.873 -1.2920  0.8464 -0.0797
 5751SOL    HW228890   1.881   2.723   4.843 -1.3421 -1.1564 -0.1746
 5752SOL     OW28891   3.347   1.997   5.373 -0.1646 -0.1693 -0.5315
 5752SOL    HW128892   3.432   1.980   5.412  0.4252  1.3364 -1.1481
 5752SOL    HW228893   3.289   1.933   5.415 -1.1377  0.9644 -0.1591
 5753SOL     OW28894   0.381   0.601  14.812  0.3631 -0.0401  0.1283
 5753SOL    HW128895   0.326   0.523  14.806  0.8026 -0.2442 -1.2629
 5753SOL    HW228896   0.472   0.573  14.802 -0.0653 -1.2792 -0.3887
 5754SOL     OW28897   3.165   0.544   0.103  0.4290 -0.7863  0.7093
 5754SOL    HW128898   3.202   0.504   0.025 -2.1873 -2.1912  0.1732
 5754SOL    HW228899   3.070   0.543   0.090  0.3997 -1.0651  0.9173
 5755SOL     OW28900   4.585   0.038  17.680  0.3960  0.1217 -0.3445
 5755SOL    HW128901   4.573   4.683  17.664  0.0521  0.0963  0.0880
 5755SOL    HW228902   4.633   0.061  17.600  0.7343  0.9458  0.0917
 5756SOL     OW28903   1.001   0.857   5.613 -0.3817  0.1740  0.3514
 5756SOL    HW128904   1.044   0.822   5.691 -0.6958 -0.4130  0.2676
 5756SOL    HW228905   0.943   0.781   5.607 -0.0127 -0.2748  2.7546
 5757SOL     OW28906   2.137   3.714   3.496  0.4975  0.5464  0.5095
 5757SOL    HW128907   2.168   3.777   3.561  0.5775  1.0136  0.0126
 5757SOL    HW228908   2.213   3.658   3.477  0.1830  0.5490 -0.7332
 5758SOL     OW28909   0.901   0.711   4.259  0.0771 -0.1838  0.1158
 5758SOL    HW128910   0.980   0.695   4.311  0.0770  0.1670  0.2212
 5758SOL    HW228911   0.924   0.686   4.169  0.9553  0.1757  0.2352
 5759SOL     OW28912   0.568   4.548   8.007  0.1632  0.6762 -0.5371
 5759SOL    HW128913   0.653   4.504   8.012 -0.4515 -0.6173 -1.3193
 5759SOL    HW228914   0.550   4.547   7.913 -0.2962  0.4862 -0.4484
 5760SOL     OW28915   2.939   2.581   9.952  0.0653 -0.5048 -0.1608
 5760SOL    HW128916   2.868   2.645   9.944 -1.1006 -1.5667  1.6608
 5760SOL    HW228917   2.969   2.610  10.038  0.1040  0.7852 -0.6180
 5761SOL     OW28918   2.823   2.498   4.316 -0.4706  0.5965  0.7287
 5761SOL    HW128919   2.820   2.442   4.238 -0.1012  0.3732  0.8757
 5761SOL    HW228920   2.781   2.441   4.381 -0.9397  0.4469  0.2941
 5762SOL     OW28921   3.459   3.358   2.263  0.2688 -0.5177  0.3316
 5762SOL    HW128922   3.465   3.263   2.270 -1.4281 -0.7371 -1.0819
 5762SOL    HW228923   3.520   3.373   2.191  1.6068 -1.4467  1.2913
 5763SOL     OW28924   3.187   2.123   5.944  0.4319 -0.0311 -0.1371
 5763SOL    HW128925   3.143   2.044   5.976  1.7019 -0.5945  0.2169
 5763SOL    HW228926   3.171   2.118   5.850 -2.5724 -0.3450  0.3884
 5764SOL     OW28927   3.062   1.591   9.321 -0.8790 -0.2617  0.7901
 5764SOL    HW128928   2.993   1.611   9.257 -1.2383  2.6405  2.0720
 5764SOL    HW228929   3.094   1.680   9.335  0.6911 -0.6682 -0.2814
 5765SOL     OW28930   0.652   2.500  13.645 -0.2420  0.2419  0.3759
 5765SOL    HW128931   0.717   2.487  13.714 -1.2538  0.8408  1.4440
 5765SOL    HW228932   0.691   2.450  13.572  0.1260  0.6413  0.2990
 5766SOL     OW28933   0.579   2.359   2.921 -0.1958 -0.3379  0.1977
 5766SOL    HW128934   0.625   2.281   2.889  1.5716 -0.1804  2.3115
 5766SOL    HW228935   0.612   2.360   3.012  0.9431 -1.6091 -0.2017
 5767SOL     OW28936   0.037   3.631  16.158 -0.0728 -0.1037 -0.8269
 5767SOL    HW128937   4.718   3.700  16.192  2.0715  2.3359 -2.1051
 5767SOL    HW228938   4.712   3.562  16.176  1.2226 -1.4802 -1.5914
 5768SOL     OW28939   3.430   0.787   2.974  0.0935  0.2707  0.2531
 5768SOL    HW128940   3.424   0.810   3.066  0.4829 -0.8205  0.5520
 5768SOL    HW228941   3.471   0.867   2.942 -0.4699  0.0659 -0.9870
 5769SOL     OW28942   2.437   3.258   2.358  1.2222 -0.0730 -0.0852
 5769SOL    HW128943   2.443   3.247   2.453 -2.8709  4.2047  0.6271
 5769SOL    HW228944   2.390   3.341   2.356  1.8043  0.2110 -1.6132
 5770SOL     OW28945   3.773   4.468   5.020  0.1830  0.8196  0.3833
 5770SOL    HW128946   3.819   4.534   4.968  0.6346  0.6831  0.6184
 5770SOL    HW228947   3.764   4.394   4.960 -2.9025  0.8145  0.8142
 5771SOL     OW28948   2.070   2.952   6.911 -0.2796 -0.1653  0.2982
 5771SOL    HW128949   2.099   2.910   6.993  1.1508 -1.6920 -0.9766
 5771SOL    HW228950   2.014   2.890   6.864  0.0185  0.6208 -1.0865
 5772SOL     OW28951   3.155   0.167   3.677  0.5103  0.2330  0.5258
 5772SOL    HW128952   3.113   0.145   3.760  2.9738 -0.8568  1.4595
 5772SOL    HW228953   3.221   0.222   3.719 -1.1124  0.9953  2.0858
 5773SOL     OW28954   3.855   2.589  12.010 -0.4941 -0.9646  0.2874
 5773SOL    HW128955   3.865   2.668  11.957  1.0290 -1.6016 -0.3717
 5773SOL    HW228956   3.818   2.641  12.081  0.8306 -0.4632  0.6173
 5774SOL     OW28957   3.787   3.786   3.161 -0.2360 -0.6426  0.5848
 5774SOL    HW128958   3.777   3.828   3.075 -1.1932  2.2200  2.0770
 5774SOL    HW228959   3.701   3.748   3.177 -0.4484 -0.2083  0.4937
 5775SOL     OW28960   1.721   2.758   7.993 -0.3045  0.0971 -0.3096
 5775SOL    HW128961   1.668   2.685   8.024  0.5780 -0.5395 -0.2856
 5775SOL    HW228962   1.718   2.755   7.898  0.0466  1.0472 -0.3490
 5776SOL     OW28963   2.985   2.764   9.592 -0.0250  0.2581  1.1352
 5776SOL    HW128964   3.075   2.772   9.562 -0.3341  0.7372  0.3496
 5776SOL    HW228965   2.989   2.669   9.610  1.0674  0.1266  0.1396
 5777SOL     OW28966   1.696   4.026  14.887 -0.3610  0.1976 -0.6909
 5777SOL    HW128967   1.613   4.028  14.840 -0.5582  1.1291 -0.3069
 5777SOL    HW228968   1.752   4.078  14.831 -0.8116  0.4389 -0.9140
 5778SOL     OW28969   0.526   3.305   3.401 -0.2845 -0.1528 -0.1657
 5778SOL    HW128970   0.575   3.224   3.389  1.3070  0.8767 -0.7374
 5778SOL    HW228971   0.531   3.323   3.495  1.2617  1.5669 -0.5776
 5779SOL     OW28972   0.666   2.670   7.322 -0.2759 -0.1183 -0.3297
 5779SOL    HW128973   0.593   2.654   7.382  0.9934 -0.9806  0.9808
 5779SOL    HW228974   0.615   2.724   7.261 -1.2747  1.1931  1.6599
 5780SOL     OW28975   1.899   0.274   7.935  0.1125  0.8694  0.3474
 5780SOL    HW128976   1.932   0.184   7.935  0.2214  0.9106  0.6602
 5780SOL    HW228977   1.970   0.325   7.896  0.6266  0.7474  1.1236
 5781SOL     OW28978   2.492   1.872   3.468  0.2799  0.3196 -0.3714
 5781SOL    HW128979   2.412   1.917   3.441  0.7825  0.8778 -0.9384
 5781SOL    HW228980   2.457   1.790   3.503 -0.7292  0.4183 -1.1528
 5782SOL     OW28981   3.094   2.881   6.267 -0.5466  0.5829  0.3358
 5782SOL    HW128982   3.020   2.824   6.246 -1.6708  0.5807  4.2542
 5782SOL    HW228983   3.126   2.830   6.342 -0.3986  1.5573  0.9282
 5783SOL     OW28984   4.503   1.140  12.120  0.4460 -0.6205  0.6135
 5783SOL    HW128985   4.423   1.175  12.158 -0.2349 -0.7673 -0.6881
 5783SOL    HW228986   4.479   1.096  12.038 -0.5078  2.5489 -0.7972
 5784SOL     OW28987   1.204   1.283   0.482 -0.2797  0.2285  0.2632
 5784SOL    HW128988   1.242   1.297   0.569  0.6905 -0.0181 -0.1270
 5784SOL    HW228989   1.271   1.239   0.429 -2.4867 -0.7289 -1.7186
 5785SOL     OW28990   2.123   2.255   1.760  0.2528 -0.0019 -0.4556
 5785SOL    HW128991   2.207   2.263   1.714  0.1306 -0.0693 -0.6907
 5785SOL    HW228992   2.124   2.338   1.808  0.0614 -0.9943  1.2327
 5786SOL     OW28993   0.589   3.262   1.802 -0.5678 -0.2453 -0.3507
 5786SOL    HW128994   0.678   3.232   1.816 -0.2979  0.0051 -1.5670
 5786SOL    HW228995   0.599   3.337   1.743 -0.4968  1.0234  1.2511
 5787SOL     OW28996   3.933   4.261   3.739 -0.1471  0.0266 -0.1783
 5787SOL    HW128997   3.996   4.192   3.718  0.6785  0.6520  0.2263
 5787SOL    HW228998   3.875   4.219   3.803  0.1370  1.5975  1.1264
 5788SOL     OW28999   3.373   0.245  13.962  0.0185  0.5369 -0.1528
 5788SOL    HW129000   3.448   0.281  13.916  1.9404 -1.9425  1.0459
 5788SOL    HW229001   3.409   0.158  13.982 -1.4660  0.1233  0.7285
 5789SOL     OW29002   2.553   1.522   6.410 -0.2579 -0.1057  0.3676
 5789SOL    HW129003   2.604   1.594   6.372 -2.3233  0.3663 -1.5371
 5789SOL    HW229004   2.585   1.534   6.499 -0.3645  1.4288  0.1989
 5790SOL     OW29005   2.367   1.160  12.688 -0.1468 -0.3431 -0.4606
 5790SOL    HW129006   2.430   1.185  12.621 -1.0324 -0.7654 -1.4462
 5790SOL    HW229007   2.381   1.068  12.709 -1.6787 -0.8720 -1.7587
 5791SOL     OW29008   3.253   1.289   2.806  0.3352 -0.0023 -0.1199
 5791SOL    HW129009   3.276   1.378   2.779 -0.0255  1.0747  3.0984
 5791SOL    HW229010   3.175   1.275   2.752 -0.0140 -1.2583  0.7143
 5792SOL     OW29011   2.014   4.588   7.762 -0.2687 -0.0494 -0.9166
 5792SOL    HW129012   1.970   4.510   7.729 -0.0681 -0.5149 -0.0818
 5792SOL    HW229013   1.970   4.664   7.724 -1.0600  1.4369  2.9728
 5793SOL     OW29014   0.905   2.981   5.066 -0.1203 -0.2497 -0.6228
 5793SOL    HW129015   0.962   3.051   5.097 -1.6514  0.5365  0.4202
 5793SOL    HW229016   0.822   3.023   5.089 -0.8497 -2.2718  0.4827
 5794SOL     OW29017   3.497   1.304   6.289  0.3075 -0.3967  0.2241
 5794SOL    HW129018   3.404   1.284   6.284 -0.0399  1.4392 -0.8543
 5794SOL    HW229019   3.506   1.327   6.196 -0.3615  2.3347  0.8314
 5795SOL     OW29020   3.299   4.409   3.201  0.2111  0.2571 -0.3238
 5795SOL    HW129021   3.251   4.442   3.277  0.2738  1.3988 -0.7870
 5795SOL    HW229022   3.388   4.387   3.230 -0.4980 -0.8991  0.9925
 5796SOL     OW29023   1.992   1.961   2.819  0.2849  0.3599  0.3304
 5796SOL    HW129024   1.901   1.989   2.826 -0.7853 -2.6254 -1.4283
 5796SOL    HW229025   2.010   1.940   2.911  0.9408  1.6875  0.4939
 5797SOL     OW29026   3.623   4.569   5.833  0.0756 -0.3280  0.0076
 5797SOL    HW129027   3.718   4.560   5.832  0.3015  2.0777 -0.7017
 5797SOL    HW229028   3.613   4.664   5.827  0.2467 -0.3663 -0.9861
 5798SOL     OW29029   2.592   1.677   5.519 -0.2482 -0.4131 -0.4476
 5798SOL    HW129030   2.664   1.698   5.460 -0.5126 -1.0652 -0.9997
 5798SOL    HW229031   2.529   1.637   5.459  1.7936 -2.2322 -1.3639
 5799SOL     OW29032   2.830   3.655   7.143  0.5066 -0.1683 -0.1018
 5799SOL    HW129033   2.901   3.592   7.129 -1.2083 -1.2098 -4.0810
 5799SOL    HW229034   2.820   3.647   7.238 -1.5443 -3.2075 -0.5749
 5800SOL     OW29035   0.830   0.169   2.396 -0.3384  0.0449 -0.1650
 5800SOL    HW129036   0.892   0.098   2.415  0.5552  0.2918 -2.1458
 5800SOL    HW229037   0.848   0.233   2.464 -0.4870 -0.3703  0.2637
 5801SOL     OW29038   3.361   2.220   5.094 -0.4625  0.1496  0.2924
 5801SOL    HW129039   3.431   2.265   5.046  0.7794 -0.3571  1.6402
 5801SOL    HW229040   3.291   2.238   5.030 -0.0924  0.9075  0.1006
 5802SOL     OW29041   0.269   4.618   8.527 -0.0280 -0.1587  0.2537
 5802SOL    HW129042   0.344   4.563   8.506  1.9089  1.8148  2.0293
 5802SOL    HW229043   0.207   4.549   8.504  0.4449 -0.7846  0.8630
 5803SOL     OW29044   3.152   2.809  10.493 -0.2561 -0.0643  0.8432
 5803SOL    HW129045   3.114   2.874  10.433  2.0071  0.3434 -0.1297
 5803SOL    HW229046   3.130   2.852  10.575 -1.1196  1.0522  0.0368
 5804SOL     OW29047   2.013   3.798  16.777 -0.3792  0.2340  0.1237
 5804SOL    HW129048   1.952   3.870  16.762  0.6676  1.5384  2.1656
 5804SOL    HW229049   2.090   3.842  16.812  0.1580  0.3715 -1.2366
 5805SOL     OW29050   1.575   0.997   0.161 -0.3731 -0.2546 -0.2515
 5805SOL    HW129051   1.630   1.069   0.131 -1.0538  1.3711  2.4643
 5805SOL    HW229052   1.644   0.949   0.208 -0.0354  0.3151 -0.1601
 5806SOL     OW29053   3.034   1.479   6.304 -0.0274  0.2120  0.8955
 5806SOL    HW129054   2.953   1.428   6.309 -0.2826  0.8505  3.6255
 5806SOL    HW229055   3.008   1.538   6.234 -0.9783 -1.9840 -0.5994
 5807SOL     OW29056   4.681   1.058   3.982 -0.0754 -0.2160  0.1738
 5807SOL    HW129057   4.665   1.096   3.896  0.7426  1.4688  0.7580
 5807SOL    HW229058   0.034   1.085   3.991  0.1351 -1.1305  0.8441
 5808SOL     OW29059   1.445   1.626   1.951  0.2255 -0.1498  0.0379
 5808SOL    HW129060   1.357   1.600   1.923  0.3748 -2.7469  2.0049
 5808SOL    HW229061   1.466   1.561   2.018 -0.1516  1.2836  1.5443
 5809SOL     OW29062   2.829   1.707   7.443  0.3737 -0.3726 -0.0871
 5809SOL    HW129063   2.811   1.715   7.349  1.9774 -0.4810 -0.4034
 5809SOL    HW229064   2.910   1.756   7.457 -0.0238  0.2361  0.1015
 5810SOL     OW29065   1.565   3.867   2.860  0.2500 -0.2370  0.1741
 5810SOL    HW129066   1.597   3.856   2.950  2.9187 -1.1115 -0.8594
 5810SOL    HW229067   1.597   3.787   2.818 -1.0056  0.9873 -3.1114
 5811SOL     OW29068   1.030   2.025   1.660  0.1862  0.0372 -0.4663
 5811SOL    HW129069   0.990   2.089   1.602 -0.5589  0.7493  0.8475
 5811SOL    HW229070   1.028   1.944   1.608  0.1736 -0.3079  0.0694
 5812SOL     OW29071   2.720   1.961  14.909 -0.6295 -0.1189 -0.5451
 5812SOL    HW129072   2.758   1.985  14.825 -1.0266  0.1164 -0.6577
 5812SOL    HW229073   2.792   1.980  14.968 -0.8094 -1.5727  0.1495
 5813SOL     OW29074   2.954   3.860   2.288  0.2683 -0.0260  0.2553
 5813SOL    HW129075   3.042   3.864   2.252  0.2142  0.2069  0.1476
 5813SOL    HW229076   2.969   3.858   2.382  0.7913  0.5419  0.1806
 5814SOL     OW29077   4.072   1.832   8.164  0.4211  0.4345  0.0615
 5814SOL    HW129078   4.102   1.911   8.210 -0.7985  0.1255  1.3776
 5814SOL    HW229079   3.988   1.860   8.126  0.3030 -0.2414 -0.1800
 5815SOL     OW29080   1.782   1.219   5.078 -0.5781  0.6797 -0.5523
 5815SOL    HW129081   1.739   1.217   5.164  1.3446 -0.3771  0.3861
 5815SOL    HW229082   1.736   1.156   5.023 -0.8956  0.7389 -0.3518
 5816SOL     OW29083   3.625   1.441  16.790  0.0752 -0.2429  0.3706
 5816SOL    HW129084   3.616   1.518  16.733  2.0911 -1.2724 -1.3572
 5816SOL    HW229085   3.630   1.483  16.876  1.0638 -0.9449  0.6564
 5817SOL     OW29086   2.120   0.275   1.476  0.1074  0.4792 -0.0472
 5817SOL    HW129087   2.130   0.248   1.385  1.8140 -0.2035  0.3444
 5817SOL    HW229088   2.046   0.335   1.466  0.7784  1.2908 -0.1647
 5818SOL     OW29089   4.317   3.884   6.290 -0.1464  0.3322 -0.1176
 5818SOL    HW129090   4.245   3.835   6.251 -0.7534  1.9485 -1.0367
 5818SOL    HW229091   4.393   3.839   6.253 -0.7579  0.6938 -1.8128
 5819SOL     OW29092   1.926   1.432   7.975  0.0160  0.3720  0.8564
 5819SOL    HW129093   1.995   1.375   8.010 -1.3830 -1.4338  0.6871
 5819SOL    HW229094   1.895   1.398   7.891 -2.0600  0.3127  1.6717
 5820SOL     OW29095   3.218   3.468  16.796  0.1672  0.1830 -0.4472
 5820SOL    HW129096   3.173   3.551  16.782 -0.5452  0.2156  1.9817
 5820SOL    HW229097   3.310   3.490  16.789  0.6072 -0.5502  2.6197
 5821SOL     OW29098   0.207   1.083   1.187  0.0185 -0.1661 -0.3317
 5821SOL    HW129099   0.210   1.033   1.268  2.4946 -1.9523 -1.5366
 5821SOL    HW229100   0.204   1.004   1.133  0.0468 -0.8512  0.6690
 5822SOL     OW29101   2.553   3.787   3.432 -0.0080  0.0683  0.0183
 5822SOL    HW129102   2.530   3.846   3.361  2.2150  0.5076 -0.3344
 5822SOL    HW229103   2.649   3.785   3.436  0.0304 -0.8170 -1.5660
 5823SOL     OW29104   0.637   2.068   3.748  0.4311  0.1510  0.2275
 5823SOL    HW129105   0.583   2.116   3.685 -0.3368 -0.7489  0.2157
 5823SOL    HW229106   0.719   2.067   3.699 -1.5163 -0.4954 -2.9869
 5824SOL     OW29107   2.943   0.912   5.100  0.3940 -0.4774  0.5993
 5824SOL    HW129108   2.990   0.860   5.035  1.6676  0.6602  0.6113
 5824SOL    HW229109   2.985   0.867   5.173 -0.6842 -1.5407  0.5631
 5825SOL     OW29110   0.363   4.267   8.976 -0.9224 -0.2659 -0.2597
 5825SOL    HW129111   0.271   4.242   8.984 -0.8497 -0.2490  0.5920
 5825SOL    HW229112   0.378   4.272   9.070  0.2318 -0.3502 -0.4299
 5826SOL     OW29113   1.432   3.964   2.645  0.1102  0.2688 -0.0637
 5826SOL    HW129114   1.509   3.993   2.597  2.0332 -0.7127  2.4657
 5826SOL    HW229115   1.469   3.941   2.730 -0.7452  0.2384  0.3003
 5827SOL     OW29116   1.793   2.691   6.001 -0.3059  0.2714  0.8103
 5827SOL    HW129117   1.783   2.705   5.906  1.2761  0.5558  0.6886
 5827SOL    HW229118   1.796   2.784   6.022  1.5600  0.8341 -1.9755
 5828SOL     OW29119   2.592   1.366  12.862  0.1100  0.0968 -0.8214
 5828SOL    HW129120   2.687   1.361  12.874 -0.0393 -1.9244 -0.4443
 5828SOL    HW229121   2.595   1.346  12.768  1.4832 -0.9197 -0.5536
 5829SOL     OW29122   1.762   3.158   3.440  0.4979  0.2382  0.0471
 5829SOL    HW129123   1.802   3.140   3.526  1.2146 -1.8084 -0.6983
 5829SOL    HW229124   1.826   3.212   3.395  0.3966  1.8810  1.8793
 5830SOL     OW29125   0.746   1.290   9.579  0.3007  0.2836 -0.7960
 5830SOL    HW129126   0.710   1.343   9.508 -1.3813 -0.7450 -0.7101
 5830SOL    HW229127   0.688   1.214   9.588  0.4616  0.2701  0.1332
 5831SOL     OW29128   1.853   1.300  14.472  0.6720  0.1552  0.6256
 5831SOL    HW129129   1.886   1.349  14.547 -1.5672  1.8339  0.5388
 5831SOL    HW229130   1.761   1.286  14.495  0.5619 -1.6338 -0.8558
 5832SOL     OW29131   1.909   3.184   8.702 -0.5165 -0.4297  0.4413
 5832SOL    HW129132   1.986   3.175   8.645 -1.0373  2.2928 -0.7052
 5832SOL    HW229133   1.867   3.098   8.701 -2.2541  0.4393 -1.6701
 5833SOL     OW29134   0.487   1.212   5.993 -0.0641  0.2412 -0.2194
 5833SOL    HW129135   0.478   1.150   5.920  0.9261 -0.1880  0.0161
 5833SOL    HW229136   0.461   1.160   6.069 -0.2539  0.1601 -0.3396
 5834SOL     OW29137   0.835   0.717  15.654 -0.2935 -0.1874 -0.1940
 5834SOL    HW129138   0.881   0.765  15.586  0.5604 -0.2669  0.3245
 5834SOL    HW229139   0.758   0.692  15.602  1.5273 -3.2132 -1.4229
 5835SOL     OW29140   0.706   1.779  15.136 -0.0316 -0.1467 -0.7026
 5835SOL    HW129141   0.764   1.817  15.070 -1.4475  1.1701 -1.1943
 5835SOL    HW229142   0.669   1.856  15.180 -1.5901 -0.7726 -0.9315
 5836SOL     OW29143   0.006   0.891   0.775 -0.0373  0.3576  0.1213
 5836SOL    HW129144   0.010   0.878   0.680  2.0761 -0.4844  0.3277
 5836SOL    HW229145   0.099   0.914   0.787  0.1140 -0.2366  0.0946
 5837SOL     OW29146   1.173   4.320   0.082  0.4472  0.6603  0.3876
 5837SOL    HW129147   1.167   4.225   0.075 -0.8347  0.8250 -0.7142
 5837SOL    HW229148   1.212   4.349  17.752  0.5389 -0.7587 -0.0678
 5838SOL     OW29149   0.943   3.587   4.964 -0.1861  0.3174 -0.2042
 5838SOL    HW129150   0.880   3.647   5.004 -1.3116 -1.7712  1.1821
 5838SOL    HW229151   0.949   3.608   4.871 -0.5430  2.3635  0.2355
 5839SOL     OW29152   0.546   1.562   6.097  0.0990  0.1448 -0.2969
 5839SOL    HW129153   0.554   1.490   6.159  1.4178  1.0587  0.5943
 5839SOL    HW229154   0.483   1.526   6.034  0.4031 -0.1925 -0.4032
 5840SOL     OW29155   2.946   1.572   4.986  0.5372  0.3702 -0.2473
 5840SOL    HW129156   2.966   1.492   4.938  2.7686  0.4675  0.5152
 5840SOL    HW229157   2.868   1.605   4.942 -0.4180 -1.9596 -0.2831
 5841SOL     OW29158   4.688   1.236   0.011 -0.4905 -0.2265  0.3973
 5841SOL    HW129159   4.647   1.207   0.093 -0.9526  0.7601  0.5086
 5841SOL    HW229160   4.617   1.214  17.704  0.1857 -0.0826 -0.4499
 5842SOL     OW29161   2.253   1.279   5.507  0.6524  0.0517 -0.1467
 5842SOL    HW129162   2.345   1.284   5.531  0.3517  0.1503  1.0151
 5842SOL    HW229163   2.255   1.281   5.412  3.1540  1.0532 -0.0546
 5843SOL     OW29164   2.155   4.360  10.065  0.0205 -0.1431 -0.5676
 5843SOL    HW129165   2.212   4.319  10.130  0.1330 -0.1933 -0.6983
 5843SOL    HW229166   2.071   4.323  10.093 -0.9941  0.3771 -2.9432
 5844SOL     OW29167   2.749   2.241   8.041  0.3709  0.1007 -0.4389
 5844SOL    HW129168   2.793   2.319   8.074  1.5157 -0.3800 -0.8222
 5844SOL    HW229169   2.823   2.182   8.053  1.3664  0.9654 -2.3277
 5845SOL     OW29170   1.674   1.346   3.287 -0.2146  0.3533  0.6632
 5845SOL    HW129171   1.652   1.340   3.194  0.4265 -1.4647  0.6346
 5845SOL    HW229172   1.769   1.348   3.291 -0.1470  1.0088 -1.4705
 5846SOL     OW29173   3.821   1.891   8.058 -0.7412  0.1522  0.0693
 5846SOL    HW129174   3.770   1.971   8.052 -1.4297 -0.5384 -3.2417
 5846SOL    HW229175   3.786   1.849   7.980 -2.3221  1.5872  0.0189
 5847SOL     OW29176   3.035   3.238   8.513 -0.2481  0.3486 -0.2944
 5847SOL    HW129177   3.049   3.283   8.596  1.9938 -0.3503 -0.2972
 5847SOL    HW229178   3.126   3.210   8.504 -0.0115  0.2072  2.4520
 5848SOL     OW29179   1.953   2.290  15.863 -0.0210  0.4188 -0.6782
 5848SOL    HW129180   2.017   2.245  15.808  0.3742 -0.8949  0.8531
 5848SOL    HW229181   1.873   2.244  15.837  0.0365 -0.9636  1.5993
 5849SOL     OW29182   3.533   1.964   3.041 -0.8607 -0.3009  0.1268
 5849SOL    HW129183   3.560   2.026   2.974  0.0926  0.1933  0.9549
 5849SOL    HW229184   3.581   1.991   3.120 -1.5985  1.3420 -0.0018
 5850SOL     OW29185   0.746   3.727   5.142 -0.4372 -0.3573  0.0129
 5850SOL    HW129186   0.791   3.810   5.131 -1.5600  0.1703 -0.6613
 5850SOL    HW229187   0.663   3.751   5.184  0.4284 -0.1603  1.5849
 5851SOL     OW29188   3.000   4.566  16.329 -0.1790 -0.5124 -0.2993
 5851SOL    HW129189   3.014   4.522  16.245  0.1643  0.9479 -1.0098
 5851SOL    HW229190   3.049   4.647  16.317 -1.3173  0.0301 -1.4077
 5852SOL     OW29191   2.479   2.136   3.254  0.0599  0.1780 -0.2609
 5852SOL    HW129192   2.446   2.225   3.241  2.9159  1.1698 -0.7763
 5852SOL    HW229193   2.557   2.157   3.305 -0.2728 -0.6143  0.5714
 5853SOL     OW29194   2.686   1.906   7.976 -0.3076 -0.5473 -0.2281
 5853SOL    HW129195   2.727   1.824   7.949  3.4085  0.9613  0.7463
 5853SOL    HW229196   2.757   1.969   7.985 -0.3362 -1.1113  3.6843
 5854SOL     OW29197   3.972   0.969  14.636 -0.0919 -0.2805  0.6593
 5854SOL    HW129198   3.888   0.988  14.594 -0.8039  0.0120  2.2233
 5854SOL    HW229199   4.000   1.056  14.662 -0.5058 -0.1910  0.7900
 5855SOL     OW29200   1.592   2.302   4.724 -0.4832 -0.3828 -0.8089
 5855SOL    HW129201   1.498   2.310   4.739 -0.2620 -1.4175  1.1742
 5855SOL    HW229202   1.620   2.291   4.815  2.4247 -0.5256 -1.7118
 5856SOL     OW29203   4.143   3.629   2.017  0.3549  0.1611  0.7281
 5856SOL    HW129204   4.164   3.627   1.923  0.0280 -1.3761  0.6947
 5856SOL    HW229205   4.094   3.711   2.021 -1.3312 -0.8029 -0.3500
 5857SOL     OW29206   1.821   0.061   8.939 -0.5134 -0.2652 -0.0107
 5857SOL    HW129207   1.837   0.095   9.027  0.9951 -0.5064 -0.1968
 5857SOL    HW229208   1.760   4.726   8.947 -1.3998  0.5252  0.5718
 5858SOL     OW29209   1.813   2.562   5.447  0.2629  0.1279 -0.1712
 5858SOL    HW129210   1.864   2.543   5.526 -2.4815 -0.5027  1.4575
 5858SOL    HW229211   1.886   2.604   5.401  0.2509 -1.5398 -1.7056
 5859SOL     OW29212   0.174   1.322   7.233  0.0224  0.4820  0.2130
 5859SOL    HW129213   0.149   1.247   7.288  1.2083 -0.7363 -0.9243
 5859SOL    HW229214   0.090   1.367   7.239  0.0894  0.4926  1.2130
 5860SOL     OW29215   1.851   2.352  11.261  0.3603  0.2826 -0.3628
 5860SOL    HW129216   1.861   2.442  11.294  1.3924  1.0383 -2.7649
 5860SOL    HW229217   1.774   2.364  11.205  0.1701  1.7247  0.1853
 5861SOL     OW29218   3.361   0.891   6.603 -0.5948 -0.4786 -0.3468
 5861SOL    HW129219   3.334   0.835   6.676 -0.9720  1.4582  0.9833
 5861SOL    HW229220   3.340   0.838   6.526  1.1020 -0.5121 -0.8001
 5862SOL     OW29221   1.844   3.389   4.073 -0.0799 -0.4292 -0.2123
 5862SOL    HW129222   1.909   3.408   4.005 -1.8464  3.5947 -0.7874
 5862SOL    HW229223   1.852   3.294   4.067 -4.0621 -0.6794 -1.6333
 5863SOL     OW29224   0.064   4.587   6.044 -0.2861 -0.1044 -0.5123
 5863SOL    HW129225   0.006   4.512   6.028  0.1940  0.0631 -3.0117
 5863SOL    HW229226   0.147   4.551   6.013  0.9433  2.9147 -0.8039
 5864SOL     OW29227   3.435   0.966   5.948 -0.1103 -0.0679  0.6501
 5864SOL    HW129228   3.471   0.945   5.861  0.8365 -3.0303  1.7645
 5864SOL    HW229229   3.430   0.885   5.998 -3.1182 -0.7126 -0.7173
 5865SOL     OW29230   2.652   1.694   3.123  0.7526  0.5701  0.0739
 5865SOL    HW129231   2.632   1.787   3.123 -2.0119 -0.0106  0.8040
 5865SOL    HW229232   2.565   1.659   3.143  0.4019  2.2176  1.3548
 5866SOL     OW29233   4.065   3.048   9.462 -0.1068 -0.0193  0.2441
 5866SOL    HW129234   4.075   3.041   9.367  1.6791  0.7557  0.3849
 5866SOL    HW229235   3.974   3.078   9.465 -0.3074 -0.8893  3.0715
 5867SOL     OW29236   0.667   3.530   5.641  0.1177 -0.3267  0.1149
 5867SOL    HW129237   0.598   3.554   5.579  0.2756  0.9987  0.4543
 5867SOL    HW229238   0.701   3.454   5.594 -0.4331  0.4648 -1.5363
 5868SOL     OW29239   2.346   4.655   4.926 -0.2959 -0.2277 -0.4995
 5868SOL    HW129240   2.389   4.704   4.996 -2.5491 -1.7550  1.9762
 5868SOL    HW229241   2.376   4.565   4.940  0.0034  0.2607  2.1241
 5869SOL     OW29242   4.295   4.310   8.332  0.5156  0.6097  0.1233
 5869SOL    HW129243   4.365   4.353   8.282  0.0375 -0.1395 -1.1903
 5869SOL    HW229244   4.274   4.240   8.271 -1.0988  0.0714  1.3228
 5870SOL     OW29245   2.671   1.733   8.771 -0.2631  0.3522  0.0905
 5870SOL    HW129246   2.607   1.800   8.746  0.9312  0.6126 -2.2516
 5870SOL    HW229247   2.665   1.671   8.698  1.5943 -0.2137  0.4237
 5871SOL     OW29248   1.833   2.546   0.114  0.2943 -0.4355 -0.1513
 5871SOL    HW129249   1.822   2.583   0.026 -0.0883  0.1677  0.1472
 5871SOL    HW229250   1.746   2.577   0.141 -0.1090 -2.0937  0.4353
 5872SOL     OW29251   2.692   2.435   7.425 -0.1904  0.3816  0.6214
 5872SOL    HW129252   2.631   2.463   7.356 -1.0378 -0.1386  1.1585
 5872SOL    HW229253   2.664   2.490   7.499  0.3851 -0.5552  1.5321
 5873SOL     OW29254   1.192   3.817  14.893  0.0978 -0.1648 -0.6174
 5873SOL    HW129255   1.222   3.906  14.876 -0.4587  0.2363  0.4618
 5873SOL    HW229256   1.225   3.768  14.818  0.7798  0.0705 -0.4735
 5874SOL     OW29257   4.157   4.593  14.289  0.2727  0.4344 -0.0838
 5874SOL    HW129258   4.100   4.637  14.225 -0.6142 -0.0755  0.3624
 5874SOL    HW229259   4.201   4.669  14.327  0.6363  0.1363  0.0935
 5875SOL     OW29260   4.370   4.706   5.134 -0.1798 -0.1458  0.3638
 5875SOL    HW129261   4.394   4.683   5.224 -0.1052 -1.2798  0.0615
 5875SOL    HW229262   4.377   0.062   5.124  1.1212 -0.2202  0.6367
 5876SOL     OW29263   0.655   1.010   0.179 -0.7295  0.3164 -0.0695
 5876SOL    HW129264   0.634   1.049   0.265 -0.1219 -0.3922  0.3980
 5876SOL    HW229265   0.654   0.917   0.201  2.1689  0.1264 -0.7545
 5877SOL     OW29266   2.803   0.571   7.409 -0.1121  0.5102 -0.4600
 5877SOL    HW129267   2.722   0.582   7.361 -0.4228 -0.3233 -0.1334
 5877SOL    HW229268   2.823   0.663   7.425  1.2415  0.2597 -0.7329
 5878SOL     OW29269   2.359   2.611   3.657 -0.3859 -0.4548 -0.2936
 5878SOL    HW129270   2.447   2.574   3.658  0.1995  0.9206 -1.4363
 5878SOL    HW229271   2.343   2.661   3.577 -0.4703 -1.0747 -0.6601
 5879SOL     OW29272   3.856   3.871   4.884  0.0355 -0.9748  0.0174
 5879SOL    HW129273   3.911   3.860   4.807  1.7250  1.1753  0.9244
 5879SOL    HW229274   3.803   3.791   4.889  0.6010 -1.4733 -2.1445
 5880SOL     OW29275   2.716   2.797   9.667  0.0189 -0.0665 -0.0513
 5880SOL    HW129276   2.808   2.810   9.641  0.5067  0.1468  1.8029
 5880SOL    HW229277   2.692   2.735   9.599 -1.4338  0.1422  0.2703
 5881SOL     OW29278   4.163   1.704   2.035  0.2439  0.9054  0.6174
 5881SOL    HW129279   4.107   1.627   2.045  0.6168  0.6563  0.7674
 5881SOL    HW229280   4.177   1.698   1.941  1.6290 -0.5867  0.9277
 5882SOL     OW29281   0.011   1.107   3.146 -0.2024 -1.0158 -0.8434
 5882SOL    HW129282   0.076   1.059   3.095  0.7994 -0.4293 -0.1177
 5882SOL    HW229283   4.724   1.173   3.081  2.1253 -0.1501 -0.8997
 5883SOL     OW29284   0.529   2.780   1.017  0.1583 -0.8483  0.1605
 5883SOL    HW129285   0.438   2.786   1.045  0.4697 -2.8279  1.6088
 5883SOL    HW229286   0.535   2.691   0.983 -0.0645 -1.5557  1.9427
 5884SOL     OW29287   4.487   2.511   0.120 -0.1249 -0.1569  0.0118
 5884SOL    HW129288   4.424   2.451   0.160 -1.1000  1.1926  0.5004
 5884SOL    HW229289   4.550   2.455   0.075 -1.3697 -1.5935  0.0721
 5885SOL     OW29290   1.321   0.261  15.254 -0.2238  0.0585  0.0674
 5885SOL    HW129291   1.255   0.214  15.203 -0.5151  2.0725 -1.4281
 5885SOL    HW229292   1.268   0.299  15.324  0.9258  0.2312  0.8402
 5886SOL     OW29293   1.091   0.767   6.514 -0.2279  0.6495 -0.0843
 5886SOL    HW129294   1.086   0.861   6.531 -1.1182  0.7179 -0.6685
 5886SOL    HW229295   1.003   0.753   6.479 -0.4094 -2.6859  1.7721
 5887SOL     OW29296   4.108   0.218   8.756 -0.3340  0.4135 -0.2442
 5887SOL    HW129297   4.051   0.211   8.832  0.6905  2.5367  0.7120
 5887SOL    HW229298   4.198   0.214   8.786 -1.4062 -0.8118  2.7304
 5888SOL     OW29299   3.955   4.314  12.255 -0.2023 -0.2724  0.5492
 5888SOL    HW129300   3.938   4.222  12.238 -2.0814  0.0552  0.6207
 5888SOL    HW229301   3.875   4.360  12.231  0.8317  1.8447  1.0960
 5889SOL     OW29302   1.951   3.906   9.332  0.1482 -0.6554 -0.5497
 5889SOL    HW129303   1.873   3.937   9.286  0.2492 -1.9193 -1.5475
 5889SOL    HW229304   1.996   3.990   9.345  0.3689 -0.9541  0.6569
 5890SOL     OW29305   1.802   1.071   7.196 -0.5537 -0.1367  0.2546
 5890SOL    HW129306   1.844   0.986   7.210 -1.7480 -0.8896 -0.7445
 5890SOL    HW229307   1.750   1.084   7.275 -0.8140 -1.1286  0.2491
 5891SOL     OW29308   1.857   0.658   1.503  0.8258 -0.0210  0.1132
 5891SOL    HW129309   1.866   0.634   1.595  2.2159  0.2175  0.0294
 5891SOL    HW229310   1.784   0.602   1.476 -0.2245  0.6694  1.5067
 5892SOL     OW29311   1.919   0.551   4.764 -0.4770 -0.1728  0.4130
 5892SOL    HW129312   1.897   0.491   4.692  1.1719  1.7458 -1.7166
 5892SOL    HW229313   1.973   0.618   4.723 -0.6180  0.2345  0.9048
 5893SOL     OW29314   3.866   1.473   8.029 -0.0209  0.1850 -0.2585
 5893SOL    HW129315   3.914   1.554   8.046 -1.0838  0.7532  0.0611
 5893SOL    HW229316   3.898   1.410   8.093  0.3342  0.8455  0.2169
 5894SOL     OW29317   2.646   3.869   8.400 -0.5529 -0.6448 -0.5861
 5894SOL    HW129318   2.595   3.793   8.427  0.1946 -0.8343  0.2946
 5894SOL    HW229319   2.620   3.930   8.469  1.2602 -1.4183  0.7899
 5895SOL     OW29320   3.825   4.337   3.081 -0.2051  0.6902 -0.3195
 5895SOL    HW129321   3.765   4.328   3.007 -1.3588  0.5802  0.6267
 5895SOL    HW229322   3.826   4.245   3.107  1.1347  0.7070 -0.3116
 5896SOL     OW29323   1.007   0.921   3.224  0.2790 -0.3681 -0.0275
 5896SOL    HW129324   1.041   1.001   3.264 -0.7503  0.8208 -1.5387
 5896SOL    HW229325   0.937   0.884   3.278 -1.3436  2.5522 -0.1241
 5897SOL     OW29326   2.133   4.311   5.514 -0.5112 -0.0294 -0.1079
 5897SOL    HW129327   2.183   4.332   5.435 -0.7961  0.3476 -0.1866
 5897SOL    HW229328   2.198   4.327   5.582 -0.4475 -0.9514  0.0583
 5898SOL     OW29329   4.025   3.072   6.161  0.1087  0.0973  0.1265
 5898SOL    HW129330   3.938   3.065   6.202  1.2674 -1.3289  2.3474
 5898SOL    HW229331   4.071   2.989   6.176  0.5519 -0.0871 -2.2449
 5899SOL     OW29332   3.148   3.330   1.061 -0.1636 -0.0664  0.3496
 5899SOL    HW129333   3.231   3.352   1.103 -0.6029  0.6112  0.8642
 5899SOL    HW229334   3.105   3.280   1.130 -0.3792  0.5337  0.6546
 5900SOL     OW29335   3.919   4.646   4.876  0.1170  0.3438  0.3431
 5900SOL    HW129336   3.932   4.644   4.781  3.2341 -1.5841  0.7953
 5900SOL    HW229337   4.009   4.635   4.909 -0.2610 -3.2374  0.2228
 5901SOL     OW29338   3.528   4.182   2.143  0.2251 -0.3338  0.0010
 5901SOL    HW129339   3.534   4.166   2.048  1.7626  2.4395 -0.3692
 5901SOL    HW229340   3.604   4.239   2.158 -0.2776 -0.0194  1.3533
 5902SOL     OW29341   2.295   4.514   2.944 -0.2472  0.2619  0.6065
 5902SOL    HW129342   2.299   4.565   2.863  0.4087  0.2454  0.6254
 5902SOL    HW229343   2.242   4.573   2.998  0.7255  1.2742  0.4740
 5903SOL     OW29344   2.390   0.553   6.856  0.1307  0.0087 -0.5717
 5903SOL    HW129345   2.323   0.618   6.833 -2.4550 -2.3839  0.0880
 5903SOL    HW229346   2.375   0.477   6.801  0.0574 -0.9422  0.7528
 5904SOL     OW29347   1.052   2.645   3.020 -0.1317 -0.8376  0.1074
 5904SOL    HW129348   1.005   2.709   3.073 -0.6399 -0.3682 -0.9171
 5904SOL    HW229349   0.988   2.599   2.966 -0.2198 -3.1501  2.1333
 5905SOL     OW29350   0.060   4.318   1.753  0.3752 -0.3077 -0.2522
 5905SOL    HW129351   0.087   4.299   1.843  1.2734  0.6993 -0.3190
 5905SOL    HW229352   4.704   4.300   1.759  0.2843 -0.0990 -1.0683
 5906SOL     OW29353   4.538   4.517   7.647  0.1525 -0.0152 -0.0397
 5906SOL    HW129354   4.450   4.517   7.609  0.1830  3.6285 -0.0888
 5906SOL    HW229355   4.525   4.569   7.726  1.3166 -0.9215  0.7664
 5907SOL     OW29356   3.709   1.758   4.109  0.0718  0.5106  0.2630
 5907SOL    HW129357   3.754   1.806   4.039 -0.1740  0.7803  0.2899
 5907SOL    HW229358   3.616   1.772   4.092  0.3471  1.2958 -0.5538
 5908SOL     OW29359   0.334   4.465   2.553  0.3366  0.1743  0.2645
 5908SOL    HW129360   0.425   4.489   2.572  0.3905  0.9186 -0.9162
 5908SOL    HW229361   0.346   4.416   2.471  0.7129  1.4602 -0.4558
 5909SOL     OW29362   4.312   1.748   3.596 -0.2140 -0.1393  0.3566
 5909SOL    HW129363   4.232   1.788   3.561 -0.9010 -0.9046  1.0369
 5909SOL    HW229364   4.312   1.792   3.682 -1.9718 -1.3564  0.9815
 5910SOL     OW29365   1.797   1.198  17.203  0.0182 -0.2615  1.1904
 5910SOL    HW129366   1.827   1.149  17.280 -0.2026 -1.2853  0.6294
 5910SOL    HW229367   1.865   1.265  17.206  0.1736 -0.3784  0.1986
 5911SOL     OW29368   2.064   1.156  13.057 -0.1190  0.0161  0.0483
 5911SOL    HW129369   2.145   1.184  13.014 -0.7793  2.7697  0.5779
 5911SOL    HW229370   2.061   1.209  13.137  0.7779  0.1881 -0.0317
 5912SOL     OW29371   4.180   1.278   5.879  0.0035 -0.1327  0.1505
 5912SOL    HW129372   4.179   1.328   5.797  0.7551  0.8232  0.7356
 5912SOL    HW229373   4.096   1.303   5.917 -1.0224 -0.1417 -2.0890
 5913SOL     OW29374   4.122   1.013   2.684 -0.2509  0.0667  0.1315
 5913SOL    HW129375   4.147   0.923   2.705 -1.7133 -0.4210 -0.2352
 5913SOL    HW229376   4.211   1.043   2.705  0.8541 -2.5388 -0.8831
 5914SOL     OW29377   2.603   3.726   0.028  0.1106 -1.1245  0.1969
 5914SOL    HW129378   2.670   3.792   0.044 -0.2198 -1.2198  1.9827
 5914SOL    HW229379   2.646   3.648   0.062 -1.6145 -1.0392  2.5473
 5915SOL     OW29380   3.298   3.473  14.762 -0.2419  0.1963 -0.2262
 5915SOL    HW129381   3.293   3.512  14.674  0.3025  0.2726 -0.2203
 5915SOL    HW229382   3.392   3.474  14.775 -0.2011 -1.4919 -0.3773
 5916SOL     OW29383   0.852   1.706  11.966 -0.0114  0.3505  0.5528
 5916SOL    HW129384   0.921   1.763  12.001  0.7048  0.0017 -0.2840
 5916SOL    HW229385   0.886   1.677  11.881 -1.0355  2.3094 -0.5109
 5917SOL     OW29386   2.552   0.487   6.537 -0.0033 -0.3787 -0.3744
 5917SOL    HW129387   2.632   0.435   6.546 -0.7341 -0.9003  3.2533
 5917SOL    HW229388   2.494   0.438   6.596  0.5034 -0.7193 -0.1572
 5918SOL     OW29389   1.947   3.575   1.639  0.4061 -0.4595  0.2245
 5918SOL    HW129390   1.910   3.660   1.663 -1.8059 -1.9889  2.2444
 5918SOL    HW229391   1.915   3.525   1.714 -1.0824 -0.7197 -0.5768
 5919SOL     OW29392   3.514   3.163   6.414 -0.4017  0.5829 -0.8417
 5919SOL    HW129393   3.575   3.187   6.483 -2.5081 -1.8396  1.9055
 5919SOL    HW229394   3.440   3.219   6.439  0.4300  1.0238  0.6318
 5920SOL     OW29395   3.815   0.857  10.379  0.4424  0.1851  0.2622
 5920SOL    HW129396   3.853   0.886  10.296  0.8573  1.8205  1.0216
 5920SOL    HW229397   3.764   0.779  10.360  1.1523 -0.2391  0.0948
 5921SOL     OW29398   2.129   3.017   9.326 -0.0304 -0.2199 -0.3850
 5921SOL    HW129399   2.128   3.015   9.422 -0.9121  0.0929 -0.3935
 5921SOL    HW229400   2.223   3.013   9.308  0.3183  0.0468  1.3745
 5922SOL     OW29401   1.021   2.818  16.594  0.0403 -0.1985 -0.3601
 5922SOL    HW129402   0.974   2.774  16.523  0.4614  0.5730 -1.1192
 5922SOL    HW229403   0.959   2.824  16.666  0.4046  1.0482 -0.1557
 5923SOL     OW29404   4.125   1.122   4.194  0.1777 -0.1959  0.4906
 5923SOL    HW129405   4.030   1.130   4.187  0.1409  0.4385  1.7571
 5923SOL    HW229406   4.140   1.041   4.144 -1.0674  1.1252 -2.0594
 5924SOL     OW29407   0.554   2.418   5.751 -0.3617 -0.3147  0.1157
 5924SOL    HW129408   0.545   2.334   5.705 -0.8761 -0.4385  0.4460
 5924SOL    HW229409   0.544   2.399   5.844 -1.5686  0.9753  0.2444
 5925SOL     OW29410   3.308   0.419   7.743 -0.5253  0.1088 -0.7607
 5925SOL    HW129411   3.311   0.326   7.724  0.2940  0.2620 -1.3958
 5925SOL    HW229412   3.373   0.424   7.813 -1.2977 -0.4501 -0.0110
 5926SOL     OW29413   1.284   1.022  15.252  0.0473  0.5108 -0.0024
 5926SOL    HW129414   1.217   0.981  15.197  0.4823 -0.6953  0.3668
 5926SOL    HW229415   1.258   1.114  15.258  0.1507  0.4971  0.6758
 5927SOL     OW29416   0.376   2.536  10.343 -1.2882 -0.0923 -0.3050
 5927SOL    HW129417   0.362   2.501  10.255 -1.3310  0.8767 -0.6820
 5927SOL    HW229418   0.431   2.470  10.384  2.3005  3.7951  1.1016
 5928SOL     OW29419   1.090   3.939  13.170 -0.1749 -0.7382  0.1129
 5928SOL    HW129420   1.111   3.998  13.098 -1.5868 -1.6609 -1.0639
 5928SOL    HW229421   1.177   3.907  13.196 -0.4485 -1.8707 -0.3892
 5929SOL     OW29422   2.825   1.870   2.283 -0.1076  0.0954 -0.4931
 5929SOL    HW129423   2.746   1.895   2.235  0.3738  1.6551 -0.4992
 5929SOL    HW229424   2.832   1.943   2.345  0.0418 -2.8091  2.8815
 5930SOL     OW29425   2.537   1.782   2.233 -0.5516 -0.1975 -0.1179
 5930SOL    HW129426   2.549   1.772   2.328 -2.4129 -1.0898  0.0175
 5930SOL    HW229427   2.596   1.712   2.205  0.7075  1.6246 -1.9948
 5931SOL     OW29428   1.260   3.123   2.341  0.3169  0.2197 -0.3792
 5931SOL    HW129429   1.274   3.209   2.300  1.4461 -1.1868 -2.9022
 5931SOL    HW229430   1.221   3.075   2.269 -0.3325  1.6306 -0.9736
 5932SOL     OW29431   0.549   1.390   6.567 -0.2349  0.3593  0.0360
 5932SOL    HW129432   0.549   1.359   6.658  2.5402 -0.9037 -0.3854
 5932SOL    HW229433   0.482   1.459   6.570 -0.3626  0.1642  1.6808
 5933SOL     OW29434   3.383   4.184   4.266 -0.1582  0.0573 -0.2282
 5933SOL    HW129435   3.337   4.101   4.283  0.7070 -0.1289  1.2186
 5933SOL    HW229436   3.394   4.229   4.349 -1.1050  0.7235 -0.4697
 5934SOL     OW29437   4.203   0.789   4.511  0.1262  0.5172 -0.3583
 5934SOL    HW129438   4.273   0.829   4.459 -0.1136 -0.1353 -1.1848
 5934SOL    HW229439   4.262   0.734   4.562  0.0419 -0.2283 -1.0548
 5935SOL     OW29440   3.008   0.754   3.654  0.7876 -0.2314  0.2013
 5935SOL    HW129441   3.039   0.727   3.568  0.0394 -0.0117 -0.1450
 5935SOL    HW229442   3.081   0.815   3.664  0.0644  0.3483  2.0524
 5936SOL     OW29443   1.546   1.082   8.526  0.0086  0.5704 -0.1362
 5936SOL    HW129444   1.558   1.003   8.473 -3.2885 -0.2253  0.3118
 5936SOL    HW229445   1.587   1.146   8.467 -3.1614  1.8631 -0.9364
 5937SOL     OW29446   3.299   4.627   3.607 -0.2573 -0.1006 -0.1250
 5937SOL    HW129447   3.281   4.677   3.686  0.6753 -0.6248  0.4104
 5937SOL    HW229448   3.386   4.595   3.630 -0.3372  0.9629  1.6302
 5938SOL     OW29449   3.868   3.199   3.924 -0.6054 -0.0047 -0.8058
 5938SOL    HW129450   3.777   3.176   3.904 -1.0748 -1.1587  2.6859
 5938SOL    HW229451   3.901   3.118   3.963 -2.1874  0.1986  0.9560
 5939SOL     OW29452   0.192   2.748   6.585  0.4431  0.0716  0.2680
 5939SOL    HW129453   0.122   2.717   6.528  0.9141 -0.9447  0.2437
 5939SOL    HW229454   0.148   2.830   6.608  1.0002  0.1025  1.2204
 5940SOL     OW29455   3.996   1.860   7.721  0.0181  0.3264  0.1392
 5940SOL    HW129456   3.932   1.815   7.776  0.6187  1.5527  1.8387
 5940SOL    HW229457   3.950   1.944   7.716  1.7427  1.2386 -0.6150
 5941SOL     OW29458   3.868   0.473  16.472  0.2815 -0.5682 -0.3415
 5941SOL    HW129459   3.935   0.418  16.432 -0.5788 -1.2881 -0.8126
 5941SOL    HW229460   3.794   0.455  16.414 -1.7597  0.6306  1.8787
 5942SOL     OW29461   2.406   0.613   6.324  0.2757  0.6188 -0.5431
 5942SOL    HW129462   2.356   0.541   6.285  0.2310  0.8146 -0.8523
 5942SOL    HW229463   2.434   0.562   6.400  2.1540 -0.3821 -1.9166
 5943SOL     OW29464   1.657   2.333  11.082  0.0033 -0.6934 -0.3452
 5943SOL    HW129465   1.563   2.348  11.070  0.0556  0.6778  0.9447
 5943SOL    HW229466   1.671   2.242  11.056  0.3949 -1.0394  1.0720
 5944SOL     OW29467   0.160   2.511   1.332  0.4616 -0.1323 -0.5075
 5944SOL    HW129468   0.173   2.602   1.305 -0.3623  0.2570  0.4195
 5944SOL    HW229469   0.064   2.504   1.336  0.4761 -0.8445 -1.3523
 5945SOL     OW29470   3.172   4.208  12.252 -0.1681 -0.3567 -0.8773
 5945SOL    HW129471   3.172   4.115  12.276 -1.8343 -0.1550 -0.1047
 5945SOL    HW229472   3.260   4.233  12.226  0.6335 -1.0466  1.1836
 5946SOL     OW29473   3.143   3.634   3.099 -0.0600 -0.2496  0.1636
 5946SOL    HW129474   3.128   3.724   3.070  0.2254 -0.2612 -0.0177
 5946SOL    HW229475   3.147   3.593   3.012  1.6509  0.0208  0.1184
 5947SOL     OW29476   2.919   0.797   2.402 -0.4497  0.1726  0.5954
 5947SOL    HW129477   2.888   0.744   2.329 -0.2076  2.1108 -0.9197
 5947SOL    HW229478   3.000   0.747   2.411 -0.4521 -0.2867 -1.7732
 5948SOL     OW29479   2.910   3.347   0.569  0.0455 -0.4364 -0.5170
 5948SOL    HW129480   2.904   3.255   0.544  0.2023 -0.4934 -0.3452
 5948SOL    HW229481   2.986   3.342   0.627 -0.7237  2.4675  0.7649
 5949SOL     OW29482   0.398   1.073   7.435  0.0110  0.4333 -0.7099
 5949SOL    HW129483   0.408   1.036   7.348 -1.2384 -0.3898 -0.4965
 5949SOL    HW229484   0.303   1.081   7.440 -0.0692 -1.2950  0.1691
 5950SOL     OW29485   0.460   0.322  10.322  0.1560  0.2116  0.0685
 5950SOL    HW129486   0.475   0.280  10.407  0.5199 -1.2918 -0.7314
 5950SOL    HW229487   0.375   0.279  10.311 -0.1175  0.1941  2.2434
 5951SOL     OW29488   3.782   0.912   3.076 -0.0160  0.4208  0.0148
 5951SOL    HW129489   3.705   0.934   3.023 -1.6652 -0.3672  2.0741
 5951SOL    HW229490   3.813   0.836   3.027 -0.4843 -0.4970  1.1236
 5952SOL     OW29491   0.094   3.965   7.531  0.2862  0.4543  0.0165
 5952SOL    HW129492   0.035   4.029   7.491 -0.5764 -0.7192 -0.6095
 5952SOL    HW229493   0.070   3.890   7.475  0.2458  1.2977 -1.1061
 5953SOL     OW29494   4.052   2.140   2.029  0.1071  0.8873  0.0699
 5953SOL    HW129495   4.093   2.216   1.987 -0.0674  1.6567  1.3031
 5953SOL    HW229496   3.995   2.193   2.085 -0.0265 -0.3341  1.0903
 5954SOL     OW29497   0.043   3.419   8.380  0.0414 -0.5098 -0.3582
 5954SOL    HW129498   0.039   3.488   8.313 -1.4350  0.3929  0.6670
 5954SOL    HW229499   0.052   3.468   8.461  2.3314 -0.8547 -0.4022
 5955SOL     OW29500   3.525   1.084   7.940  0.0540 -0.2639  0.0960
 5955SOL    HW129501   3.449   1.043   7.981 -0.9955  0.9833 -0.5769
 5955SOL    HW229502   3.536   1.170   7.980 -1.9742 -0.3873  0.9431
 5956SOL     OW29503   0.640   1.733   4.095 -0.3366  0.8198  0.4817
 5956SOL    HW129504   0.574   1.680   4.140  0.2163 -0.3425 -0.0537
 5956SOL    HW229505   0.702   1.746   4.167  0.1680  1.2636 -0.0333
 5957SOL     OW29506   0.418   2.915   8.392  0.3466  0.0344  0.2560
 5957SOL    HW129507   0.359   2.914   8.316  1.7340 -2.5280 -0.7664
 5957SOL    HW229508   0.450   2.825   8.401  1.2753  0.3525  0.1340
 5958SOL     OW29509   0.655   2.882   3.193 -0.1145 -0.1776  0.1119
 5958SOL    HW129510   0.670   2.795   3.157  1.9075 -0.3678  1.3679
 5958SOL    HW229511   0.561   2.871   3.186 -0.1060 -0.3501  0.2724
 5959SOL     OW29512   4.725   0.263  13.748 -0.3393  0.5484  0.2459
 5959SOL    HW129513   0.067   0.237  13.793 -1.4644 -0.9508  1.4041
 5959SOL    HW229514   0.027   0.306  13.673 -0.1827  0.5082  0.3070
 5960SOL     OW29515   3.402   0.110   9.804  0.1122 -0.2600 -0.1890
 5960SOL    HW129516   3.444   0.108   9.890  0.7476  1.1887 -0.4770
 5960SOL    HW229517   3.478   0.114   9.747 -0.2292  0.1426 -0.6163
 5961SOL     OW29518   4.211   0.810   5.382 -0.1741  0.1978  0.4452
 5961SOL    HW129519   4.260   0.892   5.391 -3.4493  2.0936  0.8424
 5961SOL    HW229520   4.120   0.837   5.382 -0.6745 -1.4838 -2.8687
 5962SOL     OW29521   4.349   1.665   3.913 -0.5411 -0.4805  0.0071
 5962SOL    HW129522   4.257   1.652   3.889 -0.8760  1.6551  0.0981
 5962SOL    HW229523   4.378   1.755   3.893 -2.7011 -0.1332 -1.5428
 5963SOL     OW29524   3.736   2.272   4.359 -0.2980 -0.5440 -0.2619
 5963SOL    HW129525   3.653   2.227   4.342 -0.7570 -0.4656  1.7037
 5963SOL    HW229526   3.786   2.280   4.279  0.1052 -1.7571 -0.1340
 5964SOL     OW29527   4.724   4.230   1.385 -0.3818  0.0169 -0.2120
 5964SOL    HW129528   4.719   4.322   1.410  1.2552  0.0668 -0.0653
 5964SOL    HW229529   0.007   4.233   1.292  0.2750 -2.1071 -0.1372
 5965SOL     OW29530   3.634   2.035   7.016 -0.1989 -0.2165 -0.2240
 5965SOL    HW129531   3.567   1.967   7.023  0.9347 -1.3476 -0.4611
 5965SOL    HW229532   3.665   2.042   7.106  2.0360 -1.5542 -0.9091
 5966SOL     OW29533   1.958   4.054   5.012  0.0048 -0.0447 -0.0140
 5966SOL    HW129534   1.935   4.009   5.094  2.0503  0.2266  0.7174
 5966SOL    HW229535   2.053   4.039   5.007 -0.1359 -0.4554 -1.4361
 5967SOL     OW29536   3.606   0.568   6.977 -0.0963  0.0922  0.0346
 5967SOL    HW129537   3.672   0.506   7.009 -0.4878 -1.0011 -1.3181
 5967SOL    HW229538   3.545   0.543   7.047 -0.5639  0.8643 -0.0978
 5968SOL     OW29539   2.250   3.945   0.651  0.0614 -0.2029  0.5231
 5968SOL    HW129540   2.255   3.886   0.576  0.4470 -0.3499  0.6613
 5968SOL    HW229541   2.164   3.979   0.626  0.2748 -0.0759 -0.0282
 5969SOL     OW29542   2.104   2.116   6.442 -0.1749 -0.0795  1.0059
 5969SOL    HW129543   2.180   2.088   6.391 -0.0033 -1.9468  2.3137
 5969SOL    HW229544   2.074   2.037   6.485  0.6406 -1.2037 -0.5014
 5970SOL     OW29545   2.446   4.482   0.148 -0.0332 -0.9677 -0.1360
 5970SOL    HW129546   2.472   4.562   0.196 -0.4814 -2.5043  2.6819
 5970SOL    HW229547   2.474   4.507   0.060  0.0637  0.8464  0.4087
 5971SOL     OW29548   4.370   2.031   6.085 -0.3429  0.1715  0.2223
 5971SOL    HW129549   4.446   2.065   6.132 -1.7106  2.5295  0.7412
 5971SOL    HW229550   4.406   1.945   6.066  2.2451  0.8619  2.0476
 5972SOL     OW29551   2.259   0.468   6.150 -0.0021  0.1666 -0.4343
 5972SOL    HW129552   2.181   0.413   6.165  0.8242 -1.1662 -0.9838
 5972SOL    HW229553   2.224   0.518   6.077 -0.4451  0.9431  0.3184
 5973SOL     OW29554   1.914   3.196   9.442 -0.0591 -0.1772 -0.7190
 5973SOL    HW129555   1.993   3.165   9.486 -1.4369 -3.7009 -0.7605
 5973SOL    HW229556   1.856   3.120   9.440 -0.0347 -0.2337  0.9097
 5974SOL     OW29557   3.396   2.918   5.290 -0.1136  0.1050 -0.0923
 5974SOL    HW129558   3.486   2.896   5.311 -0.9509 -1.8124  1.4925
 5974SOL    HW229559   3.407   3.013   5.290 -2.3308  0.3564  1.4526
 5975SOL     OW29560   2.427   3.912   1.842  0.3151  0.0879 -0.3164
 5975SOL    HW129561   2.343   3.876   1.815 -0.1564  1.9577 -1.3577
 5975SOL    HW229562   2.404   4.005   1.840  1.0367  0.2065 -2.9924
 5976SOL     OW29563   0.654   3.796  15.262  0.8443  0.3982  0.1042
 5976SOL    HW129564   0.713   3.722  15.247  2.1183  1.3692  0.3357
 5976SOL    HW229565   0.601   3.790  15.183 -0.3120 -0.4958  0.9552
 5977SOL     OW29566   3.441   4.030   5.410 -0.5488  0.0674 -0.2907
 5977SOL    HW129567   3.516   4.085   5.390  0.3944 -1.8769 -2.0544
 5977SOL    HW229568   3.461   3.954   5.356 -2.2463 -0.7312  0.1781
 5978SOL     OW29569   2.950   3.744  16.451  0.1772 -0.2882  0.9958
 5978SOL    HW129570   2.997   3.723  16.532  1.9911  3.2469  0.8379
 5978SOL    HW229571   2.864   3.770  16.485  0.6700  1.1061  1.1641
 5979SOL     OW29572   0.390   1.269   1.633  0.4183  0.4967  0.1149
 5979SOL    HW129573   0.326   1.198   1.638 -0.2148  1.0416 -0.2020
 5979SOL    HW229574   0.350   1.319   1.561 -3.1379  0.6779  2.2454
 5980SOL     OW29575   2.788   4.572   8.060 -0.1255  0.2332 -0.2269
 5980SOL    HW129576   2.838   4.643   8.100  2.6206 -0.6471 -2.1018
 5980SOL    HW229577   2.699   4.605   8.070 -0.6852 -0.7818 -1.8000
 5981SOL     OW29578   0.508   1.907   3.948  0.1598 -0.0132 -0.6595
 5981SOL    HW129579   0.571   1.956   3.895  1.0883  1.5928  1.9441
 5981SOL    HW229580   0.566   1.848   3.996 -0.8616  0.2672  0.9134
 5982SOL     OW29581   4.127   1.770  16.457  0.4829  0.2925 -0.1050
 5982SOL    HW129582   4.051   1.811  16.417  0.6466  0.7099  0.0097
 5982SOL    HW229583   4.115   1.684  16.417  3.0300 -0.5872  0.9766
 5983SOL     OW29584   3.883   3.464  16.044  0.0845 -0.2445 -0.5074
 5983SOL    HW129585   3.809   3.413  16.077  0.0962 -1.0922 -1.7888
 5983SOL    HW229586   3.952   3.428  16.100  0.0312  0.0022 -0.2844
 5984SOL     OW29587   1.234   1.762   4.442  0.2468  0.1011 -0.5443
 5984SOL    HW129588   1.195   1.834   4.394  0.1653  0.8548  0.6527
 5984SOL    HW229589   1.185   1.758   4.524 -0.3487  0.2688 -0.8905
 5985SOL     OW29590   4.278   3.846   4.715  0.1969  0.4526 -0.5454
 5985SOL    HW129591   4.186   3.820   4.706 -0.9416  3.7414  1.4152
 5985SOL    HW229592   4.294   3.913   4.649  1.1691 -0.8055 -1.5864
 5986SOL     OW29593   0.310   1.186  15.550  0.1199 -0.4716  0.4146
 5986SOL    HW129594   0.356   1.270  15.552  1.6603 -1.2633 -1.8626
 5986SOL    HW229595   0.258   1.197  15.630  0.6119  0.7154  0.5782
 5987SOL     OW29596   1.117   3.161   4.314  0.4252 -0.7352 -0.7819
 5987SOL    HW129597   1.103   3.069   4.291  0.2012 -0.7218 -0.6988
 5987SOL    HW229598   1.210   3.175   4.296  0.1771  0.9004 -0.8004
 5988SOL     OW29599   1.403   3.410   3.469 -0.3164 -0.2836  0.4074
 5988SOL    HW129600   1.396   3.381   3.378  0.7291 -4.8876  1.8090
 5988SOL    HW229601   1.493   3.442   3.476 -0.9210  1.5813 -0.2142
 5989SOL     OW29602   0.087   0.034   8.058  0.3120  0.0877  0.3635
 5989SOL    HW129603   0.005   0.074   8.087  1.5776  3.2160 -0.3220
 5989SOL    HW229604   0.144   0.111   8.055  0.9713 -0.4537 -1.1677
 5990SOL     OW29605   3.054   3.605   0.523  0.4294 -0.4275  0.3702
 5990SOL    HW129606   3.004   3.535   0.566 -0.0376  0.2700  0.9680
 5990SOL    HW229607   3.115   3.562   0.463  0.0239 -0.5262  0.0226
 5991SOL     OW29608   0.060   3.659   9.173  0.5596 -0.2358 -0.3938
 5991SOL    HW129609   0.089   3.736   9.223 -0.2934 -0.8018  0.9841
 5991SOL    HW229610   0.137   3.602   9.174  1.7890  1.4052 -1.2121
 5992SOL     OW29611   3.449   4.688  14.510 -0.1169  0.1215 -0.0666
 5992SOL    HW129612   3.453   4.600  14.547 -2.0812  0.9621  2.1281
 5992SOL    HW229613   3.540   4.707  14.486 -0.4035  0.8419 -0.5967
 5993SOL     OW29614   3.522   3.460   5.860  0.2337  0.0686 -0.0277
 5993SOL    HW129615   3.561   3.373   5.857  0.4472  0.2328 -2.0346
 5993SOL    HW229616   3.555   3.486   5.947  1.8242  0.5818 -0.7918
 5994SOL     OW29617   0.604   4.085   8.991  0.3143 -1.0779 -0.9661
 5994SOL    HW129618   0.676   4.134   8.951  0.4537 -0.3803  0.1375
 5994SOL    HW229619   0.543   4.090   8.918 -2.2341 -0.2346  1.2553
 5995SOL     OW29620   2.235   3.543   1.699  0.2407 -0.5512  0.5983
 5995SOL    HW129621   2.211   3.470   1.756 -2.3264  1.4203  2.0445
 5995SOL    HW229622   2.157   3.569   1.651 -0.2793 -1.1507  1.1304
 5996SOL     OW29623   2.647   3.569  14.117  0.2295  0.5641  0.4380
 5996SOL    HW129624   2.586   3.619  14.171  0.1743  1.3110 -0.3123
 5996SOL    HW229625   2.609   3.485  14.141  2.5519 -1.0440 -1.5468
 5997SOL     OW29626   3.156   0.539   4.765 -0.6200  0.3014 -0.0041
 5997SOL    HW129627   3.095   0.505   4.700  1.0881 -0.5561 -1.1744
 5997SOL    HW229628   3.239   0.512   4.725 -0.6983 -0.8766  0.6417
 5998SOL     OW29629   3.397   3.552  14.512 -1.0154 -0.2800 -0.1658
 5998SOL    HW129630   3.491   3.537  14.527 -0.8923  0.3673 -0.2963
 5998SOL    HW229631   3.389   3.514  14.425 -0.6024 -2.7734  0.8881
 5999SOL     OW29632   0.384   2.681   3.205 -0.4965  0.2003 -0.1772
 5999SOL    HW129633   0.413   2.623   3.275 -1.6862  0.1678  0.2990
 5999SOL    HW229634   0.406   2.760   3.255 -2.9694  0.8948 -0.1793
 6000SOL     OW29635   4.228   4.272   1.872  1.2254 -0.1015 -0.0206
 6000SOL    HW129636   4.192   4.346   1.824 -1.5338 -2.6597 -1.9306
 6000SOL    HW229637   4.250   4.220   1.795 -0.5279 -2.7721  1.2349
 6001SOL     OW29638   1.477   2.957  16.827  0.3233 -0.3069 -0.2791
 6001SOL    HW129639   1.519   2.873  16.847 -0.3345 -0.5574  0.0630
 6001SOL    HW229640   1.397   2.926  16.784 -1.3535  0.0979  2.5307
 6002SOL     OW29641   1.256   1.898   6.355 -0.0561 -0.0220  0.1552
 6002SOL    HW129642   1.163   1.908   6.334 -0.2219  0.0724  0.9368
 6002SOL    HW229643   1.298   1.981   6.334 -2.7158  1.4888  0.8644
 6003SOL     OW29644   3.788   3.491   3.900 -0.2867 -0.2645  0.0400
 6003SOL    HW129645   3.772   3.443   3.818 -2.6160 -0.4304  0.5920
 6003SOL    HW229646   3.764   3.425   3.966  0.3914  0.8393  1.3740
 6004SOL     OW29647   1.904   0.055   5.077  0.1114  0.3186 -0.1255
 6004SOL    HW129648   1.936   0.084   4.991 -1.3370 -0.7008 -0.9982
 6004SOL    HW229649   1.934   0.131   5.128 -2.2592  1.4969 -0.4921
 6005SOL     OW29650   1.611   3.673   6.436 -0.1682  0.7560 -1.0975
 6005SOL    HW129651   1.651   3.735   6.375  2.5816 -0.3502 -0.3820
 6005SOL    HW229652   1.673   3.601   6.442 -1.4290 -0.2743 -0.4561
 6006SOL     OW29653   1.627   2.065   2.505  0.4848  0.0222 -0.0684
 6006SOL    HW129654   1.719   2.051   2.483  0.8019  0.8341  0.7524
 6006SOL    HW229655   1.614   2.149   2.461 -0.9763  0.4365  1.1545
 6007SOL     OW29656   2.884   3.404  16.765 -0.1843  0.8256  0.5452
 6007SOL    HW129657   2.947   3.423  16.834  0.8970 -0.0133 -0.2208
 6007SOL    HW229658   2.850   3.494  16.761 -3.1592 -0.3529 -1.2857
 6008SOL     OW29659   4.265   1.144  11.314 -0.0257 -0.1928 -0.1580
 6008SOL    HW129660   4.191   1.084  11.303 -0.7666  0.7431 -0.2716
 6008SOL    HW229661   4.336   1.083  11.296  0.4805 -0.4274  2.6877
 6009SOL     OW29662   1.812   0.553   8.552  0.3655 -0.0091 -0.2739
 6009SOL    HW129663   1.778   0.623   8.498 -0.1381 -0.2304 -0.2439
 6009SOL    HW229664   1.878   0.511   8.497  0.3015  2.2076 -2.0399
 6010SOL     OW29665   2.390   4.213   9.445  0.2516  0.3870  0.3585
 6010SOL    HW129666   2.471   4.264   9.444  0.4155  0.2293  5.0266
 6010SOL    HW229667   2.338   4.275   9.495 -1.9152 -1.2139  0.0726
 6011SOL     OW29668   1.628   2.411   7.845 -0.3116 -0.1006  0.4107
 6011SOL    HW129669   1.721   2.431   7.842 -0.9445  2.6294 -0.8487
 6011SOL    HW229670   1.586   2.493   7.871  1.8813  0.0600  3.3778
 6012SOL     OW29671   2.767   0.173   1.772 -0.3743  0.2806 -0.3756
 6012SOL    HW129672   2.734   0.087   1.746 -2.9689  1.5781 -1.3782
 6012SOL    HW229673   2.860   0.162   1.789 -0.5323 -0.5585 -0.0487
 6013SOL     OW29674   1.461   4.145   9.393 -0.0806 -0.4245  0.3877
 6013SOL    HW129675   1.490   4.236   9.404 -2.7115 -0.2348  5.6172
 6013SOL    HW229676   1.460   4.130   9.299  1.1838 -0.4836  0.3748
 6014SOL     OW29677   4.135   1.157  10.366  0.1603  0.2067  0.5749
 6014SOL    HW129678   4.155   1.071  10.405  3.1500 -0.0945 -1.5894
 6014SOL    HW229679   4.175   1.148  10.280 -1.5465  0.1494 -0.2091
 6015SOL     OW29680   3.342   3.264   8.033  0.0802 -0.3385 -0.7123
 6015SOL    HW129681   3.276   3.289   7.968 -1.5363 -0.9037  0.7329
 6015SOL    HW229682   3.421   3.305   7.998  0.3194 -0.1156  0.0795
 6016SOL     OW29683   0.437   0.694   5.251 -0.1389  0.3321  0.6430
 6016SOL    HW129684   0.404   0.605   5.256 -1.0496  0.7237  1.6688
 6016SOL    HW229685   0.457   0.699   5.158  0.4763  0.8344  0.7993
 6017SOL     OW29686   2.340   2.460   0.528 -0.2125 -0.8234  0.1377
 6017SOL    HW129687   2.323   2.551   0.505  1.1588 -0.7388 -0.4888
 6017SOL    HW229688   2.313   2.452   0.620 -1.3221 -1.7488 -0.2641
 6018SOL     OW29689   2.834   0.373   3.732 -0.8666 -0.4378 -0.3412
 6018SOL    HW129690   2.896   0.430   3.686 -0.8544 -0.4559 -0.3472
 6018SOL    HW229691   2.759   0.431   3.745 -0.4762  0.1884 -0.8450
 6019SOL     OW29692   4.092   3.374   3.953  0.3309  0.2437  0.8332
 6019SOL    HW129693   4.004   3.337   3.951  1.7047 -2.7831 -3.1468
 6019SOL    HW229694   4.157   3.305   3.964  1.5557  1.0279 -1.4170
 6020SOL     OW29695   4.483   3.537   1.824 -0.1011  0.6058  0.0430
 6020SOL    HW129696   4.568   3.501   1.797 -0.4675  0.7946 -1.3919
 6020SOL    HW229697   4.463   3.461   1.878 -0.2891  0.7261  0.1417
 6021SOL     OW29698   0.538   1.360   6.291 -0.3133 -0.3963 -0.5466
 6021SOL    HW129699   0.571   1.372   6.380 -1.3641  0.3748 -0.2678
 6021SOL    HW229700   0.445   1.362   6.313 -0.1429  0.4906  0.0895
 6022SOL     OW29701   0.182   0.388  16.784 -0.1422 -0.0583  0.8075
 6022SOL    HW129702   0.138   0.342  16.713  0.7912 -0.1573  0.2962
 6022SOL    HW229703   0.108   0.428  16.829 -1.1860 -1.0820  0.0000
 6023SOL     OW29704   2.433   2.625   4.577 -0.1562  0.1185 -0.2902
 6023SOL    HW129705   2.379   2.704   4.583 -0.7289 -0.4822  2.2426
 6023SOL    HW229706   2.471   2.623   4.665  0.2026  2.9286 -0.3846
 6024SOL     OW29707   4.450   1.505   4.530 -0.0395  0.7781  0.0062
 6024SOL    HW129708   4.407   1.583   4.565 -0.5828  1.1586 -1.5226
 6024SOL    HW229709   4.377   1.467   4.482 -0.1244  1.5855 -0.5036
 6025SOL     OW29710   2.085   2.476  14.647 -0.3669 -0.1779  0.0260
 6025SOL    HW129711   2.065   2.383  14.654  2.5448 -0.7785  0.4201
 6025SOL    HW229712   2.162   2.482  14.590  0.3221  1.7066  1.1240
 6026SOL     OW29713   4.515   0.875  10.482 -0.4744  0.0656 -0.3225
 6026SOL    HW129714   4.586   0.829  10.527 -0.1407  0.7089 -0.1785
 6026SOL    HW229715   4.539   0.961  10.517  1.5516 -0.1768 -1.1048
 6027SOL     OW29716   3.939   1.215  16.966  0.1107 -0.1592 -0.0583
 6027SOL    HW129717   3.995   1.245  16.895  2.4799  0.7183  2.1630
 6027SOL    HW229718   3.968   1.263  17.044  0.0208  0.5368 -0.4526
 6028SOL     OW29719   2.954   2.396  12.119 -0.0214  0.2355 -0.3941
 6028SOL    HW129720   3.041   2.436  12.125  0.8866 -1.8203  0.0585
 6028SOL    HW229721   2.965   2.340  12.042 -2.6953  0.1917 -0.7484
 6029SOL     OW29722   2.231   0.542   2.556  0.3005 -0.3438 -0.2839
 6029SOL    HW129723   2.322   0.528   2.580  0.9224  1.9119 -1.4411
 6029SOL    HW229724   2.247   0.589   2.475  0.7043  2.4334  1.4254
 6030SOL     OW29725   0.216   4.038   1.141 -0.7051 -0.2958  0.2668
 6030SOL    HW129726   0.273   4.100   1.187 -1.3760  0.2713  0.3311
 6030SOL    HW229727   0.233   3.960   1.195  0.8403  0.8283  1.4271
 6031SOL     OW29728   3.178   0.307  16.502 -0.5548  0.6921 -0.3206
 6031SOL    HW129729   3.098   0.253  16.503  1.5398 -2.4148 -1.6079
 6031SOL    HW229730   3.239   0.235  16.516 -1.3207  0.1256  0.1356
 6032SOL     OW29731   0.805   4.209  16.076 -0.3199 -0.4497 -0.3110
 6032SOL    HW129732   0.870   4.208  16.005  0.4462  1.9621  0.3532
 6032SOL    HW229733   0.727   4.219  16.021  0.3517  0.4040 -1.1128
 6033SOL     OW29734   2.155   1.827  10.210 -0.1362  0.3602  0.3946
 6033SOL    HW129735   2.097   1.754  10.188  1.9954 -1.0455 -0.5684
 6033SOL    HW229736   2.230   1.802  10.155 -1.0260 -0.8119 -0.2820
 6034SOL     OW29737   1.265   0.788  11.835  0.4510 -0.4076  0.1743
 6034SOL    HW129738   1.319   0.861  11.864 -3.0017  2.8457 -1.7559
 6034SOL    HW229739   1.193   0.802  11.895  0.8104  1.4692  0.1556
 6035SOL     OW29740   0.024   1.836   4.480  0.5331 -0.4563 -0.3449
 6035SOL    HW129741   0.115   1.817   4.459  0.9660  0.6094  0.5868
 6035SOL    HW229742   0.014   1.761   4.538 -1.0305 -0.4402 -0.5777
 6036SOL     OW29743   4.044   3.980   7.285 -0.1192 -0.4072 -0.0884
 6036SOL    HW129744   3.978   3.918   7.315 -0.0464 -0.0079  0.8937
 6036SOL    HW229745   4.032   4.044   7.356 -1.3047  1.4797 -1.9855
 6037SOL     OW29746   3.721   3.831   1.537  0.1229  0.6901 -0.4225
 6037SOL    HW129747   3.653   3.848   1.472  0.4381  0.7976 -0.7189
 6037SOL    HW229748   3.710   3.737   1.545 -1.1640  0.8836  0.2040
 6038SOL     OW29749   4.663   3.753   0.121  0.6302  0.9052 -0.1409
 6038SOL    HW129750   4.582   3.788   0.157  1.1554  1.5320  0.4281
 6038SOL    HW229751   4.712   3.777   0.199  2.8732 -2.0300 -0.6467
 6039SOL     OW29752   3.696   4.533   6.876 -0.3394 -0.5692  0.0099
 6039SOL    HW129753   3.769   4.538   6.938 -0.3195 -0.5639 -0.0140
 6039SOL    HW229754   3.735   4.522   6.790 -1.3354  1.2861 -0.6709
 6040SOL     OW29755   0.763   4.706   9.328 -0.0222  0.5093 -0.4457
 6040SOL    HW129756   0.857   4.692   9.315  0.3924  2.1943  0.6813
 6040SOL    HW229757   0.750   0.029   9.256  0.4485 -0.6433 -1.5045
 6041SOL     OW29758   0.457   1.521   7.460 -0.1036  0.8251 -0.6857
 6041SOL    HW129759   0.485   1.431   7.442  0.9392  0.4877  2.7337
 6041SOL    HW229760   0.511   1.566   7.395 -0.4934  0.5427 -1.2035
 6042SOL     OW29761   4.054   3.319   6.458 -0.1812  0.0162  0.2232
 6042SOL    HW129762   4.037   3.225   6.454 -1.0871  0.1439  1.0403
 6042SOL    HW229763   3.988   3.350   6.520  0.9829  1.9286  0.5092
 6043SOL     OW29764   0.649   3.933   6.296  0.2107  0.8297  0.1702
 6043SOL    HW129765   0.646   4.015   6.247  0.2711  3.1300  3.9811
 6043SOL    HW229766   0.574   3.945   6.354 -0.6915  0.8052 -0.9943
 6044SOL     OW29767   3.642   0.936   5.394 -0.2766 -0.0464 -0.9927
 6044SOL    HW129768   3.558   0.943   5.349  0.9866 -1.5777 -3.5448
 6044SOL    HW229769   3.707   0.968   5.332 -0.4152  0.2462 -0.9870
 6045SOL     OW29770   1.907   1.208  10.423  0.1105  0.0059 -0.2280
 6045SOL    HW129771   1.884   1.119  10.450 -2.4119  0.9952  0.8705
 6045SOL    HW229772   1.879   1.248  10.505 -0.6592 -1.5476  0.2742
 6046SOL     OW29773   0.444   0.013   1.412 -0.6498  0.0276  0.7288
 6046SOL    HW129774   0.477   4.662   1.417  0.5615  0.4515  0.4007
 6046SOL    HW229775   0.415   0.021   1.503  2.5150  0.2477  1.7138
 6047SOL     OW29776   1.770   2.131  15.744  0.0608  0.2007 -0.0888
 6047SOL    HW129777   1.798   2.050  15.701  0.5253  1.5311 -2.2730
 6047SOL    HW229778   1.674   2.130  15.747  0.0861 -0.5980  0.6800
 6048SOL     OW29779   3.805   1.421   0.267  0.6083  0.1044 -0.1230
 6048SOL    HW129780   3.863   1.362   0.316 -1.7730 -1.5689  0.7023
 6048SOL    HW229781   3.742   1.352   0.244 -0.3186  1.0489 -0.4097
 6049SOL     OW29782   2.661   2.886   2.894  0.3515 -0.0936 -0.2080
 6049SOL    HW129783   2.701   2.939   2.825 -0.3696 -0.9289 -1.2671
 6049SOL    HW229784   2.601   2.952   2.928  1.1288  1.0087 -0.9853
 6050SOL     OW29785   1.600   0.711  11.933 -0.6130  0.2662 -0.6513
 6050SOL    HW129786   1.537   0.783  11.939 -0.1763  0.6015 -0.0592
 6050SOL    HW229787   1.557   0.659  12.000 -0.0175  0.5454 -0.0560
 6051SOL     OW29788   1.811   0.160  11.573  0.1795  0.0271 -0.7284
 6051SOL    HW129789   1.885   0.212  11.606 -1.7229  2.0581  0.3165
 6051SOL    HW229790   1.853   0.133  11.491 -0.9605  1.2293 -1.6961
 6052SOL     OW29791   0.233   0.467   9.516  0.0449  0.0499 -0.0306
 6052SOL    HW129792   0.190   0.430   9.439  0.1319 -0.8816  0.3657
 6052SOL    HW229793   0.261   0.388   9.563 -1.4923 -1.1214 -1.0952
 6053SOL     OW29794   2.568   1.358   1.837 -0.5599  0.4996  0.8384
 6053SOL    HW129795   2.575   1.403   1.921 -1.8342 -1.5031  2.0036
 6053SOL    HW229796   2.579   1.269   1.869 -0.1526 -0.0056 -0.6766
 6054SOL     OW29797   0.121   2.844   8.737 -0.0684 -0.5189 -0.3399
 6054SOL    HW129798   0.125   2.819   8.645 -0.2690 -1.6487 -0.0354
 6054SOL    HW229799   0.125   2.939   8.726 -1.3033 -0.3291  0.8247
 6055SOL     OW29800   4.371   0.099   7.104  0.6274  0.1747 -0.3967
 6055SOL    HW129801   4.372   0.191   7.130  0.7269  0.5013 -1.5563
 6055SOL    HW229802   4.455   0.076   7.064  0.9844  1.8596 -0.6153
 6056SOL     OW29803   1.920   2.475   2.450 -0.5153 -0.0931 -0.0196
 6056SOL    HW129804   1.898   2.533   2.523 -2.1514  0.4318 -0.9376
 6056SOL    HW229805   1.880   2.393   2.478 -1.9231  0.6682  0.1871
 6057SOL     OW29806   3.731   2.799   5.239 -0.2531 -0.5443 -0.2570
 6057SOL    HW129807   3.680   2.747   5.301  2.1037 -3.1162 -0.4561
 6057SOL    HW229808   3.769   2.723   5.194 -0.0864 -0.8733  0.4339
 6058SOL     OW29809   0.284   3.600   7.020 -0.3599 -0.4161 -0.1798
 6058SOL    HW129810   0.239   3.572   6.940 -0.2013  0.6196 -0.6314
 6058SOL    HW229811   0.374   3.594   6.990  0.5593  0.5990  2.3688
 6059SOL     OW29812   4.257   1.394   5.604  0.6757  0.0033 -0.2295
 6059SOL    HW129813   4.332   1.359   5.556  1.1066  0.0165  0.4283
 6059SOL    HW229814   4.184   1.377   5.545 -0.3021 -0.2162  1.0600
 6060SOL     OW29815   1.923   1.919   3.102 -0.1690  0.5353 -0.6592
 6060SOL    HW129816   1.989   1.851   3.099 -0.7638  0.0508 -2.6464
 6060SOL    HW229817   1.850   1.869   3.138  0.5785  0.1795  0.3451
 6061SOL     OW29818   3.457   3.318   3.663  0.1273  0.2062 -0.5275
 6061SOL    HW129819   3.410   3.329   3.580 -0.5357  2.2300  0.1244
 6061SOL    HW229820   3.526   3.384   3.656 -0.3809  0.7245 -0.6327
 6062SOL     OW29821   0.368   0.211   5.841 -0.0378 -0.6929 -0.1272
 6062SOL    HW129822   0.318   0.292   5.829  2.5118  0.9694  0.2391
 6062SOL    HW229823   0.459   0.242   5.837  0.0918 -1.1637 -0.7029
 6063SOL     OW29824   1.143   4.118   3.715 -0.4303  0.6328  0.0535
 6063SOL    HW129825   1.095   4.050   3.668 -1.6317  1.5361 -0.0329
 6063SOL    HW229826   1.203   4.062   3.764 -3.3611 -2.5361 -0.0134
 6064SOL     OW29827   3.432   3.196   0.948 -0.1950  0.3456 -0.4962
 6064SOL    HW129828   3.352   3.143   0.942  0.0834 -0.0589 -0.6586
 6064SOL    HW229829   3.482   3.142   1.010 -0.5335 -0.1447 -0.6450
 6065SOL     OW29830   2.322   0.904  17.430  0.0989  0.2394 -0.6388
 6065SOL    HW129831   2.319   0.856  17.347 -3.7783  1.7813 -1.3916
 6065SOL    HW229832   2.404   0.894  17.478 -0.4082 -3.0359 -0.4873
 6066SOL     OW29833   0.994   1.437   7.892  0.1156 -0.0022  0.1794
 6066SOL    HW129834   1.000   1.532   7.894 -0.6631  0.0874 -1.9947
 6066SOL    HW229835   0.912   1.429   7.941 -0.7784 -1.2864 -1.5269
 6067SOL     OW29836   2.226   1.829   9.694 -0.0953  0.2361  0.1898
 6067SOL    HW129837   2.138   1.795   9.679 -0.0757 -0.0298  0.6681
 6067SOL    HW229838   2.241   1.863   9.606 -1.3686  2.8537  0.9782
 6068SOL     OW29839   0.634   3.603  11.326  0.6773 -0.1137 -0.0572
 6068SOL    HW129840   0.582   3.643  11.395  0.1872 -1.1772  0.1727
 6068SOL    HW229841   0.573   3.533  11.305  0.6236  0.8600 -3.1849
 6069SOL     OW29842   1.170   0.054  13.623 -0.0961  0.2439  0.1745
 6069SOL    HW129843   1.178   4.702  13.594  1.4771 -0.3977  2.5820
 6069SOL    HW229844   1.153   0.108  13.546 -0.0974  0.4111  0.2910
 6070SOL     OW29845   4.471   1.951   3.472  0.6984 -0.4943 -0.0430
 6070SOL    HW129846   4.378   1.927   3.475  0.7860 -0.9640 -1.1864
 6070SOL    HW229847   4.484   1.933   3.379 -1.8568 -1.1440 -0.2828
 6071SOL     OW29848   1.085   2.368   5.726  0.1467 -0.2260  0.2252
 6071SOL    HW129849   1.005   2.398   5.770  0.3422 -0.1063  0.4946
 6071SOL    HW229850   1.143   2.441   5.746  0.0097 -0.2141  0.5690
 6072SOL     OW29851   3.564   3.119  10.800 -0.2939 -0.2727 -0.4320
 6072SOL    HW129852   3.484   3.112  10.853 -0.3261 -0.6855 -0.5356
 6072SOL    HW229853   3.560   3.048  10.736  2.3539 -1.9894  1.3163
 6073SOL     OW29854   0.890   1.062   7.809  0.0269  0.4396 -0.2151
 6073SOL    HW129855   0.927   1.122   7.744  1.2132  0.4336  0.4511
 6073SOL    HW229856   0.795   1.069   7.798 -0.0208 -0.4280 -0.3434
 6074SOL     OW29857   4.491   2.720  16.867 -0.1340  0.1755 -0.0755
 6074SOL    HW129858   4.404   2.745  16.836  0.4452  1.5844 -0.5581
 6074SOL    HW229859   4.541   2.772  16.804  0.2254 -2.5108 -2.0199
 6075SOL     OW29860   0.081   1.123  15.393 -0.4302 -0.6775 -0.3829
 6075SOL    HW129861   0.171   1.144  15.418 -1.0096 -0.8464  1.8158
 6075SOL    HW229862   0.040   1.207  15.374  1.3245  0.1868 -0.3255
 6076SOL     OW29863   2.129   2.441   1.223  0.1648 -0.4550 -0.5151
 6076SOL    HW129864   2.221   2.443   1.196  0.5278 -0.8488  0.6793
 6076SOL    HW229865   2.140   2.461   1.316  1.0355 -1.6990 -0.3408
 6077SOL     OW29866   3.608   2.558   8.457 -0.9282 -0.2421 -0.1118
 6077SOL    HW129867   3.588   2.635   8.511 -1.6649  0.1164 -0.9003
 6077SOL    HW229868   3.620   2.489   8.522 -0.3813 -1.1245 -1.1597
 6078SOL     OW29869   4.445   0.541   8.518 -0.3035  0.5864 -0.3975
 6078SOL    HW129870   4.450   0.496   8.602  1.0547  1.2586 -0.1185
 6078SOL    HW229871   4.384   0.614   8.533 -1.6739 -0.6935  0.1610
 6079SOL     OW29872   4.366   0.511  17.636 -0.5159  0.1457 -0.1114
 6079SOL    HW129873   4.372   0.419  17.659 -2.4390  0.2660  0.8627
 6079SOL    HW229874   4.458   0.528  17.618  0.2657 -3.0060  1.0202
 6080SOL     OW29875   2.218   1.694   3.344 -0.2382  1.0393 -0.0718
 6080SOL    HW129876   2.198   1.783   3.317 -3.0804 -0.4228 -2.8125
 6080SOL    HW229877   2.129   1.662   3.358 -0.1323  1.4922  1.6703
 6081SOL     OW29878   3.754   2.688  10.433 -0.4903  0.4926 -0.2086
 6081SOL    HW129879   3.711   2.708  10.350 -0.6159 -3.1313 -1.0304
 6081SOL    HW229880   3.695   2.618  10.461  0.5098 -0.7174 -1.1033
 6082SOL     OW29881   4.063   0.681   2.389  0.1027 -0.3991 -0.3200
 6082SOL    HW129882   3.985   0.719   2.349  0.6917  0.5019 -0.6187
 6082SOL    HW229883   4.104   0.664   2.305 -1.7510 -0.5262 -1.1903
 6083SOL     OW29884   3.048   1.949   9.013  0.3231  0.6847 -0.1152
 6083SOL    HW129885   3.081   1.889   8.947 -2.4308 -0.5644 -0.3544
 6083SOL    HW229886   3.100   1.926   9.091 -0.5264  0.0312  0.2658
 6084SOL     OW29887   2.417   1.347   1.599 -0.5856 -0.1919 -0.2415
 6084SOL    HW129888   2.493   1.352   1.656  0.9304 -2.5632 -2.0547
 6084SOL    HW229889   2.351   1.381   1.659 -1.6026 -3.2572  0.3749
 6085SOL     OW29890   0.884   4.032  12.913 -0.0793 -0.5480  0.5860
 6085SOL    HW129891   0.904   4.009  13.004  0.7372  0.4564  0.6571
 6085SOL    HW229892   0.944   4.106  12.911  1.6691 -1.8924  3.1718
 6086SOL     OW29893   2.735   3.337   9.339  0.5623 -0.2096 -0.2935
 6086SOL    HW129894   2.754   3.268   9.402  0.8005  1.2369  1.2250
 6086SOL    HW229895   2.640   3.341   9.356  0.6517 -0.1956  0.2063
 6087SOL     OW29896   4.391   0.616   2.668 -0.0685 -0.3217 -0.1776
 6087SOL    HW129897   4.437   0.597   2.750 -2.3900 -1.3948  0.8806
 6087SOL    HW229898   4.332   0.541   2.675 -2.6792  1.2915 -4.4180
 6088SOL     OW29899   3.989   3.911   3.709  0.0923 -0.3548  0.3699
 6088SOL    HW129900   3.899   3.908   3.741  0.6025 -0.9081  1.7471
 6088SOL    HW229901   3.981   3.968   3.632 -0.7566 -0.5111  0.3472
 6089SOL     OW29902   1.114   4.409   2.086 -0.1985 -0.4626 -0.1490
 6089SOL    HW129903   1.187   4.413   2.149  0.2552  0.4483 -0.7442
 6089SOL    HW229904   1.054   4.477   2.117  0.5166  0.1364 -0.0637
 6090SOL     OW29905   4.415   1.104  14.668  0.3305 -0.4169  0.1708
 6090SOL    HW129906   4.435   1.154  14.589  0.8074 -2.2989 -0.9101
 6090SOL    HW229907   4.489   1.044  14.658  0.8382  0.4469 -1.2107
 6091SOL     OW29908   2.347   0.459   7.828 -0.6205  0.0752 -0.2144
 6091SOL    HW129909   2.322   0.380   7.780 -0.2840  0.1179 -0.4598
 6091SOL    HW229910   2.424   0.421   7.871  1.0422  1.4967 -1.9687
 6092SOL     OW29911   0.219   2.993   1.580  0.1161  0.6993  0.8827
 6092SOL    HW129912   0.315   2.988   1.577  0.0348  0.0577 -0.8629
 6092SOL    HW229913   0.201   2.905   1.613  0.8644  1.1403  2.4177
 6093SOL     OW29914   0.981   3.836  15.308  0.1660 -0.9132  0.9076
 6093SOL    HW129915   0.924   3.760  15.317  0.0686 -1.1473 -1.7427
 6093SOL    HW229916   0.964   3.870  15.220  1.2340  0.2104  1.1276
 6094SOL     OW29917   1.514   4.009   3.666 -0.5933  0.6670  0.0921
 6094SOL    HW129918   1.485   3.967   3.747 -2.1066 -1.6729 -1.6634
 6094SOL    HW229919   1.610   4.001   3.668 -0.7454 -2.2054 -3.1208
 6095SOL     OW29920   4.735   0.143   2.214 -0.4959 -0.5733 -0.0721
 6095SOL    HW129921   4.660   0.116   2.161 -0.8154 -1.7570  1.0012
 6095SOL    HW229922   4.730   0.062   2.264  0.3320 -0.2235  0.5781
 6096SOL     OW29923   4.176   4.627   4.947  0.0170 -1.2485  0.0550
 6096SOL    HW129924   4.176   4.533   4.963  0.5567 -0.8654  2.2748
 6096SOL    HW229925   4.231   4.650   5.021 -0.0874  0.2208 -0.3284
 6097SOL     OW29926   4.540   2.662   8.814  0.7863 -0.1311  0.2888
 6097SOL    HW129927   4.487   2.707   8.748  0.5235  0.6659  1.0497
 6097SOL    HW229928   4.578   2.590   8.763  2.5055 -0.3966  1.9497
 6098SOL     OW29929   2.939   0.553  15.959  0.1140  0.4191  0.2743
 6098SOL    HW129930   2.977   0.548  16.046  1.5967 -0.1454 -0.4042
 6098SOL    HW229931   3.024   0.542  15.916  0.7100  0.8281  1.3347
 6099SOL     OW29932   3.280   0.209   6.040 -0.2732 -0.3737 -0.0309
 6099SOL    HW129933   3.326   0.186   5.959 -0.2353  1.1009 -0.4356
 6099SOL    HW229934   3.231   0.128   6.049 -0.1998 -0.5033 -0.8486
 6100SOL     OW29935   0.871   4.688   0.284  0.1335 -0.1840  0.3283
 6100SOL    HW129936   0.862   4.649   0.370  1.2018 -0.3921  0.3463
 6100SOL    HW229937   0.926   4.618   0.247  0.5941 -0.5809  1.7942
 6101SOL     OW29938   4.658   0.716   3.242 -0.2682  1.2147  0.3013
 6101SOL    HW129939   4.628   0.802   3.272 -2.6874  1.0524 -1.5585
 6101SOL    HW229940   4.643   0.664   3.321 -1.0377 -2.2539 -2.1304
 6102SOL     OW29941   0.167   3.480   4.168 -0.3818 -0.2075 -0.7222
 6102SOL    HW129942   0.116   3.424   4.226  0.0255  0.6673  0.4860
 6102SOL    HW229943   0.127   3.565   4.188 -1.6874 -1.0165  0.0946
 6103SOL     OW29944   2.213   4.657   3.350 -0.4637 -0.3233 -0.2855
 6103SOL    HW129945   2.159   4.577   3.354 -0.8429 -0.0391  0.2721
 6103SOL    HW229946   2.289   4.628   3.298 -0.6058 -0.8157 -0.2226
 6104SOL     OW29947   3.206   0.892   7.546 -0.5131 -0.6121 -0.1801
 6104SOL    HW129948   3.199   0.970   7.601 -0.7048 -0.2747 -0.6807
 6104SOL    HW229949   3.297   0.873   7.566  0.2678  0.6919 -2.5267
 6105SOL     OW29950   1.690   4.548   7.841 -0.0074  0.3154  0.2342
 6105SOL    HW129951   1.724   4.541   7.752 -3.5594  0.3447 -1.1090
 6105SOL    HW229952   1.671   4.641   7.832 -0.8558  0.2284  1.0927
 6106SOL     OW29953   3.389   1.944   4.784 -0.0481 -0.2518  0.1594
 6106SOL    HW129954   3.356   1.984   4.703  0.9464  0.5237  0.1452
 6106SOL    HW229955   3.390   1.854   4.751 -0.1644 -0.1435 -0.1461
 6107SOL     OW29956   4.667   2.806  13.562 -0.6830  0.0792 -0.4152
 6107SOL    HW129957   4.573   2.822  13.553 -0.6072  2.3461  3.0866
 6107SOL    HW229958   4.671   2.712  13.543  1.5988  0.3283 -1.1542
 6108SOL     OW29959   1.954   3.825   3.283  0.1312  0.7852 -0.0515
 6108SOL    HW129960   1.999   3.765   3.224 -2.4870 -0.7075 -0.5645
 6108SOL    HW229961   2.021   3.816   3.351  0.6398  0.0732 -0.6541
 6109SOL     OW29962   4.050   0.267   3.973 -0.0534 -0.1763 -0.3658
 6109SOL    HW129963   3.982   0.328   4.000 -0.3412 -0.4671 -0.4300
 6109SOL    HW229964   4.111   0.285   4.045 -0.2219  0.7306 -0.4577
 6110SOL     OW29965   2.673   0.000  13.106 -0.1854  0.0734 -0.0702
 6110SOL    HW129966   2.641   0.078  13.059  0.0811  1.1029  1.4573
 6110SOL    HW229967   2.655   4.661  13.054 -0.0832  0.1772 -0.2614
 6111SOL     OW29968   4.434   1.608   4.198  0.3133 -0.8864  0.2981
 6111SOL    HW129969   4.411   1.631   4.108  0.8411 -0.3208  0.3080
 6111SOL    HW229970   4.526   1.585   4.186  0.1782 -1.2212 -0.0612
 6112SOL     OW29971   2.141   3.564  15.401  0.0437  0.4208 -0.4867
 6112SOL    HW129972   2.187   3.514  15.334 -0.7141  0.2794 -0.9038
 6112SOL    HW229973   2.063   3.508  15.403  1.2364 -1.1480  2.5359
 6113SOL     OW29974   1.899   1.473   1.979  0.6986  0.5467 -0.4625
 6113SOL    HW129975   1.991   1.501   1.978  1.6509 -2.3765  1.6900
 6113SOL    HW229976   1.906   1.384   1.944  1.4097  0.6345 -0.5548
 6114SOL     OW29977   4.356   0.935   0.148 -0.2683  0.3506  0.4569
 6114SOL    HW129978   4.319   0.938   0.060 -0.0023  0.8098  0.3655
 6114SOL    HW229979   4.350   0.841   0.164 -2.3616  0.3830 -0.1269
 6115SOL     OW29980   2.439   1.162   7.571  0.0045 -0.5282  0.0085
 6115SOL    HW129981   2.435   1.086   7.513 -0.3218 -0.7857  0.3682
 6115SOL    HW229982   2.465   1.131   7.658 -0.8802  1.6726  1.0452
 6116SOL     OW29983   1.571   2.956  13.163 -0.8787  0.3615  0.0071
 6116SOL    HW129984   1.551   2.960  13.069 -1.9189  0.8873  0.2574
 6116SOL    HW229985   1.657   2.913  13.156 -0.6694  0.8390 -0.3638
 6117SOL     OW29986   0.084   1.639   5.349 -0.4622  0.4610 -0.0341
 6117SOL    HW129987   0.084   1.693   5.271 -1.6140  0.4030 -0.0730
 6117SOL    HW229988   0.077   1.548   5.321  1.1737 -0.3189  2.0999
 6118SOL     OW29989   4.505   3.973   1.733  0.7375 -0.0719  0.1169
 6118SOL    HW129990   4.530   3.988   1.642 -0.9685  0.4801 -0.2633
 6118SOL    HW229991   4.510   4.065   1.757 -1.3716 -0.0022  0.2961
 6119SOL     OW29992   0.378   0.385   1.362 -0.1806 -0.0246  0.1037
 6119SOL    HW129993   0.354   0.302   1.322 -2.0211 -0.1837  1.5179
 6119SOL    HW229994   0.359   0.369   1.454 -0.2838 -0.2263  0.0462
 6120SOL     OW29995   4.541   1.878   1.526 -0.7768 -0.4115  0.1328
 6120SOL    HW129996   4.635   1.875   1.508 -0.5020  0.6255  1.4319
 6120SOL    HW229997   4.552   1.887   1.621  2.0547  0.6507 -0.2956
 6121SOL     OW29998   1.609   0.294  16.202  0.4043  0.3596 -0.1049
 6121SOL    HW129999   1.564   0.265  16.123  1.0287  0.3311 -0.4487
 6121SOL    HW230000   1.597   0.389  16.206 -0.0497  0.3177 -0.4229
 6122SOL     OW30001   3.951   0.951   2.079  0.3686  0.0935  0.0595
 6122SOL    HW130002   3.893   0.964   2.004 -0.2009  0.1257  0.5004
 6122SOL    HW230003   3.890   0.899   2.132 -0.4625  2.0068  0.9792
 6123SOL     OW30004   3.913   4.264   8.183  0.4083 -0.5651 -0.2069
 6123SOL    HW130005   3.959   4.295   8.105 -1.1914 -0.7302 -1.2123
 6123SOL    HW230006   3.979   4.206   8.222  0.0997 -1.6973 -1.3874
 6124SOL     OW30007   1.388   2.376   5.356  0.2938 -0.2282  0.0315
 6124SOL    HW130008   1.356   2.437   5.290  2.1063 -1.2129 -1.7615
 6124SOL    HW230009   1.442   2.434   5.410 -1.1115 -0.1696  1.3871
 6125SOL     OW30010   1.704   1.585   2.991 -0.0024 -0.1657  0.1492
 6125SOL    HW130011   1.672   1.640   2.920  2.1323  0.6168 -0.2145
 6125SOL    HW230012   1.672   1.497   2.975 -2.0044  0.6662 -0.3044
 6126SOL     OW30013   1.211   0.063   6.760  0.0776 -0.3723 -0.1322
 6126SOL    HW130014   1.186   0.037   6.671 -1.8323  1.3272 -0.0979
 6126SOL    HW230015   1.286   0.006   6.776  2.2401  2.2110 -1.1464
 6127SOL     OW30016   1.691   1.369  13.531 -0.2004 -0.1596 -0.0438
 6127SOL    HW130017   1.682   1.383  13.437 -0.1032  0.8365  0.1022
 6127SOL    HW230018   1.662   1.456  13.556 -0.2991 -0.8419  2.2050
 6128SOL     OW30019   3.377   2.895   6.404 -0.5628  0.8938  0.0194
 6128SOL    HW130020   3.404   2.986   6.414 -2.3608  1.5416 -1.0901
 6128SOL    HW230021   3.320   2.909   6.329 -1.9164 -1.7786  0.5701
 6129SOL     OW30022   2.925   2.980  14.127 -0.1801 -0.5676 -0.9688
 6129SOL    HW130023   2.929   2.916  14.198 -3.3069 -0.3149 -0.5518
 6129SOL    HW230024   2.876   3.054  14.164 -1.4357 -2.4622  1.1144
 6130SOL     OW30025   1.127   3.147  17.577  0.2363  0.1451  0.4294
 6130SOL    HW130026   1.149   3.133  17.485  1.2254 -0.9378  0.8280
 6130SOL    HW230027   1.074   3.068  17.592 -2.1326  1.7431  0.4932
 6131SOL     OW30028   3.973   1.946  11.472  0.0002  0.6433 -0.6530
 6131SOL    HW130029   4.012   1.903  11.396  0.1920  0.8760 -0.6853
 6131SOL    HW230030   4.019   2.029  11.463  0.1933  0.6988  0.8223
 6132SOL     OW30031   1.983   0.528   9.025  0.0713  0.2306  0.4402
 6132SOL    HW130032   2.028   0.460   9.075  1.3997  0.3369 -0.6058
 6132SOL    HW230033   1.941   0.477   8.956  0.6886  0.5471 -0.1701
 6133SOL     OW30034   2.584   0.764  16.003  0.6528  0.4389 -0.0386
 6133SOL    HW130035   2.523   0.837  16.007 -0.0869 -0.2568  1.5424
 6133SOL    HW230036   2.532   0.694  16.043 -0.9526  2.4974  1.4128
 6134SOL     OW30037   4.283   1.818   5.790  0.9807  0.3942  0.2312
 6134SOL    HW130038   4.335   1.810   5.869  0.6395  0.2114  0.4360
 6134SOL    HW230039   4.344   1.838   5.719  0.7362 -0.2072 -0.1512
 6135SOL     OW30040   1.787   2.524   8.252  0.1507  0.1645  0.2832
 6135SOL    HW130041   1.806   2.432   8.233 -0.0252  0.6056 -1.9757
 6135SOL    HW230042   1.693   2.531   8.266 -0.2461 -0.5890 -2.0068
 6136SOL     OW30043   3.337   1.329   8.676 -0.0534  0.0119 -0.3917
 6136SOL    HW130044   3.252   1.287   8.659  0.4484 -1.7661  1.5442
 6136SOL    HW230045   3.387   1.327   8.595  2.6356 -1.4698  1.3196
 6137SOL     OW30046   1.366   1.263   9.667 -0.4495  0.1596  0.6558
 6137SOL    HW130047   1.283   1.215   9.670 -1.3200  1.6101 -0.2158
 6137SOL    HW230048   1.431   1.204   9.706 -0.8226 -0.3189  0.5502
 6138SOL     OW30049   2.096   3.604   7.562  0.0004 -0.6792 -0.1459
 6138SOL    HW130050   2.072   3.542   7.493 -1.5230  1.1623 -1.2586
 6138SOL    HW230051   2.060   3.552   7.634  0.8442 -0.3960  0.4779
 6139SOL     OW30052   0.258   0.430   4.668  0.3887  0.3690 -0.3007
 6139SOL    HW130053   0.277   0.389   4.752  0.0807  0.8306 -0.0039
 6139SOL    HW230054   0.167   0.458   4.678 -0.1715 -1.6414  0.1999
 6140SOL     OW30055   1.688   1.428   8.146  0.7840  0.2806  0.1546
 6140SOL    HW130056   1.606   1.415   8.098 -1.3003  0.4868  3.6624
 6140SOL    HW230057   1.736   1.480   8.082 -0.0774  1.7334  0.6882
 6141SOL     OW30058   2.794   0.060   2.545  0.6333  0.0441 -0.2217
 6141SOL    HW130059   2.866   0.119   2.567 -1.1256  2.8999 -2.0794
 6141SOL    HW230060   2.723   0.108   2.587  1.8684 -1.0123  3.0222
 6142SOL     OW30061   3.062   2.514   2.577  0.3383  0.1730  0.8134
 6142SOL    HW130062   3.111   2.575   2.633 -1.2299  0.6216  1.6958
 6142SOL    HW230063   3.054   2.431   2.624 -1.5140 -1.0306 -1.6420
 6143SOL     OW30064   1.335   0.946  15.715  0.2554 -0.3455 -0.2147
 6143SOL    HW130065   1.323   1.032  15.754  1.3503 -0.6856  0.8952
 6143SOL    HW230066   1.271   0.898  15.768 -0.8161  1.0254 -0.2693
 6144SOL     OW30067   3.843   1.464  16.172 -0.1680  0.6951  0.4275
 6144SOL    HW130068   3.778   1.505  16.229 -0.6467 -0.0239  0.3984
 6144SOL    HW230069   3.800   1.384  16.143  0.1071  0.8083 -0.3069
 6145SOL     OW30070   1.239   0.863  16.265  0.2168  0.5878  0.0464
 6145SOL    HW130071   1.290   0.877  16.344 -0.0490  0.7792  0.1833
 6145SOL    HW230072   1.149   0.890  16.283  0.4905 -0.7051  3.3648
 6146SOL     OW30073   4.649   0.146  11.327 -0.5285 -0.5010 -0.1893
 6146SOL    HW130074   4.676   0.236  11.346 -3.4403  0.3674 -0.1296
 6146SOL    HW230075   4.564   0.171  11.290 -0.6965 -1.2797 -0.3419
 6147SOL     OW30076   0.084   2.583  15.349 -0.2235 -0.0032  0.3472
 6147SOL    HW130077   0.115   2.566  15.260 -1.1561 -3.3559  0.6474
 6147SOL    HW230078   4.728   2.590  15.333  0.0680  1.4187 -0.7249
 6148SOL     OW30079   4.250   1.728   1.778 -0.4320  0.0008  0.0807
 6148SOL    HW130080   4.178   1.671   1.749  1.5854 -0.6661 -3.5475
 6148SOL    HW230081   4.234   1.815   1.741 -0.3618  0.1482  0.3959
 6149SOL     OW30082   1.191   3.120   5.565  0.2066  0.0497  0.3048
 6149SOL    HW130083   1.224   3.048   5.511 -0.2279 -0.9486  1.3721
 6149SOL    HW230084   1.259   3.128   5.632  0.5111 -1.7274  0.1997
 6150SOL     OW30085   2.236   3.358  10.342  0.4947 -0.3024  0.2320
 6150SOL    HW130086   2.192   3.273  10.349 -0.1599 -0.0432 -0.8348
 6150SOL    HW230087   2.285   3.342  10.261  0.4653 -1.6804  0.4825
 6151SOL     OW30088   4.099   0.084   0.925  0.2155  0.1056  0.3763
 6151SOL    HW130089   4.079   0.000   0.966 -3.8903  1.7399  1.7435
 6151SOL    HW230090   4.029   0.091   0.861  1.3156  2.3209 -0.5980
 6152SOL     OW30091   1.163   1.723   8.898  0.1425  0.5254  0.5621
 6152SOL    HW130092   1.248   1.707   8.858 -0.8630 -0.3619 -1.2256
 6152SOL    HW230093   1.159   1.640   8.944  1.5466 -0.6125 -1.3904
 6153SOL     OW30094   3.430   2.474  11.954 -0.3413 -0.2035  0.0236
 6153SOL    HW130095   3.374   2.455  11.879 -0.9418  0.9199  0.2014
 6153SOL    HW230096   3.507   2.421  11.932 -0.7805 -0.4152 -0.9877
 6154SOL     OW30097   1.973   2.885   2.575 -0.1868  0.0722 -0.3930
 6154SOL    HW130098   1.891   2.921   2.541  0.1761  0.6091 -0.7073
 6154SOL    HW230099   1.975   2.806   2.521  1.2627 -0.1128 -0.0683
 6155SOL     OW30100   0.664   2.318   7.492  0.5285 -0.0031  0.3062
 6155SOL    HW130101   0.593   2.332   7.555 -0.4471  0.9583 -1.0067
 6155SOL    HW230102   0.726   2.377   7.533  0.7483 -0.7693  1.0909
 6156SOL     OW30103   0.503   0.940   4.796  0.8312  0.1604 -0.3980
 6156SOL    HW130104   0.592   0.974   4.792  0.4765  1.0252 -0.9615
 6156SOL    HW230105   0.488   0.881   4.723  0.6800 -0.4985  0.1613
 6157SOL     OW30106   3.292   3.256   4.554 -0.3207 -0.8580 -0.0069
 6157SOL    HW130107   3.267   3.213   4.472 -3.2407  0.2777  0.2687
 6157SOL    HW230108   3.348   3.329   4.526  0.2640 -0.2644  2.7535
 6158SOL     OW30109   0.161   0.935   3.018  0.1996  0.4155  0.3059
 6158SOL    HW130110   0.185   0.874   3.088 -0.5489  0.5064  0.6398
 6158SOL    HW230111   0.163   0.879   2.941  0.1231  1.6113 -0.5662
 6159SOL     OW30112   3.835   4.011  14.412 -0.1392 -0.2298  0.4498
 6159SOL    HW130113   3.898   4.082  14.421 -1.1569  0.5972  1.0923
 6159SOL    HW230114   3.751   4.050  14.387 -0.5096 -0.6384  1.0743
 6160SOL     OW30115   0.048   3.377   0.478 -0.2637 -0.1029 -0.0421
 6160SOL    HW130116   0.052   3.383   0.383 -0.1634 -0.5287 -0.0632
 6160SOL    HW230117   4.704   3.417   0.504  0.8885 -0.4725  4.1574
 6161SOL     OW30118   0.366   0.004   7.125 -0.4912  0.5512  0.4724
 6161SOL    HW130119   0.435   0.063   7.094  0.8483 -0.1501  2.1136
 6161SOL    HW230120   0.374   0.026   7.217  1.4682 -2.2037  0.9695
 6162SOL     OW30121   1.909   3.123  10.210 -0.0609 -0.0724  0.4066
 6162SOL    HW130122   1.995   3.138  10.250 -0.1738  1.2545  0.1567
 6162SOL    HW230123   1.888   3.215  10.192 -0.9575 -0.2754  0.4387
 6163SOL     OW30124   4.641   0.794   6.365 -0.0657 -0.6406  0.1924
 6163SOL    HW130125   4.708   0.829   6.306  1.4001 -2.5445  0.7015
 6163SOL    HW230126   4.665   0.848   6.440  2.2433 -0.4703 -0.6610
 6164SOL     OW30127   0.384   3.543   8.574 -0.1789  0.2014 -0.3961
 6164SOL    HW130128   0.423   3.455   8.580  0.7880  0.6217 -0.4602
 6164SOL    HW230129   0.355   3.551   8.665 -2.8150 -1.6999 -1.0988
 6165SOL     OW30130   3.714   4.641  10.013  0.6132 -0.3747  0.0778
 6165SOL    HW130131   3.731   4.654  10.106  1.1877 -1.7770  0.1731
 6165SOL    HW230132   3.632   4.688  10.004  0.1600 -1.2051 -0.0957
 6166SOL     OW30133   2.794   0.483   1.438 -0.4770 -0.3797  0.4118
 6166SOL    HW130134   2.742   0.403   1.442  0.5292 -1.0906 -0.6459
 6166SOL    HW230135   2.749   0.540   1.375  1.7592  2.0296  0.9802
 6167SOL     OW30136   4.074   1.422   2.350  0.0909 -0.3261 -0.9160
 6167SOL    HW130137   3.987   1.459   2.337 -0.7946 -1.9857  0.3139
 6167SOL    HW230138   4.063   1.338   2.306 -4.4048  0.0506 -0.4706
 6168SOL     OW30139   1.596   4.057   3.347 -0.4326  0.4883 -0.1995
 6168SOL    HW130140   1.556   3.975   3.318  0.3062  0.2962 -0.6649
 6168SOL    HW230141   1.661   4.022   3.408 -0.9339  1.4733  0.9169
 6169SOL     OW30142   2.092   1.838  13.528  0.6392  0.2332  0.1121
 6169SOL    HW130143   2.173   1.831  13.579  0.3012  1.3163  0.7842
 6169SOL    HW230144   2.042   1.907  13.572 -0.4180 -0.5310  0.1132
 6170SOL     OW30145   2.609   2.485   5.229 -0.5344  0.1055 -0.1520
 6170SOL    HW130146   2.611   2.492   5.133  1.5460  1.5056 -0.0056
 6170SOL    HW230147   2.588   2.576   5.247  1.8767 -0.0633  3.4563
 6171SOL     OW30148   4.533   2.128   7.228 -0.5842 -0.3514  0.0643
 6171SOL    HW130149   4.512   2.155   7.317  1.0285  0.1203  0.3057
 6171SOL    HW230150   4.534   2.210   7.179  0.9747 -1.2036 -1.3542
 6172SOL     OW30151   4.183   4.564   5.695  0.3823  0.4378  0.5658
 6172SOL    HW130152   4.236   4.639   5.723  0.4937  0.3616  0.5589
 6172SOL    HW230153   4.251   4.520   5.643 -0.5281 -1.2469  0.7951
 6173SOL     OW30154   0.100   2.351  10.139 -0.0320  0.4534 -0.0325
 6173SOL    HW130155   0.163   2.413  10.104 -1.5671  1.2146 -1.4714
 6173SOL    HW230156   0.128   2.275  10.088 -2.4887 -0.2032 -0.4303
 6174SOL     OW30157   0.350   4.036   7.575  0.0619 -0.0700  0.2554
 6174SOL    HW130158   0.375   4.014   7.485 -2.5383 -1.6822 -0.0562
 6174SOL    HW230159   0.254   4.034   7.571  0.0631  0.0875  0.1434
 6175SOL     OW30160   0.247   3.480   2.437  0.0145  0.5289  0.2106
 6175SOL    HW130161   0.340   3.485   2.459 -0.3507  2.1631  1.3639
 6175SOL    HW230162   0.251   3.527   2.354 -0.6078  0.5132  0.1669
 6176SOL     OW30163   3.976   4.669   8.800 -0.4487  0.1767 -0.0501
 6176SOL    HW130164   4.067   4.642   8.813  0.1279  1.5524 -1.1592
 6176SOL    HW230165   3.959   4.671   8.706 -0.4241  0.4099 -0.0507
 6177SOL     OW30166   4.440   3.806  15.596  0.0691 -0.2448 -0.6320
 6177SOL    HW130167   4.357   3.792  15.641 -0.8418  1.2547 -1.8424
 6177SOL    HW230168   4.496   3.743  15.642  0.1300 -0.8731 -1.5728
 6178SOL     OW30169   4.533   3.131   6.403 -0.4795  0.0427 -0.0379
 6178SOL    HW130170   4.599   3.192   6.371  1.2085 -2.2556 -0.8846
 6178SOL    HW230171   4.555   3.045   6.368  1.1999  0.7485 -0.6920
 6179SOL     OW30172   3.963   2.762   1.843 -0.0346 -0.5790 -0.3360
 6179SOL    HW130173   3.965   2.693   1.909 -2.4532 -0.2276  0.0919
 6179SOL    HW230174   3.872   2.791   1.838  0.5705  1.4528  0.5680
 6180SOL     OW30175   2.971   2.117   4.118  0.1542  0.2590 -0.2677
 6180SOL    HW130176   2.920   2.144   4.194 -0.4076  1.6331 -1.1438
 6180SOL    HW230177   2.949   2.024   4.116  2.5713 -0.3513  2.6493
 6181SOL     OW30178   0.437   3.400  12.385  0.5060 -0.0573 -0.0676
 6181SOL    HW130179   0.478   3.480  12.417  1.4774 -0.7223  0.3350
 6181SOL    HW230180   0.473   3.407  12.297 -0.4485  0.3510 -0.4281
 6182SOL     OW30181   3.137   1.120   6.919  0.0496  0.1620 -0.2612
 6182SOL    HW130182   3.134   1.041   6.973  1.9245  1.3279  1.5593
 6182SOL    HW230183   3.085   1.079   6.849  0.2570 -0.2974 -0.1454
 6183SOL     OW30184   1.983   3.125   5.243 -0.0634  0.0945  0.1423
 6183SOL    HW130185   2.073   3.092   5.246  0.4863  1.4681 -0.9440
 6183SOL    HW230186   1.990   3.194   5.177 -3.9372 -1.0069 -1.4032
 6184SOL     OW30187   2.431   4.083   3.510  0.2403  0.4675  0.1271
 6184SOL    HW130188   2.354   4.105   3.562  0.6474 -1.5744  1.6256
 6184SOL    HW230189   2.403   4.048   3.425  1.4687  2.3632 -1.0557
 6185SOL     OW30190   3.218   2.926   3.392 -0.3059 -0.1870 -0.1779
 6185SOL    HW130191   3.218   2.911   3.297 -0.9173  0.6301 -0.3126
 6185SOL    HW230192   3.279   2.999   3.388  0.2195 -0.5875  0.5250
 6186SOL     OW30193   3.923   3.729  14.449  0.2409  0.0636  0.0520
 6186SOL    HW130194   3.889   3.817  14.434  1.4367  0.7844  1.6484
 6186SOL    HW230195   3.980   3.741  14.525 -2.4830  1.6077  1.8421
 6187SOL     OW30196   4.175   1.370  14.205 -0.0296 -0.7191 -0.5234
 6187SOL    HW130197   4.200   1.286  14.166  0.5676 -0.2624 -1.1364
 6187SOL    HW230198   4.257   1.411  14.234 -0.3211  1.0136 -2.1345
 6188SOL     OW30199   3.316   3.884   6.664  0.0594  0.5246 -0.1879
 6188SOL    HW130200   3.237   3.906   6.714  1.5688  2.7872  1.1994
 6188SOL    HW230201   3.334   3.790   6.666  1.6982  0.8434  0.0941
 6189SOL     OW30202   3.262   0.548   3.884  0.1060  0.1231 -0.1634
 6189SOL    HW130203   3.172   0.516   3.885 -0.0658  0.6514  1.0414
 6189SOL    HW230204   3.305   0.470   3.849 -0.3100 -0.5329  0.7956
 6190SOL     OW30205   3.721   2.356   6.576  0.1771  0.0924  0.7783
 6190SOL    HW130206   3.649   2.376   6.516  1.7985  0.8051 -0.9143
 6190SOL    HW230207   3.689   2.402   6.653 -1.2801 -0.0142  0.2329
 6191SOL     OW30208   1.212   0.347   8.417  0.3340  0.2943  0.0712
 6191SOL    HW130209   1.207   0.430   8.465 -0.8116  0.4623 -0.3301
 6191SOL    HW230210   1.269   0.294   8.473 -0.1498 -0.9255 -0.5932
 6192SOL     OW30211   4.361   3.929   0.510  1.1840  0.1457  0.0499
 6192SOL    HW130212   4.296   3.886   0.565 -0.4562  0.1661 -1.8661
 6192SOL    HW230213   4.376   4.008   0.562 -0.4202  1.0330 -0.8367
 6193SOL     OW30214   0.209   2.565   8.834  0.0217  0.5540 -0.5502
 6193SOL    HW130215   0.294   2.578   8.791 -0.9549  0.8782 -2.3787
 6193SOL    HW230216   0.157   2.641   8.807  0.5823  0.9524 -0.5032
 6194SOL     OW30217   3.808   1.754   9.312 -0.0480  0.7029 -0.0241
 6194SOL    HW130218   3.841   1.716   9.394 -1.5830  0.1053  0.3103
 6194SOL    HW230219   3.832   1.685   9.250 -2.2095 -1.0000  1.0226
 6195SOL     OW30220   0.291   4.710  11.886  0.0251 -0.3341  0.1192
 6195SOL    HW130221   0.306   4.702  11.792 -1.1719  0.1429 -0.1134
 6195SOL    HW230222   0.214   0.028  11.890 -0.8968 -1.4437 -1.9386
 6196SOL     OW30223   0.882   2.749   4.527 -0.0119  0.4538  0.1573
 6196SOL    HW130224   0.831   2.728   4.605 -0.9383  0.0601 -0.5590
 6196SOL    HW230225   0.937   2.671   4.521  0.2407  0.6070  0.4658
 6197SOL     OW30226   0.066   3.492  13.783  0.2274  0.4667  0.0146
 6197SOL    HW130227   0.057   3.403  13.751  0.3039  0.9552 -1.3713
 6197SOL    HW230228   0.133   3.483  13.850 -0.1030 -1.3872  0.0948
 6198SOL     OW30229   0.551   4.227   6.182  0.9567 -0.5150 -0.0602
 6198SOL    HW130230   0.632   4.230   6.233  1.2157  1.0069 -0.5555
 6198SOL    HW230231   0.519   4.316   6.199  0.6616 -1.0874  2.3727
 6199SOL     OW30232   0.121   2.412   5.964  0.3076  0.1488  0.8028
 6199SOL    HW130233   0.164   2.345   5.911 -1.8332  0.8050 -1.7533
 6199SOL    HW230234   0.186   2.411   6.035  0.4380  1.9349  0.7257
 6200SOL     OW30235   2.744   0.465   3.109 -0.2852  0.0317 -0.0412
 6200SOL    HW130236   2.745   0.536   3.045 -2.6407 -0.2768 -0.4321
 6200SOL    HW230237   2.752   0.515   3.191 -0.3620  0.1647 -0.1143
 6201SOL     OW30238   3.091   3.442   6.712 -0.8002 -0.3173 -0.0215
 6201SOL    HW130239   3.057   3.449   6.623 -0.2437 -0.5995 -0.2563
 6201SOL    HW230240   3.155   3.371   6.708 -1.1720 -0.6164 -0.5933
 6202SOL     OW30241   1.705   3.552   3.701  0.0669 -0.0448 -0.4847
 6202SOL    HW130242   1.696   3.604   3.780  0.6193 -1.4807  0.5192
 6202SOL    HW230243   1.798   3.572   3.690  0.5235 -1.7401  0.3500
 6203SOL     OW30244   4.621   3.808  15.090  0.0107  0.2181  0.0593
 6203SOL    HW130245   4.715   3.827  15.098  0.7269 -3.2520  0.1590
 6203SOL    HW230246   4.609   3.808  14.995 -0.8466 -0.0853  0.1646
 6204SOL     OW30247   1.467   1.343   1.372  0.4019  0.1885  0.2200
 6204SOL    HW130248   1.510   1.429   1.380 -0.7627  0.8413 -0.6116
 6204SOL    HW230249   1.502   1.285   1.440 -0.0742 -0.6669 -0.2838
 6205SOL     OW30250   2.304   2.026  15.866 -0.0576 -0.2255 -0.0171
 6205SOL    HW130251   2.387   2.037  15.818 -0.3995 -2.0823 -1.0512
 6205SOL    HW230252   2.237   2.046  15.800  0.5835  0.9052 -0.3426
 6206SOL     OW30253   2.418   1.762  14.281 -0.2198 -0.0042  0.4196
 6206SOL    HW130254   2.497   1.711  14.299  0.4619  0.6038 -0.8564
 6206SOL    HW230255   2.440   1.854  14.297  0.0852 -0.2739  1.5196
 6207SOL     OW30256   2.861   0.394   9.968  0.2682  0.0352 -0.6700
 6207SOL    HW130257   2.908   0.312   9.953  2.6939  1.2327  0.4244
 6207SOL    HW230258   2.775   0.369   9.935 -0.6571 -1.3571  2.7414
 6208SOL     OW30259   0.388   4.442   7.215  0.1090  0.5824 -0.3664
 6208SOL    HW130260   0.480   4.451   7.189 -0.0631  2.2064 -0.4255
 6208SOL    HW230261   0.381   4.510   7.282 -1.6794 -0.2935  0.3245
 6209SOL     OW30262   0.185   2.730   2.868 -0.3010  0.8164  0.1608
 6209SOL    HW130263   0.174   2.738   2.773 -1.7455 -2.8991 -0.0077
 6209SOL    HW230264   0.278   2.716   2.881 -0.8790 -0.4212  2.8946
 6210SOL     OW30265   3.376   3.493   1.149 -0.5020  0.4391 -0.3118
 6210SOL    HW130266   3.459   3.540   1.154  0.2593 -0.8265 -0.9347
 6210SOL    HW230267   3.339   3.514   1.234  2.0053 -2.0243  1.3727
 6211SOL     OW30268   4.140   2.466   6.340 -0.6462  0.6926  1.3949
 6211SOL    HW130269   4.229   2.433   6.346 -0.7233  0.6036  2.0453
 6211SOL    HW230270   4.105   2.429   6.421 -1.0912 -0.9006  0.4538
 6212SOL     OW30271   3.860   0.676   7.329 -0.4253  0.3792  0.2095
 6212SOL    HW130272   3.776   0.704   7.292 -0.4864 -0.3745 -0.2238
 6212SOL    HW230273   3.868   0.717   7.415  2.0183  1.1869 -0.4026
 6213SOL     OW30274   2.074   2.099  13.151  0.4020  0.1099 -0.3206
 6213SOL    HW130275   2.041   2.109  13.240  0.2855 -2.4776 -0.0594
 6213SOL    HW230276   2.040   2.176  13.106  2.9310 -0.2527 -2.8305
 6214SOL     OW30277   3.559   0.354   6.571  0.0034  0.8917 -0.3919
 6214SOL    HW130278   3.651   0.377   6.560 -0.3066  0.6006 -3.3891
 6214SOL    HW230279   3.560   0.268   6.615  0.0617  0.1621 -1.8256
 6215SOL     OW30280   4.244   3.642   1.777  0.0111 -0.6797  0.2743
 6215SOL    HW130281   4.332   3.607   1.763  0.0716 -1.0848  1.6788
 6215SOL    HW230282   4.270   3.733   1.768 -1.0618 -0.2127  2.0019
 6216SOL     OW30283   1.102   3.050   9.119  0.1143  0.1463  0.2312
 6216SOL    HW130284   1.143   3.035   9.205  0.3550 -0.6031 -0.0191
 6216SOL    HW230285   1.148   2.983   9.069 -1.5918 -0.8162 -0.0164
 6217SOL     OW30286   4.305   4.028   1.314 -0.0424 -0.0922 -0.1878
 6217SOL    HW130287   4.297   3.946   1.362 -0.6009  0.4362  0.6235
 6217SOL    HW230288   4.220   4.060   1.344 -0.2070 -1.5130  0.8174
 6218SOL     OW30289   0.382   3.982  12.203 -0.2594 -0.6852  1.0790
 6218SOL    HW130290   0.397   3.961  12.295 -2.9929 -1.4497  1.3409
 6218SOL    HW230291   0.371   3.896  12.162  0.7440 -1.1306  1.7641
 6219SOL     OW30292   3.600   2.506  10.058 -0.1065 -0.3868  1.0652
 6219SOL    HW130293   3.525   2.455  10.029  0.4139  0.2729 -1.4886
 6219SOL    HW230294   3.567   2.563  10.127 -1.1082 -2.7626  2.5316
 6220SOL     OW30295   4.293   4.157   8.104 -0.0369 -0.4614 -0.5959
 6220SOL    HW130296   4.344   4.186   8.028 -0.1611  1.1268 -0.0678
 6220SOL    HW230297   4.323   4.069   8.126 -0.6517 -0.8209 -1.1847
 6221SOL     OW30298   4.163   0.774  15.079  0.6185  0.4836 -0.0943
 6221SOL    HW130299   4.215   0.833  15.025  0.3039 -1.1319 -2.1094
 6221SOL    HW230300   4.145   0.701  15.020 -1.0760 -1.1018  2.3558
 6222SOL     OW30301   2.649   1.874   9.517  0.3497 -0.1699 -0.5264
 6222SOL    HW130302   2.728   1.836   9.478  1.0600 -0.1907  0.9379
 6222SOL    HW230303   2.645   1.817   9.594  1.0915  0.9942  0.3826
 6223SOL     OW30304   1.605   3.835   9.431  0.1859 -0.1419  0.4018
 6223SOL    HW130305   1.633   3.746   9.411 -0.0774  0.0303 -0.7901
 6223SOL    HW230306   1.628   3.842   9.523  0.8375  1.1937  0.1401
 6224SOL     OW30307   1.381   3.565   6.351  0.1406 -0.1950 -0.4841
 6224SOL    HW130308   1.337   3.649   6.344  0.0867 -0.3400 -1.9367
 6224SOL    HW230309   1.458   3.602   6.394 -0.5675 -0.3856  0.9527
 6225SOL     OW30310   2.380   2.264   3.664  0.4237  0.2283  0.2671
 6225SOL    HW130311   2.466   2.236   3.633  0.8234  1.9847 -0.1782
 6225SOL    HW230312   2.342   2.178   3.681  0.4905 -0.0176 -0.8214
 6226SOL     OW30313   4.639   1.116   8.962  0.1719  0.4256  0.0285
 6226SOL    HW130314   4.667   1.168   9.038  0.4960 -0.4680  0.5129
 6226SOL    HW230315   4.580   1.055   9.006 -0.5445 -0.6861 -2.5133
 6227SOL     OW30316   4.482   1.172   2.588  0.4594  0.6455  0.1048
 6227SOL    HW130317   4.395   1.192   2.553  0.4931 -0.9807 -0.8642
 6227SOL    HW230318   4.475   1.207   2.677 -0.5455 -1.1691  0.7433
 6228SOL     OW30319   2.479   2.519   6.190 -0.2720 -0.0607  0.2886
 6228SOL    HW130320   2.447   2.609   6.174  1.2619  0.6319  1.1999
 6228SOL    HW230321   2.573   2.531   6.200  0.0017 -2.6938  0.8530
 6229SOL     OW30322   4.727   1.204   1.806  0.0526 -0.5566 -0.2619
 6229SOL    HW130323   4.633   1.191   1.806  0.2098 -1.6526  1.5170
 6229SOL    HW230324   4.736   1.279   1.865 -0.1286 -0.3877 -0.4477
 6230SOL     OW30325   1.271   1.267   1.186 -0.1228 -0.0824 -0.0503
 6230SOL    HW130326   1.326   1.235   1.115 -0.0696  1.2795 -0.6144
 6230SOL    HW230327   1.341   1.307   1.237  1.3539 -2.6915 -0.0285
 6231SOL     OW30328   3.988   3.335   4.893  0.4407 -0.1294  0.2838
 6231SOL    HW130329   4.074   3.327   4.850 -0.4519 -0.9507 -1.3483
 6231SOL    HW230330   3.972   3.250   4.933  2.9322 -0.8612 -0.2883
 6232SOL     OW30331   1.578   0.362  15.235 -0.4072  0.0462  0.3824
 6232SOL    HW130332   1.496   0.312  15.228 -0.2048 -0.4309  1.4199
 6232SOL    HW230333   1.546   0.436  15.286 -1.3667  0.6306 -1.0979
 6233SOL     OW30334   2.176   4.285   8.369 -0.1946  0.0013 -0.0710
 6233SOL    HW130335   2.146   4.319   8.285  0.1895 -0.8853 -0.5654
 6233SOL    HW230336   2.226   4.207   8.345  0.6134  0.9898 -1.6056
 6234SOL     OW30337   2.567   3.613   8.165 -0.0374 -0.6688  0.4976
 6234SOL    HW130338   2.638   3.643   8.222 -0.5402  0.2999  0.6189
 6234SOL    HW230339   2.574   3.680   8.097  2.2341  1.0069  2.3955
 6235SOL     OW30340   0.837   1.941   7.739 -0.2002  0.5822 -0.2085
 6235SOL    HW130341   0.870   2.027   7.767 -1.2181  0.7177  0.5731
 6235SOL    HW230342   0.741   1.945   7.733 -0.3514  0.8817  2.6801
 6236SOL     OW30343   3.718   0.071   4.979 -0.7667 -0.1197  0.1467
 6236SOL    HW130344   3.806   0.045   4.950 -1.5422 -0.7258 -1.6327
 6236SOL    HW230345   3.656   0.036   4.916 -1.7413  0.3910  0.8177
 6237SOL     OW30346   0.848   4.594   3.037 -0.2054  0.4957  0.2068
 6237SOL    HW130347   0.772   4.535   3.042  2.2876 -2.7979 -0.6700
 6237SOL    HW230348   0.920   4.548   2.994  0.1605  0.0707  1.2728
 6238SOL     OW30349   2.231   3.380   1.227 -0.9005 -0.2736  0.2852
 6238SOL    HW130350   2.171   3.426   1.286 -0.0927  0.1852  0.7579
 6238SOL    HW230351   2.305   3.440   1.214  1.4128 -3.5370 -1.4681
 6239SOL     OW30352   0.109   0.028   7.572  0.0234  0.3036 -0.0358
 6239SOL    HW130353   0.080   0.028   7.481  2.2704 -1.3822 -0.7352
 6239SOL    HW230354   0.088   4.675   7.594 -3.0209  1.2215  0.8948
 6240SOL     OW30355   4.022   2.880  13.848  0.6900  0.5181  0.2645
 6240SOL    HW130356   4.047   2.819  13.917 -0.4127  1.5584  1.5728
 6240SOL    HW230357   4.005   2.956  13.903 -1.4242  0.2431 -0.0150
 6241SOL     OW30358   4.500   1.088  12.549  0.1957  0.7086  0.3891
 6241SOL    HW130359   4.561   1.066  12.479  0.6797  1.6485  0.5198
 6241SOL    HW230360   4.545   1.166  12.581  1.2910  0.1997  0.0892
 6242SOL     OW30361   1.618   0.392   0.940  0.2772  0.6623  0.2541
 6242SOL    HW130362   1.583   0.304   0.929 -0.6565  1.0165  0.3754
 6242SOL    HW230363   1.544   0.451   0.957 -0.1527  0.7161 -1.7738
 6243SOL     OW30364   0.424   1.580   8.014  0.1176 -0.5065 -0.0672
 6243SOL    HW130365   0.421   1.645   8.084  0.9689 -1.4421  0.8273
 6243SOL    HW230366   0.330   1.560   8.010 -0.8664  4.3061 -1.5620
 6244SOL     OW30367   2.082   0.779   2.403 -0.1183 -0.4944  0.5976
 6244SOL    HW130368   2.034   0.748   2.327 -0.4583 -0.2280  0.7061
 6244SOL    HW230369   2.020   0.837   2.446  2.2160  2.0629  0.4936
 6245SOL     OW30370   2.146   2.390   5.511  0.1410 -0.1913 -0.0510
 6245SOL    HW130371   2.139   2.447   5.435 -1.4808  1.6021  1.4367
 6245SOL    HW230372   2.233   2.353   5.497  0.8419  0.7920  1.6385
 6246SOL     OW30373   1.685   3.661   4.452 -0.3877  0.0451  0.6178
 6246SOL    HW130374   1.589   3.666   4.455 -0.3216  0.7870  1.5803
 6246SOL    HW230375   1.719   3.634   4.537  1.9961  1.0685 -0.0281
 6247SOL     OW30376   3.931   3.789   6.748 -0.5777  0.0656  0.3830
 6247SOL    HW130377   3.980   3.853   6.697  0.2424  1.8265  3.3846
 6247SOL    HW230378   3.842   3.805   6.716  0.3881  2.0647 -1.2903
 6248SOL     OW30379   4.362   4.196   7.855  0.3304 -0.0676  0.0779
 6248SOL    HW130380   4.456   4.196   7.837  0.4086 -2.2281  0.4981
 6248SOL    HW230381   4.338   4.117   7.806  0.8927 -1.1204  1.4945
 6249SOL     OW30382   0.104   1.895   3.336 -0.1779 -0.3904  0.2261
 6249SOL    HW130383   0.027   1.842   3.354 -2.0915  2.9404  1.9064
 6249SOL    HW230384   0.151   1.834   3.279 -0.9470  0.2972 -1.1321
 6250SOL     OW30385   4.008   0.212   3.721 -0.0602 -0.5798 -0.2194
 6250SOL    HW130386   4.094   0.193   3.684  0.6735 -0.4266  1.4412
 6250SOL    HW230387   4.024   0.229   3.814  1.1429 -1.6221 -0.2332
 6251SOL     OW30388   4.444   3.735   4.107 -0.8589  0.0397 -0.6665
 6251SOL    HW130389   4.445   3.684   4.025  1.0039 -3.2019  1.3626
 6251SOL    HW230390   4.435   3.668   4.175  0.9965 -0.1237 -0.5888
 6252SOL     OW30391   4.609   1.280   7.483  0.2924 -0.1373 -0.2967
 6252SOL    HW130392   4.622   1.306   7.392 -2.6742 -0.7678 -0.8950
 6252SOL    HW230393   4.639   1.360   7.527  1.1343  0.8354 -2.6467
 6253SOL     OW30394   4.512   4.716   0.197  0.1118  0.3392  0.1025
 6253SOL    HW130395   4.435   4.660   0.193 -0.0177  0.5511 -0.2925
 6253SOL    HW230396   4.532   4.731   0.105 -0.9995  0.1121 -0.1753
 6254SOL     OW30397   1.693   4.004   6.090  0.1070 -0.0222  0.0702
 6254SOL    HW130398   1.737   4.088   6.088  0.1826 -0.0811 -0.7160
 6254SOL    HW230399   1.625   4.022   6.024  1.2657  5.3488  0.3652
 6255SOL     OW30400   0.588   2.646  16.430 -0.2826 -0.3735 -0.4555
 6255SOL    HW130401   0.528   2.574  16.410 -0.0777 -0.1070 -2.0244
 6255SOL    HW230402   0.582   2.714  16.363  0.9198  1.2270  1.0652
 6256SOL     OW30403   3.194   3.940  12.346  0.5455  0.1548  0.3509
 6256SOL    HW130404   3.199   3.924  12.441  0.6987  1.8336  0.6273
 6256SOL    HW230405   3.262   3.885  12.307  0.0059  0.6641 -1.3076
 6257SOL     OW30406   4.393   1.267   2.241 -0.3836  0.4391 -0.3461
 6257SOL    HW130407   4.362   1.352   2.210  0.2266  1.3479  1.5641
 6257SOL    HW230408   4.471   1.257   2.187  0.2474  0.4568  0.5628
 6258SOL     OW30409   1.158   3.024   7.453  0.5929 -0.1615 -0.8224
 6258SOL    HW130410   1.182   2.966   7.380 -2.7263 -0.5464 -1.6319
 6258SOL    HW230411   1.217   2.995   7.522  2.2467 -0.1922 -2.2622
 6259SOL     OW30412   2.701   2.145  16.996 -0.2990 -0.3140 -0.2990
 6259SOL    HW130413   2.746   2.183  16.920 -2.0888 -0.0274 -1.2407
 6259SOL    HW230414   2.671   2.222  17.045  0.1161 -0.5607  0.3256
 6260SOL     OW30415   2.871   1.487   9.517  0.5706  0.4053  0.2042
 6260SOL    HW130416   2.925   1.535   9.455  1.8557  0.6430  1.4876
 6260SOL    HW230417   2.783   1.506   9.486  0.7134  0.4595 -0.1611
 6261SOL     OW30418   3.998   1.737   7.480  0.0111 -0.0187 -0.1410
 6261SOL    HW130419   4.001   1.784   7.563  0.4867 -1.2790  0.5490
 6261SOL    HW230420   4.046   1.793   7.420 -2.9590  1.7936 -0.8255
 6262SOL     OW30421   0.041   3.702   5.218 -0.3412 -0.1074 -0.3552
 6262SOL    HW130422   0.062   3.749   5.137  1.0447  0.5248  0.3714
 6262SOL    HW230423   0.079   3.617   5.195  2.2615  1.0600 -0.3068
 6263SOL     OW30424   0.929   2.664  10.765 -0.0045  0.5486  0.3724
 6263SOL    HW130425   0.895   2.690  10.679  0.2120 -1.7285 -0.4024
 6263SOL    HW230426   0.934   2.750  10.807  1.2794  1.4259 -1.5320
 6264SOL     OW30427   2.933   0.037   4.344  0.5740 -0.5199 -0.0560
 6264SOL    HW130428   2.949   4.733   4.428  2.2471 -1.4425 -0.8369
 6264SOL    HW230429   3.026   0.034   4.321 -0.1125 -1.1944 -2.7503
 6265SOL     OW30430   1.691   0.282   2.847  0.1436  0.2023 -0.3681
 6265SOL    HW130431   1.762   0.224   2.874 -1.0081 -0.3718  1.4083
 6265SOL    HW230432   1.627   0.269   2.917  0.6016 -1.5070 -0.2823
 6266SOL     OW30433   3.715   2.416   4.561 -0.1164  0.2300  0.3069
 6266SOL    HW130434   3.665   2.344   4.598 -0.8769  0.6752  0.1427
 6266SOL    HW230435   3.738   2.377   4.477 -0.1944  0.0244  0.3814
 6267SOL     OW30436   2.576   1.044   7.773 -0.1096  0.4305 -0.0454
 6267SOL    HW130437   2.658   1.087   7.749 -0.1469  0.5129 -0.0230
 6267SOL    HW230438   2.598   0.992   7.851  0.4809  1.2550  0.3405
 6268SOL     OW30439   1.551   4.237   5.240  0.1060 -0.0940  0.1415
 6268SOL    HW130440   1.472   4.205   5.284 -0.0046  0.0929  0.0810
 6268SOL    HW230441   1.609   4.267   5.309 -1.4651  3.0053  0.1260
 6269SOL     OW30442   1.344   3.877  13.206 -0.0747 -0.0363  0.3075
 6269SOL    HW130443   1.420   3.830  13.240  0.4562 -1.0414 -2.2685
 6269SOL    HW230444   1.387   3.901  13.124  2.7328 -0.1813  1.7356
 6270SOL     OW30445   1.273   3.363  11.107 -0.5182  0.2296 -0.4124
 6270SOL    HW130446   1.266   3.458  11.115  0.2486  0.1389  1.4066
 6270SOL    HW230447   1.240   3.330  11.191 -0.1210  0.4048 -0.1828
 6271SOL     OW30448   3.228   2.942   1.119  0.6398  0.4461 -0.1857
 6271SOL    HW130449   3.304   2.923   1.174 -0.4529  0.7630  1.4391
 6271SOL    HW230450   3.239   2.869   1.057 -1.5842  1.9883 -2.4135
 6272SOL     OW30451   1.519   1.849   1.542 -0.0891  0.2606 -0.0236
 6272SOL    HW130452   1.608   1.874   1.570 -0.2232  1.3024 -0.5599
 6272SOL    HW230453   1.525   1.847   1.447 -0.9924  0.1457 -0.0734
 6273SOL     OW30454   3.354   2.731  10.799 -0.1146 -0.8896 -0.1486
 6273SOL    HW130455   3.368   2.688  10.883 -0.1700  0.8174  0.7274
 6273SOL    HW230456   3.429   2.788  10.779  0.1049 -1.7143 -1.7281
 6274SOL     OW30457   1.982   2.956   4.952 -0.5577  0.4572  0.1626
 6274SOL    HW130458   1.927   2.927   5.025 -1.3100  1.5610  0.0375
 6274SOL    HW230459   1.989   2.868   4.914 -0.2091  0.4886  0.1564
 6275SOL     OW30460   0.286   0.857  14.035 -0.2999  0.3619 -0.5027
 6275SOL    HW130461   0.309   0.766  14.057  0.0523  0.6330  0.2540
 6275SOL    HW230462   0.362   0.879  13.981 -1.6721  1.7648 -1.8154
 6276SOL     OW30463   2.545   0.805   4.411 -0.5516  0.8818 -0.2042
 6276SOL    HW130464   2.469   0.747   4.419  0.1029  0.0116 -0.2648
 6276SOL    HW230465   2.512   0.894   4.424 -0.7024  0.8246 -0.1924
 6277SOL     OW30466   1.640   3.372   5.945  0.2054 -0.6804 -0.8211
 6277SOL    HW130467   1.641   3.364   5.849 -1.9180  2.2764 -1.0840
 6277SOL    HW230468   1.574   3.441   5.952  0.7312 -0.1833 -0.8505
 6278SOL     OW30469   3.678   2.621  12.783  0.0554  0.0288  0.5675
 6278SOL    HW130470   3.692   2.526  12.778  3.0244  0.6169 -2.4439
 6278SOL    HW230471   3.583   2.631  12.788  0.3383  2.6278  0.5375
 6279SOL     OW30472   2.769   0.041   2.252 -0.1678 -0.3155  0.5577
 6279SOL    HW130473   2.797   0.065   2.340 -1.8259 -1.6364  1.4526
 6279SOL    HW230474   2.851   0.048   2.204  0.5054 -0.6012  1.6842
 6280SOL     OW30475   3.234   1.207   5.205 -0.5547 -0.0688  0.1048
 6280SOL    HW130476   3.143   1.180   5.216 -0.8800  0.2225 -1.8564
 6280SOL    HW230477   3.259   1.225   5.296 -0.6187  0.5167  0.0101
 6281SOL     OW30478   0.999   3.711   3.368 -0.2449 -0.1673 -0.0934
 6281SOL    HW130479   1.057   3.674   3.434  0.3839 -0.2651 -0.7112
 6281SOL    HW230480   0.928   3.647   3.361 -0.8723  0.3844  1.1220
 6282SOL     OW30481   3.206   3.794   4.716 -0.0671 -0.3327 -0.5183
 6282SOL    HW130482   3.192   3.783   4.810 -3.3578  0.9156 -0.8742
 6282SOL    HW230483   3.219   3.703   4.689 -1.5233  0.2595 -3.1890
 6283SOL     OW30484   2.272   4.344   4.580 -0.2665  0.0742 -0.7479
 6283SOL    HW130485   2.266   4.249   4.573  0.3231  0.1379 -2.3090
 6283SOL    HW230486   2.232   4.354   4.666  0.3929 -1.4398 -0.2669
 6284SOL     OW30487   4.697   0.574   1.190 -0.4251 -0.2040 -0.2341
 6284SOL    HW130488   0.041   0.571   1.239 -0.4906  0.9778 -0.0578
 6284SOL    HW230489   4.727   0.601   1.103 -2.3516  1.1109 -0.4858
 6285SOL     OW30490   2.007   0.827   0.653 -0.3221  0.1503  0.2464
 6285SOL    HW130491   2.053   0.786   0.580  1.3360 -1.3181  2.0831
 6285SOL    HW230492   1.952   0.880   0.595 -2.0891 -1.6372  0.2683
 6286SOL     OW30493   1.519   1.927   7.087  0.3445 -0.4962 -0.0664
 6286SOL    HW130494   1.452   1.866   7.056 -0.4238  0.5480 -0.4855
 6286SOL    HW230495   1.594   1.895   7.037 -0.1072  0.6939 -1.5265
 6287SOL     OW30496   1.058   0.169   5.400  0.3625  0.1463 -0.8666
 6287SOL    HW130497   1.079   0.087   5.356  0.7521  1.2657 -2.7624
 6287SOL    HW230498   0.968   0.182   5.370 -0.3290  0.3550  1.3078
 6288SOL     OW30499   1.330   0.258   9.597  0.5851 -0.3497 -0.5287
 6288SOL    HW130500   1.249   0.297   9.629  0.7255 -0.8487  0.4126
 6288SOL    HW230501   1.303   0.167   9.592 -1.8622  0.2084  2.7647
 6289SOL     OW30502   4.419   2.081  16.348  0.4983  0.0860  0.1172
 6289SOL    HW130503   4.403   1.989  16.368 -0.6480  0.4324  0.7550
 6289SOL    HW230504   4.397   2.132  16.426  0.2058 -0.5998  0.4791
 6290SOL     OW30505   3.957   1.232   2.746  0.3506 -0.1505 -0.5686
 6290SOL    HW130506   3.905   1.240   2.666  1.0232 -0.9692 -1.0855
 6290SOL    HW230507   4.020   1.162   2.731 -0.3566 -1.2150  1.3404
 6291SOL     OW30508   4.662   2.148   1.317  0.4480 -0.1875 -0.2542
 6291SOL    HW130509   4.712   2.097   1.381  0.9750  0.7850  0.1136
 6291SOL    HW230510   4.662   2.234   1.359 -1.8454 -0.2036 -0.2079
 6292SOL     OW30511   0.899   4.268   0.035 -0.1800  0.0296  0.4664
 6292SOL    HW130512   0.842   4.308  17.722 -0.6136  1.8285  1.9593
 6292SOL    HW230513   0.985   4.295   0.002 -0.1406 -1.1154 -0.3870
 6293SOL     OW30514   1.996   3.469   5.560  0.6746  0.2690  0.7770
 6293SOL    HW130515   1.983   3.558   5.526  0.5676  0.4827  1.3669
 6293SOL    HW230516   1.915   3.458   5.609 -2.3459  1.0355 -4.0921
 6294SOL     OW30517   0.563   4.662   6.449  0.3629 -0.6367 -0.1301
 6294SOL    HW130518   0.498   4.732   6.451  0.8711 -0.2725  3.2708
 6294SOL    HW230519   0.584   4.658   6.542  1.1145 -0.3939 -0.2859
 6295SOL     OW30520   2.291   1.736   8.913  0.0542 -0.2768 -1.2604
 6295SOL    HW130521   2.321   1.778   8.832 -1.2809  0.2105 -1.4899
 6295SOL    HW230522   2.347   1.768   8.983 -0.3444 -1.4287 -0.4130
 6296SOL     OW30523   1.366   3.480  16.728 -0.6393  0.3472  0.4241
 6296SOL    HW130524   1.395   3.564  16.693 -2.3847  0.5724 -0.5065
 6296SOL    HW230525   1.276   3.488  16.697 -0.5964  0.9241  0.4457
 6297SOL     OW30526   4.429   2.996  13.924  0.4094  0.2041 -0.1353
 6297SOL    HW130527   4.398   3.016  14.013 -2.6919  3.1155 -1.8731
 6297SOL    HW230528   4.384   3.065  13.874  0.3268  2.4538  3.0324
 6298SOL     OW30529   2.754   3.116  16.854 -0.6458  0.3664  0.1492
 6298SOL    HW130530   2.678   3.136  16.909 -0.1510 -0.0499  0.9675
 6298SOL    HW230531   2.805   3.196  16.846  0.7025 -0.4928  0.2683
 6299SOL     OW30532   0.508   2.096   4.179  0.3409 -0.1653  0.0107
 6299SOL    HW130533   0.493   2.188   4.159  1.2414  0.0743  0.4392
 6299SOL    HW230534   0.500   2.056   4.093 -1.2764  0.5918 -0.1946
 6300SOL     OW30535   0.520   2.791  10.323 -0.0524 -0.2688 -0.0895
 6300SOL    HW130536   0.450   2.729  10.343  0.4280 -1.2098 -1.3088
 6300SOL    HW230537   0.577   2.786  10.400  0.0135 -0.9071 -0.1840
 6301SOL     OW30538   3.658   0.529  10.736  0.6417 -0.1905 -0.8099
 6301SOL    HW130539   3.651   0.607  10.680  0.0750  0.4691  0.1595
 6301SOL    HW230540   3.627   0.570  10.817  0.0020 -0.8632 -0.7145
 6302SOL     OW30541   4.603   3.984   7.183 -0.5238 -0.0104  0.0155
 6302SOL    HW130542   4.543   4.004   7.111  0.5233 -0.3886 -0.9577
 6302SOL    HW230543   4.624   3.891   7.174  0.8535  0.3942 -0.9345
 6303SOL     OW30544   0.149   0.750   4.351  0.2156 -0.4221 -0.2826
 6303SOL    HW130545   0.112   0.771   4.266 -0.9767 -1.2564  0.0267
 6303SOL    HW230546   0.212   0.679   4.338  1.2566  0.3761  0.4207
 6304SOL     OW30547   0.066   1.364  14.654  0.1570 -0.0350 -0.0609
 6304SOL    HW130548   0.087   1.272  14.672  0.7238  0.2695  0.8208
 6304SOL    HW230549   0.034   1.389  14.740  0.3934 -4.0212  1.1822
 6305SOL     OW30550   2.466   1.686   6.860 -0.0476 -0.5743 -0.1177
 6305SOL    HW130551   2.441   1.736   6.938 -0.3854  0.0685 -0.6393
 6305SOL    HW230552   2.457   1.747   6.787 -1.5211 -0.7815 -0.1116
 6306SOL     OW30553   2.717   0.720   5.220  0.0897 -0.7102 -0.3881
 6306SOL    HW130554   2.771   0.646   5.193 -1.2748 -1.1193 -2.0196
 6306SOL    HW230555   2.748   0.752   5.305 -0.7567 -0.3930 -0.2009
 6307SOL     OW30556   3.621   3.618   1.157 -0.8790  0.2459  0.3310
 6307SOL    HW130557   3.685   3.548   1.164 -0.4552  0.4426 -1.7575
 6307SOL    HW230558   3.661   3.680   1.096  2.8095  0.6784  3.1906
 6308SOL     OW30559   2.697   3.163  17.654  0.3186 -0.1764  0.4483
 6308SOL    HW130560   2.666   3.117  17.576  1.3176 -0.6473  0.3369
 6308SOL    HW230561   2.644   3.126  17.725 -1.3227 -2.3623 -1.9189
 6309SOL     OW30562   0.666   2.105   3.131 -0.3367 -0.2154 -0.1266
 6309SOL    HW130563   0.576   2.072   3.134 -0.8555  1.2466  0.5106
 6309SOL    HW230564   0.697   2.097   3.221 -0.7214 -2.9656 -0.2350
 6310SOL     OW30565   2.769   0.210   1.161  0.3250  0.1134  0.4901
 6310SOL    HW130566   2.749   0.279   1.098  0.6287  0.9504  1.3227
 6310SOL    HW230567   2.744   0.137   1.103 -2.5670  1.0731  0.5444
 6311SOL     OW30568   3.804   2.719   0.444  0.5062 -0.4383  0.6524
 6311SOL    HW130569   3.759   2.696   0.525  2.0235 -2.7794  0.8386
 6311SOL    HW230570   3.727   2.717   0.387  1.3621 -1.5595 -0.4521
 6312SOL     OW30571   1.842   3.401  10.099 -0.1777  0.7175  0.0596
 6312SOL    HW130572   1.760   3.369  10.062 -0.4619 -0.3204  1.6002
 6312SOL    HW230573   1.814   3.455  10.172  0.6659  0.7993  0.3277
 6313SOL     OW30574   2.662   4.225   8.842 -0.2022  0.6619  0.1639
 6313SOL    HW130575   2.662   4.173   8.923 -0.6778  3.5541  1.9995
 6313SOL    HW230576   2.686   4.162   8.774 -1.8275 -0.7611  0.9190
 6314SOL     OW30577   1.546   2.468   9.535 -0.1939 -0.1355 -0.1670
 6314SOL    HW130578   1.612   2.528   9.499  1.1135 -1.5021 -0.0719
 6314SOL    HW230579   1.561   2.389   9.484  3.0621 -0.3171  1.0580
 6315SOL     OW30580   2.255   0.685   7.305  0.4028 -0.7272  0.2515
 6315SOL    HW130581   2.337   0.638   7.291  0.5727 -0.2487 -0.3785
 6315SOL    HW230582   2.285   0.769   7.271  1.5085 -0.6875  1.3281
 6316SOL     OW30583   0.297   1.883  14.958 -0.4589  0.0098 -0.1854
 6316SOL    HW130584   0.270   1.826  15.030  0.1433  0.0220  0.0542
 6316SOL    HW230585   0.221   1.873  14.901 -1.1144 -1.1111  0.8764
 6317SOL     OW30586   0.382   4.596  13.209 -0.3593 -0.6066  0.3860
 6317SOL    HW130587   0.469   4.564  13.231 -0.8448 -0.2608  2.8311
 6317SOL    HW230588   0.355   4.641  13.289  0.3095 -0.9250  0.7897
 6318SOL     OW30589   4.039   4.066   7.756  0.5945 -0.2007  0.0374
 6318SOL    HW130590   3.995   3.996   7.803  2.9429 -0.8288  1.3372
 6318SOL    HW230591   4.124   4.029   7.731  1.3575  0.7782  1.1619
 6319SOL     OW30592   1.244   4.536   7.598 -0.5501 -0.1679 -0.1297
 6319SOL    HW130593   1.274   4.477   7.667 -2.8579  0.3984  1.3550
 6319SOL    HW230594   1.156   4.506   7.576 -0.7950  0.3317  0.1623
 6320SOL     OW30595   1.864   1.659   1.414  0.4291  0.2854 -0.4811
 6320SOL    HW130596   1.909   1.651   1.330  2.7210 -3.4894  1.1234
 6320SOL    HW230597   1.937   1.662   1.476  1.1005  0.2031 -1.2825
 6321SOL     OW30598   0.879   0.611   5.600 -0.2095  0.1131 -0.4884
 6321SOL    HW130599   0.846   0.620   5.510  0.3168  1.2690 -0.5748
 6321SOL    HW230600   0.805   0.635   5.655 -0.3131  0.6219 -0.8522
 6322SOL     OW30601   3.415   0.068   5.842  0.1927  0.1776 -0.6638
 6322SOL    HW130602   3.370   0.021   5.771  0.1759  0.2881 -0.7252
 6322SOL    HW230603   3.393   0.005   5.911 -0.1198  0.4275 -0.5325
 6323SOL     OW30604   4.060   2.068   3.864  0.2833 -0.2991 -0.1492
 6323SOL    HW130605   4.131   2.081   3.926 -0.2307  1.1116  0.1413
 6323SOL    HW230606   4.008   1.994   3.895  1.8705 -0.7615  1.3945
 6324SOL     OW30607   1.571   1.838   4.313 -0.1688 -0.2039  0.2025
 6324SOL    HW130608   1.491   1.888   4.330 -1.1561 -2.2741  1.5916
 6324SOL    HW230609   1.631   1.900   4.354 -2.0200  1.5395  0.2849
 6325SOL     OW30610   1.440   0.554  15.374 -0.2461  0.7666  0.2225
 6325SOL    HW130611   1.470   0.633  15.329 -1.3787  0.7016 -0.6344
 6325SOL    HW230612   1.475   0.559  15.463 -0.0050 -0.6430  0.2115
 6326SOL     OW30613   0.677   2.493  15.043  0.0870 -0.4490  0.2283
 6326SOL    HW130614   0.625   2.438  15.102  0.7690 -0.9044  0.3988
 6326SOL    HW230615   0.612   2.552  15.004 -0.4588 -1.2559 -0.0990
 6327SOL     OW30616   1.179   0.835   0.422 -0.2046  0.9862 -0.3128
 6327SOL    HW130617   1.165   0.895   0.348  2.9275  0.2530 -1.4875
 6327SOL    HW230618   1.207   0.892   0.493 -3.4063  2.7706 -0.4560
 6328SOL     OW30619   0.948   3.866  15.019  0.4964  0.1942 -0.5814
 6328SOL    HW130620   1.023   3.861  14.961  0.5264  4.2646 -0.9131
 6328SOL    HW230621   0.898   3.792  14.986 -1.0889  1.6799 -1.5193
 6329SOL     OW30622   3.616   1.947   9.021 -0.2191 -0.1360 -0.1228
 6329SOL    HW130623   3.682   1.995   9.072 -0.7725  0.5184 -0.0261
 6329SOL    HW230624   3.630   1.853   9.036 -0.0953 -0.1069 -0.0601
 6330SOL     OW30625   0.695   1.462  12.605  0.4710 -0.1036  0.6689
 6330SOL    HW130626   0.736   1.480  12.689 -0.0562 -0.3707  0.9839
 6330SOL    HW230627   0.732   1.539  12.561 -1.7680  0.8315  0.4092
 6331SOL     OW30628   1.035   0.853   5.890 -0.3789 -0.2119 -0.0096
 6331SOL    HW130629   1.128   0.854   5.865 -0.5472 -0.0650 -0.6398
 6331SOL    HW230630   1.028   0.760   5.912 -0.1304 -0.6150 -1.6294
 6332SOL     OW30631   0.191   2.397   5.595  0.0842 -0.2566  0.4244
 6332SOL    HW130632   0.235   2.428   5.674  0.6963 -1.8889  0.7432
 6332SOL    HW230633   0.222   2.306   5.592  0.0236 -0.2328 -0.8049
 6333SOL     OW30634   0.456   4.432   5.520  0.1276 -0.0179 -0.2707
 6333SOL    HW130635   0.463   4.512   5.572  0.4232 -0.2883  0.1088
 6333SOL    HW230636   0.365   4.451   5.496  1.4240  1.3527 -4.0168
 6334SOL     OW30637   2.863   4.315   6.766  0.0973  0.4432  0.2260
 6334SOL    HW130638   2.954   4.345   6.761 -0.0324  0.9001  0.6844
 6334SOL    HW230639   2.883   4.249   6.833  2.6533  1.6559  0.6566
 6335SOL     OW30640   2.582   3.202   2.137  0.4481 -0.1278  0.2259
 6335SOL    HW130641   2.567   3.293   2.112  0.1378 -0.3738 -0.4749
 6335SOL    HW230642   2.541   3.202   2.224 -0.1615 -0.0622 -0.0591
 6336SOL     OW30643   3.740   4.389   2.177 -0.0526 -0.2894  0.7481
 6336SOL    HW130644   3.805   4.419   2.240  0.5128 -0.0915  0.0768
 6336SOL    HW230645   3.793   4.377   2.098 -0.6988  1.7843 -0.0247
 6337SOL     OW30646   0.385   3.355   2.967 -0.1446 -0.0373  0.2671
 6337SOL    HW130647   0.457   3.292   2.965  1.8485  2.2266  1.7786
 6337SOL    HW230648   0.383   3.383   3.058  1.2017 -1.1008  0.6241
 6338SOL     OW30649   1.671   1.742  17.274 -0.4599 -0.2237  0.0021
 6338SOL    HW130650   1.678   1.731  17.179  0.1494 -0.1716  0.0404
 6338SOL    HW230651   1.660   1.654  17.309 -3.7365  0.3461  0.4170
 6339SOL     OW30652   0.304   1.375   8.364 -0.7626 -0.1452 -0.1198
 6339SOL    HW130653   0.223   1.344   8.403 -0.1129 -0.6908  0.7955
 6339SOL    HW230654   0.330   1.293   8.323  1.4664  1.7459 -2.4755
 6340SOL     OW30655   1.634   0.038   2.593  0.0317  0.2355 -0.1128
 6340SOL    HW130656   1.728   0.023   2.593 -0.0576 -0.2974  0.5880
 6340SOL    HW230657   1.603   4.727   2.517  1.8992  0.2404 -0.8697
 6341SOL     OW30658   3.953   4.371   6.777  0.0297  0.4633  0.1144
 6341SOL    HW130659   3.973   4.464   6.784  1.1482 -0.0535  3.4660
 6341SOL    HW230660   3.869   4.390   6.735  0.1117  2.7537  0.9868
 6342SOL     OW30661   1.962   0.170   1.103  0.2893  0.5782  0.3608
 6342SOL    HW130662   1.918   0.253   1.090 -1.0692 -0.1444  0.3836
 6342SOL    HW230663   2.046   0.204   1.132  0.1621 -0.7826  2.3125
 6343SOL     OW30664   2.050   4.091   3.258  0.2302 -0.4942 -0.4357
 6343SOL    HW130665   1.997   4.011   3.257  1.8288 -1.5357 -0.3429
 6343SOL    HW230666   2.129   4.072   3.307  1.4880  0.5120 -2.0580
 6344SOL     OW30667   2.648   1.230   2.520  0.2931 -0.0334  0.1300
 6344SOL    HW130668   2.631   1.137   2.528 -3.0719  0.6196  0.7090
 6344SOL    HW230669   2.576   1.261   2.465  0.9769 -0.8192 -1.1797
 6345SOL     OW30670   3.426   2.363   3.082  0.5132 -0.0134  0.0161
 6345SOL    HW130671   3.505   2.362   3.137  2.0556 -0.6565 -2.2371
 6345SOL    HW230672   3.463   2.398   3.001  0.5508 -1.8515 -0.7471
 6346SOL     OW30673   1.556   0.208   9.751 -0.4358  0.5451  0.5095
 6346SOL    HW130674   1.519   0.293   9.727 -1.0306 -0.5547 -2.5095
 6346SOL    HW230675   1.476   0.171   9.786  0.9740 -0.7247  2.3766
 6347SOL     OW30676   1.731   2.873   7.533  0.0847  0.3211  0.3179
 6347SOL    HW130677   1.801   2.932   7.559  1.5010 -1.3094  0.1992
 6347SOL    HW230678   1.714   2.895   7.442  1.2462 -0.3393 -0.0640
 6348SOL     OW30679   4.558   2.098   8.979  0.2432  0.1931 -0.6732
 6348SOL    HW130680   4.524   2.132   8.896  0.6100 -2.3040 -1.8225
 6348SOL    HW230681   4.642   2.060   8.955 -1.2704 -2.2361 -2.0904
 6349SOL     OW30682   2.945   3.225  10.822  0.3223 -0.2363  0.3292
 6349SOL    HW130683   2.866   3.247  10.872  0.4366 -2.5813  1.5800
 6349SOL    HW230684   3.016   3.272  10.867  0.0287  0.3755  0.1439
 6350SOL     OW30685   4.673   3.723  15.772  0.1568  0.5239  0.3833
 6350SOL    HW130686   4.675   3.819  15.768 -0.9627  0.5173 -0.2770
 6350SOL    HW230687   4.721   3.693  15.695  0.9867  0.4556  0.9208
 6351SOL     OW30688   1.625   1.998   2.779  0.9277 -0.4011 -0.0377
 6351SOL    HW130689   1.627   1.904   2.797  2.4288 -0.1675  0.9419
 6351SOL    HW230690   1.619   2.001   2.683 -0.2436  0.4072  0.0615
 6352SOL     OW30691   0.005   3.271   4.253  0.0833  0.3679 -0.6922
 6352SOL    HW130692   0.006   3.215   4.176  1.0089  0.5526 -0.8120
 6352SOL    HW230693   4.680   3.226   4.308 -0.0130  1.2086 -0.1156
 6353SOL     OW30694   2.793   3.223  14.206 -0.1138 -0.8543  0.0457
 6353SOL    HW130695   2.718   3.278  14.229  0.7434 -0.1686  1.2400
 6353SOL    HW230696   2.847   3.235  14.285  0.8616  2.1448 -1.0704
 6354SOL     OW30697   2.740   1.602   2.108 -0.1560  0.0765  0.3216
 6354SOL    HW130698   2.697   1.533   2.058 -0.4700 -0.5256  1.4154
 6354SOL    HW230699   2.804   1.630   2.042 -0.9784  0.5237 -0.2844
 6355SOL     OW30700   0.180   3.787   7.719 -0.0613  0.4820 -0.0638
 6355SOL    HW130701   0.209   3.732   7.646  0.9324  1.9038 -0.7397
 6355SOL    HW230702   0.133   3.860   7.677  1.2805  1.0060 -0.6603
 6356SOL     OW30703   3.596   0.814  15.905  0.3026  0.0527 -0.2605
 6356SOL    HW130704   3.663   0.798  15.839  0.8044  0.8713  0.0439
 6356SOL    HW230705   3.557   0.890  15.863  0.3961 -1.3279 -2.8066
 6357SOL     OW30706   3.366   2.068  14.418  0.3684  0.2404  0.7267
 6357SOL    HW130707   3.404   2.084  14.332 -1.7711  1.0974 -0.0665
 6357SOL    HW230708   3.317   1.987  14.405  1.4745 -0.2399 -0.4178
 6358SOL     OW30709   1.078   3.142   6.584 -0.0536  0.2007 -1.4289
 6358SOL    HW130710   1.167   3.138   6.619 -0.8796 -0.6806  0.5422
 6358SOL    HW230711   1.090   3.114   6.493 -3.3165 -0.8242 -1.5443
 6359SOL     OW30712   2.073   0.689   6.350 -0.2532  0.6252  0.6532
 6359SOL    HW130713   1.995   0.661   6.399 -1.3943  0.8918 -1.0320
 6359SOL    HW230714   2.136   0.621   6.377  0.2719  1.0841  0.5923
 6360SOL     OW30715   2.402   2.996   9.407  0.0086  0.3533  0.2492
 6360SOL    HW130716   2.475   3.035   9.358 -0.3423 -0.0063 -0.5629
 6360SOL    HW230717   2.418   3.007   9.501  1.0924  1.3058 -0.0497
 6361SOL     OW30718   3.824   2.990   4.939  0.2023 -0.2484  0.4270
 6361SOL    HW130719   3.865   2.905   4.925  1.1808  0.1333  1.0153
 6361SOL    HW230720   3.743   2.974   4.987  1.8510  1.2033  3.6743
 6362SOL     OW30721   3.985   0.993  17.107  0.2454 -0.5391 -0.4336
 6362SOL    HW130722   3.949   1.061  17.050 -0.3524 -0.0052  0.5853
 6362SOL    HW230723   3.997   1.032  17.194 -0.2612 -0.1529 -0.5355
 6363SOL     OW30724   1.897   2.771   6.801  0.5078  0.1682  0.2071
 6363SOL    HW130725   1.822   2.817   6.838 -1.3698 -2.2786 -0.6468
 6363SOL    HW230726   1.866   2.682   6.790  1.8935 -0.1930 -0.9016
 6364SOL     OW30727   0.290   1.700   5.567  0.0231 -0.7243 -0.0049
 6364SOL    HW130728   0.240   1.757   5.509  0.5730 -3.0772 -2.7494
 6364SOL    HW230729   0.218   1.656   5.613  2.1333 -0.1690  3.8299
 6365SOL     OW30730   1.052   1.944   5.049 -0.0972  0.3544  0.5868
 6365SOL    HW130731   1.133   1.929   5.099 -0.0702 -1.0717  0.1350
 6365SOL    HW230732   1.030   2.031   5.082 -0.4730  1.0556 -1.4947
 6366SOL     OW30733   3.880   2.504   4.761 -0.1371  0.2174 -0.0024
 6366SOL    HW130734   3.812   2.478   4.699 -1.1368  1.2863  0.6328
 6366SOL    HW230735   3.922   2.419   4.768  0.8365  0.6657 -0.4557
 6367SOL     OW30736   3.183   0.795  13.283 -0.5293  0.8899  0.0462
 6367SOL    HW130737   3.274   0.822  13.277  0.4289 -2.5184 -0.1434
 6367SOL    HW230738   3.135   0.849  13.220 -1.1610  0.3514  0.0681
 6368SOL     OW30739   1.806   2.196   2.144 -0.2695 -0.2724 -0.0607
 6368SOL    HW130740   1.718   2.175   2.114 -1.5690  2.5921  1.6504
 6368SOL    HW230741   1.811   2.292   2.149  2.4623 -0.4199  0.2546
 6369SOL     OW30742   0.495   2.445   5.150  0.0398  0.2995 -0.4170
 6369SOL    HW130743   0.527   2.414   5.235  1.0671 -0.5879 -1.1399
 6369SOL    HW230744   0.441   2.515   5.187  1.1180  1.4454 -1.0248
 6370SOL     OW30745   3.365   1.594   5.318 -0.3754 -0.9006  0.0341
 6370SOL    HW130746   3.321   1.528   5.264 -2.4432  0.6100 -0.1068
 6370SOL    HW230747   3.455   1.561   5.322 -1.2062 -3.1936 -0.0809
 6371SOL     OW30748   3.171   2.762   8.465  0.0831 -0.4102 -0.3039
 6371SOL    HW130749   3.151   2.831   8.528 -0.5773 -0.3595 -0.5735
 6371SOL    HW230750   3.196   2.685   8.517 -0.8301  0.1986  1.0417
 6372SOL     OW30751   2.883   3.577  13.821  0.3489  0.0297 -0.7203
 6372SOL    HW130752   2.893   3.491  13.861 -3.5884  0.5647  1.4056
 6372SOL    HW230753   2.792   3.585  13.792 -0.5654 -1.1285  1.8389
 6373SOL     OW30754   3.446   2.154  11.021 -0.2818 -0.6437 -0.8638
 6373SOL    HW130755   3.497   2.234  11.023 -1.1833 -0.0813 -0.4601
 6373SOL    HW230756   3.375   2.180  10.962  0.4311  0.9174 -1.0290
 6374SOL     OW30757   1.872   0.117  17.204 -0.5835  0.3049  0.0479
 6374SOL    HW130758   1.959   0.096  17.169 -0.9433  0.4697 -0.9593
 6374SOL    HW230759   1.869   0.209  17.178 -0.5581  0.4850  0.6988
 6375SOL     OW30760   4.705   4.735   3.820 -0.4438  0.3025 -0.4031
 6375SOL    HW130761   4.682   0.089   3.820  2.2983  0.9879  1.0400
 6375SOL    HW230762   0.043   0.001   3.763  0.0870  0.3418  0.3104
 6376SOL     OW30763   3.273   0.461   8.066 -0.3015 -0.1642 -0.3170
 6376SOL    HW130764   3.287   0.381   8.118  2.8389  2.1014  2.2863
 6376SOL    HW230765   3.244   0.513   8.141  0.0527 -2.2900  1.2919
 6377SOL     OW30766   2.332   3.602   6.953  0.3736 -0.0789  0.1465
 6377SOL    HW130767   2.353   3.514   6.924 -2.0083 -0.2344 -1.0585
 6377SOL    HW230768   2.291   3.635   6.873 -0.0909  0.9586  0.7994
 6378SOL     OW30769   2.742   0.717   6.033 -0.5972  0.0757  0.5015
 6378SOL    HW130770   2.742   0.625   6.061  2.0889  0.0973  0.5020
 6378SOL    HW230771   2.669   0.703   5.972  1.3600 -1.1366 -1.5285
 6379SOL     OW30772   1.757   2.079   6.776  0.8286  0.3996 -0.4897
 6379SOL    HW130773   1.826   2.145   6.781  0.1003  1.2144 -1.0982
 6379SOL    HW230774   1.804   2.005   6.815 -1.5317  0.4105  2.4157
 6380SOL     OW30775   0.964   3.583   8.899 -0.0094 -0.1680 -0.1388
 6380SOL    HW130776   1.057   3.597   8.918 -0.4656  1.4082  0.9245
 6380SOL    HW230777   0.925   3.558   8.983 -0.4461 -2.1449 -0.9318
 6381SOL     OW30778   0.776   2.703   4.278 -0.2590  0.4054  0.3983
 6381SOL    HW130779   0.799   2.759   4.203 -1.9142 -1.0489 -1.1873
 6381SOL    HW230780   0.823   2.740   4.352  0.6379  0.9124 -0.4172
 6382SOL     OW30781   3.285   4.036   6.449 -0.2031  0.1644 -0.2653
 6382SOL    HW130782   3.209   3.994   6.410 -0.2202  0.6373 -0.7413
 6382SOL    HW230783   3.313   3.975   6.517 -0.5057  1.2810  0.8687
 6383SOL     OW30784   3.638   4.224   8.789 -0.5923 -0.0891  0.0464
 6383SOL    HW130785   3.614   4.134   8.813  1.8686 -0.9463 -0.7006
 6383SOL    HW230786   3.563   4.240   8.732 -1.5134  0.6822  1.4819
 6384SOL     OW30787   1.301   1.360   2.075  0.2758 -0.1871  0.5611
 6384SOL    HW130788   1.312   1.312   2.157  0.1042  0.8563  1.1944
 6384SOL    HW230789   1.267   1.444   2.107 -0.2660 -0.0823 -0.3033
 6385SOL     OW30790   1.111   4.087   9.708 -0.3929  0.0589 -0.1072
 6385SOL    HW130791   1.197   4.060   9.677  0.9024  2.0623  1.7685
 6385SOL    HW230792   1.134   4.126   9.792  2.1729  0.6162 -1.0823
 6386SOL     OW30793   1.924   1.185   3.366 -0.1321 -0.2766  0.1069
 6386SOL    HW130794   1.897   1.211   3.454  0.5146  0.8445 -0.0356
 6386SOL    HW230795   1.950   1.268   3.328  0.6630 -0.7714 -0.4151
 6387SOL     OW30796   2.541   0.314  12.465 -0.0614  0.1723  0.3276
 6387SOL    HW130797   2.607   0.337  12.531  0.6506  1.0675 -0.7102
 6387SOL    HW230798   2.524   0.226  12.499  2.5325 -0.3068  0.4186
 6388SOL     OW30799   0.923   1.412   8.360 -0.5453 -0.6955  0.0586
 6388SOL    HW130800   0.914   1.479   8.428 -2.6078 -0.0208 -0.8659
 6388SOL    HW230801   1.016   1.391   8.373 -0.4154 -0.5568 -0.6391
 6389SOL     OW30802   4.676   3.597   8.585  0.5813 -0.4555 -0.5344
 6389SOL    HW130803   0.009   3.653   8.616 -1.3889  0.8956  1.5617
 6389SOL    HW230804   4.601   3.657   8.582  1.3791  0.5534 -0.3712
 6390SOL     OW30805   1.492   3.620  11.002 -0.1785 -0.4257 -0.7262
 6390SOL    HW130806   1.463   3.703  10.963 -1.7091 -0.5824  0.0792
 6390SOL    HW230807   1.543   3.657  11.074 -1.4098  1.3740 -0.7589
 6391SOL     OW30808   2.541   4.452   9.577 -0.3276 -0.4185 -0.1772
 6391SOL    HW130809   2.548   4.533   9.526 -0.3911 -0.5777 -0.4362
 6391SOL    HW230810   2.490   4.479   9.654 -1.3536 -0.2184 -0.9228
 6392SOL     OW30811   3.331   1.995  17.445  0.1625  0.1617  0.3115
 6392SOL    HW130812   3.367   1.983  17.357  0.2910 -0.7190  0.4867
 6392SOL    HW230813   3.395   1.945  17.496 -0.0967 -0.5666 -0.0781
 6393SOL     OW30814   2.119   4.448   9.146 -0.3302  0.0515  0.1571
 6393SOL    HW130815   2.120   4.491   9.061  2.3094  1.4330  0.8681
 6393SOL    HW230816   2.193   4.489   9.192 -0.3559 -0.7824  0.9397
 6394SOL     OW30817   3.444   1.001  15.800 -0.0317 -0.1623 -0.1180
 6394SOL    HW130818   3.383   1.006  15.727  0.2785  2.8535 -0.1900
 6394SOL    HW230819   3.482   1.089  15.794 -1.6357  0.5174 -0.1696
 6395SOL     OW30820   2.776   2.811   9.938 -0.0078 -0.9413  0.2562
 6395SOL    HW130821   2.764   2.904   9.919 -1.9616 -1.9464 -3.4335
 6395SOL    HW230822   2.736   2.778   9.857  1.0313  2.6455 -1.7445
 6396SOL     OW30823   1.443   3.915   8.239 -0.0721 -0.0511  0.3945
 6396SOL    HW130824   1.528   3.874   8.254 -0.5479 -1.1006  0.2258
 6396SOL    HW230825   1.467   4.003   8.211 -0.2064  0.2695  1.2713
 6397SOL     OW30826   0.337   2.420   2.807 -0.3705  0.1558  0.3495
 6397SOL    HW130827   0.408   2.372   2.849 -1.9996 -2.5399  0.0156
 6397SOL    HW230828   0.363   2.428   2.715 -1.8714  1.0662  0.0013
 6398SOL     OW30829   3.450   2.232  17.295 -0.0284 -0.3581  0.0770
 6398SOL    HW130830   3.381   2.271  17.242 -0.6450 -0.2120  0.9815
 6398SOL    HW230831   3.406   2.239  17.380  0.4264 -0.5489  0.3289
 6399SOL     OW30832   0.741   0.983   2.677 -0.0479  0.3378 -0.5210
 6399SOL    HW130833   0.797   0.910   2.650  0.3480 -0.5539  2.7371
 6399SOL    HW230834   0.652   0.948   2.686  0.4907 -0.9838 -0.3546
 6400SOL     OW30835   1.261   0.822  15.460  0.0090 -0.4010  0.2962
 6400SOL    HW130836   1.316   0.843  15.536 -0.2704 -3.2612  1.2850
 6400SOL    HW230837   1.306   0.879  15.397  2.4466 -0.9457  1.5490
 6401SOL     OW30838   1.566   1.856   7.610  0.3534 -0.0388 -0.1628
 6401SOL    HW130839   1.575   1.948   7.584  1.4179 -0.5944 -1.7730
 6401SOL    HW230840   1.497   1.857   7.676  1.3943 -0.8829  0.9317
 6402SOL     OW30841   0.556   2.194   3.486 -0.2051 -0.2156 -0.4559
 6402SOL    HW130842   0.477   2.143   3.467 -0.7244  0.8826 -1.2340
 6402SOL    HW230843   0.524   2.277   3.521 -0.5538 -1.7641  2.9516
 6403SOL     OW30844   3.158   1.403   3.994 -0.3533 -0.2273 -0.0780
 6403SOL    HW130845   3.132   1.374   4.082  1.1363  2.5777  1.2821
 6403SOL    HW230846   3.252   1.418   4.004 -0.9593  1.9666  2.3520
 6404SOL     OW30847   0.535   0.051  14.405 -0.4188 -0.3268 -0.2891
 6404SOL    HW130848   0.617   0.020  14.443 -0.5122 -1.8668 -1.3477
 6404SOL    HW230849   0.522   4.717  14.343  2.3272  1.1108 -2.5444
 6405SOL     OW30850   4.511   1.298  14.435  0.2261 -0.0515  0.6478
 6405SOL    HW130851   4.550   1.251  14.361 -0.2912  1.9609 -0.8892
 6405SOL    HW230852   4.486   1.376  14.385  0.4833  0.0226  0.6367
 6406SOL     OW30853   3.209   3.896  16.829  0.3107 -0.0291 -0.2885
 6406SOL    HW130854   3.260   3.976  16.842  0.1045  0.7465 -4.3788
 6406SOL    HW230855   3.171   3.866  16.912 -0.4652  0.1873 -0.5640
 6407SOL     OW30856   4.208   1.697  10.770 -0.5123 -0.0345  0.1478
 6407SOL    HW130857   4.213   1.649  10.853 -1.2507 -0.0809  0.1612
 6407SOL    HW230858   4.279   1.648  10.728  0.2092  2.4789 -1.4982
 6408SOL     OW30859   1.668   1.650  10.723  0.1720 -0.3618 -0.0657
 6408SOL    HW130860   1.635   1.739  10.710  2.0547  0.0641 -1.9432
 6408SOL    HW230861   1.628   1.612  10.801 -1.5998  1.3221 -0.1534
 6409SOL     OW30862   3.000   2.801   5.310 -0.2553 -0.0589  0.0152
 6409SOL    HW130863   3.071   2.737   5.301  0.0915  0.4557 -0.9640
 6409SOL    HW230864   3.052   2.880   5.327  0.5093  0.0475 -2.7469
 6410SOL     OW30865   0.565   1.612  14.010  0.2275  0.1306  0.3016
 6410SOL    HW130866   0.540   1.686  13.955 -1.6867  0.5816  1.7735
 6410SOL    HW230867   0.565   1.539  13.948  0.8659  0.1144  0.3254
 6411SOL     OW30868   3.005   0.421   3.536  0.3556 -0.2608 -0.5654
 6411SOL    HW130869   3.026   0.344   3.483 -0.7078 -0.3624 -0.8467
 6411SOL    HW230870   3.082   0.477   3.536 -0.5052  0.9212  0.2647
 6412SOL     OW30871   0.701   3.203   4.882 -0.0513  0.2754  0.7581
 6412SOL    HW130872   0.628   3.264   4.890 -0.5043  0.0552 -1.7131
 6412SOL    HW230873   0.760   3.223   4.955  0.9639 -1.2696  0.3781
 6413SOL     OW30874   0.896   1.117   9.083  0.1985 -0.0468  0.1782
 6413SOL    HW130875   0.849   1.189   9.127 -0.9006 -1.0591  0.6577
 6413SOL    HW230876   0.911   1.149   8.994 -1.8298  1.9314  0.5236
 6414SOL     OW30877   2.613   0.796   4.123 -0.5050 -0.1428 -0.2952
 6414SOL    HW130878   2.600   0.760   4.210  2.4205  0.4658  0.3943
 6414SOL    HW230879   2.595   0.887   4.145 -2.2872 -1.2468  2.8422
 6415SOL     OW30880   4.605   1.089  10.628 -0.7316 -0.2050 -0.4803
 6415SOL    HW130881   4.569   1.163  10.676  1.2576 -0.3614  1.2373
 6415SOL    HW230882   4.692   1.082  10.666 -0.2434  0.3852 -1.4966
 6416SOL     OW30883   0.939   0.517  15.480  0.1805 -0.1227 -0.5591
 6416SOL    HW130884   0.911   0.591  15.533  1.1117  0.9330 -1.5372
 6416SOL    HW230885   1.003   0.558  15.421 -0.3224  1.8310  0.2525
 6417SOL     OW30886   3.507   1.661   1.172  0.3558 -0.3092 -0.4297
 6417SOL    HW130887   3.437   1.616   1.219 -0.2234  0.6084 -0.4002
 6417SOL    HW230888   3.484   1.754   1.163  0.0160 -0.2328  1.1900
 6418SOL     OW30889   3.879   0.097   7.991  0.1049  0.8514 -0.0554
 6418SOL    HW130890   3.951   0.101   7.928 -0.5131  2.4475 -0.6601
 6418SOL    HW230891   3.910   0.160   8.055  0.7904 -1.2438  1.6619
 6419SOL     OW30892   3.643   1.933   4.968 -0.1076  0.0064 -0.4279
 6419SOL    HW130893   3.565   1.973   4.930 -0.2015 -1.3734 -1.7355
 6419SOL    HW230894   3.671   1.881   4.892  0.8921  0.5113 -0.3999
 6420SOL     OW30895   3.122   0.326  11.784  1.2417 -0.3320  0.1247
 6420SOL    HW130896   3.176   0.248  11.798 -0.9652 -2.1814 -1.5076
 6420SOL    HW230897   3.187   0.396  11.781  0.5401  0.3389  0.4718
 6421SOL     OW30898   2.151   0.871   5.945  0.3171  0.2596  0.3959
 6421SOL    HW130899   2.178   0.859   6.036 -0.2947 -0.8200  0.4344
 6421SOL    HW230900   2.221   0.923   5.906 -2.4332  2.2072 -1.9069
 6422SOL     OW30901   0.195   0.021   8.789 -0.0682 -0.1985  0.0469
 6422SOL    HW130902   0.191   0.111   8.821  0.6715 -0.0352 -0.3025
 6422SOL    HW230903   0.282   4.731   8.818  0.7407  1.3770 -0.8140
 6423SOL     OW30904   3.637   4.099   4.188 -0.3040 -0.2019  0.2831
 6423SOL    HW130905   3.565   4.162   4.192 -1.5392 -1.5559 -0.5099
 6423SOL    HW230906   3.580   4.023   4.179 -0.7787  0.3001 -0.9304
 6424SOL     OW30907   0.406   3.342   1.977  0.2323  0.2199 -0.0828
 6424SOL    HW130908   0.465   3.280   1.934  0.3746  0.3001 -0.0041
 6424SOL    HW230909   0.427   3.420   1.927 -0.8767  0.5320 -0.0630
 6425SOL     OW30910   0.600   2.332  17.734 -0.1813  0.2258 -0.5714
 6425SOL    HW130911   0.553   2.249  17.731  3.3871 -1.6735 -4.4319
 6425SOL    HW230912   0.544   2.386   0.037  0.6145  0.1877  0.2562
 6426SOL     OW30913   3.851   2.144  14.914 -0.4049  0.4914 -0.3767
 6426SOL    HW130914   3.812   2.056  14.916  0.4741  0.1031 -0.2339
 6426SOL    HW230915   3.795   2.199  14.969 -0.4685  3.0918 -3.0295
 6427SOL     OW30916   3.449   2.790   0.570 -0.2282 -0.1762 -0.3946
 6427SOL    HW130917   3.413   2.863   0.619  1.6861  0.9196 -0.5945
 6427SOL    HW230918   3.383   2.782   0.501 -0.9202  2.1223  0.0297
 6428SOL     OW30919   0.935   2.369  13.523  0.0397  0.1933  0.3736
 6428SOL    HW130920   0.882   2.350  13.600  0.9490  1.6642  1.3479
 6428SOL    HW230921   0.940   2.286  13.475 -0.1146 -0.0279  0.7448
 6429SOL     OW30922   3.424   2.274   6.925  0.2542 -0.0368  0.2340
 6429SOL    HW130923   3.477   2.254   7.003 -0.9129 -3.1430  0.2231
 6429SOL    HW230924   3.434   2.201   6.863 -2.4540 -2.1582  2.2998
 6430SOL     OW30925   2.313   4.570   2.680 -0.8663 -0.0867 -0.4736
 6430SOL    HW130926   2.311   4.562   2.584  0.7462 -1.9713 -0.3398
 6430SOL    HW230927   2.398   4.611   2.695 -0.2660 -1.6529  0.3359
 6431SOL     OW30928   1.848   0.456  13.363 -0.8678  0.0616 -0.1661
 6431SOL    HW130929   1.864   0.456  13.268 -3.4869 -1.0423 -0.5988
 6431SOL    HW230930   1.765   0.502  13.360  0.9535  3.3500  0.5345
 6432SOL     OW30931   1.184   2.355   7.552 -0.5751  0.1534  0.7244
 6432SOL    HW130932   1.213   2.348   7.462  0.1127  0.0253  0.9543
 6432SOL    HW230933   1.270   2.374   7.590  0.0010 -0.6614 -0.1716
 6433SOL     OW30934   2.443   4.490  13.155 -0.5884 -0.6369  0.1165
 6433SOL    HW130935   2.505   4.453  13.218 -1.0947 -1.3029  0.2317
 6433SOL    HW230936   2.492   4.534  13.087 -0.4992 -1.5983 -0.4394
 6434SOL     OW30937   0.612   4.278   3.258 -0.1427 -0.0446 -0.4281
 6434SOL    HW130938   0.569   4.336   3.320  0.9479  0.3063  0.0076
 6434SOL    HW230939   0.618   4.345   3.189 -3.3465  1.1410  0.4451
 6435SOL     OW30940   3.199   3.883   1.816 -0.4643 -0.1999 -0.2062
 6435SOL    HW130941   3.276   3.921   1.774 -1.4699 -0.4395 -2.2530
 6435SOL    HW230942   3.131   3.950   1.802 -0.8501 -0.8371 -1.3903
 6436SOL     OW30943   4.095   1.531  16.298  0.4022 -0.4510  0.0016
 6436SOL    HW130944   4.010   1.510  16.261  0.6061  0.5168 -1.0287
 6436SOL    HW230945   4.156   1.487  16.239 -0.9207 -0.0295 -1.6849
 6437SOL     OW30946   3.641   1.239   7.637 -0.0281 -0.5493  0.1421
 6437SOL    HW130947   3.588   1.198   7.705 -2.4754 -2.0649 -2.6289
 6437SOL    HW230948   3.625   1.171   7.572  0.3440 -1.2276  0.7705
 6438SOL     OW30949   3.458   4.731   8.514 -0.2978  0.0660 -0.3243
 6438SOL    HW130950   3.513   0.021   8.441 -1.3020 -0.0972 -1.1501
 6438SOL    HW230951   3.488   4.647   8.547 -0.2616  1.3210  2.9014
 6439SOL     OW30952   3.993   4.657   6.763  0.0245 -0.1922  0.0453
 6439SOL    HW130953   3.985   0.008   6.730 -0.5098  0.3100  1.5222
 6439SOL    HW230954   4.055   4.675   6.834 -2.1672  0.1284  1.8730
 6440SOL     OW30955   2.745   0.212   5.109  0.0475  0.3955 -0.1440
 6440SOL    HW130956   2.750   0.301   5.144 -4.4070  0.7426 -0.4138
 6440SOL    HW230957   2.717   0.224   5.018 -0.8343 -1.0235 -0.0619
 6441SOL     OW30958   1.121   4.717   9.286 -0.0603  0.3708 -0.3594
 6441SOL    HW130959   1.095   4.714   9.194 -1.0083 -2.5837  0.0332
 6441SOL    HW230960   1.124   0.074   9.289 -1.2514  0.3861  0.9689
 6442SOL     OW30961   4.113   0.587   8.302 -0.1857 -0.7177  0.1857
 6442SOL    HW130962   4.152   0.675   8.307  0.0141 -0.7175 -1.4531
 6442SOL    HW230963   4.186   0.536   8.269 -0.5412 -1.2925  0.2958
 6443SOL     OW30964   1.976   1.809   6.318 -0.0327 -0.3620 -0.2229
 6443SOL    HW130965   2.002   1.824   6.409 -1.4782 -0.5147  0.2131
 6443SOL    HW230966   2.056   1.794   6.268 -0.1586  0.7029 -0.7436
 6444SOL     OW30967   3.827   4.062   2.162  0.4593  0.1328  0.5971
 6444SOL    HW130968   3.838   4.141   2.110 -0.9677  0.5796  0.9732
 6444SOL    HW230969   3.828   4.096   2.252  2.2837  0.8154  0.3065
 6445SOL     OW30970   0.838   0.571   0.266  0.0251  0.1747  0.0310
 6445SOL    HW130971   0.781   0.496   0.280  0.6248 -0.1426  0.7938
 6445SOL    HW230972   0.919   0.549   0.313 -0.0666 -0.6784 -0.2102
 6446SOL     OW30973   4.507   3.728   5.252 -0.4739 -0.0702  0.0855
 6446SOL    HW130974   4.602   3.719   5.253 -0.3564  1.2558  1.1711
 6446SOL    HW230975   4.476   3.659   5.194  0.6989  1.3951 -2.2438
 6447SOL     OW30976   2.579   0.113   2.074  0.3392  0.4039  0.4390
 6447SOL    HW130977   2.655   0.098   2.132  0.8908  1.1678 -0.0939
 6447SOL    HW230978   2.579   0.208   2.078  0.7166  0.4561 -0.7906
 6448SOL     OW30979   3.878   1.796   5.433 -0.4047 -1.0217  0.0749
 6448SOL    HW130980   3.971   1.784   5.449 -0.0375 -0.0019 -1.3308
 6448SOL    HW230981   3.867   1.785   5.339  1.9585  1.2892 -0.4768
 6449SOL     OW30982   4.585   2.260   2.338  0.4910  0.1975 -0.4318
 6449SOL    HW130983   4.629   2.305   2.266 -2.2925  0.9766 -1.6439
 6449SOL    HW230984   4.523   2.327   2.367  0.5057 -0.3308  0.8175
 6450SOL     OW30985   2.078   0.215   4.202 -0.8008 -0.5616  0.2931
 6450SOL    HW130986   2.049   0.136   4.248  0.6690 -1.8096 -0.8942
 6450SOL    HW230987   2.058   0.180   4.115 -0.6234 -1.6583  0.6878
 6451SOL     OW30988   3.258   4.557   6.289 -0.0599 -0.0250  0.0037
 6451SOL    HW130989   3.318   4.575   6.217  2.0307  0.6150  1.8893
 6451SOL    HW230990   3.275   4.636   6.340 -0.0720 -0.2540  0.3650
 6452SOL     OW30991   1.844   1.843   9.438  0.1236 -0.0412  0.0804
 6452SOL    HW130992   1.858   1.783   9.364 -2.7560  0.7585 -1.1401
 6452SOL    HW230993   1.818   1.923   9.394  3.0129  0.8002 -0.0820
 6453SOL     OW30994   1.092   2.134   3.334  0.4480  0.7784 -0.0913
 6453SOL    HW130995   1.091   2.068   3.264 -0.6865  0.4874  0.1960
 6453SOL    HW230996   0.999   2.148   3.354  0.9069  0.1689  2.4598
 6454SOL     OW30997   1.174   1.238   2.794 -0.0768 -0.3526  0.2474
 6454SOL    HW130998   1.254   1.190   2.817  0.1430 -1.2707 -2.4489
 6454SOL    HW230999   1.120   1.158   2.788 -2.8451  1.6558 -1.5422
 6455SOL     OW31000   0.417   2.714  12.353  0.1499  0.6805  0.2571
 6455SOL    HW131001   0.367   2.788  12.389 -0.4815  0.3348  0.0889
 6455SOL    HW231002   0.425   2.668  12.436 -0.3987  1.3029  0.6642
 6456SOL     OW31003   3.117   4.132   1.621  0.0364 -0.1122 -0.7071
 6456SOL    HW131004   3.067   4.175   1.691  0.1795 -1.7196  0.4058
 6456SOL    HW231005   3.167   4.204   1.584  1.5330  0.2267  1.9778
 6457SOL     OW31006   2.572   2.858  12.068 -0.1179 -0.5008 -0.0303
 6457SOL    HW131007   2.562   2.794  12.138  1.2853  1.1418  1.6762
 6457SOL    HW231008   2.568   2.936  12.123 -1.0669  0.4020 -1.3640
 6458SOL     OW31009   2.211   1.966   3.293 -0.1192  0.0031 -0.1094
 6458SOL    HW131010   2.162   1.950   3.212 -0.9856  0.2180  0.3714
 6458SOL    HW231011   2.275   2.029   3.259  0.4969 -1.1086 -0.9705
 6459SOL     OW31012   1.876   1.782  14.487  0.2995  0.1749  0.4232
 6459SOL    HW131013   1.913   1.707  14.440 -0.8304 -1.8050  2.6859
 6459SOL    HW231014   1.801   1.808  14.434  0.9628  0.4028 -0.4027
 6460SOL     OW31015   1.294   2.674   7.053 -0.0379 -0.4035  0.0020
 6460SOL    HW131016   1.211   2.702   7.015 -0.4905 -0.7913  0.7249
 6460SOL    HW231017   1.260   2.589   7.078  2.3382 -1.7108 -1.1797
 6461SOL     OW31018   3.445   3.065   2.300  0.1187  0.3662 -0.2814
 6461SOL    HW131019   3.457   2.993   2.239 -1.5470 -0.0996 -0.0743
 6461SOL    HW231020   3.524   3.064   2.354 -0.0791 -0.1925  0.0049
 6462SOL     OW31021   3.251   0.564   8.526  0.2774 -0.1729 -0.5675
 6462SOL    HW131022   3.233   0.656   8.549  0.2992  0.2645 -2.3301
 6462SOL    HW231023   3.248   0.525   8.614 -0.4739  1.2993  0.0687
 6463SOL     OW31024   4.405   3.873   2.688  0.5665 -0.0670  0.3218
 6463SOL    HW131025   4.435   3.822   2.763 -0.3718 -0.4447  0.4392
 6463SOL    HW231026   4.437   3.832   2.608 -1.7904 -0.2689 -0.5248
 6464SOL     OW31027   0.620   4.228   4.691 -0.2103 -0.3829  0.1398
 6464SOL    HW131028   0.706   4.187   4.684  0.4066  0.6689  1.5273
 6464SOL    HW231029   0.652   4.295   4.751 -1.7570  1.1181 -0.7101
 6465SOL     OW31030   3.089   2.867  12.996 -0.1981 -0.2746  0.3596
 6465SOL    HW131031   3.175   2.872  13.038  0.7801 -2.8634 -1.3618
 6465SOL    HW231032   3.059   2.790  13.043  0.2842 -0.4520  0.3718
 6466SOL     OW31033   3.040   0.036   7.435  0.3957 -0.0408  0.2377
 6466SOL    HW131034   2.966   0.014   7.378  1.3706  1.3831 -1.5783
 6466SOL    HW231035   3.057   4.687   7.468  1.1323 -0.0318 -0.1016
 6467SOL     OW31036   3.976   4.071   3.495  0.2705  0.2661  0.4576
 6467SOL    HW131037   3.992   4.002   3.431  0.9489 -0.7113  1.6903
 6467SOL    HW231038   4.018   4.141   3.445 -0.6375  1.0557  0.7911
 6468SOL     OW31039   1.238   4.343   3.589  0.9895 -0.6070  0.2128
 6468SOL    HW131040   1.225   4.266   3.644 -0.9317  0.5785  1.4393
 6468SOL    HW231041   1.145   4.345   3.565  1.3330 -0.4537 -1.1101
 6469SOL     OW31042   1.789   0.622   1.142  0.0612  0.0260  0.4088
 6469SOL    HW131043   1.728   0.651   1.074 -0.5966  1.6904  1.7141
 6469SOL    HW231044   1.815   0.707   1.178 -0.5155 -0.4382  1.9255
 6470SOL     OW31045   0.313   2.299   7.502 -0.0410 -0.0785  0.0019
 6470SOL    HW131046   0.217   2.295   7.510 -0.2586 -0.9077 -2.9881
 6470SOL    HW231047   0.328   2.221   7.450  0.0226  1.3706 -2.1547
 6471SOL     OW31048   1.070   1.790   4.714  0.5341  0.4189  0.8663
 6471SOL    HW131049   1.068   1.766   4.806  1.8945  0.2382  0.8464
 6471SOL    HW231050   0.985   1.747   4.703  1.8709 -2.1686  0.5009
 6472SOL     OW31051   3.059   2.733   4.947  0.0945  0.2595 -0.1572
 6472SOL    HW131052   3.001   2.688   5.008 -2.0141  2.6613 -0.3610
 6472SOL    HW231053   3.103   2.665   4.896  1.0776  0.8575 -0.1162
 6473SOL     OW31054   4.214   3.948   8.836 -0.2087  0.3215  0.3811
 6473SOL    HW131055   4.231   4.042   8.840  2.6920 -0.2278  1.0014
 6473SOL    HW231056   4.258   3.918   8.915  0.1708  1.2187  0.5122
 6474SOL     OW31057   3.615   1.008   3.928 -0.0032  0.4044  0.1391
 6474SOL    HW131058   3.592   0.930   3.878 -1.8169  0.9565  0.1064
 6474SOL    HW231059   3.610   1.073   3.858 -2.7034 -0.6896 -0.6852
 6475SOL     OW31060   4.108   1.924   0.245 -0.2013  0.0871 -0.5892
 6475SOL    HW131061   4.031   1.957   0.292 -0.0716 -0.7800  0.2316
 6475SOL    HW231062   4.105   1.976   0.165 -3.1020 -0.5084 -0.8875
 6476SOL     OW31063   3.702   2.005   6.593  0.0182 -0.1278 -0.6380
 6476SOL    HW131064   3.706   1.964   6.506  0.2110 -0.3559 -0.5207
 6476SOL    HW231065   3.706   1.925   6.646  1.4127 -1.6203 -3.0065
 6477SOL     OW31066   2.176   2.669   5.040  0.5217  0.0798  0.4054
 6477SOL    HW131067   2.117   2.640   5.110 -1.8637 -0.7176 -1.9258
 6477SOL    HW231068   2.111   2.697   4.975 -0.6447 -0.2078  1.4527
 6478SOL     OW31069   2.055   3.477   4.818 -0.7381  0.0672 -0.2145
 6478SOL    HW131070   1.984   3.432   4.773 -0.5738 -1.1013  0.7016
 6478SOL    HW231071   2.093   3.533   4.751 -1.2352  1.2660  0.5013
 6479SOL     OW31072   2.579   1.027   5.662  0.1112 -0.1655 -0.2212
 6479SOL    HW131073   2.660   1.076   5.674  0.2879 -0.5162  0.0136
 6479SOL    HW231074   2.615   0.960   5.604  2.5446  0.2322  0.8441
 6480SOL     OW31075   3.867   1.637  14.628 -0.2249 -0.0337  0.1826
 6480SOL    HW131076   3.954   1.667  14.599  1.1271 -2.5668  1.6152
 6480SOL    HW231077   3.862   1.557  14.576 -0.6936  0.2522 -0.2110
 6481SOL     OW31078   1.041   2.236   4.058  0.1087  0.1613  0.2785
 6481SOL    HW131079   1.051   2.328   4.081 -0.0213  0.5411 -1.2281
 6481SOL    HW231080   0.972   2.201   4.115  0.2118 -0.8268 -0.1936
 6482SOL     OW31081   1.986   1.125  10.821  0.0873 -0.4290 -0.4560
 6482SOL    HW131082   1.928   1.155  10.891 -0.0683  0.3875 -0.9388
 6482SOL    HW231083   2.015   1.040  10.855 -1.9538 -0.9523 -0.0132
 6483SOL     OW31084   1.476   4.300   2.946 -0.4357 -0.4700 -0.3078
 6483SOL    HW131085   1.508   4.314   2.857  2.2178 -2.6134  0.3006
 6483SOL    HW231086   1.529   4.228   2.983  1.3523  2.6990  3.3409
 6484SOL     OW31087   0.635   0.441   2.440 -0.6490 -0.0622 -0.3559
 6484SOL    HW131088   0.632   0.537   2.437  0.6698 -0.0466 -0.8651
 6484SOL    HW231089   0.710   0.411   2.390 -1.3647 -0.0910 -1.3986
 6485SOL     OW31090   3.653   0.103   3.711  0.5925 -0.1245  0.4438
 6485SOL    HW131091   3.725   0.053   3.674  0.2898 -0.4677  0.3111
 6485SOL    HW231092   3.638   0.045   3.785 -2.2416  0.9629  0.7315
 6486SOL     OW31093   1.099   2.694   5.101 -0.3410 -0.2595 -0.4188
 6486SOL    HW131094   1.018   2.745   5.108 -0.1073 -0.1155  1.3640
 6486SOL    HW231095   1.069   2.606   5.080 -0.3488 -0.7371  1.6432
 6487SOL     OW31096   4.170   1.160   4.482  0.1978  0.0269 -0.1317
 6487SOL    HW131097   4.208   1.164   4.394  2.0925 -0.2977  0.6634
 6487SOL    HW231098   4.098   1.099   4.471 -0.4826  0.7000  0.5795
 6488SOL     OW31099   1.935   2.500   6.797 -0.7963  0.1260 -0.0526
 6488SOL    HW131100   1.849   2.457   6.806 -0.3714 -1.0782 -1.9031
 6488SOL    HW231101   1.976   2.440   6.735 -1.4064  1.4866 -1.7528
 6489SOL     OW31102   4.564   1.230  10.333  0.0091 -0.1987 -0.1198
 6489SOL    HW131103   4.589   1.161  10.394 -2.1250 -2.2301 -1.5457
 6489SOL    HW231104   4.636   1.216  10.272 -0.9393  0.7967 -1.4792
 6490SOL     OW31105   0.839   1.860   4.516  0.4205 -0.1614  0.7760
 6490SOL    HW131106   0.869   1.916   4.587 -1.1988 -0.0029  1.3442
 6490SOL    HW231107   0.762   1.820   4.556  0.6177 -0.7465  0.5783
 6491SOL     OW31108   2.612   1.223  13.098  0.0294 -0.4179  0.0996
 6491SOL    HW131109   2.633   1.137  13.061 -1.7131 -0.0121 -1.8440
 6491SOL    HW231110   2.608   1.272  13.016 -3.2091 -0.3973  0.2751
 6492SOL     OW31111   1.058   3.196   8.056 -0.1299  0.0513 -0.2878
 6492SOL    HW131112   1.020   3.129   8.112 -0.4917 -0.5458 -1.2347
 6492SOL    HW231113   1.010   3.179   7.975 -1.0262 -0.5836  0.3853
 6493SOL     OW31114   4.090   4.587   1.051  0.0397  0.0076 -0.2922
 6493SOL    HW131115   4.015   4.530   1.035 -2.5647  3.2664  0.3687
 6493SOL    HW231116   4.162   4.545   1.005  1.8670  0.5343  2.0694
 6494SOL     OW31117   3.150   2.196   4.875 -0.1884 -0.1435  0.0657
 6494SOL    HW131118   3.064   2.223   4.843 -0.6741 -0.9402  0.6923
 6494SOL    HW231119   3.126   2.119   4.926  1.1259  0.0361  0.9449
 6495SOL     OW31120   1.616   0.631  15.588  0.2170  0.5404 -0.6622
 6495SOL    HW131121   1.605   0.665  15.677  0.4425 -0.3948 -0.2868
 6495SOL    HW231122   1.709   0.609  15.589 -0.0445 -0.6183 -1.6467
 6496SOL     OW31123   0.573   1.142   8.259 -0.1768  0.4421  0.3544
 6496SOL    HW131124   0.613   1.055   8.261 -0.4773  0.3606  3.2224
 6496SOL    HW231125   0.642   1.199   8.223  0.0700 -0.0581  0.0424
 6497SOL     OW31126   4.383   2.785   4.226  0.2054  0.1912  0.7048
 6497SOL    HW131127   4.372   2.698   4.187  2.1864  0.5196 -0.5915
 6497SOL    HW231128   4.325   2.842   4.174 -0.8615 -0.1373  1.5461
 6498SOL     OW31129   1.660   4.568   8.956  0.1469 -0.1748 -0.3371
 6498SOL    HW131130   1.720   4.500   8.987  2.7304  1.7977 -0.9040
 6498SOL    HW231131   1.592   4.505   8.934  0.6861 -0.5400 -0.9942
 6499SOL     OW31132   2.479   2.845   3.933 -0.5286 -0.1724  0.7342
 6499SOL    HW131133   2.527   2.834   4.015 -1.4404  0.5691  1.3731
 6499SOL    HW231134   2.508   2.767   3.886 -0.4065  1.7844 -2.4889
 6500SOL     OW31135   0.721   2.057   1.802 -0.2327 -0.7014  0.3841
 6500SOL    HW131136   0.675   2.133   1.838  1.4713  0.8070 -0.5735
 6500SOL    HW231137   0.755   2.103   1.725 -0.3522  1.1947  1.4464
 6501SOL     OW31138   3.421   2.345  10.707 -0.1656 -0.0470  0.2592
 6501SOL    HW131139   3.402   2.288  10.782 -0.7747  1.0243  0.9232
 6501SOL    HW231140   3.500   2.386  10.743  0.4296  0.8567 -2.0531
 6502SOL     OW31141   1.697   2.915   3.928  0.2413  0.0713 -0.2251
 6502SOL    HW131142   1.679   2.914   3.834  1.3384  0.1054 -0.4388
 6502SOL    HW231143   1.656   2.833   3.954  0.1160 -0.1299 -1.0644
 6503SOL     OW31144   2.539   1.063   4.150 -1.0983  0.2085 -0.0189
 6503SOL    HW131145   2.560   1.156   4.153  2.8357 -0.7480  1.1960
 6503SOL    HW231146   2.505   1.036   4.064 -0.7181  0.2904 -0.1963
 6504SOL     OW31147   0.660   3.044   3.407  0.2897 -0.0702 -0.1856
 6504SOL    HW131148   0.656   2.979   3.336 -0.5948 -0.8824  0.6121
 6504SOL    HW231149   0.747   3.032   3.445  1.2113  1.1878 -1.8879
 6505SOL     OW31150   0.403   3.953   6.014 -0.2754 -0.1091 -0.1151
 6505SOL    HW131151   0.383   4.042   6.044  0.1954  0.5244 -1.6917
 6505SOL    HW231152   0.496   3.951   6.036 -0.4874 -1.2455  0.6770
 6506SOL     OW31153   2.087   3.609  11.684  0.5817 -0.7510  0.8217
 6506SOL    HW131154   2.150   3.585  11.752  2.8730  3.0612  0.0514
 6506SOL    HW231155   2.013   3.622  11.743  0.2074  2.5764 -0.3699
 6507SOL     OW31156   1.150   2.718   0.241 -0.0784 -0.0923  0.9329
 6507SOL    HW131157   1.123   2.683   0.326 -1.2104 -0.6972  0.3204
 6507SOL    HW231158   1.204   2.646   0.209  0.3367  0.9019 -0.6192
 6508SOL     OW31159   3.346   1.778   3.027  0.2280  0.4105 -0.3556
 6508SOL    HW131160   3.381   1.689   3.034 -2.6752 -0.4025  3.4414
 6508SOL    HW231161   3.428   1.828   3.026  1.6625 -1.9598 -1.3897
 6509SOL     OW31162   3.087   4.196   4.818  0.2346  0.0815  0.3335
 6509SOL    HW131163   3.088   4.101   4.810 -1.1419  0.2957 -2.3685
 6509SOL    HW231164   3.173   4.214   4.781 -0.5872  2.8803 -0.2402
 6510SOL     OW31165   3.522   0.712   2.625  0.3611  0.5573 -0.3445
 6510SOL    HW131166   3.482   0.794   2.598  0.6192  0.5654 -0.7129
 6510SOL    HW231167   3.454   0.664   2.672  1.3358 -0.7934 -0.2986
 6511SOL     OW31168   2.847   2.326   6.692 -0.4555  0.3905 -0.1734
 6511SOL    HW131169   2.868   2.299   6.781  1.7151  1.0562 -0.4933
 6511SOL    HW231170   2.838   2.243   6.645  0.0522  0.1227  0.2113
 6512SOL     OW31171   0.247   0.332   3.310 -0.2245  0.2867 -0.8939
 6512SOL    HW131172   0.324   0.379   3.276  0.3204  1.0614  1.3981
 6512SOL    HW231173   0.212   0.316   3.223 -2.0289 -0.0974 -0.1012
 6513SOL     OW31174   2.980   0.341  11.543 -0.4667  0.1589  0.0919
 6513SOL    HW131175   3.018   0.368  11.627 -2.2051  0.7293  0.7042
 6513SOL    HW231176   3.029   0.395  11.482 -0.9377  0.0623 -0.3761
 6514SOL     OW31177   0.026   2.125   4.479 -0.0098  0.1734  0.2278
 6514SOL    HW131178   0.021   2.032   4.457 -0.3806 -0.0315  1.1714
 6514SOL    HW231179   0.098   2.158   4.425 -1.3231  0.0890 -1.5743
 6515SOL     OW31180   2.517   4.582   6.227 -0.8295  0.8768 -0.1744
 6515SOL    HW131181   2.613   4.586   6.223 -0.7099 -0.6762  1.4798
 6515SOL    HW231182   2.488   4.589   6.318  1.0877 -1.5439  0.6104
 6516SOL     OW31183   1.476   4.347   8.967 -0.5081  0.3164  0.4011
 6516SOL    HW131184   1.509   4.257   8.968  1.4111  1.0315  0.4035
 6516SOL    HW231185   1.383   4.330   8.985 -1.1633  2.4363 -1.0200
 6517SOL     OW31186   2.600   0.481  12.261 -0.3922 -0.0394 -0.3529
 6517SOL    HW131187   2.691   0.461  12.283 -0.3917 -1.1136 -1.3706
 6517SOL    HW231188   2.553   0.413  12.309 -1.7456  0.8606 -0.4185
 6518SOL     OW31189   0.032   2.259   5.106  0.3048 -0.5816  0.0358
 6518SOL    HW131190   0.088   2.182   5.093  3.6498  2.0868 -1.0933
 6518SOL    HW231191   0.058   2.319   5.036 -1.1235  0.0174  0.0286
 6519SOL     OW31192   1.263   3.490   5.564  0.3347  0.0013 -0.6945
 6519SOL    HW131193   1.305   3.454   5.643  2.4542  1.0118 -1.3422
 6519SOL    HW231194   1.216   3.410   5.543 -3.2865  1.4048  2.0966
 6520SOL     OW31195   3.968   1.111   3.048  0.9974  0.3104  0.2149
 6520SOL    HW131196   3.993   1.149   3.132  3.1446 -1.5650  0.4218
 6520SOL    HW231197   3.901   1.049   3.077  2.1044  0.1325  2.4393
 6521SOL     OW31198   1.309   1.643   9.281  0.2489  0.1571 -0.0847
 6521SOL    HW131199   1.356   1.699   9.343  1.5425 -2.4848  1.3401
 6521SOL    HW231200   1.302   1.556   9.321 -2.1893  0.8126  0.9525
 6522SOL     OW31201   0.577   4.347  15.486 -0.1812 -0.7995  0.2100
 6522SOL    HW131202   0.625   4.308  15.414 -0.5389 -1.5252  0.3733
 6522SOL    HW231203   0.594   4.439  15.463  0.0234 -0.5234  1.4468
 6523SOL     OW31204   0.652   2.578   2.709 -0.3662  1.2873 -0.2295
 6523SOL    HW131205   0.578   2.593   2.768  1.9504  1.3230  2.6713
 6523SOL    HW231206   0.698   2.507   2.755  0.0415  1.4256 -0.4239
 6524SOL     OW31207   3.315   0.578   2.773 -0.1299  0.2088 -0.4546
 6524SOL    HW131208   3.315   0.487   2.802  1.4453  0.4321  0.2200
 6524SOL    HW231209   3.351   0.616   2.853 -4.4094 -0.8184  1.9699
 6525SOL     OW31210   3.426   4.402  13.060  0.0236  0.3791  0.0375
 6525SOL    HW131211   3.405   4.444  12.976 -2.5327  0.4645  0.7148
 6525SOL    HW231212   3.473   4.329  13.020 -0.2284  1.0304 -1.4556
 6526SOL     OW31213   3.004   3.473   4.913 -0.2914 -0.2233 -0.3278
 6526SOL    HW131214   3.092   3.501   4.887  0.8058 -3.5599 -0.1714
 6526SOL    HW231215   2.950   3.548   4.888 -0.9684 -0.0536  1.6322
 6527SOL     OW31216   2.777   4.192   2.415  0.6902  0.2206 -0.0663
 6527SOL    HW131217   2.686   4.167   2.429  1.0203 -0.6779  0.5092
 6527SOL    HW231218   2.812   4.175   2.503  1.8786  1.4436 -0.3060
 6528SOL     OW31219   3.255   2.337  17.109  0.2107 -0.9042 -0.0799
 6528SOL    HW131220   3.168   2.301  17.091  0.0890 -1.3937  1.5021
 6528SOL    HW231221   3.277   2.389  17.032 -2.1728 -0.6352 -0.5770
 6529SOL     OW31222   2.526   2.851  11.547 -0.0569  0.0247  0.6242
 6529SOL    HW131223   2.537   2.945  11.560  0.7342  0.3679 -2.3967
 6529SOL    HW231224   2.512   2.840  11.641  1.3785  1.3800  1.0106
 6530SOL     OW31225   1.635   1.732   2.764 -0.7601 -0.0007 -0.1944
 6530SOL    HW131226   1.675   1.731   2.677 -0.4419  0.2272 -0.0515
 6530SOL    HW231227   1.545   1.705   2.747 -0.9199 -0.9482  2.1170
 6531SOL     OW31228   0.284   0.592   2.729  0.0829 -0.3361  0.0159
 6531SOL    HW131229   0.329   0.512   2.756 -0.3720 -0.8354 -0.7070
 6531SOL    HW231230   0.342   0.630   2.664 -0.3018  1.8221  0.9393
 6532SOL     OW31231   0.408   0.220   2.010  0.8383 -0.6938 -0.2686
 6532SOL    HW131232   0.473   0.216   2.079  1.4182  0.8790 -0.7213
 6532SOL    HW231233   0.337   0.265   2.056 -0.8942 -2.1547 -1.4519
 6533SOL     OW31234   0.282   1.120   5.337 -0.1706  0.4544 -0.6062
 6533SOL    HW131235   0.287   1.154   5.247  0.5343  1.5915 -0.1370
 6533SOL    HW231236   0.354   1.164   5.382  0.3554 -1.3777  0.3608
 6534SOL     OW31237   1.359   0.924   4.200 -0.4657  0.6420  0.1151
 6534SOL    HW131238   1.271   0.957   4.181 -0.2389  1.8984  1.2252
 6534SOL    HW231239   1.411   0.949   4.124 -0.1436  2.8991  1.0612
 6535SOL     OW31240   0.549   4.170   2.917 -0.3797 -0.0107  0.1840
 6535SOL    HW131241   0.463   4.203   2.944 -0.4436 -0.1301  0.1264
 6535SOL    HW231242   0.587   4.142   3.000 -2.0438 -1.0495  0.6044
 6536SOL     OW31243   1.745   1.544   0.087 -0.5052  0.3707 -0.4312
 6536SOL    HW131244   1.838   1.564   0.094 -0.6698  0.4839  1.5710
 6536SOL    HW231245   1.722   1.611   0.022 -2.3321  0.9479  0.7995
 6537SOL     OW31246   0.317   0.842   6.857 -0.3356  0.0484  0.1156
 6537SOL    HW131247   0.242   0.876   6.906 -0.6274 -0.2183 -0.1476
 6537SOL    HW231248   0.290   0.867   6.769 -0.5452 -2.1225 -0.4334
 6538SOL     OW31249   2.252   1.718   2.475 -0.3698  0.3196 -0.2853
 6538SOL    HW131250   2.322   1.720   2.540 -0.1091  0.8221 -0.5765
 6538SOL    HW231251   2.214   1.799   2.511  1.8973  1.2886 -0.1100
 6539SOL     OW31252   3.617   1.117  14.292 -0.1699 -0.0085  0.0861
 6539SOL    HW131253   3.580   1.034  14.260 -0.8852 -0.1347  1.2567
 6539SOL    HW231254   3.684   1.142  14.228 -0.4420 -1.5189 -0.8019
 6540SOL     OW31255   0.651   2.200  14.769  0.0330  0.0312 -0.2474
 6540SOL    HW131256   0.645   2.160  14.856 -0.7524 -0.2665 -0.4294
 6540SOL    HW231257   0.742   2.183  14.745 -0.5975 -2.2456 -0.9947
 6541SOL     OW31258   1.654   1.054  15.055 -0.2091  0.5765  0.7937
 6541SOL    HW131259   1.631   1.018  15.140 -0.8038  1.2597  0.9222
 6541SOL    HW231260   1.728   1.107  15.085 -1.3502  1.8788  1.3209
 6542SOL     OW31261   0.205   3.800   1.593  0.1045 -0.1367  0.1464
 6542SOL    HW131262   0.193   3.872   1.532 -0.7711 -0.5657 -0.1785
 6542SOL    HW231263   0.209   3.853   1.673 -1.4498  1.5858 -0.8976
 6543SOL     OW31264   2.648   3.115  11.594 -0.5407 -0.0684 -0.2024
 6543SOL    HW131265   2.695   3.143  11.515 -0.8953 -0.4216 -0.5397
 6543SOL    HW231266   2.629   3.198  11.637  1.6783 -0.2389  1.0764
 6544SOL     OW31267   2.427   2.596   9.039  0.8054 -0.5512  0.1334
 6544SOL    HW131268   2.404   2.574   8.949 -1.0538 -1.8239  0.9016
 6544SOL    HW231269   2.509   2.548   9.049 -0.7276 -2.7295  2.6597
 6545SOL     OW31270   3.285   1.742  10.327  0.5612 -0.1545  0.2202
 6545SOL    HW131271   3.236   1.683  10.270  0.9229  0.0747 -0.3336
 6545SOL    HW231272   3.378   1.719  10.326  1.4293  3.4041 -3.9431
 6546SOL     OW31273   0.428   4.099   0.026  0.1678  0.3908  0.5258
 6546SOL    HW131274   0.518   4.077   0.050 -0.2908 -0.8711  1.0903
 6546SOL    HW231275   0.385   4.041   0.089 -1.7393  0.2570 -0.9072
 6547SOL     OW31276   4.320   2.193  12.660 -0.2653  0.7504  0.1434
 6547SOL    HW131277   4.270   2.139  12.721 -0.4666 -0.9452 -1.5259
 6547SOL    HW231278   4.361   2.254  12.721  2.8838 -2.4699  1.2482
 6548SOL     OW31279   1.308   1.085   3.247 -0.1680  0.1770  0.0687
 6548SOL    HW131280   1.235   1.144   3.226  0.6989  0.6006 -1.7270
 6548SOL    HW231281   1.267   1.045   3.324  1.1792 -1.6299 -0.1433
 6549SOL     OW31282   2.603   0.035   8.876  0.3077 -0.0871 -0.3266
 6549SOL    HW131283   2.668   4.711   8.906  0.3000  0.1112  0.1072
 6549SOL    HW231284   2.531   4.711   8.870 -0.7618  1.0777  0.2884
 6550SOL     OW31285   1.957   1.997   6.086 -0.1688 -0.4054 -0.1944
 6550SOL    HW131286   1.866   2.005   6.058  0.0034 -0.4984 -0.7679
 6550SOL    HW231287   1.957   1.954   6.172  1.4183  0.6452  0.3528
 6551SOL     OW31288   2.590   3.821  13.970  0.1437  0.4819  0.6572
 6551SOL    HW131289   2.543   3.871  14.036  2.5807  3.0534  0.4182
 6551SOL    HW231290   2.601   3.736  14.013 -0.3939 -0.3809 -0.8851
 6552SOL     OW31291   1.900   4.717   1.304  0.9493  0.0600 -0.0381
 6552SOL    HW131292   1.937   0.022   1.228 -1.0397  2.1991  0.2278
 6552SOL    HW231293   1.936   4.628   1.304 -0.2390 -0.4025 -1.4590
 6553SOL     OW31294   2.684   3.953   9.544 -0.1870 -0.0992  0.0043
 6553SOL    HW131295   2.620   3.934   9.612  1.8889 -2.5681  1.2344
 6553SOL    HW231296   2.728   4.029   9.582  0.4555  0.9338 -2.7990
 6554SOL     OW31297   4.131   3.646   9.624  0.0741  0.1190 -0.2088
 6554SOL    HW131298   4.187   3.721   9.607  1.3199 -0.6542  0.4004
 6554SOL    HW231299   4.082   3.684   9.697 -0.5947  0.5087 -0.8739
 6555SOL     OW31300   3.066   0.386   4.970  0.4384 -0.4220 -0.1087
 6555SOL    HW131301   3.082   0.445   4.897  1.3814  0.2389  0.6250
 6555SOL    HW231302   3.141   0.327   4.963  1.3196  0.5459  1.1516
 6556SOL     OW31303   2.203   2.127   4.336 -0.4444  0.1001  0.1006
 6556SOL    HW131304   2.146   2.127   4.413 -0.1747  2.6898  0.2969
 6556SOL    HW231305   2.220   2.033   4.329  0.5123  0.1829  1.2597
 6557SOL     OW31306   4.304   3.160   3.178  0.3991 -0.2427  0.3125
 6557SOL    HW131307   4.218   3.127   3.204  1.1404 -1.3806  1.3142
 6557SOL    HW231308   4.317   3.082   3.125  2.2129  0.6537 -0.5645
 6558SOL     OW31309   4.183   4.281   9.828 -0.3905  0.1967  0.1472
 6558SOL    HW131310   4.231   4.328   9.896 -0.4165 -0.5206  0.6547
 6558SOL    HW231311   4.228   4.199   9.847 -0.4015 -0.2055 -1.5616
 6559SOL     OW31312   2.643   3.956   5.508  0.3766  0.4161 -0.3864
 6559SOL    HW131313   2.666   3.864   5.516 -3.4100 -0.3772  1.3467
 6559SOL    HW231314   2.553   3.946   5.477  0.4577 -0.9729 -0.1800
 6560SOL     OW31315   2.970   1.331   8.992  0.6981 -0.5318  0.2598
 6560SOL    HW131316   2.912   1.301   8.922 -0.6835  0.9389  0.7736
 6560SOL    HW231317   2.911   1.333   9.067 -0.0202 -0.6051 -0.3030
 6561SOL     OW31318   0.844   2.650   2.206 -0.1876 -0.9263 -0.1208
 6561SOL    HW131319   0.774   2.665   2.268 -0.9520  1.8557 -1.6481
 6561SOL    HW231320   0.896   2.595   2.265  0.7958 -1.0784 -1.1238
 6562SOL     OW31321   4.079   2.670   0.377  0.2924 -0.1155  0.5334
 6562SOL    HW131322   4.091   2.716   0.294  2.9918  1.5584  1.8463
 6562SOL    HW231323   3.992   2.694   0.409 -0.0889  1.2578 -1.5237
 6563SOL     OW31324   2.780   2.515   4.948  0.5490 -1.0300  0.0408
 6563SOL    HW131325   2.837   2.459   5.000 -0.2925 -0.0267  2.0268
 6563SOL    HW231326   2.779   2.588   5.009  1.6446 -0.3761 -0.7229
 6564SOL     OW31327   2.065   3.749  12.184  0.0120 -0.1984  0.7894
 6564SOL    HW131328   1.982   3.777  12.223 -0.6469  0.2376 -0.9314
 6564SOL    HW231329   2.100   3.697  12.256 -0.3054  0.7564  1.6224
 6565SOL     OW31330   3.581   2.931   5.059  0.1302  0.3493 -0.0386
 6565SOL    HW131331   3.636   2.882   5.120  2.3165  2.3973 -0.3570
 6565SOL    HW231332   3.493   2.906   5.086  0.8289 -0.4264  1.5132
 6566SOL     OW31333   3.655   2.613   4.079 -0.1960 -0.4780  0.0957
 6566SOL    HW131334   3.631   2.520   4.088 -2.9722  0.1441 -0.7416
 6566SOL    HW231335   3.740   2.616   4.122  0.5224 -0.5385 -1.3314
 6567SOL     OW31336   2.546   0.405   3.405 -0.1572 -0.2738 -0.2244
 6567SOL    HW131337   2.565   0.337   3.470 -1.1786 -0.3120  0.0340
 6567SOL    HW231338   2.625   0.460   3.401  1.2730 -2.1470  2.6472
 6568SOL     OW31339   3.085   2.196  11.171  0.4084 -0.3999 -0.2143
 6568SOL    HW131340   3.131   2.113  11.173  1.4020  0.0393 -4.8280
 6568SOL    HW231341   3.005   2.169  11.217 -0.4770  2.6255  0.0504
 6569SOL     OW31342   2.778   0.403   5.466 -0.4521  0.4018 -0.1813
 6569SOL    HW131343   2.871   0.414   5.446 -0.1281  0.4664  1.3282
 6569SOL    HW231344   2.759   0.315   5.434  3.3697 -0.4281 -0.1590
 6570SOL     OW31345   2.833   2.296  10.428  0.0564 -0.1265 -0.2654
 6570SOL    HW131346   2.879   2.257  10.502  0.1383  0.1345 -0.1802
 6570SOL    HW231347   2.741   2.278  10.449  0.3293  0.2993  1.3297
 6571SOL     OW31348   3.929   2.456   0.638  0.0217 -0.2357 -0.0365
 6571SOL    HW131349   3.950   2.508   0.716  1.4558  0.4368 -0.8586
 6571SOL    HW231350   3.971   2.506   0.568 -2.9332 -0.7320 -2.1242
 6572SOL     OW31351   1.320   1.964   3.373  0.0998 -0.1199  0.0544
 6572SOL    HW131352   1.227   1.968   3.399 -0.4338  0.2581 -1.9407
 6572SOL    HW231353   1.361   2.037   3.419 -1.6682 -1.0889  3.1897
 6573SOL     OW31354   1.711   2.847   2.327 -0.0483  0.4242 -0.5408
 6573SOL    HW131355   1.669   2.776   2.278  0.2088  0.0157 -0.1659
 6573SOL    HW231356   1.725   2.912   2.258  0.9630  2.0408  1.1793
 6574SOL     OW31357   4.671   2.054  17.066 -0.5078  0.0086  0.1906
 6574SOL    HW131358   4.664   2.008  16.982  1.3086  0.9149 -0.4771
 6574SOL    HW231359   4.645   2.143  17.040 -0.7391 -0.8351 -2.4322
 6575SOL     OW31360   1.521   0.556  14.957 -0.2958 -0.4278  0.6505
 6575SOL    HW131361   1.441   0.564  15.009 -0.0437  0.5521  0.8901
 6575SOL    HW231362   1.552   0.647  14.960  3.5174 -1.6595 -1.5378
 6576SOL     OW31363   3.706   0.947  10.947  0.8744 -0.1586 -0.3115
 6576SOL    HW131364   3.657   0.866  10.932  1.3348 -0.3716 -0.6627
 6576SOL    HW231365   3.663   1.003  10.883  0.8792  1.7149  1.3174
 6577SOL     OW31366   0.188   2.953   3.274 -0.0086  0.0387  0.0495
 6577SOL    HW131367   0.124   3.019   3.301 -0.9081 -0.8237  0.0002
 6577SOL    HW231368   0.137   2.875   3.292  2.6875 -2.0582 -1.3642
 6578SOL     OW31369   2.320   3.801  11.240  0.8235 -0.1924 -0.0833
 6578SOL    HW131370   2.384   3.742  11.201 -0.7041 -2.8957  1.5240
 6578SOL    HW231371   2.372   3.867  11.287 -0.2453  1.6220 -1.4453
 6579SOL     OW31372   2.700   1.355   7.128 -0.3996  0.1182 -0.1066
 6579SOL    HW131373   2.789   1.328   7.152  0.0263  0.4610 -1.2883
 6579SOL    HW231374   2.715   1.428   7.067  0.6100 -0.0876 -0.1103
 6580SOL     OW31375   2.620   0.836   2.093 -0.0286 -0.0770 -0.1863
 6580SOL    HW131376   2.673   0.783   2.033 -0.7404  0.1728 -1.0343
 6580SOL    HW231377   2.676   0.900   2.136  2.0056 -2.2521  0.4374
 6581SOL     OW31378   0.747   0.109  10.215 -0.1918 -0.5797  0.1286
 6581SOL    HW131379   0.742   0.100  10.310  1.7756 -3.3052 -0.0146
 6581SOL    HW231380   0.836   0.136  10.193 -1.0914  1.0297 -1.5297
 6582SOL     OW31381   3.159   2.815   3.135 -0.1244  0.7466  0.2149
 6582SOL    HW131382   3.096   2.788   3.067  0.5149  0.4402 -0.2554
 6582SOL    HW231383   3.198   2.736   3.172  2.2044  2.0480  0.4920
 6583SOL     OW31384   4.616   1.328   4.642 -0.3346  0.1727 -0.0563
 6583SOL    HW131385   4.537   1.375   4.615 -0.8299 -0.8437 -0.3745
 6583SOL    HW231386   4.660   1.340   4.558 -0.9310  0.6364 -0.3095
 6584SOL     OW31387   0.810   3.248   7.548 -0.2002  0.1180  0.0540
 6584SOL    HW131388   0.898   3.253   7.511 -0.5676  3.6955 -0.3482
 6584SOL    HW231389   0.765   3.204   7.476 -2.2535  0.1004  1.3454
 6585SOL     OW31390   3.241   3.900   3.811 -0.1883 -0.0670  0.1420
 6585SOL    HW131391   3.225   3.979   3.863 -0.8925  0.3120 -0.6526
 6585SOL    HW231392   3.266   3.834   3.876 -1.7734  1.6075  2.4594
 6586SOL     OW31393   3.999   0.615   0.791  0.0017  0.1825  0.1751
 6586SOL    HW131394   4.016   0.611   0.697 -0.3080 -0.5285  0.1517
 6586SOL    HW231395   4.089   0.631   0.819  0.4948  0.2636 -1.4453
 6587SOL     OW31396   0.412   3.080   7.619 -0.0416 -0.3462 -0.0392
 6587SOL    HW131397   0.455   3.158   7.584  0.9909 -1.6626 -1.7197
 6587SOL    HW231398   0.481   3.035   7.667 -0.7284  0.1149  1.3776
 6588SOL     OW31399   4.000   4.441   6.121 -0.1073 -0.3269  0.6241
 6588SOL    HW131400   3.957   4.436   6.036 -0.6851  0.3739  0.8656
 6588SOL    HW231401   3.973   4.530   6.144  2.5056  0.4187  0.7851
 6589SOL     OW31402   2.088   4.167  10.678  0.2559 -0.2796 -0.2901
 6589SOL    HW131403   2.147   4.125  10.615 -0.5249 -1.6136 -0.1431
 6589SOL    HW231404   2.044   4.089  10.712 -1.7835  0.4801 -1.2110
 6590SOL     OW31405   3.923   0.800   4.232  0.6361  0.2177  0.4728
 6590SOL    HW131406   3.853   0.865   4.223  0.2144 -0.0536  1.7666
 6590SOL    HW231407   3.937   0.809   4.326  0.8898  0.6323  0.4001
 6591SOL     OW31408   1.516   0.392   4.110  0.5285 -0.1579 -0.0730
 6591SOL    HW131409   1.423   0.404   4.126  0.4818 -0.0823 -0.4124
 6591SOL    HW231410   1.527   0.429   4.023  1.2972  0.3673  0.2527
 6592SOL     OW31411   0.949   1.130  13.258  0.0944  0.0184 -0.1310
 6592SOL    HW131412   0.868   1.111  13.211 -0.3822 -0.8444  1.0349
 6592SOL    HW231413   1.001   1.130  13.177 -2.0417  0.8584 -1.4756
 6593SOL     OW31414   1.615   0.742   1.675 -0.0375  0.0079  0.1358
 6593SOL    HW131415   1.614   0.670   1.612  1.4502  0.6946 -0.6810
 6593SOL    HW231416   1.537   0.720   1.726 -0.6149  2.0393  0.1128
 6594SOL     OW31417   3.609   0.993   6.462 -0.2405  0.6305  0.3989
 6594SOL    HW131418   3.639   0.921   6.405  0.5271  1.8484 -0.7466
 6594SOL    HW231419   3.520   0.968   6.487  0.4877 -0.0826  2.2929
 6595SOL     OW31420   4.008   1.933   3.201 -0.6259 -0.3633 -0.2893
 6595SOL    HW131421   4.004   1.865   3.134 -0.3385  1.2345 -1.9202
 6595SOL    HW231422   3.924   1.978   3.188  0.7262  2.1555 -0.3344
 6596SOL     OW31423   2.990   2.643   2.327 -0.7018  0.1381  0.4766
 6596SOL    HW131424   2.927   2.605   2.388 -0.2764 -0.6373  0.4327
 6596SOL    HW231425   3.062   2.580   2.325  0.5441  1.5582  0.5566
 6597SOL     OW31426   2.116   0.368   3.918 -0.5022  0.3466  0.0532
 6597SOL    HW131427   2.113   0.274   3.933 -2.7604  0.5689  1.0234
 6597SOL    HW231428   2.168   0.395   3.995 -2.3241  3.7534  0.1122
 6598SOL     OW31429   4.191   3.787   3.136  0.3629  0.0513  0.5061
 6598SOL    HW131430   4.231   3.714   3.182  2.0985  1.1075  0.6570
 6598SOL    HW231431   4.189   3.754   3.046  1.3242  0.9354  0.1554
 6599SOL     OW31432   3.522   2.895   9.207 -0.2755  0.1817  0.4429
 6599SOL    HW131433   3.510   2.941   9.290 -0.3981 -0.3945  0.7497
 6599SOL    HW231434   3.593   2.836   9.233  0.1051  1.0825  1.4172
 6600SOL     OW31435   4.473   0.716  10.854  0.2116 -0.0089  0.5491
 6600SOL    HW131436   4.396   0.773  10.856 -1.0505 -1.5848 -2.3212
 6600SOL    HW231437   4.475   0.693  10.947  0.8111  0.1066  0.5655
 6601SOL     OW31438   3.454   2.137  11.481  0.1476  0.1740  0.0573
 6601SOL    HW131439   3.387   2.151  11.414 -1.2244  0.3494  1.4813
 6601SOL    HW231440   3.475   2.221  11.520  2.0124  0.2398 -1.0488
 6602SOL     OW31441   1.267   3.550   2.386 -0.4557  0.2346 -0.0624
 6602SOL    HW131442   1.182   3.525   2.423 -0.4376  0.9155  0.4471
 6602SOL    HW231443   1.320   3.552   2.466 -0.5938 -0.3692  0.0482
 6603SOL     OW31444   4.000   3.256   7.539  0.3595 -0.3107 -0.4707
 6603SOL    HW131445   4.069   3.267   7.474 -2.0030 -0.0856 -2.9328
 6603SOL    HW231446   3.992   3.346   7.571  0.5847 -0.0781 -1.0676
 6604SOL     OW31447   3.747   0.362   6.262 -0.4021 -0.0536  0.1669
 6604SOL    HW131448   3.824   0.382   6.209 -1.1293  0.0047 -0.8609
 6604SOL    HW231449   3.739   0.267   6.257  0.3700 -0.2381  2.2667
 6605SOL     OW31450   0.243   2.390  13.467  0.1409  0.1532  0.2634
 6605SOL    HW131451   0.331   2.425  13.476  0.1512 -0.3771  2.1573
 6605SOL    HW231452   0.199   2.457  13.520 -0.8969  0.1790 -0.6202
 6606SOL     OW31453   0.598   0.323   4.067  0.0587  0.0559 -0.4542
 6606SOL    HW131454   0.599   0.353   4.158 -0.2508 -0.4283 -0.2928
 6606SOL    HW231455   0.505   0.336   4.051  0.2695 -0.2876 -1.9565
 6607SOL     OW31456   4.733   0.678   0.946 -0.0511  0.2601 -0.2779
 6607SOL    HW131457   4.713   0.770   0.932  0.0349  0.0299 -1.9906
 6607SOL    HW231458   0.010   0.643   0.858  1.0048  1.7465 -0.6846
 6608SOL     OW31459   3.152   1.934   1.205 -0.3947 -0.4466 -0.5033
 6608SOL    HW131460   3.190   2.017   1.235 -1.4971  0.4100 -1.5037
 6608SOL    HW231461   3.227   1.893   1.162  0.4316  0.1960  0.3020
 6609SOL     OW31462   4.511   2.459   6.626 -0.2311  0.4553 -0.3907
 6609SOL    HW131463   4.464   2.413   6.556 -1.3808  0.0280  0.6551
 6609SOL    HW231464   4.528   2.394   6.695  1.2181  0.9333 -0.2977
 6610SOL     OW31465   4.093   1.013   6.464  0.1395  0.2130 -0.7807
 6610SOL    HW131466   4.175   1.056   6.485 -0.1545  0.4752 -0.1761
 6610SOL    HW231467   4.130   0.941   6.413 -3.6404 -1.4179 -1.2587
 6611SOL     OW31468   3.537   4.027   3.631  0.1956  0.0762  0.7110
 6611SOL    HW131469   3.587   4.006   3.710  1.1775 -0.7417 -0.1209
 6611SOL    HW231470   3.581   4.108   3.605 -0.7290  0.0791 -0.7921
 6612SOL     OW31471   4.546   2.440  16.392 -0.0959 -0.6243 -0.3893
 6612SOL    HW131472   4.567   2.361  16.442  0.9308  0.5597  1.0663
 6612SOL    HW231473   4.614   2.496  16.430 -0.4625 -0.1871 -0.3766
 6613SOL     OW31474   3.368   4.219   7.524  0.1083 -0.6111 -0.4976
 6613SOL    HW131475   3.412   4.294   7.563 -2.5517  0.6982  0.0075
 6613SOL    HW231476   3.386   4.153   7.591  0.6523 -1.4871 -1.5034
 6614SOL     OW31477   3.300   4.437  15.878  0.3249  0.3155  0.0675
 6614SOL    HW131478   3.311   4.425  15.784  2.1238  0.2206  0.2858
 6614SOL    HW231479   3.288   4.347  15.908  0.1300  1.0109  2.0587
 6615SOL     OW31480   3.830   2.094  12.125 -0.0537  0.1554 -0.3895
 6615SOL    HW131481   3.860   2.044  12.049  0.5367  0.2514 -0.2221
 6615SOL    HW231482   3.905   2.086  12.184 -1.6506 -3.9837  1.0999
 6616SOL     OW31483   1.324   0.673  16.068  0.6478 -0.5357 -0.2300
 6616SOL    HW131484   1.252   0.700  16.010 -0.3891 -0.7082  0.9882
 6616SOL    HW231485   1.304   0.733  16.140  0.9844 -0.8333  0.1095
 6617SOL     OW31486   2.746   3.758  15.140 -0.2738 -0.1555 -0.2942
 6617SOL    HW131487   2.771   3.690  15.078 -0.6274 -0.3374 -0.2384
 6617SOL    HW231488   2.825   3.771  15.193  0.3059  0.5495 -1.3280
 6618SOL     OW31489   4.493   2.204   2.644 -0.2720 -0.0248  0.0921
 6618SOL    HW131490   4.516   2.112   2.634 -0.9116 -0.3143  1.2964
 6618SOL    HW231491   4.567   2.252   2.607  0.1503  0.5037  1.6074
 6619SOL     OW31492   1.888   3.813   1.933 -0.1088  0.0687 -0.2923
 6619SOL    HW131493   1.880   3.821   2.028 -3.0202 -0.4775 -0.5009
 6619SOL    HW231494   1.857   3.724   1.920 -2.2429  0.7888 -0.0201
 6620SOL     OW31495   0.909   2.051   4.725  0.0824 -0.3085  0.1361
 6620SOL    HW131496   0.823   2.052   4.768  0.7063  1.0753  1.3342
 6620SOL    HW231497   0.969   2.021   4.793 -0.0722  0.5791  0.6655
 6621SOL     OW31498   0.174   3.006   4.647  0.2837 -0.3711  0.2352
 6621SOL    HW131499   0.124   2.981   4.569 -0.2662  1.5751 -0.0245
 6621SOL    HW231500   0.266   2.998   4.624  0.6625 -0.4660  1.8533
 6622SOL     OW31501   2.781   4.101   4.384 -0.5474  0.0023 -0.3328
 6622SOL    HW131502   2.834   4.022   4.397 -0.4770  0.2740  0.9990
 6622SOL    HW231503   2.818   4.158   4.451 -0.0389  0.4561 -1.0034
 6623SOL     OW31504   2.490   0.493   7.536 -0.1485 -0.0660 -0.0119
 6623SOL    HW131505   2.505   0.516   7.445 -0.5904  1.9253  0.4164
 6623SOL    HW231506   2.471   0.579   7.575  1.4058  0.1068  0.3636
 6624SOL     OW31507   0.086   1.904   5.468 -0.1319  0.5029 -0.0546
 6624SOL    HW131508   0.111   1.851   5.392 -0.1838 -1.0873  1.0357
 6624SOL    HW231509   0.002   1.940   5.440 -2.1401 -2.2012  2.4595
 6625SOL     OW31510   3.532   1.436   3.457 -0.1172  0.3055  0.5197
 6625SOL    HW131511   3.461   1.498   3.475 -0.5017 -0.3415  1.2026
 6625SOL    HW231512   3.572   1.442   3.544 -2.1679  0.4592  1.4431
 6626SOL     OW31513   0.037   0.445   2.686 -0.2186  0.0256 -0.1271
 6626SOL    HW131514   0.120   0.473   2.722 -1.3595  2.7759  0.3616
 6626SOL    HW231515   0.045   0.350   2.686 -0.5775 -0.0037  0.5323
 6627SOL     OW31516   2.706   3.794  17.026  0.9328  0.8777  0.4983
 6627SOL    HW131517   2.657   3.833  16.954 -2.6427 -1.6639  1.5475
 6627SOL    HW231518   2.685   3.849  17.101  2.2321  3.3498 -0.9450
 6628SOL     OW31519   2.331   3.746   6.443  0.2576  0.2933 -0.1196
 6628SOL    HW131520   2.353   3.775   6.355 -0.2659 -0.7938 -0.6000
 6628SOL    HW231521   2.266   3.810   6.473 -1.3363  0.1568 -3.3146
 6629SOL     OW31522   4.142   1.709  16.750  0.1551  0.1774  0.4526
 6629SOL    HW131523   4.205   1.668  16.691 -0.1613 -0.9908  0.9167
 6629SOL    HW231524   4.105   1.782  16.700  0.0081 -0.2282 -0.0319
 6630SOL     OW31525   0.149   0.850  10.955 -0.3756  0.0433 -0.3797
 6630SOL    HW131526   0.156   0.944  10.970 -0.7562  0.0211 -0.0536
 6630SOL    HW231527   0.131   0.824  11.046  2.0650 -0.9236 -0.1616
 6631SOL     OW31528   1.668   3.779   8.293 -0.5308  0.3519 -0.2398
 6631SOL    HW131529   1.728   3.838   8.338  0.0658  0.9354 -1.8004
 6631SOL    HW231530   1.639   3.728   8.369  0.7410 -2.4499 -1.6551
 6632SOL     OW31531   2.573   0.516  16.486 -0.5222 -0.1321 -0.5559
 6632SOL    HW131532   2.553   0.423  16.471  3.6758 -1.0321 -0.6007
 6632SOL    HW231533   2.663   0.511  16.455  0.5415  0.8319  2.4675
 6633SOL     OW31534   2.518   0.522   7.266  0.4311 -0.4703 -0.1174
 6633SOL    HW131535   2.524   0.564   7.180  0.4467  1.9564  1.0747
 6633SOL    HW231536   2.469   0.440   7.253  0.0223  0.2395 -3.0710
 6634SOL     OW31537   3.985   4.390   0.657  0.4675 -0.3467  0.1868
 6634SOL    HW131538   3.949   4.314   0.611  2.1634 -0.5936 -0.7358
 6634SOL    HW231539   4.076   4.388   0.626 -0.2139 -2.1941 -1.6796
 6635SOL     OW31540   2.830   4.024   6.313  0.5066 -0.8829  0.1545
 6635SOL    HW131541   2.829   4.086   6.386  0.0348 -0.5086 -0.1709
 6635SOL    HW231542   2.910   3.977   6.335  1.7051  1.1820  0.1298
 6636SOL     OW31543   3.208   0.058   8.972  0.3089  0.1373 -0.8144
 6636SOL    HW131544   3.251   0.137   8.941  1.4749 -0.0634  0.2826
 6636SOL    HW231545   3.268   0.004   8.921  1.8683  1.4177 -0.3170
 6637SOL     OW31546   2.556   2.807   6.989  0.1516 -0.2095 -0.0589
 6637SOL    HW131547   2.485   2.794   7.052  0.4503  0.7053  0.4533
 6637SOL    HW231548   2.503   2.817   6.910 -1.7014 -0.9862  1.0728
 6638SOL     OW31549   1.199   4.206   2.487  0.5138  0.3142 -0.1834
 6638SOL    HW131550   1.174   4.116   2.467 -0.4791  0.2049  1.6118
 6638SOL    HW231551   1.201   4.195   2.582 -0.7469  2.2914  0.0935
 6639SOL     OW31552   0.294   2.528   4.103 -0.1956 -0.4482  0.5102
 6639SOL    HW131553   0.242   2.557   4.028 -0.0064 -1.8676 -0.1546
 6639SOL    HW231554   0.354   2.471   4.055 -1.3036  0.1343 -1.5358
 6640SOL     OW31555   0.576   2.373  13.158 -0.6129 -0.1928 -0.2028
 6640SOL    HW131556   0.547   2.369  13.249 -0.8303  0.1278 -0.2550
 6640SOL    HW231557   0.666   2.404  13.162 -0.9803  1.0600 -1.3018
 6641SOL     OW31558   2.145   1.759   3.044 -0.0801 -0.6858 -0.1023
 6641SOL    HW131559   2.115   1.668   3.038  2.5741 -1.6404  1.2312
 6641SOL    HW231560   2.197   1.761   2.965 -0.5570 -1.0760 -0.4276
 6642SOL     OW31561   1.615   1.821   9.120 -0.8529 -0.0358 -0.2010
 6642SOL    HW131562   1.654   1.735   9.132 -0.6290 -0.2545 -2.4766
 6642SOL    HW231563   1.522   1.805   9.106 -0.7275 -0.8293 -0.1109
 6643SOL     OW31564   3.549   1.021   2.887  0.5357  0.3236 -0.4639
 6643SOL    HW131565   3.511   1.018   2.799 -0.4522 -0.1690 -0.0338
 6643SOL    HW231566   3.641   1.019   2.861  0.0403  2.4344 -2.3933
 6644SOL     OW31567   2.926   1.858   4.358 -0.0567 -0.1945 -0.0464
 6644SOL    HW131568   2.831   1.846   4.361  0.2741 -2.3328  1.9400
 6644SOL    HW231569   2.941   1.853   4.264 -0.5037  1.4076 -0.2071
 6645SOL     OW31570   0.692   3.505   3.018  1.1015 -0.6583 -0.4317
 6645SOL    HW131571   0.658   3.474   2.934  0.0306 -0.8306  0.0599
 6645SOL    HW231572   0.700   3.599   3.003 -0.4837 -0.6036 -0.9377
 6646SOL     OW31573   3.111   3.990   6.819 -0.0461 -0.3670 -0.3199
 6646SOL    HW131574   3.034   3.962   6.868  1.6701 -0.7462  2.1452
 6646SOL    HW231575   3.127   4.078   6.852 -3.3155  0.1336 -0.0686
 6647SOL     OW31576   1.862   3.750   9.849 -0.2580  0.0203  0.1169
 6647SOL    HW131577   1.933   3.807   9.878 -0.6942  1.1030 -0.9687
 6647SOL    HW231578   1.885   3.742   9.756 -2.3513 -0.3347 -0.3516
 6648SOL     OW31579   1.171   0.769   2.150 -0.4099  0.1798 -0.4989
 6648SOL    HW131580   1.233   0.715   2.200  0.7759  1.5885 -0.4599
 6648SOL    HW231581   1.111   0.797   2.219 -1.4876  0.5515 -1.5899
 6649SOL     OW31582   4.173   1.990  15.259 -0.5589  0.0036 -0.2891
 6649SOL    HW131583   4.201   1.913  15.309 -0.2650  0.3273  0.0445
 6649SOL    HW231584   4.173   2.049  15.334 -1.1962  0.8565 -0.9567
 6650SOL     OW31585   0.649   3.657   6.657 -0.0799  0.6993  0.1914
 6650SOL    HW131586   0.655   3.745   6.693  1.4016  1.1647 -1.2185
 6650SOL    HW231587   0.716   3.669   6.590  0.6926  0.9669  1.0124
 6651SOL     OW31588   4.434   0.363  13.362  0.5262  0.0313 -0.3459
 6651SOL    HW131589   4.503   0.425  13.342  2.2587 -1.7834  0.0088
 6651SOL    HW231590   4.461   0.319  13.443  0.1262 -1.7861 -1.1988
 6652SOL     OW31591   2.083   3.035   8.513 -0.3795  0.9088  0.3996
 6652SOL    HW131592   2.010   2.983   8.544  1.3317 -1.4868  0.4255
 6652SOL    HW231593   2.139   2.969   8.471 -0.1859  1.8987 -0.9198
 6653SOL     OW31594   2.192   3.373  15.202 -0.1056  0.7473  0.2285
 6653SOL    HW131595   2.199   3.395  15.109 -0.3022  1.6203  0.4248
 6653SOL    HW231596   2.248   3.295  15.199 -0.2040  0.7257 -1.5046
 6654SOL     OW31597   0.126   1.060   7.387  0.6891  0.4396  0.4011
 6654SOL    HW131598   0.084   1.001   7.324  2.0505  0.2496 -0.3414
 6654SOL    HW231599   0.109   1.019   7.471  0.7867 -2.6864 -1.1139
 6655SOL     OW31600   3.818   2.164   2.839 -0.2830  0.4812  0.0953
 6655SOL    HW131601   3.885   2.122   2.785 -1.3819  0.9153 -1.6062
 6655SOL    HW231602   3.743   2.130   2.790 -0.2363  0.5265 -0.0079
 6656SOL     OW31603   3.081   1.688   6.650  0.2724 -0.1063  0.9188
 6656SOL    HW131604   3.041   1.611   6.610  1.2840 -0.4366  0.5335
 6656SOL    HW231605   3.082   1.654   6.739  3.0518 -0.0192  0.9174
 6657SOL     OW31606   1.521   3.745  15.133 -0.6160 -0.2595 -0.5445
 6657SOL    HW131607   1.546   3.738  15.225  0.6412 -0.0045 -0.8670
 6657SOL    HW231608   1.447   3.685  15.147 -0.9305  0.8695  2.5362
 6658SOL     OW31609   1.140   3.215   1.171 -0.5339 -0.0582 -0.5498
 6658SOL    HW131610   1.191   3.295   1.184 -0.5547 -0.0710 -0.3821
 6658SOL    HW231611   1.097   3.206   1.256 -0.4539  1.6641 -0.3221
 6659SOL     OW31612   2.940   4.627   3.800 -0.2381  0.6477  0.0703
 6659SOL    HW131613   2.846   4.633   3.817 -0.5644 -1.3368 -0.9852
 6659SOL    HW231614   2.949   4.656   3.709  2.4374  0.6922  0.3736
 6660SOL     OW31615   3.250   0.601   8.854 -0.1230 -0.4077 -0.4098
 6660SOL    HW131616   3.343   0.622   8.841 -0.4260  0.8669 -0.5794
 6660SOL    HW231617   3.205   0.684   8.838 -0.9728 -0.1847  3.1720
 6661SOL     OW31618   3.961   2.312   2.514  0.4780  0.8087 -0.0496
 6661SOL    HW131619   3.971   2.217   2.501 -1.6637  0.6510 -0.5800
 6661SOL    HW231620   4.036   2.350   2.469  0.8670 -1.9904 -1.8206
 6662SOL     OW31621   1.200   0.802   7.123 -0.0680  0.4346  0.3233
 6662SOL    HW131622   1.292   0.822   7.141  0.0674  0.0955 -0.0041
 6662SOL    HW231623   1.191   0.843   7.037 -2.6719  0.3184  0.5488
 6663SOL     OW31624   0.174   0.342   6.099  0.4676 -0.1809  0.2865
 6663SOL    HW131625   0.154   0.356   6.006  1.3486  0.5028  0.2108
 6663SOL    HW231626   0.267   0.327   6.111  0.5225 -0.3057 -0.3020
 6664SOL     OW31627   4.329   2.267  13.882 -0.6414 -0.1769 -0.5238
 6664SOL    HW131628   4.262   2.319  13.927 -1.3785 -0.4147 -1.3381
 6664SOL    HW231629   4.378   2.236  13.958  1.2858  0.0277 -1.6684
 6665SOL     OW31630   3.346   3.158   7.660 -0.2193 -0.0020  0.8549
 6665SOL    HW131631   3.263   3.201   7.676 -0.7834 -0.9137  0.3978
 6665SOL    HW231632   3.339   3.166   7.565  4.1480 -3.2062  0.2272
 6666SOL     OW31633   3.596   2.727   0.281 -0.1420 -1.1073 -0.2624
 6666SOL    HW131634   3.557   2.777   0.210  1.3203  0.1491 -0.1746
 6666SOL    HW231635   3.526   2.664   0.300  0.9504 -1.8522  1.2176
 6667SOL     OW31636   1.600   1.430   3.945 -0.0907  0.2611 -0.4759
 6667SOL    HW131637   1.565   1.409   4.032  0.3263 -1.3759 -0.6894
 6667SOL    HW231638   1.597   1.344   3.903  2.9967 -1.1447  2.1755
 6668SOL     OW31639   3.856   4.625   7.059  0.6249 -0.1795  0.5835
 6668SOL    HW131640   3.950   4.617   7.042  0.4805  0.6042 -0.5800
 6668SOL    HW231641   3.857   4.580   7.143  3.1954  3.5405  2.5469
 6669SOL     OW31642   1.001   2.698  13.181  0.2110 -0.1382  0.5643
 6669SOL    HW131643   1.061   2.624  13.175 -0.2656 -0.6857  2.3546
 6669SOL    HW231644   1.058   2.774  13.190  1.2327 -0.8089 -0.2457
 6670SOL     OW31645   2.884   0.469   8.574 -0.3762  0.4357  0.5180
 6670SOL    HW131646   2.816   0.535   8.588  0.1229  0.7101  1.6076
 6670SOL    HW231647   2.898   0.432   8.661 -1.2617  0.7338  0.7858
 6671SOL     OW31648   0.451   3.170   4.141 -0.5799  0.1965  0.1404
 6671SOL    HW131649   0.394   3.229   4.091 -0.9971  0.5596  1.0445
 6671SOL    HW231650   0.399   3.169   4.222 -1.0768  2.1619 -0.1687
 6672SOL     OW31651   4.346   2.931   5.375  0.6721 -0.0072 -0.1512
 6672SOL    HW131652   4.266   2.923   5.322  0.3791 -0.8509  0.4342
 6672SOL    HW231653   4.374   2.842   5.395  0.0854  0.4023  2.5508
 6673SOL     OW31654   0.780   2.785  16.800  0.4641 -1.1186  0.2356
 6673SOL    HW131655   0.700   2.808  16.848  0.5166 -0.1665 -0.1250
 6673SOL    HW231656   0.780   2.689  16.796 -0.3586 -1.0989 -0.4129
 6674SOL     OW31657   4.228   0.547  16.638  0.5265 -0.0215  0.1672
 6674SOL    HW131658   4.256   0.628  16.681 -1.9381  1.5387 -1.1825
 6674SOL    HW231659   4.133   0.561  16.641  0.6521  0.4555  2.1160
 6675SOL     OW31660   1.348   0.091   7.544  0.2586  0.0506 -0.1228
 6675SOL    HW131661   1.375   0.124   7.459  0.8547  1.2641  0.5421
 6675SOL    HW231662   1.410   0.018   7.544 -2.2071 -2.0799  2.4131
 6676SOL     OW31663   3.782   0.815   8.524 -0.2001  0.0843  0.3720
 6676SOL    HW131664   3.822   0.900   8.506 -1.4017  0.6781  0.5546
 6676SOL    HW231665   3.699   0.846   8.560 -0.2630 -2.2075  2.1811
 6677SOL     OW31666   4.225   2.618   7.432  0.5868 -0.1763  0.1012
 6677SOL    HW131667   4.145   2.670   7.444 -0.8423 -2.4627  0.6647
 6677SOL    HW231668   4.243   2.602   7.525  0.5578 -0.2304  0.0975
 6678SOL     OW31669   1.758   3.574   4.695 -0.1837  0.5704  0.1308
 6678SOL    HW131670   1.684   3.547   4.750  0.8221 -1.2806  0.5667
 6678SOL    HW231671   1.797   3.491   4.668  0.3995  1.1996 -0.9603
 6679SOL     OW31672   4.397   0.229  17.728  0.2813  0.0798 -0.3931
 6679SOL    HW131673   4.326   0.166  17.738 -1.1808  1.5812 -1.3172
 6679SOL    HW231674   4.473   0.177  17.704 -0.3077 -0.6501 -0.6715
 6680SOL     OW31675   0.118   0.571   7.013 -0.5745  0.3916 -0.2017
 6680SOL    HW131676   0.136   0.585   7.106 -2.4781  1.0242  0.0766
 6680SOL    HW231677   0.022   0.561   7.012 -0.7632  2.1207  1.1277
 6681SOL     OW31678   2.404   2.731   9.396 -0.0172  0.0376  0.8699
 6681SOL    HW131679   2.316   2.694   9.383  1.6222 -2.5823 -2.8605
 6681SOL    HW231680   2.390   2.826   9.400  2.0988  0.3520  0.8581
 6682SOL     OW31681   0.332   4.128   4.233  0.3976 -0.0855  0.1676
 6682SOL    HW131682   0.361   4.131   4.324 -0.8684 -2.0390  0.6321
 6682SOL    HW231683   0.410   4.119   4.179  1.2540  0.7335  1.2579
 6683SOL     OW31684   1.091   2.589   3.851 -0.2178  0.0771  0.0607
 6683SOL    HW131685   1.121   2.591   3.760 -0.5112  0.2686 -0.0308
 6683SOL    HW231686   1.031   2.663   3.858 -1.5272 -1.1577  2.1634
 6684SOL     OW31687   2.423   2.801  13.366  0.2268  0.0872 -0.3843
 6684SOL    HW131688   2.515   2.807  13.392 -0.1480  0.4162  0.9061
 6684SOL    HW231689   2.392   2.891  13.377  0.9656  0.4833 -1.5622
 6685SOL     OW31690   1.082   1.998   4.392  0.1554  0.7225  0.3649
 6685SOL    HW131691   0.992   1.967   4.387  0.1457  0.6555  0.9869
 6685SOL    HW231692   1.076   2.059   4.466  0.6919  0.1075  0.9104
 6686SOL     OW31693   3.621   1.962   6.039 -0.3285  0.4093  0.2390
 6686SOL    HW131694   3.669   1.880   6.031 -1.7118 -0.5502  1.7513
 6686SOL    HW231695   3.534   1.928   6.018  0.5498 -1.9016  0.3394
 6687SOL     OW31696   2.942   3.742   1.501  0.2930  0.3270 -0.9304
 6687SOL    HW131697   2.935   3.658   1.456 -0.0677  1.4781 -2.9984
 6687SOL    HW231698   2.861   3.787   1.477 -0.2477  0.1186  0.4941
 6688SOL     OW31699   0.781   3.157   2.860 -0.2791 -0.1806  0.2360
 6688SOL    HW131700   0.728   3.156   2.939  0.2111  0.4483  0.5671
 6688SOL    HW231701   0.719   3.217   2.819  0.7515  1.4504  1.1037
 6689SOL     OW31702   1.052   1.122  10.037 -0.7190  0.6262 -0.5598
 6689SOL    HW131703   1.118   1.180  10.075 -0.7971 -0.0458  0.6209
 6689SOL    HW231704   1.062   1.142   9.944 -0.3431 -1.2243 -0.9279
 6690SOL     OW31705   2.833   2.329   2.299 -0.6450 -0.0596 -0.2548
 6690SOL    HW131706   2.787   2.401   2.342 -0.2483  0.4845 -0.7306
 6690SOL    HW231707   2.785   2.330   2.215  1.4024 -1.3766 -1.4269
 6691SOL     OW31708   1.778   3.892   1.128 -0.1919  0.2542 -0.7497
 6691SOL    HW131709   1.736   3.842   1.058 -2.5529 -0.4572  1.1802
 6691SOL    HW231710   1.867   3.870   1.101  0.2054 -0.3282  1.0293
 6692SOL     OW31711   2.106   2.257   2.378  0.1193 -0.2991  0.1679
 6692SOL    HW131712   2.125   2.269   2.285 -0.0724 -0.5295  0.1000
 6692SOL    HW231713   2.012   2.238   2.376 -0.4872  2.6285  1.4572
 6693SOL     OW31714   2.801   2.137   8.391 -0.1499  0.4473 -0.3716
 6693SOL    HW131715   2.763   2.099   8.312 -0.3492 -1.5806  0.6944
 6693SOL    HW231716   2.756   2.089   8.460 -0.9533  1.3771 -0.2478
 6694SOL     OW31717   4.151   2.288   7.847  0.4275 -0.3634 -0.4647
 6694SOL    HW131718   4.094   2.355   7.809  2.1915 -0.0537 -2.5559
 6694SOL    HW231719   4.122   2.289   7.938 -1.2484  1.2323 -1.0316
 6695SOL     OW31720   3.040   4.324   2.131 -0.0747 -0.6427  0.7568
 6695SOL    HW131721   3.082   4.392   2.079 -2.6960  0.2994 -0.1548
 6695SOL    HW231722   3.078   4.342   2.217 -0.3985  1.4982  0.4512
 6696SOL     OW31723   1.558   2.653   6.458  1.3730  0.2796 -0.0126
 6696SOL    HW131724   1.472   2.686   6.435  1.2706 -0.5821 -0.8765
 6696SOL    HW231725   1.608   2.676   6.380  0.2812  0.4016 -0.6686
 6697SOL     OW31726   0.462   2.747   6.819 -0.1403  0.1107  0.4202
 6697SOL    HW131727   0.412   2.823   6.849 -1.0741 -0.0056 -0.8175
 6697SOL    HW231728   0.538   2.762   6.875 -0.8098 -0.4186  1.4778
 6698SOL     OW31729   3.016   1.517   1.115  0.0999  0.3851  0.4309
 6698SOL    HW131730   2.962   1.473   1.050 -0.0653 -0.7060  1.3154
 6698SOL    HW231731   3.094   1.544   1.066  1.0387 -0.2648  1.5823
 6699SOL     OW31732   3.113   0.816   5.283 -0.3415  0.0251 -0.2777
 6699SOL    HW131733   3.198   0.773   5.284  0.1990  1.0467 -2.5044
 6699SOL    HW231734   3.128   0.878   5.354  0.7085  1.5161 -1.8076
 6700SOL     OW31735   3.821   2.751   3.762  0.0337  0.4707  0.3845
 6700SOL    HW131736   3.729   2.724   3.769 -0.6631  2.3970 -1.2428
 6700SOL    HW231737   3.839   2.751   3.668  0.4503 -0.6079  0.4710
 6701SOL     OW31738   3.327   4.319  13.937  0.1374 -0.8659  0.3582
 6701SOL    HW131739   3.299   4.401  13.979  1.7940  0.5898 -1.4062
 6701SOL    HW231740   3.319   4.343  13.845 -2.3264 -0.5696  0.6436
 6702SOL     OW31741   2.284   2.630   7.637 -0.3138  0.5553 -0.1108
 6702SOL    HW131742   2.234   2.553   7.608  0.4393  0.0649 -0.0917
 6702SOL    HW231743   2.336   2.595   7.709  3.3337  0.9843 -2.5283
 6703SOL     OW31744   1.424   2.053   1.088 -0.0881 -0.1416  0.1572
 6703SOL    HW131745   1.427   2.115   1.161  5.6022  0.2284 -0.4117
 6703SOL    HW231746   1.512   2.063   1.053 -0.0173 -3.4881 -0.6094
 6704SOL     OW31747   1.739   3.870   6.853 -0.1757 -0.5055  0.2646
 6704SOL    HW131748   1.811   3.838   6.908  1.2120  1.7436 -0.2597
 6704SOL    HW231749   1.727   3.788   6.805  1.4992 -0.9784  0.6242
 6705SOL     OW31750   1.976   1.543   6.541 -0.1653 -0.1913  0.5605
 6705SOL    HW131751   1.922   1.617   6.513  0.8442  0.6186  0.7136
 6705SOL    HW231752   2.066   1.576   6.543 -0.3947  0.5236 -0.8983
 6706SOL     OW31753   3.681   2.821   1.484  0.3510  0.4815  0.2398
 6706SOL    HW131754   3.674   2.789   1.574  1.2547  0.3335  0.2593
 6706SOL    HW231755   3.586   2.828   1.469  0.5650  1.1116 -0.8177
 6707SOL     OW31756   0.613   3.233   4.346  0.3990  0.1315  0.0309
 6707SOL    HW131757   0.568   3.317   4.354  1.8415  0.8044  1.0245
 6707SOL    HW231758   0.566   3.203   4.269 -0.9132  2.2671 -0.0071
 6708SOL     OW31759   1.664   0.004   6.786 -0.0722  0.2019 -0.1171
 6708SOL    HW131760   1.679   4.709   6.698  0.7287 -3.8587  1.5732
 6708SOL    HW231761   1.688   0.094   6.767 -2.1799  0.6900 -0.3798
 6709SOL     OW31762   3.840   2.477  11.783 -0.0800 -0.0155 -0.4045
 6709SOL    HW131763   3.845   2.522  11.867  1.8220 -1.3632  0.2081
 6709SOL    HW231764   3.762   2.423  11.796 -0.7423  1.0505  0.0484
 6710SOL     OW31765   3.106   0.137   1.172  0.2318  0.1220 -0.5054
 6710SOL    HW131766   3.196   0.168   1.161  0.9694 -1.8431  0.0178
 6710SOL    HW231767   3.089   0.106   1.083  1.5096  0.6874 -0.9545
 6711SOL     OW31768   0.666   3.438   6.316  0.0778  0.3239  0.1491
 6711SOL    HW131769   0.639   3.500   6.247  0.2015  0.9966  0.7006
 6711SOL    HW231770   0.675   3.352   6.275  2.2302 -0.1232  1.5814
 6712SOL     OW31771   1.966   3.362  15.337  0.1109 -0.1804  0.0795
 6712SOL    HW131772   2.039   3.362  15.275 -0.0043  1.0036 -0.0578
 6712SOL    HW231773   1.946   3.269  15.325 -2.7567  0.4138  0.3829
 6713SOL     OW31774   3.301   3.710   4.008  0.1651  0.0305 -0.0955
 6713SOL    HW131775   3.331   3.639   3.951  0.6649 -0.5042  0.8276
 6713SOL    HW231776   3.226   3.664   4.047  1.2485 -1.1762  0.5806
 6714SOL     OW31777   2.302   1.417   8.056  0.6928 -0.6987 -0.1455
 6714SOL    HW131778   2.334   1.397   7.968 -3.6830 -1.3600 -1.6132
 6714SOL    HW231779   2.242   1.344   8.070 -1.3461  0.9723 -0.1608
 6715SOL     OW31780   1.402   2.772   5.458  0.6862 -0.4304  0.3821
 6715SOL    HW131781   1.422   2.842   5.520 -2.3661  0.0591  0.8119
 6715SOL    HW231782   1.313   2.793   5.431  1.5229  1.2953 -1.0058
 6716SOL     OW31783   2.868   0.077   3.311 -0.5421 -0.7386  0.3559
 6716SOL    HW131784   2.854   0.160   3.266  1.3979 -1.4887 -1.5873
 6716SOL    HW231785   2.960   0.084   3.336 -0.6816  0.2168  0.5879
 6717SOL     OW31786   2.425   3.397   7.221  0.2449  0.2293 -0.0393
 6717SOL    HW131787   2.507   3.389   7.173  0.1923  0.7368 -0.2078
 6717SOL    HW231788   2.363   3.353   7.162 -1.2676 -2.3105  3.4311
 6718SOL     OW31789   4.189   2.329   5.063 -0.5019 -0.5413 -0.0389
 6718SOL    HW131790   4.171   2.235   5.068  0.7881 -0.8487 -1.6485
 6718SOL    HW231791   4.282   2.323   5.046 -0.5753  0.8763 -0.9314
 6719SOL     OW31792   1.484   2.697   7.449  0.4138  0.0498 -0.3785
 6719SOL    HW131793   1.529   2.626   7.404  1.3296 -1.1595  2.4944
 6719SOL    HW231794   1.559   2.752   7.471 -1.3703  2.6886 -0.8495
 6720SOL     OW31795   1.391   0.866   7.514 -1.1473  0.9847 -0.0260
 6720SOL    HW131796   1.448   0.834   7.583  0.0533  1.1086 -0.9523
 6720SOL    HW231797   1.343   0.937   7.557 -1.0547  0.5709  0.7594
 6721SOL     OW31798   0.631   4.446  15.976  0.9074 -0.4302  0.2825
 6721SOL    HW131799   0.661   4.502  15.903 -0.4534  1.8262  1.4425
 6721SOL    HW231800   0.598   4.365  15.939  2.6558 -1.3467  0.7335
 6722SOL     OW31801   0.260   2.199  12.884  0.0420  0.1331  0.0496
 6722SOL    HW131802   0.217   2.282  12.865  0.6042  0.2556 -0.6807
 6722SOL    HW231803   0.349   2.228  12.908  0.4727 -0.0223 -1.3447
 6723SOL     OW31804   3.259   1.779   5.517  0.2798  0.4392  0.6668
 6723SOL    HW131805   3.253   1.722   5.441  0.3481  0.1358  0.8913
 6723SOL    HW231806   3.298   1.723   5.584  1.5912  0.8112  0.2190
 6724SOL     OW31807   4.499   1.204  15.641 -0.3280  0.5540 -0.5983
 6724SOL    HW131808   4.428   1.165  15.693  0.2551  1.3348  0.7840
 6724SOL    HW231809   4.463   1.291  15.622 -0.0014  0.8360  0.0820
 6725SOL     OW31810   1.042   1.210  16.131 -0.4104  0.5699  0.1935
 6725SOL    HW131811   0.953   1.216  16.164 -0.3343  1.4680  0.2346
 6725SOL    HW231812   1.070   1.295  16.164 -3.0734  1.5233 -0.0634
 6726SOL     OW31813   3.354   3.370   6.988  0.3186 -0.0525 -0.1341
 6726SOL    HW131814   3.278   3.314   6.977  0.2427 -0.1570  0.9303
 6726SOL    HW231815   3.316   3.449   7.026 -0.4471 -0.8980  0.8401
 6727SOL     OW31816   4.000   3.015   7.959  0.4052  0.0695 -0.1235
 6727SOL    HW131817   3.986   3.108   7.942 -0.0922  0.4158  2.0964
 6727SOL    HW231818   4.051   3.023   8.039  1.5721 -0.3501 -0.8367
 6728SOL     OW31819   0.391   4.685   0.369 -0.0777  0.3771 -0.4229
 6728SOL    HW131820   0.320   0.003   0.338 -1.0521 -0.5349  0.1590
 6728SOL    HW231821   0.443   4.663   0.292  1.7606 -1.7251  1.4174
 6729SOL     OW31822   2.986   2.383   7.722  0.6576 -0.1726  0.3867
 6729SOL    HW131823   2.893   2.378   7.743  0.8227  0.5525  1.3011
 6729SOL    HW231824   2.984   2.409   7.630 -0.9342  1.7848  0.9879
 6730SOL     OW31825   0.352   2.081   0.949 -0.2019 -0.3204 -0.5092
 6730SOL    HW131826   0.356   2.031   1.031 -1.5761 -1.4642 -1.1427
 6730SOL    HW231827   0.259   2.101   0.960  0.5975  2.8282  0.3179
 6731SOL     OW31828   0.018   0.871   6.978  0.1740 -0.1902  0.5404
 6731SOL    HW131829   0.051   0.954   7.013 -1.1876  0.0338  1.3159
 6731SOL    HW231830   0.027   0.820   7.057  0.0630 -0.5100  0.3458
 6732SOL     OW31831   2.021   2.272   3.307  0.5607  0.1183 -0.0775
 6732SOL    HW131832   1.957   2.343   3.299  1.8999  1.0420 -2.4159
 6732SOL    HW231833   2.056   2.301   3.392  0.8958 -1.5237  0.3333
 6733SOL     OW31834   0.226   3.255   3.351 -0.3539  0.6007  0.2571
 6733SOL    HW131835   0.219   3.224   3.441 -0.5794 -0.0127  0.0323
 6733SOL    HW231836   0.313   3.294   3.343  0.2050 -0.8260 -0.6379
 6734SOL     OW31837   4.159   4.372   7.420  0.7071 -0.1273  0.2477
 6734SOL    HW131838   4.180   4.444   7.361  1.1832 -2.1065 -2.0340
 6734SOL    HW231839   4.147   4.419   7.502  0.1390  1.1328 -0.5667
 6735SOL     OW31840   2.883   1.110   5.404  0.2482 -0.5256  0.5182
 6735SOL    HW131841   2.895   1.015   5.412 -0.8085 -0.6758  0.3076
 6735SOL    HW231842   2.830   1.140   5.478 -1.2308  3.1640 -2.0127
 6736SOL     OW31843   1.888   0.461   0.206  0.3824  0.0151 -0.3200
 6736SOL    HW131844   1.877   0.372   0.173  1.0887 -1.3752  3.2735
 6736SOL    HW231845   1.817   0.460   0.271  1.7225 -1.9779  1.0953
 6737SOL     OW31846   0.082   1.618   4.655 -0.0402  0.3921  0.0101
 6737SOL    HW131847   0.119   1.637   4.741 -2.5416  1.0121  0.9561
 6737SOL    HW231848   0.010   1.562   4.685 -2.5709  2.2072 -2.7029
 6738SOL     OW31849   4.424   3.942   6.973 -0.5507  0.6860  0.3288
 6738SOL    HW131850   4.452   3.929   6.883  0.3395 -1.6090  0.9409
 6738SOL    HW231851   4.353   3.877   6.969  0.0695  0.1131 -1.1522
 6739SOL     OW31852   0.999   1.067   8.059 -0.5602 -0.2604  0.3511
 6739SOL    HW131853   0.953   1.051   7.976 -1.6661 -1.9957  1.2849
 6739SOL    HW231854   0.934   1.128   8.094  0.7753  1.6222 -0.5155
 6740SOL     OW31855   2.897   2.991   8.087 -0.2881  0.2095 -0.7310
 6740SOL    HW131856   2.885   3.072   8.135  0.2310 -0.3682  0.3715
 6740SOL    HW231857   2.961   3.023   8.023 -1.2247  0.1144 -1.7053
 6741SOL     OW31858   3.022   2.697   2.917  0.0830 -0.8760 -0.0087
 6741SOL    HW131859   3.092   2.680   2.853 -1.2823  1.5697 -2.1916
 6741SOL    HW231860   2.986   2.783   2.895  0.4702 -0.7568 -0.1780
 6742SOL     OW31861   3.508   0.892   5.674 -0.6463  0.1962  0.5574
 6742SOL    HW131862   3.581   0.891   5.611  0.1253 -1.9226  1.4725
 6742SOL    HW231863   3.496   0.798   5.687 -1.5895  0.2459  0.0226
 6743SOL     OW31864   2.250   1.975   7.159 -0.2714  0.5919 -0.1804
 6743SOL    HW131865   2.335   1.959   7.200 -0.6083  1.0475  0.6746
 6743SOL    HW231866   2.216   2.051   7.205 -3.3455 -0.0915 -1.3375
 6744SOL     OW31867   0.037   4.670   4.081 -0.5701 -0.0432 -0.1590
 6744SOL    HW131868   4.717   4.717   4.140 -1.1026 -3.1828  1.8139
 6744SOL    HW231869   0.001   4.696   3.997 -1.7771 -0.7794  0.1378
 6745SOL     OW31870   4.157   1.507   4.536  0.3667 -0.1883  0.0221
 6745SOL    HW131871   4.070   1.468   4.528 -0.5099  1.4489  1.6839
 6745SOL    HW231872   4.182   1.443   4.603  2.3137  0.5117 -0.0204
 6746SOL     OW31873   4.453   1.436  14.678  0.0202 -0.0812 -0.1495
 6746SOL    HW131874   4.446   1.521  14.636 -0.0493  0.2764  0.5814
 6746SOL    HW231875   4.483   1.374  14.611  2.6003  1.0302 -0.0182
 6747SOL     OW31876   1.953   2.634   8.765  0.0739 -0.8385 -0.3129
 6747SOL    HW131877   1.881   2.620   8.826 -0.1870 -0.3109 -0.5034
 6747SOL    HW231878   1.899   2.604   8.692  0.6709 -1.2231 -0.5954
 6748SOL     OW31879   1.450   4.411   3.301 -0.2728  0.4214 -1.0471
 6748SOL    HW131880   1.414   4.494   3.334 -1.7836  0.1436 -1.9947
 6748SOL    HW231881   1.375   4.356   3.277  0.7796 -1.3747 -0.2233
 6749SOL     OW31882   2.221   4.072   5.240  0.0180 -0.0379  0.1725
 6749SOL    HW131883   2.218   4.009   5.168 -1.0590  0.7672 -0.4890
 6749SOL    HW231884   2.189   4.153   5.199  2.4217  0.9092  0.1513
 6750SOL     OW31885   1.887   2.413   9.302  0.3529  0.3061 -0.0352
 6750SOL    HW131886   1.937   2.360   9.240  0.9433 -2.1151  2.5310
 6750SOL    HW231887   1.941   2.410   9.380  0.4316  0.3047 -0.0892
 6751SOL     OW31888   0.252   2.786   6.268  0.2160  0.3709  0.7286
 6751SOL    HW131889   0.199   2.752   6.340 -2.5184  1.4439 -0.8100
 6751SOL    HW231890   0.296   2.861   6.309  1.6697 -0.1213  0.0876
 6752SOL     OW31891   0.403   2.109   6.013 -0.0233 -0.4480  0.0377
 6752SOL    HW131892   0.421   2.064   6.095 -1.0267 -0.5981  0.1823
 6752SOL    HW231893   0.480   2.166   6.010  0.0483 -0.5863 -0.7590
 6753SOL     OW31894   3.037   2.315   9.527  0.7443 -0.2462 -0.5911
 6753SOL    HW131895   3.023   2.403   9.563  2.4880  0.3813 -1.4100
 6753SOL    HW231896   2.956   2.268   9.541  0.3657  0.3129 -0.8984
 6754SOL     OW31897   2.970   2.821  12.751  0.4258 -0.3373  0.1003
 6754SOL    HW131898   3.008   2.823  12.838 -0.7889  1.1148  0.6091
 6754SOL    HW231899   2.976   2.728  12.729 -2.9288 -0.5002 -0.1473
 6755SOL     OW31900   0.660   1.930   1.014  0.1494 -1.0850 -0.8175
 6755SOL    HW131901   0.693   1.842   1.035 -1.3888 -1.6622 -0.8572
 6755SOL    HW231902   0.701   1.933   0.927  0.2581  1.2656 -0.6676
 6756SOL     OW31903   4.716   3.442   1.765 -0.3276 -0.4597  0.1688
 6756SOL    HW131904   0.062   3.486   1.763 -0.4635 -0.1356  1.1619
 6756SOL    HW231905   4.735   3.350   1.749  0.3317  0.4247 -4.1358
 6757SOL     OW31906   3.087   2.215   3.610 -0.6202  0.4177  0.3881
 6757SOL    HW131907   3.172   2.212   3.654 -0.7846  2.7915  0.8370
 6757SOL    HW231908   3.042   2.151   3.666  0.6293 -1.9673 -1.3252
 6758SOL     OW31909   1.922   2.616   7.360  0.5583 -0.1550  0.0227
 6758SOL    HW131910   1.897   2.707   7.346 -1.2434 -1.0734 -2.7563
 6758SOL    HW231911   1.960   2.597   7.275  1.2587 -1.0278  0.5265
 6759SOL     OW31912   4.620   4.081   7.429  0.1038  0.5826 -0.0374
 6759SOL    HW131913   4.559   4.155   7.421 -0.3961  0.3871  2.0197
 6759SOL    HW231914   4.617   4.047   7.340  0.9231  2.0073 -0.6014
 6760SOL     OW31915   2.478   2.477   4.333  0.4945  0.6728  0.4661
 6760SOL    HW131916   2.557   2.434   4.365  0.8852 -0.4476 -1.9964
 6760SOL    HW231917   2.426   2.493   4.412 -1.6076 -1.8038 -0.4081
 6761SOL     OW31918   0.582   2.712   1.807  0.2198 -0.0989 -0.2291
 6761SOL    HW131919   0.520   2.680   1.873  0.6559  1.6143  1.0255
 6761SOL    HW231920   0.581   2.806   1.826  2.1510 -0.6952  2.8069
 6762SOL     OW31921   0.538   1.030  15.416  0.2682  0.4416  0.6918
 6762SOL    HW131922   0.589   1.063  15.490  0.8994 -3.2979  1.9124
 6762SOL    HW231923   0.448   1.056  15.439  0.6145  2.1527  0.1328
 6763SOL     OW31924   2.885   4.332   5.722  0.0052  0.1818  0.6997
 6763SOL    HW131925   2.951   4.290   5.667 -1.2976 -0.1908 -0.5702
 6763SOL    HW231926   2.813   4.358   5.664 -1.2364 -0.2213  2.0611
 6764SOL     OW31927   4.242   2.371   8.898 -0.4283 -0.1984 -0.4479
 6764SOL    HW131928   4.211   2.459   8.877 -0.3010  0.0832  0.5081
 6764SOL    HW231929   4.316   2.397   8.952 -0.7451  1.6602 -0.9087
 6765SOL     OW31930   1.416   2.102  11.834 -0.0841  0.0069 -0.9663
 6765SOL    HW131931   1.444   2.173  11.777  2.7056 -0.2270  0.1004
 6765SOL    HW231932   1.487   2.091  11.897  0.6854  0.2562 -1.7912
 6766SOL     OW31933   1.503   3.315   8.906 -0.1629  0.1405  0.3488
 6766SOL    HW131934   1.453   3.256   8.962 -0.2122 -0.3260 -0.1849
 6766SOL    HW231935   1.513   3.386   8.969  1.5739  0.3633 -0.1562
 6767SOL     OW31936   0.206   4.700  14.254  0.1999  0.3657 -0.2393
 6767SOL    HW131937   0.224   4.730  14.164  1.8713 -2.4261 -0.8380
 6767SOL    HW231938   0.273   4.634  14.270  0.9573  1.2580  0.2715
 6768SOL     OW31939   1.309   2.405   8.134  0.2746  0.0837  0.0817
 6768SOL    HW131940   1.294   2.373   8.045 -0.8159  0.2057  0.2166
 6768SOL    HW231941   1.231   2.371   8.178 -1.6811  0.5140 -3.0542
 6769SOL     OW31942   2.642   1.997   5.569 -0.1487 -0.1116 -0.4081
 6769SOL    HW131943   2.635   2.015   5.475  0.4890  0.7329 -0.2966
 6769SOL    HW231944   2.729   1.957   5.567 -0.0342  0.1675 -1.3083
 6770SOL     OW31945   4.526   1.377   3.906 -0.2276  0.6598 -0.1786
 6770SOL    HW131946   4.472   1.336   3.974  0.4403 -0.8717 -0.5721
 6770SOL    HW231947   4.597   1.415   3.957  0.4090  0.3259 -0.8226
 6771SOL     OW31948   0.716   4.398   3.785 -0.3909 -0.2156  0.2007
 6771SOL    HW131949   0.799   4.352   3.801 -0.1793 -0.0387 -0.3884
 6771SOL    HW231950   0.666   4.329   3.742 -1.4270  1.3447 -1.0949
 6772SOL     OW31951   4.106   0.141   0.157 -0.3453 -0.2913 -0.1995
 6772SOL    HW131952   4.022   0.186   0.171 -1.9769 -2.4962 -2.8891
 6772SOL    HW231953   4.122   0.115   0.248 -2.0805 -2.0072 -0.3696
 6773SOL     OW31954   0.765   2.348   6.328  0.5556 -0.2720 -0.1968
 6773SOL    HW131955   0.812   2.334   6.410 -0.3752 -0.8406  0.2337
 6773SOL    HW231956   0.719   2.432   6.340  0.6248 -0.3724  0.7666
 6774SOL     OW31957   1.708   2.571   6.222  0.0802  0.0346  0.2288
 6774SOL    HW131958   1.739   2.607   6.139 -2.2521 -1.2770 -1.2216
 6774SOL    HW231959   1.773   2.501   6.223 -2.0386 -1.9459  0.4254
 6775SOL     OW31960   1.982   1.969   0.680  0.6010  0.0865  0.3939
 6775SOL    HW131961   1.925   2.009   0.746  2.2138 -0.1859  1.9684
 6775SOL    HW231962   2.036   2.042   0.652 -2.3545  1.8439 -0.6814
 6776SOL     OW31963   2.136   4.675   5.915 -0.0975 -0.2737 -0.0328
 6776SOL    HW131964   2.224   4.698   5.946 -0.6368  2.2532 -0.4240
 6776SOL    HW231965   2.149   4.583   5.891 -3.1718 -0.7079  0.0239
 6777SOL     OW31966   1.438   3.931   3.926 -0.3794  0.6960 -0.9858
 6777SOL    HW131967   1.470   3.859   3.981  0.4604  0.0232 -2.3575
 6777SOL    HW231968   1.369   3.955   3.988 -2.0740 -3.8194 -1.0604
 6778SOL     OW31969   3.154   1.285   2.399  0.5855 -0.3447  0.0215
 6778SOL    HW131970   3.125   1.232   2.474  2.1967 -2.5618 -0.9170
 6778SOL    HW231971   3.143   1.374   2.432  2.2514  0.4597 -1.6160
 6779SOL     OW31972   3.869   0.802  15.170 -0.2875 -0.6900 -1.0916
 6779SOL    HW131973   3.956   0.825  15.203 -0.5048 -0.0353 -0.9742
 6779SOL    HW231974   3.863   0.706  15.167  0.5376 -0.7709  0.0059
 6780SOL     OW31975   3.692   0.841  13.965 -0.5663  0.4561 -0.7698
 6780SOL    HW131976   3.721   0.779  14.031 -1.0848  2.1617  1.0454
 6780SOL    HW231977   3.683   0.778  13.893  1.6217  0.4178 -1.0108
 6781SOL     OW31978   0.955   4.669   1.474  0.2079 -0.0192  0.4546
 6781SOL    HW131979   1.022   4.737   1.468 -0.2834  0.2444 -1.9229
 6781SOL    HW231980   0.974   4.614   1.399 -0.8813  1.0461 -0.6105
 6782SOL     OW31981   2.009   3.388   6.634 -0.1187 -0.3492  0.1866
 6782SOL    HW131982   1.987   3.297   6.653 -1.1724  0.0474  0.8383
 6782SOL    HW231983   2.103   3.375   6.648  0.1566  0.1403 -1.3060
 6783SOL     OW31984   4.176   2.481  13.978  0.1971  0.2968 -0.1741
 6783SOL    HW131985   4.181   2.555  14.038 -3.0260  0.8686 -0.6310
 6783SOL    HW231986   4.086   2.491  13.947 -0.3968  0.3852  1.5913
 6784SOL     OW31987   3.408   2.886   1.445 -0.1694  0.2281 -0.0883
 6784SOL    HW131988   3.326   2.849   1.479  0.4981  0.6969  1.9716
 6784SOL    HW231989   3.429   2.950   1.512  0.9200 -1.9305  1.6275
 6785SOL     OW31990   0.799   1.326   7.306 -0.2712  0.6986  0.6198
 6785SOL    HW131991   0.725   1.281   7.345  0.0973  0.5175  1.1080
 6785SOL    HW231992   0.834   1.253   7.254 -1.8904  1.9062 -2.1843
 6786SOL     OW31993   3.878   0.277   4.808  0.6750  0.0885 -0.1023
 6786SOL    HW131994   3.967   0.254   4.782  1.5167  0.1785  2.6402
 6786SOL    HW231995   3.828   0.244   4.734  0.5005 -1.2450  0.5943
 6787SOL     OW31996   1.812   0.033   0.571  0.7324  0.6854  0.5152
 6787SOL    HW131997   1.746   0.100   0.587 -0.1162 -1.0533  4.3107
 6787SOL    HW231998   1.820   4.738   0.661  0.2088 -0.1919  0.2279
 6788SOL     OW31999   0.287   2.066   1.231 -0.1469  0.1350 -0.8350
 6788SOL    HW132000   0.362   2.032   1.281 -2.2448 -2.7499  0.3711
 6788SOL    HW232001   0.305   2.157   1.254  2.6622 -0.8832  1.0516
 6789SOL     OW32002   0.917   1.062   0.410 -0.0854 -0.1780 -0.7400
 6789SOL    HW132003   0.961   0.978   0.422 -0.3079  0.2201  3.0433
 6789SOL    HW232004   0.985   1.122   0.380 -0.0828 -0.0218 -0.4229
 6790SOL     OW32005   1.050   2.870  14.644 -0.1976 -0.1559 -0.6604
 6790SOL    HW132006   0.976   2.923  14.673 -0.9951 -0.3417 -2.3256
 6790SOL    HW232007   1.039   2.875  14.549 -2.6366 -0.6777 -0.4095
 6791SOL     OW32008   3.929   2.311   3.833  0.2142  0.2186  0.7747
 6791SOL    HW132009   3.986   2.248   3.877 -0.0356 -1.3958 -1.2349
 6791SOL    HW232010   3.872   2.262   3.773 -0.8909  1.1275  1.0689
 6792SOL     OW32011   1.903   0.861   1.211  0.0083 -0.4428  0.2381
 6792SOL    HW132012   1.992   0.887   1.234  0.2322  0.1747 -1.3224
 6792SOL    HW232013   1.859   0.946   1.205  0.6733 -0.0538  0.8840
 6793SOL     OW32014   0.994   3.871   9.135  0.3645  0.1506  0.2204
 6793SOL    HW132015   0.899   3.869   9.140  0.3020 -1.0138 -1.3537
 6793SOL    HW232016   1.016   3.809   9.205 -0.9158  0.0185  0.4962
 6794SOL     OW32017   2.943   1.067  11.370  0.1311  0.5971  0.5062
 6794SOL    HW132018   2.972   1.090  11.459 -0.7540  1.7580  0.5015
 6794SOL    HW232019   2.901   1.144  11.331 -2.3901 -0.3230  1.3589
 6795SOL     OW32020   0.565   3.588   1.844  0.4015  0.1474  0.5942
 6795SOL    HW132021   0.650   3.545   1.853 -1.1057 -2.9839 -0.2491
 6795SOL    HW232022   0.567   3.652   1.915 -1.2701 -1.2779  1.9242
 6796SOL     OW32023   0.240   1.977   8.226  0.5055 -0.0520  0.0019
 6796SOL    HW132024   0.157   2.022   8.241  0.0610 -0.6092 -0.7504
 6796SOL    HW232025   0.268   2.026   8.148 -1.6739  2.4119  0.7349
 6797SOL     OW32026   4.082   4.145  14.496  0.6456  0.0506 -0.9655
 6797SOL    HW132027   4.112   4.225  14.540 -0.9770  0.4383 -0.5698
 6797SOL    HW232028   4.143   4.135  14.423 -0.8533 -0.8029 -2.0965
 6798SOL     OW32029   0.089   1.503   3.548 -0.2157 -0.0885  0.0465
 6798SOL    HW132030   0.042   1.582   3.523 -2.0720 -1.1760  0.0319
 6798SOL    HW232031   0.056   1.497   3.638  2.9818  0.5896  1.2794
 6799SOL     OW32032   4.152   1.196   3.645  0.0599  0.1805  0.5818
 6799SOL    HW132033   4.148   1.281   3.689  1.0758  0.4613  0.1276
 6799SOL    HW232034   4.212   1.148   3.702  2.2586  0.4997 -1.5040
 6800SOL     OW32035   1.172   2.637   3.585  0.0179 -0.3124  0.8762
 6800SOL    HW132036   1.116   2.637   3.508  0.4262  2.5161  0.5930
 6800SOL    HW232037   1.216   2.720   3.567 -1.2057 -0.0266 -0.7460
 6801SOL     OW32038   1.509   2.310   1.914  0.4323  0.1846  0.0935
 6801SOL    HW132039   1.550   2.346   1.993  0.1441 -0.3898  0.5054
 6801SOL    HW232040   1.580   2.312   1.849 -0.7016 -0.2324 -1.1628
 6802SOL     OW32041   2.483   0.324   4.590  0.2510 -0.3583  0.2726
 6802SOL    HW132042   2.471   0.250   4.650  2.4372 -1.2494 -0.3774
 6802SOL    HW232043   2.573   0.312   4.560  0.8523  1.4889  1.3274
 6803SOL     OW32044   1.245   1.243  15.010  0.4338  0.1141  0.1772
 6803SOL    HW132045   1.310   1.178  14.981 -0.7477 -1.3115  0.7342
 6803SOL    HW232046   1.287   1.323  14.978  0.6336  0.4708  1.3338
 6804SOL     OW32047   0.625   1.244   9.210  0.8704  0.3401  0.5758
 6804SOL    HW132048   0.548   1.203   9.171  1.1498  0.0726  0.3061
 6804SOL    HW232049   0.597   1.240   9.302 -0.1253  1.0383  0.2987
 6805SOL     OW32050   0.177   4.103   1.572 -0.3721  0.2023 -0.2999
 6805SOL    HW132051   0.165   4.130   1.481 -0.0933 -0.3547 -0.5056
 6805SOL    HW232052   0.122   4.169   1.614  1.6405  1.1576  0.8623
 6806SOL     OW32053   0.721   1.025   9.420  0.7346 -0.4723  0.3989
 6806SOL    HW132054   0.637   0.984   9.402  1.6711 -2.6347  1.0061
 6806SOL    HW232055   0.691   1.116   9.421  1.1314 -0.3267 -0.4633
 6807SOL     OW32056   0.903   3.829   3.134  0.4369 -0.4286 -0.3769
 6807SOL    HW132057   0.905   3.898   3.201  0.5439 -0.5869 -0.2191
 6807SOL    HW232058   0.958   3.761   3.173  0.0538  0.3578  1.5581
 6808SOL     OW32059   3.675   4.458  15.846 -0.0300 -0.5114 -0.1639
 6808SOL    HW132060   3.618   4.465  15.769 -1.9816  1.1754  1.4723
 6808SOL    HW232061   3.760   4.442  15.805 -0.6178 -0.6737 -1.3253
 6809SOL     OW32062   1.593   3.231   5.218  0.3686 -0.6214  0.3818
 6809SOL    HW132063   1.631   3.149   5.249  1.6526 -0.2975 -0.3715
 6809SOL    HW232064   1.547   3.207   5.138 -2.4266  1.1392  1.4611
 6810SOL     OW32065   4.659   0.501   7.820  0.4125  0.0370  0.5130
 6810SOL    HW132066   4.711   0.578   7.842 -1.3497  1.5341 -0.5612
 6810SOL    HW232067   4.720   0.427   7.817  1.7729  1.1349  1.5252
 6811SOL     OW32068   0.400   0.959  17.263 -0.8301  0.6468 -0.6805
 6811SOL    HW132069   0.455   0.945  17.186 -1.4186  3.2386 -1.5745
 6811SOL    HW232070   0.411   1.054  17.274  1.5775  0.4948 -1.6644
 6812SOL     OW32071   0.682   2.596   6.353  0.2794 -1.0874 -0.0891
 6812SOL    HW132072   0.715   2.626   6.437 -1.0005  1.5076 -0.4973
 6812SOL    HW232073   0.593   2.629   6.343  1.1007  1.5491  1.2150
 6813SOL     OW32074   4.005   1.373   9.916  0.1330  0.4060  0.7947
 6813SOL    HW132075   4.054   1.379   9.998 -0.6495 -3.0153  1.4972
 6813SOL    HW232076   3.925   1.412   9.951 -0.6003 -0.4527  0.0920
 6814SOL     OW32077   3.319   2.555   2.046  0.0426  0.6227  0.2494
 6814SOL    HW132078   3.260   2.483   2.068  1.8724 -1.0592 -0.3601
 6814SOL    HW232079   3.279   2.630   2.090 -2.2183 -0.2568 -0.3102
 6815SOL     OW32080   4.562   0.245   3.385  0.3152  0.2773 -0.0201
 6815SOL    HW132081   4.538   0.164   3.338  1.1335  1.2353 -2.0981
 6815SOL    HW232082   4.499   0.307   3.349 -2.3339 -3.4040 -1.8322
 6816SOL     OW32083   2.145   0.990   9.067 -0.4622 -0.1426  0.2175
 6816SOL    HW132084   2.128   0.922   9.001 -1.2895  0.1722  0.1010
 6816SOL    HW232085   2.237   0.972   9.082  0.1308  3.1407  0.3982
 6817SOL     OW32086   1.162   0.572   1.953  0.2762 -0.0023 -0.2893
 6817SOL    HW132087   1.152   0.643   2.016  3.0257 -0.6346  0.8565
 6817SOL    HW232088   1.097   0.514   1.992  0.7658  1.2291  2.3732
 6818SOL     OW32089   2.998   3.492  15.353  0.5259  0.4936 -0.2657
 6818SOL    HW132090   2.993   3.577  15.310 -1.6021  0.0790 -0.8640
 6818SOL    HW232091   3.078   3.453  15.318 -0.1210 -0.9465 -0.1530
 6819SOL     OW32092   3.942   1.925  10.465  0.1356  0.0429 -0.1663
 6819SOL    HW132093   3.870   1.863  10.453 -0.3207  0.5741 -0.1544
 6819SOL    HW232094   3.913   1.995  10.407  1.8385 -0.5717 -1.7296
 6820SOL     OW32095   3.052   2.768   8.047 -0.4245  0.3540 -0.3813
 6820SOL    HW132096   3.002   2.844   8.077 -1.3272 -0.9092  1.3353
 6820SOL    HW232097   3.133   2.791   8.093  0.5319 -1.5265 -1.1221
 6821SOL     OW32098   2.986   0.036   8.723 -0.2165  0.3228 -0.3926
 6821SOL    HW132099   3.024   4.694   8.689 -0.3813 -0.6004  1.5957
 6821SOL    HW232100   3.043   0.104   8.687  0.5347  0.4492  1.0077
 6822SOL     OW32101   0.263   1.483   4.519  0.5186 -0.2393 -0.0370
 6822SOL    HW132102   0.321   1.484   4.596 -0.6767 -3.4667  0.9042
 6822SOL    HW232103   0.190   1.537   4.550  0.0296 -0.3385 -1.0213
 6823SOL     OW32104   0.634   0.453  15.328 -0.5329 -0.2694 -0.3168
 6823SOL    HW132105   0.644   0.391  15.400  0.3111  1.2359  0.8621
 6823SOL    HW232106   0.704   0.424  15.268 -0.8925  0.1642 -0.9425
 6824SOL     OW32107   1.187   2.563   2.046 -0.1736 -0.1594 -0.2748
 6824SOL    HW132108   1.180   2.491   2.109  0.4718  0.0742  0.0641
 6824SOL    HW232109   1.157   2.519   1.966 -1.7250 -0.1423  0.2898
 6825SOL     OW32110   3.283   2.571   8.849 -0.5448  0.0924 -0.1065
 6825SOL    HW132111   3.272   2.664   8.867 -0.7849 -0.5968  3.4446
 6825SOL    HW232112   3.377   2.566   8.864 -0.7331 -0.4853  0.9072
 6826SOL     OW32113   1.131   4.211   7.948  0.3774 -0.0476  0.6796
 6826SOL    HW132114   1.097   4.201   8.037 -0.4244  3.0188  0.7142
 6826SOL    HW232115   1.080   4.139   7.911 -1.2186  1.7631 -0.6139
 6827SOL     OW32116   2.630   2.568   8.297 -0.3583 -0.1920  0.1569
 6827SOL    HW132117   2.714   2.553   8.341 -0.2614 -1.6096 -0.4997
 6827SOL    HW232118   2.636   2.660   8.273  0.4154  0.0118  1.0850
 6828SOL     OW32119   3.587   1.357   5.498  0.8141 -0.2865  0.1868
 6828SOL    HW132120   3.583   1.353   5.594 -1.4750 -1.1605  0.0514
 6828SOL    HW232121   3.640   1.436   5.485  1.5960 -0.5629  1.7165
 6829SOL     OW32122   4.210   0.435   0.937  0.3366 -0.0710  0.5896
 6829SOL    HW132123   4.284   0.457   0.881  0.0564 -1.0715 -0.1598
 6829SOL    HW232124   4.164   0.363   0.894 -1.4873  0.2477  2.0466
 6830SOL     OW32125   3.037   4.686   2.452 -0.1449 -0.6769  0.9341
 6830SOL    HW132126   2.944   4.703   2.466 -0.5693 -1.9713 -0.2443
 6830SOL    HW232127   3.077   4.673   2.538 -1.3329 -0.8885  1.4525
 6831SOL     OW32128   4.679   3.828  11.037  0.0078  0.4491 -0.2572
 6831SOL    HW132129   4.724   3.834  10.953  0.6619  0.3565  0.0841
 6831SOL    HW232130   0.017   3.842  11.093  0.9941 -0.2413 -1.4206
 6832SOL     OW32131   1.108   3.265  10.727 -0.3918 -0.2822  0.0203
 6832SOL    HW132132   1.101   3.361  10.723 -0.4187 -0.3027 -0.4398
 6832SOL    HW232133   1.143   3.254  10.815  0.7943  2.2973 -0.1336
 6833SOL     OW32134   3.566   1.563   2.209 -0.4720 -0.5366 -0.5415
 6833SOL    HW132135   3.471   1.552   2.199 -0.3304 -0.8525 -1.5199
 6833SOL    HW232136   3.582   1.640   2.155 -0.1696 -1.3590 -1.6211
 6834SOL     OW32137   3.119   0.960   1.138  0.3125  0.1106  0.0348
 6834SOL    HW132138   3.178   0.916   1.077 -0.7799  0.0135 -0.9350
 6834SOL    HW232139   3.091   0.881   1.185 -0.0662  1.6811  2.4417
 6835SOL     OW32140   2.059   0.400   6.926  0.3193 -0.1720  0.1617
 6835SOL    HW132141   2.063   0.487   6.967  1.7539 -0.2329  0.1166
 6835SOL    HW232142   1.968   0.402   6.894 -0.3525  0.1338  2.0642
 6836SOL     OW32143   3.938   1.706   6.801 -0.1608 -0.4366  0.3257
 6836SOL    HW132144   4.023   1.722   6.841 -0.6029 -2.3405  2.0078
 6836SOL    HW232145   3.958   1.617   6.771  0.8559  0.3426 -1.2606
 6837SOL     OW32146   4.116   3.630   8.899 -0.1328  0.0607 -0.3406
 6837SOL    HW132147   4.125   3.542   8.935  0.5897  0.8400  1.3699
 6837SOL    HW232148   4.183   3.686   8.938 -1.3004  0.7069  0.7203
 6838SOL     OW32149   1.686   2.030  17.297 -0.6992 -0.7384 -0.0615
 6838SOL    HW132150   1.676   1.936  17.282 -1.4142 -0.8161  0.9322
 6838SOL    HW232151   1.602   2.047  17.338  0.6314  1.2090  1.8916
 6839SOL     OW32152   2.341   2.940   3.693 -0.5762 -0.3308  0.0513
 6839SOL    HW132153   2.390   2.916   3.615 -1.7267 -0.7095 -0.5439
 6839SOL    HW232154   2.396   2.904   3.763  0.6201  2.1539  0.4014
 6840SOL     OW32155   0.598   4.657   5.717 -0.0417 -0.5521  1.2897
 6840SOL    HW132156   0.687   4.692   5.721  0.9436 -3.1182  2.0554
 6840SOL    HW232157   0.582   4.627   5.806 -1.3325  0.5456  1.4224
 6841SOL     OW32158   3.431   0.379   2.383 -0.6171  0.2218  0.0490
 6841SOL    HW132159   3.427   0.309   2.448  2.4172 -1.2510 -1.3959
 6841SOL    HW232160   3.340   0.397   2.358 -1.4021  0.5210  3.0849
 6842SOL     OW32161   0.310   4.414   5.803  0.7934  0.1306  0.0180
 6842SOL    HW132162   0.298   4.330   5.757  0.4894  0.2914 -0.2020
 6842SOL    HW232163   0.405   4.414   5.812  0.8943 -0.5606 -0.9755
 6843SOL     OW32164   3.972   1.077   8.559  0.1224 -0.2778  0.1925
 6843SOL    HW132165   3.907   1.146   8.574 -1.1899 -1.8654  1.7947
 6843SOL    HW232166   4.052   1.128   8.572  0.2575 -0.6659  0.8471
 6844SOL     OW32167   4.312   3.376   5.155  0.2359  0.1717 -0.2309
 6844SOL    HW132168   4.356   3.365   5.070  1.4184 -0.6299  0.4722
 6844SOL    HW232169   4.370   3.321   5.208 -0.3116  0.2228  0.4111
 6845SOL     OW32170   2.176   3.164   1.047  0.6162 -0.3246 -0.1179
 6845SOL    HW132171   2.224   3.098   1.098  1.6406 -0.0479 -0.7159
 6845SOL    HW232172   2.212   3.240   1.092 -0.9073 -0.1324  0.7635
 6846SOL     OW32173   3.030   1.201   1.032 -0.1052 -0.0477 -0.2159
 6846SOL    HW132174   3.116   1.241   1.024 -1.2959  2.3918 -0.5994
 6846SOL    HW232175   3.067   1.119   1.066  1.7598  0.0315 -2.0263
 6847SOL     OW32176   2.104   1.295   2.955  0.1148 -0.0989  0.1443
 6847SOL    HW132177   2.126   1.258   3.040 -0.3923 -0.9826 -0.1060
 6847SOL    HW232178   2.013   1.267   2.940  0.1177 -0.6814  1.2160
 6848SOL     OW32179   3.689   1.186  10.139  0.3498  0.2003  0.0440
 6848SOL    HW132180   3.780   1.157  10.152  0.3745  0.0170 -0.5338
 6848SOL    HW232181   3.638   1.106  10.126  2.1028 -1.1072  1.1321
 6849SOL     OW32182   3.945   4.196   4.694 -0.0831  0.3049  0.1231
 6849SOL    HW132183   4.010   4.230   4.756  0.2900 -0.7769  0.3266
 6849SOL    HW232184   3.872   4.171   4.752  1.2593 -0.6648  1.3905
 6850SOL     OW32185   1.703   0.299   8.469  0.2669 -0.6241 -0.0841
 6850SOL    HW132186   1.743   0.259   8.546  1.4745  1.5850  0.4503
 6850SOL    HW232187   1.644   0.355   8.519  0.8170 -0.9672  0.9470
 6851SOL     OW32188   4.173   4.226   8.581 -0.1177  0.1637 -0.1325
 6851SOL    HW132189   4.231   4.218   8.506  0.6256 -0.9096  0.5541
 6851SOL    HW232190   4.236   4.268   8.639  0.7921 -2.8637  1.0821
 6852SOL     OW32191   1.115   1.034   4.146 -0.2819  0.2362  0.6525
 6852SOL    HW132192   1.140   1.121   4.113  0.1305  0.1485  0.7269
 6852SOL    HW232193   1.050   1.062   4.209 -3.3819 -2.0113 -1.5522
 6853SOL     OW32194   4.736   1.822   6.169  0.5282  0.6233 -0.5237
 6853SOL    HW132195   4.723   1.777   6.252 -0.2312  1.1116 -0.3778
 6853SOL    HW232196   0.013   1.754   6.104  2.7258  0.4307  0.2028
 6854SOL     OW32197   1.835   0.418   8.814 -0.2976 -0.7326 -0.1824
 6854SOL    HW132198   1.770   0.349   8.826  0.8766 -2.2492 -2.6143
 6854SOL    HW232199   1.886   0.381   8.743 -1.4271  1.5488 -2.1911
 6855SOL     OW32200   1.374   1.366   9.247  0.8704 -0.7831  0.1827
 6855SOL    HW132201   1.289   1.325   9.234 -0.7561  2.6251 -0.0820
 6855SOL    HW232202   1.431   1.294   9.273  4.1706  0.6161 -3.0110
 6856SOL     OW32203   1.026   3.344   5.613 -0.4756  0.5832 -0.5425
 6856SOL    HW132204   0.940   3.322   5.578  0.4057 -3.2034 -0.2905
 6856SOL    HW232205   1.074   3.267   5.582  1.0058  0.4357  2.1174
 6857SOL     OW32206   3.123   3.838   3.581  0.2144  0.2037 -0.3185
 6857SOL    HW132207   3.175   3.893   3.640 -1.8728  1.4542  0.3309
 6857SOL    HW232208   3.074   3.793   3.650 -0.0754  1.5228  0.3268
 6858SOL     OW32209   0.016   1.311  12.834 -0.1402  0.1434  0.4722
 6858SOL    HW132210   4.697   1.312  12.758  0.3973  0.0076  0.0631
 6858SOL    HW232211   4.700   1.267  12.898 -1.2558 -1.0752 -1.3352
 6859SOL     OW32212   0.744   2.143   4.309 -0.3649 -0.1912  0.3133
 6859SOL    HW132213   0.697   2.115   4.230 -3.4750 -1.0936  2.4681
 6859SOL    HW232214   0.673   2.191   4.351  1.3372  0.6928  2.1924
 6860SOL     OW32215   2.412   0.774   5.354  0.1594 -0.5101 -0.0335
 6860SOL    HW132216   2.375   0.842   5.297  0.6007  0.9826  1.4274
 6860SOL    HW232217   2.472   0.731   5.293  0.6122  2.5861 -1.8049
 6861SOL     OW32218   0.241   2.924   1.983 -0.4106 -0.5101 -0.4351
 6861SOL    HW132219   0.180   2.996   1.966 -0.2283 -0.9664 -3.0685
 6861SOL    HW232220   0.312   2.972   2.025 -1.2891 -0.0326  0.5016
 6862SOL     OW32221   2.133   1.956   2.571  0.4889  0.1908 -0.1393
 6862SOL    HW132222   2.109   1.937   2.662  0.0526 -0.6938 -0.4343
 6862SOL    HW232223   2.207   2.016   2.578 -0.8219  2.1728 -3.0848
 6863SOL     OW32224   2.729   2.293   9.561 -0.3005  0.2540  0.3573
 6863SOL    HW132225   2.680   2.373   9.541 -0.9394 -0.7153 -1.9849
 6863SOL    HW232226   2.704   2.235   9.490  0.3487  0.5984 -0.1557
 6864SOL     OW32227   2.810   3.285   2.497 -0.4507 -0.0274  0.5328
 6864SOL    HW132228   2.720   3.297   2.528 -0.9310  0.8240 -1.2471
 6864SOL    HW232229   2.807   3.340   2.420 -0.5549  0.5145  0.9240
 6865SOL     OW32230   3.107   4.719  10.446  0.3681 -0.0578 -0.1690
 6865SOL    HW132231   3.026   4.692  10.402  0.1208 -1.3841  1.1102
 6865SOL    HW232232   3.102   0.076  10.437 -0.5977 -0.1803 -0.9681
 6866SOL     OW32233   0.504   0.978   3.040 -0.5053 -0.2964 -0.0125
 6866SOL    HW132234   0.577   1.038   3.023 -1.1145  0.5315  0.2855
 6866SOL    HW232235   0.532   0.895   3.002 -0.1725  0.0911 -0.6160
 6867SOL     OW32236   3.814   1.603   4.924 -0.9832 -0.2682 -0.1808
 6867SOL    HW132237   3.721   1.589   4.903 -1.1289  0.2929  0.0757
 6867SOL    HW232238   3.826   1.561   5.009 -0.7373  1.6645  0.7462
 6868SOL     OW32239   1.550   0.867   5.271 -0.2986  0.0287  0.1445
 6868SOL    HW132240   1.608   0.918   5.327  1.7760  0.5822 -2.4534
 6868SOL    HW232241   1.579   0.778   5.292  0.5406 -0.1406 -1.7221
 6869SOL     OW32242   4.494   0.648   6.163 -0.4157 -0.7508 -0.0254
 6869SOL    HW132243   4.524   0.557   6.171 -0.5446 -0.9008 -1.2630
 6869SOL    HW232244   4.551   0.692   6.226  0.0937  0.5698 -1.4148
 6870SOL     OW32245   2.977   1.130   6.223  0.1119  0.0990 -0.2886
 6870SOL    HW132246   2.946   1.143   6.134  1.6163 -0.9447 -0.9583
 6870SOL    HW232247   2.915   1.061   6.247 -1.1072  1.1556 -0.3873
 6871SOL     OW32248   3.722   3.900   3.797  0.1699 -0.0179  0.2296
 6871SOL    HW132249   3.723   3.852   3.714  2.2465 -0.1137  0.2887
 6871SOL    HW232250   3.684   3.834   3.855  2.1626 -0.8658  0.5736
 6872SOL     OW32251   1.458   1.033   7.128  0.2471 -0.1212  0.3152
 6872SOL    HW132252   1.512   1.048   7.206 -0.0968  1.1938  0.3055
 6872SOL    HW232253   1.469   0.940   7.109 -0.5158 -0.0610 -0.4253
 6873SOL     OW32254   3.161   0.124   7.697  0.2029  0.1851 -0.1620
 6873SOL    HW132255   3.131   0.128   7.606 -0.9325  0.8254  0.2567
 6873SOL    HW232256   3.215   0.045   7.708 -1.2284 -0.4285  2.4515
 6874SOL     OW32257   3.445   3.287   0.178 -0.4517  0.6025 -0.0075
 6874SOL    HW132258   3.435   3.227   0.253  0.2185  1.1996  0.5639
 6874SOL    HW232259   3.480   3.366   0.218  0.5601 -0.6198  1.5303
 6875SOL     OW32260   0.362   3.027  16.679  0.1712 -0.6412 -0.4080
 6875SOL    HW132261   0.412   3.103  16.710  1.6153 -1.0626 -1.7198
 6875SOL    HW232262   0.430   2.960  16.675  0.8622  0.0363 -0.1669
 6876SOL     OW32263   3.323   0.833   5.042 -0.5039  0.2125 -0.0740
 6876SOL    HW132264   3.237   0.812   5.007  0.2094 -2.7407 -0.0542
 6876SOL    HW232265   3.339   0.765   5.107  0.5684 -0.3723 -0.9429
 6877SOL     OW32266   1.737   0.072   5.541  0.1272  0.0095  0.6500
 6877SOL    HW132267   1.734   0.002   5.606  1.5737 -0.3171  0.3744
 6877SOL    HW232268   1.719   0.145   5.600 -1.0084  1.1516 -1.0755
 6878SOL     OW32269   3.592   1.703   5.758 -0.1606  0.0945  0.5250
 6878SOL    HW132270   3.651   1.629   5.769 -0.7813 -0.2290  1.6257
 6878SOL    HW232271   3.645   1.781   5.740 -1.1917 -0.6054 -5.6927
 6879SOL     OW32272   1.817   0.379   1.099  0.7736 -0.4397 -0.0398
 6879SOL    HW132273   1.741   0.374   1.041  0.7719 -0.5936 -0.0261
 6879SOL    HW232274   1.821   0.473   1.114 -0.8281 -0.6307  1.5841
 6880SOL     OW32275   0.757   4.603   8.925  0.3069  0.1517 -0.1882
 6880SOL    HW132276   0.700   4.635   8.995  0.9812  0.7703  0.0849
 6880SOL    HW232277   0.713   4.521   8.907 -0.0407  0.0154  1.2651
 6881SOL     OW32278   3.812   0.081  14.964  0.0530 -0.1014  0.3571
 6881SOL    HW132279   3.742   0.095  15.028 -0.3736  0.4501 -0.2396
 6881SOL    HW232280   3.761   0.027  14.905  0.6230 -0.3570  0.0951
 6882SOL     OW32281   0.539   3.239   2.325  0.1024 -0.2627  0.1134
 6882SOL    HW132282   0.546   3.309   2.390 -1.9173 -1.0628  1.2044
 6882SOL    HW232283   0.617   3.245   2.269  1.4967  1.1699  2.2102
 6883SOL     OW32284   0.084   4.710   9.070  0.4745  0.0288 -0.0405
 6883SOL    HW132285   0.084   4.737   8.979  0.0875  2.0742  0.5715
 6883SOL    HW232286   0.177   4.689   9.079  0.1371 -0.9550  1.2263
 6884SOL     OW32287   2.723   1.519   3.466  0.7754  0.4247 -0.4269
 6884SOL    HW132288   2.771   1.575   3.405  0.1130  0.3791 -0.9998
 6884SOL    HW232289   2.656   1.581   3.495  0.0840 -1.3297  1.7330
 6885SOL     OW32290   0.129   4.323   2.002  0.2483 -0.1511 -0.0914
 6885SOL    HW132291   0.195   4.385   2.031  0.8931 -1.7214  1.7485
 6885SOL    HW232292   0.050   4.369   2.032  1.3178  1.1099  0.7845
 6886SOL     OW32293   2.934   2.355  12.559 -0.1303 -0.2723 -0.0492
 6886SOL    HW132294   2.903   2.303  12.484 -0.3036 -0.5037  0.1833
 6886SOL    HW232295   2.861   2.342  12.620 -1.0097  0.9348 -0.8285
 6887SOL     OW32296   3.191   4.006   2.223  0.7753 -0.1481  0.6433
 6887SOL    HW132297   3.223   4.063   2.292  0.6406 -0.6477  1.1258
 6887SOL    HW232298   3.220   4.049   2.143  0.3209 -2.2141 -0.6320
 6888SOL     OW32299   4.555   4.591   1.745  0.0757  0.2323  0.0337
 6888SOL    HW132300   4.616   4.662   1.761  0.2298  0.4997 -1.7014
 6888SOL    HW232301   4.549   4.555   1.833  1.9206  1.0404  0.4727
 6889SOL     OW32302   0.088   1.251  16.875 -0.4072 -0.3841 -0.3893
 6889SOL    HW132303   0.112   1.320  16.812 -1.2268 -2.7344 -3.2698
 6889SOL    HW232304   0.137   1.279  16.953  2.6343 -2.8073 -1.3941
 6890SOL     OW32305   2.534   0.227  12.817  0.1089  0.1791  0.1974
 6890SOL    HW132306   2.550   0.225  12.911  1.3073 -3.7117 -0.0722
 6890SOL    HW232307   2.450   0.180  12.814  0.9756 -1.2928 -0.9331
 6891SOL     OW32308   3.086   2.120   6.450  0.0240 -0.3990  0.3169
 6891SOL    HW132309   3.133   2.070   6.518  0.4148 -3.7279 -2.3970
 6891SOL    HW232310   3.147   2.185   6.416 -1.9427  1.0950 -0.3057
 6892SOL     OW32311   2.271   1.692   8.536 -0.0374  0.1006  0.0628
 6892SOL    HW132312   2.225   1.758   8.485  1.6687  0.2366 -1.2961
 6892SOL    HW232313   2.300   1.635   8.464  2.1736 -1.0137  1.8372
 6893SOL     OW32314   4.316   3.974   7.416  0.2482  0.7335  0.1486
 6893SOL    HW132315   4.313   4.068   7.398  1.4680  0.9530  1.0545
 6893SOL    HW232316   4.225   3.957   7.392 -0.3203  2.1611  1.2819
 6894SOL     OW32317   2.255   0.899   5.046 -0.0023  0.4219  0.0783
 6894SOL    HW132318   2.342   0.858   5.050 -0.0759  0.0888 -1.5786
 6894SOL    HW232319   2.287   0.979   5.005 -1.3678  1.5662  1.2532
 6895SOL     OW32320   3.390   3.675   8.759 -0.0970  0.8437 -0.6180
 6895SOL    HW132321   3.376   3.583   8.780  0.1758  0.1269 -3.6189
 6895SOL    HW232322   3.333   3.718   8.823  0.4532  1.4791 -0.5494
 6896SOL     OW32323   3.045   2.972   3.821  0.0332  0.7341 -0.0458
 6896SOL    HW132324   3.054   3.067   3.826 -3.7717  1.1458 -1.2818
 6896SOL    HW232325   3.052   2.951   3.727 -3.3410 -0.2742 -0.0803
 6897SOL     OW32326   2.789   2.458   8.701 -0.0264  0.1049 -0.1348
 6897SOL    HW132327   2.823   2.489   8.617 -0.1948 -0.4463 -0.4061
 6897SOL    HW232328   2.863   2.405   8.730  0.2819  0.7111  0.1845
 6898SOL     OW32329   2.435   3.545   1.303 -0.2147 -0.1070 -0.2201
 6898SOL    HW132330   2.453   3.634   1.333 -1.5435  0.4365 -1.0676
 6898SOL    HW232331   2.430   3.500   1.387 -1.0748  0.0098 -0.2062
 6899SOL     OW32332   0.714   1.386   7.964  0.0610 -0.4011 -0.0197
 6899SOL    HW132333   0.625   1.381   7.999 -0.2674 -0.6434 -0.8892
 6899SOL    HW232334   0.693   1.343   7.882 -1.8749  1.5351 -0.5681
 6900SOL     OW32335   4.737   1.948  14.868  0.6422 -0.5384 -0.3164
 6900SOL    HW132336   4.669   1.950  14.801 -0.9113  1.3159  1.3491
 6900SOL    HW232337   4.693   1.903  14.939 -0.8374 -1.5346 -1.8608
 6901SOL     OW32338   4.316   3.414  14.326  0.1868 -0.0304  0.7115
 6901SOL    HW132339   4.355   3.397  14.240 -0.8391  0.8618  0.0715
 6901SOL    HW232340   4.227   3.446  14.310  0.1221 -1.6819 -2.2204
 6902SOL     OW32341   1.182   4.510   3.914 -0.2419  0.3617  0.1909
 6902SOL    HW132342   1.167   4.527   4.007 -1.8991 -0.4453  0.0831
 6902SOL    HW232343   1.240   4.434   3.919 -0.0880  0.5037  0.5524
 6903SOL     OW32344   2.835   2.706   7.324 -0.1550 -0.0882  0.3818
 6903SOL    HW132345   2.832   2.716   7.228  0.8651  1.2019  0.4863
 6903SOL    HW232346   2.806   2.617   7.342  0.5393 -0.3957 -0.0506
 6904SOL     OW32347   2.548   1.750  17.593  0.6985 -0.5342 -0.5348
 6904SOL    HW132348   2.588   1.833  17.621  0.0553 -0.6858  0.8238
 6904SOL    HW232349   2.522   1.720  17.680 -0.3190 -1.8888 -1.3090
 6905SOL     OW32350   3.459   1.314   2.376 -0.2977 -0.0369  0.2369
 6905SOL    HW132351   3.479   1.396   2.329 -2.0128 -0.2639 -0.8948
 6905SOL    HW232352   3.364   1.302   2.380 -0.2592 -1.4201 -3.2935
 6906SOL     OW32353   0.807   0.544   6.192 -0.1171 -0.0513 -0.7724
 6906SOL    HW132354   0.767   0.485   6.255  0.8614 -0.8802 -0.9427
 6906SOL    HW232355   0.804   0.627   6.241  3.4498 -1.8300  2.3640
 6907SOL     OW32356   2.882   2.119   4.418 -0.1052 -0.5143  0.0716
 6907SOL    HW132357   2.965   2.159   4.444 -0.2374 -0.2873  0.1408
 6907SOL    HW232358   2.915   2.029   4.422 -2.0070 -0.9574  4.5474
 6908SOL     OW32359   3.055   0.377   3.915 -0.4097 -0.4190  0.0728
 6908SOL    HW132360   3.071   0.287   3.944  0.8901 -0.0662  0.4575
 6908SOL    HW232361   2.987   0.359   3.849 -1.0554 -0.2126  0.6885
 6909SOL     OW32362   1.179   0.007   7.191  0.1455  0.3445 -0.0946
 6909SOL    HW132363   1.191   4.653   7.169 -1.4697  0.7529 -2.6551
 6909SOL    HW232364   1.271   0.027   7.207  0.5203 -1.0353 -0.5231
 6910SOL     OW32365   3.055   2.952   0.059 -1.0047 -0.4664 -0.2817
 6910SOL    HW132366   3.076   2.974   0.150  0.7425  0.5731 -0.9241
 6910SOL    HW232367   3.121   2.994   0.003 -0.1031 -1.0562  0.3470
 6911SOL     OW32368   1.582   2.293   2.387 -0.5326  0.1688 -0.0688
 6911SOL    HW132369   1.585   2.307   2.292  0.0253 -3.3455 -0.5366
 6911SOL    HW232370   1.524   2.362   2.420  1.5209  1.7059  0.3063
 6912SOL     OW32371   2.890   1.373   1.376  0.1553  0.4582  0.4638
 6912SOL    HW132372   2.839   1.298   1.344  0.1796  0.2704  0.8616
 6912SOL    HW232373   2.848   1.384   1.462  0.8725  3.4281  0.4190
 6913SOL     OW32374   3.515   1.769   7.798 -0.2214 -0.3034  0.1894
 6913SOL    HW132375   3.485   1.694   7.746  2.4203 -2.1029  1.2550
 6913SOL    HW232376   3.515   1.842   7.737  1.8227  0.6817  1.3867
 6914SOL     OW32377   3.212   4.112   2.868  0.3594  0.3414 -0.1336
 6914SOL    HW132378   3.219   4.157   2.952 -1.0073 -2.8931  1.6938
 6914SOL    HW232379   3.255   4.179   2.814 -2.1032  1.4886 -0.6689
 6915SOL     OW32380   3.416   0.893   7.725  0.5645  0.0754 -0.2763
 6915SOL    HW132381   3.507   0.863   7.725 -0.0595 -1.8264 -0.6698
 6915SOL    HW232382   3.424   0.961   7.792  3.2194 -0.5820  0.1034
 6916SOL     OW32383   1.631   4.015   4.239  0.0679  0.0958  0.0307
 6916SOL    HW132384   1.645   3.932   4.193 -0.8205 -1.1804  2.0560
 6916SOL    HW232385   1.625   4.079   4.168 -0.2483 -0.1871 -0.1963
 6917SOL     OW32386   2.223   4.288   7.073  0.5251  0.0007  0.1014
 6917SOL    HW132387   2.217   4.196   7.049 -0.5188  0.6913 -2.3220
 6917SOL    HW232388   2.229   4.282   7.169  0.5622 -1.2119  0.0185
 6918SOL     OW32389   1.929   3.395   9.735 -0.4050 -0.0609  0.8611
 6918SOL    HW132390   1.905   3.320   9.680 -1.5886 -0.4685  1.9451
 6918SOL    HW232391   2.008   3.357   9.774 -0.9758 -0.0250  2.0527
 6919SOL     OW32392   4.730   1.441   1.943 -0.1174 -0.4294 -0.6397
 6919SOL    HW132393   4.694   1.526   1.919  0.9610  0.0573 -0.5296
 6919SOL    HW232394   4.714   1.445   2.037  1.9861  0.0362 -0.2825
 6920SOL     OW32395   1.664   1.989   1.774  0.1942 -0.2628  0.0728
 6920SOL    HW132396   1.688   2.049   1.844  2.3512  0.0055 -0.8964
 6920SOL    HW232397   1.570   1.980   1.782  0.1066  0.9163  0.2986
 6921SOL     OW32398   3.142   1.886   1.606 -0.5388 -0.3986  0.0866
 6921SOL    HW132399   3.137   1.800   1.563  0.7555  0.0704 -0.9893
 6921SOL    HW232400   3.142   1.857   1.697 -0.9502  0.6069  0.4024
 6922SOL     OW32401   3.374   0.665   0.764  0.1604 -0.3698  0.0348
 6922SOL    HW132402   3.302   0.703   0.712  0.7641 -2.2920 -2.2115
 6922SOL    HW232403   3.447   0.710   0.721  0.7251 -0.1750  1.2177
 6923SOL     OW32404   3.741   3.809   6.239 -0.4568 -0.2870 -0.1008
 6923SOL    HW132405   3.828   3.826   6.274 -0.2670  0.1912 -0.8207
 6923SOL    HW232406   3.701   3.869   6.302 -1.7720  0.4164 -1.6192
 6924SOL     OW32407   4.115   0.365   7.968  0.5187 -0.0808  0.2328
 6924SOL    HW132408   4.182   0.367   8.036 -0.3451 -0.3505  1.0986
 6924SOL    HW232409   4.139   0.294   7.909 -0.2480 -0.5465  0.4724
 6925SOL     OW32410   3.477   0.879  11.144  0.4606 -0.3950 -0.1126
 6925SOL    HW132411   3.478   0.974  11.159  0.6986 -0.3601 -0.3468
 6925SOL    HW232412   3.552   0.860  11.088  0.1238  2.0465 -1.3949
 6926SOL     OW32413   4.671   2.807   9.719  0.1320 -0.4263  0.0421
 6926SOL    HW132414   4.650   2.783   9.810 -0.8213  0.6917  0.1238
 6926SOL    HW232415   4.595   2.860   9.696  0.7303  0.3036 -0.2608
 6927SOL     OW32416   0.292   3.475  17.093  0.0920  0.3219 -0.5368
 6927SOL    HW132417   0.240   3.395  17.105 -0.9571  1.5749  3.2124
 6927SOL    HW232418   0.372   3.429  17.067 -0.7090 -0.4939 -1.5647
 6928SOL     OW32419   1.831   2.283   4.518  0.0512 -0.5793 -0.5577
 6928SOL    HW132420   1.766   2.258   4.583 -0.8052  2.8515 -0.0981
 6928SOL    HW232421   1.773   2.294   4.443  1.5284  2.3063 -1.2650
 6929SOL     OW32422   3.429   2.052  16.273 -0.1392 -0.4245 -0.1593
 6929SOL    HW132423   3.348   2.065  16.322 -0.7363 -1.1787 -0.9675
 6929SOL    HW232424   3.439   2.135  16.225  0.4823 -0.8491 -0.7673
 6930SOL     OW32425   2.912   2.311   5.089  0.2032 -0.0355 -0.3948
 6930SOL    HW132426   2.877   2.314   5.177 -0.7362 -3.4521 -0.6413
 6930SOL    HW232427   2.899   2.217   5.079  0.8665 -0.4039  2.2863
 6931SOL     OW32428   3.373   4.736   3.838 -0.7110  0.0263  0.1322
 6931SOL    HW132429   3.397   0.020   3.928 -0.4970  0.1388  0.0444
 6931SOL    HW232430   3.430   4.660   3.826 -1.0399 -0.3761  1.0435
 6932SOL     OW32431   3.759   2.707   6.718 -0.4628 -0.5179  0.1955
 6932SOL    HW132432   3.675   2.743   6.688  0.3794  0.9497 -0.3687
 6932SOL    HW232433   3.815   2.727   6.643  0.2274  0.1162  0.8865
 6933SOL     OW32434   0.315   0.579  14.053  0.0189 -0.0082  0.5955
 6933SOL    HW132435   0.302   0.500  14.000  2.3135  1.4861 -2.1824
 6933SOL    HW232436   0.333   0.547  14.141 -3.2163 -1.9874  0.5493
 6934SOL     OW32437   2.620   3.880  14.947 -0.0676  0.3954  0.0176
 6934SOL    HW132438   2.562   3.942  14.990 -0.4581 -0.2828  0.4810
 6934SOL    HW232439   2.664   3.843  15.024 -1.2292  1.1930  1.0547
 6935SOL     OW32440   2.094   2.929  11.474  0.0423 -0.5390 -0.1485
 6935SOL    HW132441   2.154   3.003  11.467  0.3990 -0.9888 -1.7941
 6935SOL    HW232442   2.005   2.964  11.487 -0.1594 -1.5861  1.2171
 6936SOL     OW32443   2.489   2.772   2.377  0.0141  0.0693  0.2342
 6936SOL    HW132444   2.434   2.850   2.375 -0.2053 -0.1175 -1.7957
 6936SOL    HW232445   2.508   2.753   2.285  3.7830 -0.5366  1.1426
 6937SOL     OW32446   3.549   1.354   6.550 -0.2948 -0.2131 -0.4198
 6937SOL    HW132447   3.539   1.347   6.455 -0.1359  2.6166 -0.6315
 6937SOL    HW232448   3.510   1.273   6.582  0.9263 -0.2197  1.0874
 6938SOL     OW32449   3.480   1.081  13.962 -0.1020  0.0124  0.2443
 6938SOL    HW132450   3.436   1.051  14.042  0.9506 -2.3501 -0.0534
 6938SOL    HW232451   3.536   1.009  13.933  0.0485 -0.6090  2.0458
 6939SOL     OW32452   1.596   4.500   2.533 -0.1201 -0.1440  0.3560
 6939SOL    HW132453   1.517   4.545   2.504  1.4268  0.9094 -2.2142
 6939SOL    HW232454   1.641   4.489   2.449 -0.5169 -1.3881  0.2966
 6940SOL     OW32455   4.120   2.567   6.854 -0.3976 -0.2685 -0.1104
 6940SOL    HW132456   4.056   2.496   6.862 -1.4467  0.4640 -1.8938
 6940SOL    HW232457   4.170   2.553   6.934 -0.1558  1.4844  0.0424
 6941SOL     OW32458   2.729   2.378   1.119 -0.5979 -0.6198  0.6633
 6941SOL    HW132459   2.744   2.330   1.038 -0.9140  0.2051  0.1160
 6941SOL    HW232460   2.792   2.329   1.173  0.6907 -0.0854 -0.3537
 6942SOL     OW32461   0.388   1.303  16.938 -0.1211  0.6169  0.5179
 6942SOL    HW132462   0.460   1.362  16.914  0.3844 -0.4272 -0.5960
 6942SOL    HW232463   0.407   1.225  16.885 -2.0879  0.3740  0.1618
 6943SOL     OW32464   2.437   1.548  11.903 -0.3551 -0.1800  0.2307
 6943SOL    HW132465   2.373   1.539  11.832  0.9417 -0.7267 -0.8615
 6943SOL    HW232466   2.465   1.457  11.899  0.8473  0.0817  2.7743
 6944SOL     OW32467   2.740   4.425  17.698  0.5774 -0.9891  0.0912
 6944SOL    HW132468   2.711   4.433   0.036 -0.6006  1.8239 -0.5266
 6944SOL    HW232469   2.671   4.482  17.664  1.9730  1.7677  1.8782
 6945SOL     OW32470   1.266   3.039   9.349 -0.1663 -0.3464  0.0774
 6945SOL    HW132471   1.222   3.046   9.433  0.7770 -1.5107  0.6664
 6945SOL    HW232472   1.325   2.965   9.363 -1.3751 -1.2812  0.3153
 6946SOL     OW32473   2.263   2.042   3.781  0.4395  0.1194 -0.3094
 6946SOL    HW132474   2.184   1.989   3.766 -0.1334  0.4186  1.5372
 6946SOL    HW232475   2.286   2.010   3.869 -0.8575  2.3263  0.8422
 6947SOL     OW32476   3.074   3.673   3.378 -0.3048  0.6173 -0.0048
 6947SOL    HW132477   3.114   3.752   3.413 -0.3506  0.1605  1.0709
 6947SOL    HW232478   3.113   3.668   3.291 -0.3349  0.7549 -0.0261
 6948SOL     OW32479   3.819   2.018   4.514 -0.4421  0.1019 -0.0095
 6948SOL    HW132480   3.913   2.009   4.530 -0.2384  1.0921 -0.6826
 6948SOL    HW232481   3.825   2.066   4.431 -0.4377 -0.9102 -0.5962
 6949SOL     OW32482   4.643   3.821   6.012 -0.0825 -0.3272  0.3624
 6949SOL    HW132483   4.731   3.783   6.013 -1.0282 -2.5356  1.2400
 6949SOL    HW232484   4.624   3.805   5.919  0.3828 -2.9183  0.7042
 6950SOL     OW32485   0.742   2.834   6.905  0.5369 -0.6911 -0.4764
 6950SOL    HW132486   0.796   2.884   6.844 -0.6485 -2.7243 -3.1753
 6950SOL    HW232487   0.759   2.887   6.983  2.0746 -2.8585  0.6688
 6951SOL     OW32488   3.627   1.360   3.977 -0.8729 -0.6340  0.5325
 6951SOL    HW132489   3.704   1.401   3.937  0.4613 -0.1018  3.6077
 6951SOL    HW232490   3.671   1.333   4.058 -0.3761  0.8305  0.7594
 6952SOL     OW32491   2.421   4.323   6.312 -0.3410 -0.2973 -0.2310
 6952SOL    HW132492   2.405   4.340   6.405  0.1441  0.5111 -0.3032
 6952SOL    HW232493   2.411   4.409   6.274  0.0675 -0.4658 -0.7205
 6953SOL     OW32494   1.978   0.940   2.170  0.0296 -0.4590  0.3613
 6953SOL    HW132495   1.924   0.937   2.250  1.2525 -0.9949  1.1656
 6953SOL    HW232496   2.001   1.033   2.167  2.0955 -0.9728  0.8411
 6954SOL     OW32497   1.087   4.551  12.003  0.2912 -0.1790  0.2199
 6954SOL    HW132498   1.105   4.605  12.080  1.5466 -0.5888  0.2000
 6954SOL    HW232499   1.009   4.599  11.972 -0.4602 -1.7691 -0.3301
 6955SOL     OW32500   1.010   4.480  11.454  0.2491  0.1393 -0.0635
 6955SOL    HW132501   1.096   4.501  11.419  0.4457 -0.1502  0.2455
 6955SOL    HW232502   0.996   4.558  11.508 -0.2065  0.3846 -0.5297
 6956SOL     OW32503   4.349   4.033  15.783  0.2780  0.3707 -0.3992
 6956SOL    HW132504   4.431   3.985  15.773  0.6501  0.7049  0.9581
 6956SOL    HW232505   4.315   4.050  15.696 -1.7795 -1.2426  0.0678
 6957SOL     OW32506   3.706   2.089   3.752  0.6008 -0.3758 -0.0821
 6957SOL    HW132507   3.627   2.058   3.708  0.0108 -0.4978  1.0714
 6957SOL    HW232508   3.754   2.120   3.674 -0.8787 -2.8656 -1.9763
 6958SOL     OW32509   0.946   2.966  16.044  0.1744  0.4350 -0.2080
 6958SOL    HW132510   1.027   2.978  16.094 -0.9593  1.2690  1.4422
 6958SOL    HW232511   0.982   2.922  15.968  0.2611 -1.9733  1.2433
 6959SOL     OW32512   2.573   1.408   7.522 -0.2648  0.2642 -0.1604
 6959SOL    HW132513   2.668   1.415   7.535  0.2274 -2.0508 -2.3438
 6959SOL    HW232514   2.544   1.328   7.567  1.1705  1.3265  2.6853
 6960SOL     OW32515   3.085   4.398   3.906 -0.3352  0.0397  0.5080
 6960SOL    HW132516   3.029   4.354   3.970  0.1597 -0.7411  0.4095
 6960SOL    HW232517   3.036   4.476   3.879  0.3603  0.4807  0.5323
 6961SOL     OW32518   1.788   0.919  15.424  0.0649 -0.4944  0.1587
 6961SOL    HW132519   1.746   0.995  15.383 -0.4615 -1.0184 -0.2725
 6961SOL    HW232520   1.745   0.926  15.510  0.2635  0.1866  0.2065
 6962SOL     OW32521   1.162   2.463  11.495  0.2855  0.0500 -0.2570
 6962SOL    HW132522   1.225   2.458  11.567 -0.0459  0.3994  0.0598
 6962SOL    HW232523   1.221   2.444  11.422  0.0437 -1.9736  0.0607
 6963SOL     OW32524   4.620   2.526  10.472 -0.2884  0.3399  0.0859
 6963SOL    HW132525   4.583   2.555  10.388  2.0099  1.9176 -0.3492
 6963SOL    HW232526   4.684   2.597  10.473  2.7824 -2.3928 -1.5400
 6964SOL     OW32527   1.613   2.965   5.291 -0.5327  0.2730  0.2209
 6964SOL    HW132528   1.604   2.900   5.360  0.4920  0.1191  0.2076
 6964SOL    HW232529   1.700   2.942   5.260 -0.7946  1.0940 -1.1411
 6965SOL     OW32530   1.495   3.102  17.051  0.5136 -0.1225  0.1705
 6965SOL    HW132531   1.490   3.038  16.980 -0.1866  2.5184 -2.1492
 6965SOL    HW232532   1.488   3.183  17.001 -1.0218  0.4458  1.3224
 6966SOL     OW32533   3.745   3.882   8.028 -0.2410  0.3649  0.5562
 6966SOL    HW132534   3.701   3.954   7.984  0.1216  0.2032 -0.0740
 6966SOL    HW232535   3.771   3.822   7.958 -1.2916  2.9319 -2.0275
 6967SOL     OW32536   3.376   3.987   1.632 -1.1850 -0.3022 -0.2076
 6967SOL    HW132537   3.309   4.038   1.586  0.1090  0.9317 -0.7198
 6967SOL    HW232538   3.414   3.946   1.554 -1.8043  0.4501 -0.9052
 6968SOL     OW32539   2.565   1.248  16.052  0.3611  0.3487  0.1143
 6968SOL    HW132540   2.550   1.181  16.119  0.2379  0.9612  0.7112
 6968SOL    HW232541   2.565   1.325  16.110 -2.0912 -0.2182  0.8908
 6969SOL     OW32542   1.455   3.242   4.993 -0.2012  0.0291 -1.0836
 6969SOL    HW132543   1.506   3.316   4.958  0.6448  0.3733  0.8625
 6969SOL    HW232544   1.482   3.171   4.935  0.4952 -0.0221 -0.7021
 6970SOL     OW32545   3.078   0.517   7.629 -0.1501  0.0940 -0.0558
 6970SOL    HW132546   3.151   0.468   7.664 -0.0484  0.0135 -0.3773
 6970SOL    HW232547   3.017   0.510   7.703 -0.0283 -1.1754 -0.0747
 6971SOL     OW32548   2.965   4.355  13.698 -0.6115  0.0269 -0.2461
 6971SOL    HW132549   2.895   4.308  13.743  0.6947 -0.9472  0.7492
 6971SOL    HW232550   3.020   4.387  13.769  0.4660  1.9926 -1.9324
 6972SOL     OW32551   4.019   4.022  14.968  0.6114 -0.1505  0.1270
 6972SOL    HW132552   4.055   4.026  15.057 -0.0308 -3.4747  0.5491
 6972SOL    HW232553   4.058   4.098  14.925  0.1383  0.2047  0.3305
 6973SOL     OW32554   0.381   3.179   8.408 -0.2269 -0.1826  0.9739
 6973SOL    HW132555   0.441   3.214   8.474 -0.2420  0.9808  0.3676
 6973SOL    HW232556   0.406   3.086   8.411 -0.3735 -0.3286 -1.5946
 6974SOL     OW32557   0.855   0.704   7.563 -0.0564 -0.2349  0.3069
 6974SOL    HW132558   0.919   0.760   7.608  3.0127 -2.1575 -1.6448
 6974SOL    HW232559   0.883   0.617   7.592 -0.3843  0.2023  1.9351
 6975SOL     OW32560   3.615   3.450   7.408 -0.4014 -0.1087  0.1334
 6975SOL    HW132561   3.614   3.370   7.355 -0.5404 -0.2724  0.3838
 6975SOL    HW232562   3.521   3.467   7.411 -0.4690  0.1891 -2.9129
 6976SOL     OW32563   4.465   3.803   9.246 -0.1263 -0.4828  0.0770
 6976SOL    HW132564   4.454   3.820   9.339 -0.1330  2.7325 -0.5087
 6976SOL    HW232565   4.481   3.709   9.252 -0.8164 -0.6232 -0.2588
 6977SOL     OW32566   3.316   0.614   4.137 -0.0354 -0.0997  0.1898
 6977SOL    HW132567   3.307   0.582   4.048 -0.2461  0.1971  0.1066
 6977SOL    HW232568   3.274   0.699   4.127  0.2382 -0.2110 -1.8415
 6978SOL     OW32569   2.212   4.573   6.355  0.3955  0.0888 -0.0843
 6978SOL    HW132570   2.260   4.572   6.438 -1.8455  2.2678  1.2646
 6978SOL    HW232571   2.137   4.522   6.386 -1.2527  2.1374 -0.6652
 6979SOL     OW32572   0.886   0.923  12.886  0.5058  0.4105 -0.1137
 6979SOL    HW132573   0.972   0.919  12.926  0.3260 -1.4521  0.1272
 6979SOL    HW232574   0.859   1.010  12.913  0.0129  0.7506 -1.6571
 6980SOL     OW32575   1.787   4.031  10.617 -0.0671  0.2215  0.2719
 6980SOL    HW132576   1.728   3.957  10.600 -0.2946  1.1007 -2.7686
 6980SOL    HW232577   1.836   4.010  10.696  0.8330  1.5963  0.0768
 6981SOL     OW32578   2.648   2.469  12.575  0.0552 -1.0504 -0.0547
 6981SOL    HW132579   2.678   2.511  12.495  0.3927  0.9903  1.1556
 6981SOL    HW232580   2.642   2.542  12.636 -4.9891 -0.1969 -1.5897
 6982SOL     OW32581   4.339   2.057   0.267  0.1431  0.1884 -0.3908
 6982SOL    HW132582   4.411   2.040   0.328  1.7228 -0.9603 -2.5794
 6982SOL    HW232583   4.270   1.999   0.300 -1.6633  1.3937 -1.9989
 6983SOL     OW32584   0.521   0.168  14.990 -0.1885  0.0996  0.1453
 6983SOL    HW132585   0.486   0.089  15.029  0.6654  0.3711  1.4633
 6983SOL    HW232586   0.575   0.129  14.921 -1.0837 -2.3348  0.8190
 6984SOL     OW32587   1.638   1.898   7.327  0.1026  0.2513  0.0001
 6984SOL    HW132588   1.609   1.892   7.236 -1.0622  0.3427  0.3696
 6984SOL    HW232589   1.563   1.946   7.360  0.2905  0.1781  0.5366
 6985SOL     OW32590   2.252   4.240   2.744  0.1721 -0.4720 -0.0787
 6985SOL    HW132591   2.342   4.272   2.742 -0.3967  1.2483  2.1077
 6985SOL    HW232592   2.202   4.315   2.777 -0.4239 -0.9720  0.1539
 6986SOL     OW32593   1.078   0.974   8.334 -0.5062 -0.6962  0.1997
 6986SOL    HW132594   1.021   0.903   8.366 -1.9920  1.2220  1.8307
 6986SOL    HW232595   1.046   0.991   8.246 -0.6380  0.7553  0.5320
 6987SOL     OW32596   1.874   2.286   9.852  0.5452  0.3914  0.0375
 6987SOL    HW132597   1.939   2.239   9.800  1.7885  2.5889 -0.3999
 6987SOL    HW232598   1.790   2.259   9.815  2.2574 -2.2688 -1.9091
 6988SOL     OW32599   4.537   3.457   0.586 -0.4017  0.0302  0.4559
 6988SOL    HW132600   4.511   3.537   0.541  0.6739 -1.1328 -2.2749
 6988SOL    HW232601   4.462   3.454   0.645  1.4503 -0.0490  2.8483
 6989SOL     OW32602   2.181   0.476  11.460 -0.5127 -0.1696  1.2145
 6989SOL    HW132603   2.158   0.389  11.492 -1.2448 -0.7535 -0.8562
 6989SOL    HW232604   2.208   0.447  11.372 -0.4805 -1.8603  1.7860
 6990SOL     OW32605   0.754   3.454   8.722  0.1181 -0.2208 -0.1353
 6990SOL    HW132606   0.669   3.495   8.739 -0.8336 -1.6440 -1.5030
 6990SOL    HW232607   0.812   3.476   8.795 -1.2351  0.1098  0.8484
 6991SOL     OW32608   0.684   1.243   2.632  0.0400  0.3659 -0.3003
 6991SOL    HW132609   0.738   1.259   2.555 -0.2862 -1.1428 -0.8402
 6991SOL    HW232610   0.706   1.150   2.639 -0.7817  0.2623  0.8811
 6992SOL     OW32611   0.418   3.347  14.316  0.0227  0.2062 -0.1941
 6992SOL    HW132612   0.482   3.322  14.383 -0.0833  0.1609 -0.1082
 6992SOL    HW232613   0.482   3.380  14.253 -0.2352 -0.6733 -0.9184
 6993SOL     OW32614   0.003   3.583   7.130  0.2052  0.4364 -0.1816
 6993SOL    HW132615   0.024   3.662   7.179 -1.0061 -0.2440  1.3908
 6993SOL    HW232616   0.079   3.579   7.071  0.9949  1.2914  0.7724
 6994SOL     OW32617   3.440   2.165   9.587  0.0732  0.2857 -0.0648
 6994SOL    HW132618   3.475   2.105   9.521 -1.9681  0.0944 -0.9742
 6994SOL    HW232619   3.486   2.247   9.566  1.3915 -0.5814 -0.5758
 6995SOL     OW32620   0.136   4.380   8.546 -0.1823 -0.0730  0.1529
 6995SOL    HW132621   0.167   4.297   8.582  2.6862  2.5364  3.6750
 6995SOL    HW232622   0.143   4.359   8.452 -2.5626 -0.2170  0.0221
 6996SOL     OW32623   2.869   0.056   6.212 -0.0068  0.0896  0.6614
 6996SOL    HW132624   2.948   0.103   6.237  0.9661 -0.9485 -0.4583
 6996SOL    HW232625   2.813   0.110   6.268 -1.1382 -0.2060 -0.1810
 6997SOL     OW32626   4.418   3.320   2.013 -0.1775  0.2281 -0.2504
 6997SOL    HW132627   4.460   3.236   1.992  0.2828  0.3016  0.3978
 6997SOL    HW232628   4.328   3.298   1.988 -0.5913 -0.3354  1.6881
 6998SOL     OW32629   3.482   2.391   4.123  0.4703  1.0421  0.1650
 6998SOL    HW132630   3.398   2.423   4.091  0.2970 -0.4659 -0.9057
 6998SOL    HW232631   3.442   2.329   4.185  1.0541  0.8436  0.3447
 6999SOL     OW32632   0.014   4.582   8.685 -0.0864  0.1289 -0.3193
 6999SOL    HW132633   0.066   4.514   8.642 -2.1340 -0.0628 -2.5084
 6999SOL    HW232634   0.087   4.624   8.731  1.8397 -4.8494  1.1828
 7000SOL     OW32635   3.213   4.435   2.699  0.7352  0.0475  1.0314
 7000SOL    HW132636   3.145   4.382   2.657  1.1996  0.0481  0.2806
 7000SOL    HW232637   3.165   4.518   2.706  1.0563  0.1519  1.9190
 7001SOL     OW32638   0.820   1.769  16.031 -0.3601  0.1884 -0.5482
 7001SOL    HW132639   0.802   1.851  16.077 -0.8789  0.3129 -0.9759
 7001SOL    HW232640   0.770   1.708  16.084  0.6675 -0.5515 -0.4233
 7002SOL     OW32641   3.519   0.495   3.020 -0.7035  0.5289  0.5244
 7002SOL    HW132642   3.464   0.573   3.031 -0.4779  0.8371 -0.4842
 7002SOL    HW232643   3.513   0.446   3.102 -1.2179  0.0828  0.2189
 7003SOL     OW32644   0.126   2.149  14.715  0.1309 -0.1973 -0.0855
 7003SOL    HW132645   0.093   2.088  14.780  1.9749 -1.1770 -0.0819
 7003SOL    HW232646   0.219   2.143  14.735  0.3953 -0.3293 -1.3019
 7004SOL     OW32647   2.503   2.143   2.860 -0.3500 -0.6161 -0.4988
 7004SOL    HW132648   2.486   2.229   2.820 -0.3359 -0.3909 -0.0274
 7004SOL    HW232649   2.495   2.176   2.949 -1.6400 -0.6003 -0.6136
 7005SOL     OW32650   0.800   4.265   6.328  0.2360 -0.3343  0.1244
 7005SOL    HW132651   0.856   4.199   6.369  0.7053  0.5718  0.9510
 7005SOL    HW232652   0.817   4.334   6.392  0.3087 -1.8998  1.7809
 7006SOL     OW32653   3.899   4.260   5.855  0.2772  0.0242 -0.1480
 7006SOL    HW132654   3.867   4.292   5.771 -0.3765 -2.1581 -0.7295
 7006SOL    HW232655   3.850   4.178   5.856 -0.1568  0.2772 -1.6163
 7007SOL     OW32656   2.028   1.797   4.217 -0.0845  0.1358  0.0001
 7007SOL    HW132657   1.987   1.875   4.254  0.6206  0.7568 -0.5339
 7007SOL    HW232658   1.963   1.770   4.151 -0.5340 -0.7903  0.8256
 7008SOL     OW32659   3.532   1.079  15.505 -0.0985 -0.0383  0.4487
 7008SOL    HW132660   3.592   1.127  15.562 -0.3469  0.0273  0.6581
 7008SOL    HW232661   3.587   1.021  15.453 -0.3754 -1.3121  1.5729
 7009SOL     OW32662   4.443   2.949   9.653 -0.3948  0.1531 -0.5371
 7009SOL    HW132663   4.447   3.013   9.582 -0.5303  0.7999  0.0378
 7009SOL    HW232664   4.352   2.959   9.679  0.2884 -0.9741  2.3669
 7010SOL     OW32665   0.284   4.164   6.150 -0.1607  0.1233  0.0205
 7010SOL    HW132666   0.220   4.171   6.221 -1.3214  1.1780 -1.1329
 7010SOL    HW232667   0.365   4.181   6.199  0.3671  0.5268 -0.9790
 7011SOL     OW32668   1.650   4.643   0.096  0.5768  0.2254 -0.0669
 7011SOL    HW132669   1.726   4.642   0.154 -1.2008  0.8002  2.3333
 7011SOL    HW232670   1.681   4.677   0.012 -0.1807  2.9041  0.7220
 7012SOL     OW32671   2.818   3.371  12.306 -0.3489 -0.4250 -0.5466
 7012SOL    HW132672   2.895   3.388  12.251 -0.6501  2.3804 -0.0902
 7012SOL    HW232673   2.814   3.275  12.306 -1.0482 -0.3921 -1.1972
 7013SOL     OW32674   2.794   2.827  17.584 -0.4066 -0.5625  0.3897
 7013SOL    HW132675   2.752   2.879  17.515 -0.2697  0.8546  1.3826
 7013SOL    HW232676   2.719   2.794  17.633 -0.8702  1.2393  0.8849
 7014SOL     OW32677   4.300   1.447   8.428 -0.2128 -0.5297  0.4082
 7014SOL    HW132678   4.293   1.497   8.347 -0.3070 -0.0031  0.7403
 7014SOL    HW232679   4.331   1.515   8.488 -0.7489  0.0469  0.0295
 7015SOL     OW32680   0.743   0.999   7.347 -0.3186 -0.4415 -0.0156
 7015SOL    HW132681   0.689   0.921   7.357  0.2475 -0.8016  0.2308
 7015SOL    HW232682   0.756   1.007   7.253  0.2911 -2.0981 -0.0675
 7016SOL     OW32683   2.572   1.392  11.406 -0.8622 -0.0954 -0.1954
 7016SOL    HW132684   2.578   1.344  11.488  0.7307 -1.3901 -1.0739
 7016SOL    HW232685   2.517   1.465  11.432  1.1314  0.8669  1.2751
 7017SOL     OW32686   4.421   0.871   3.533  0.0101  0.4949  0.0598
 7017SOL    HW132687   4.332   0.895   3.507 -0.3027 -0.5435  0.1550
 7017SOL    HW232688   4.474   0.919   3.470  1.2449 -0.6189  0.2409
 7018SOL     OW32689   0.447   0.490   5.592 -0.2947 -0.9784  0.3410
 7018SOL    HW132690   0.528   0.445   5.567 -0.0467  0.4210 -1.3855
 7018SOL    HW232691   0.390   0.449   5.528 -2.9738  0.5721  1.7452
 7019SOL     OW32692   4.156   4.353   4.905  0.4646  0.2743  0.1168
 7019SOL    HW132693   4.182   4.404   4.828  0.4505  0.5174  0.2727
 7019SOL    HW232694   4.185   4.273   4.861  0.7187  1.3109 -1.5790
 7020SOL     OW32695   4.501   0.249   9.216  0.0854  0.0747 -0.2122
 7020SOL    HW132696   4.524   0.332   9.175  0.2018 -0.4964 -1.2862
 7020SOL    HW232697   4.410   0.259   9.243 -0.7482  0.2711 -3.1097
 7021SOL     OW32698   1.912   4.088   6.805  0.1174  0.0295 -0.0652
 7021SOL    HW132699   1.900   4.104   6.711  2.1422  0.1547 -0.3024
 7021SOL    HW232700   1.848   4.019   6.821  0.3889  0.4091  2.6573
 7022SOL     OW32701   3.415   4.345   6.112 -0.2951  0.2062 -0.5189
 7022SOL    HW132702   3.335   4.292   6.108 -0.5673  0.7222 -2.0248
 7022SOL    HW232703   3.455   4.280   6.169 -2.0611 -1.6010 -1.3465
 7023SOL     OW32704   3.036   1.636   2.701  0.2087  0.2773 -0.2816
 7023SOL    HW132705   3.028   1.543   2.719  1.3907 -0.0453 -1.3774
 7023SOL    HW232706   2.968   1.667   2.760 -0.3050 -1.0608 -0.1758
 7024SOL     OW32707   3.841   4.190   6.996  0.1240 -0.0386 -0.1319
 7024SOL    HW132708   3.849   4.262   6.934 -0.7259 -0.3546 -0.6047
 7024SOL    HW232709   3.916   4.217   7.050  0.6770  0.1411 -0.9904
 7025SOL     OW32710   3.590   0.749  16.173  0.0778 -0.0073 -0.4918
 7025SOL    HW132711   3.629   0.806  16.239 -1.7477 -1.2812  1.7153
 7025SOL    HW232712   3.617   0.791  16.091 -0.4050  0.4035 -0.4355
 7026SOL     OW32713   4.687   0.420  16.951  0.0132  0.4803 -0.7636
 7026SOL    HW132714   4.658   0.495  17.003 -0.5804  0.5990 -1.2721
 7026SOL    HW232715   4.603   0.381  16.929  0.5316 -1.0593 -0.0248
 7027SOL     OW32716   2.192   0.650   4.672  0.0169  0.2087 -0.2951
 7027SOL    HW132717   2.261   0.631   4.608 -0.6495 -1.1085 -0.5996
 7027SOL    HW232718   2.174   0.743   4.659  1.8823  0.7306  0.7898
 7028SOL     OW32719   0.583   1.571  10.593 -0.1073 -0.4652  0.4241
 7028SOL    HW132720   0.549   1.654  10.559  1.6208  0.7278  1.6643
 7028SOL    HW232721   0.672   1.573  10.560 -0.4440 -0.1811 -0.4595
 7029SOL     OW32722   3.422   3.729   8.474 -0.5769  0.4140  0.0808
 7029SOL    HW132723   3.448   3.716   8.565 -0.7223 -0.1064  0.0449
 7029SOL    HW232724   3.338   3.683   8.469  0.5297 -1.6662  0.5140
 7030SOL     OW32725   4.327   0.180   8.942 -0.0300 -0.5425 -0.0397
 7030SOL    HW132726   4.278   0.129   9.007  0.6939 -0.0548  0.8781
 7030SOL    HW232727   4.397   0.220   8.992  0.2739 -0.2446 -0.7017
 7031SOL     OW32728   0.110   0.205  17.041  0.0311 -0.1765  0.3099
 7031SOL    HW132729   0.040   0.257  17.003  0.2539 -1.3530 -1.6791
 7031SOL    HW232730   0.160   0.269  17.093  0.7494 -0.8265  0.4253
 7032SOL     OW32731   1.359   2.020   2.540  0.0480 -0.0752  0.4000
 7032SOL    HW132732   1.449   2.035   2.510  0.1571  2.0160  1.7557
 7032SOL    HW232733   1.325   2.106   2.566  1.0492  0.1287  1.0332
 7033SOL     OW32734   3.185   1.098   7.707 -0.3642 -0.4726  0.0646
 7033SOL    HW132735   3.182   1.193   7.724  0.7561 -0.3409 -0.5566
 7033SOL    HW232736   3.137   1.071   7.786 -3.1210 -1.2768 -1.9031
 7034SOL     OW32737   1.698   0.367   9.332 -0.0737  0.2729  0.1066
 7034SOL    HW132738   1.674   0.417   9.410 -3.4145 -0.4741 -0.4263
 7034SOL    HW232739   1.673   0.435   9.270 -0.9043  0.4370  0.6151
 7035SOL     OW32740   1.392   2.198  10.382 -0.4788  0.0716 -0.3408
 7035SOL    HW132741   1.462   2.262  10.370 -1.7203  1.1829 -1.7565
 7035SOL    HW232742   1.321   2.255  10.351 -1.6471 -1.3070 -0.1971
 7036SOL     OW32743   1.803   2.315  16.257  0.2574  0.0668  0.3022
 7036SOL    HW132744   1.765   2.256  16.191  2.4448  0.1733 -1.0563
 7036SOL    HW232745   1.896   2.294  16.244  0.6548  0.8962  1.8953
 7037SOL     OW32746   3.643   2.234   2.148  0.3146 -0.4912  0.1058
 7037SOL    HW132747   3.615   2.291   2.076 -1.2284 -1.7877 -0.3309
 7037SOL    HW232748   3.666   2.153   2.103 -2.2216 -0.3084 -1.5355
 7038SOL     OW32749   2.810   3.397   5.373  0.0813 -0.0480 -0.0171
 7038SOL    HW132750   2.818   3.333   5.444  2.7669 -1.4015 -1.5665
 7038SOL    HW232751   2.894   3.393   5.328 -1.7430 -2.2425 -3.1654
 7039SOL     OW32752   2.791   1.185  15.232 -0.1744 -0.0482  0.0790
 7039SOL    HW132753   2.706   1.165  15.270  0.6448  0.2247  2.0377
 7039SOL    HW232754   2.789   1.281  15.226  1.8215  0.2015  3.3230
 7040SOL     OW32755   3.789   1.700   7.832  0.3036  0.4752  0.1691
 7040SOL    HW132756   3.799   1.619   7.882  3.0502  0.3218 -0.6264
 7040SOL    HW232757   3.695   1.708   7.818  0.2510  1.2084  0.9057
 7041SOL     OW32758   4.260   1.401   0.294 -0.3143 -0.4402  0.0350
 7041SOL    HW132759   4.354   1.401   0.309 -0.4349  0.1977  0.7716
 7041SOL    HW232760   4.244   1.495   0.288  1.6139 -0.1843 -1.1662
 7042SOL     OW32761   4.555   1.498   6.635 -0.2378  0.3700 -1.0737
 7042SOL    HW132762   4.558   1.592   6.649  1.3259  0.1371  0.2239
 7042SOL    HW232763   4.614   1.474   6.707  0.0430 -1.6375 -1.9574
 7043SOL     OW32764   2.416   1.894   7.959  0.3043 -0.1759  0.0291
 7043SOL    HW132765   2.414   1.804   7.928  2.4873  0.3517 -1.6748
 7043SOL    HW232766   2.508   1.919   7.969  0.8069 -1.5607 -1.1779
 7044SOL     OW32767   2.075   2.070   0.957 -0.1030 -0.0304 -0.3062
 7044SOL    HW132768   2.075   2.164   0.974 -0.6399  0.4074 -2.6999
 7044SOL    HW232769   2.147   2.058   0.895 -0.3898  0.9482 -0.8242
 7045SOL     OW32770   4.147   4.300  10.403 -0.1091  0.3329 -0.1113
 7045SOL    HW132771   4.211   4.252  10.455 -1.1720 -1.6878 -0.6554
 7045SOL    HW232772   4.139   4.377  10.459 -0.7581  0.3117 -0.1772
 7046SOL     OW32773   3.211   2.254  13.457  0.4152 -0.2322 -0.3700
 7046SOL    HW132774   3.240   2.167  13.484 -1.6081 -0.4234  1.2211
 7046SOL    HW232775   3.216   2.297  13.543 -0.5433 -1.2530  0.2085
 7047SOL     OW32776   4.246   1.695  13.424 -0.3337  0.4334  0.5016
 7047SOL    HW132777   4.329   1.647  13.418 -0.4403  0.1962  0.9201
 7047SOL    HW232778   4.209   1.649  13.499 -0.8155 -0.1336 -0.0961
 7048SOL     OW32779   1.633   0.501  12.745 -0.2477 -0.1239 -0.4765
 7048SOL    HW132780   1.709   0.553  12.717  0.1050 -0.9573 -1.0685
 7048SOL    HW232781   1.673   0.426  12.789  1.2856 -0.8865 -3.1496
 7049SOL     OW32782   2.348   3.608  16.915 -0.0086  0.2413 -0.5554
 7049SOL    HW132783   2.315   3.687  16.957  1.5949 -0.8657  2.8715
 7049SOL    HW232784   2.415   3.655  16.867 -1.3358  0.2942 -2.3753
 7050SOL     OW32785   3.479   4.059   6.823 -0.7666  0.3107 -0.2336
 7050SOL    HW132786   3.427   4.094   6.895  0.5202 -1.8273  1.7655
 7050SOL    HW232787   3.406   4.016   6.779 -0.7591 -1.7229  1.7519
 7051SOL     OW32788   0.332   1.971  16.633  0.0889 -0.5055  0.0802
 7051SOL    HW132789   0.411   2.005  16.675 -0.3037 -0.0086  0.4181
 7051SOL    HW232790   0.318   2.031  16.560  0.1254  1.0227  1.3166
 7052SOL     OW32791   3.250   0.840   8.561  0.6014  0.4697  0.3832
 7052SOL    HW132792   3.212   0.861   8.647 -1.9635 -0.9630 -0.3828
 7052SOL    HW232793   3.183   0.894   8.518  0.0309 -1.9211 -1.7428
 7053SOL     OW32794   0.247   1.902   3.993  0.6448  0.3917  0.0604
 7053SOL    HW132795   0.341   1.892   3.979  0.8011  0.7254  0.8647
 7053SOL    HW232796   0.230   1.950   3.912  0.2596  1.7441  0.9426
 7054SOL     OW32797   1.251   2.473  14.421  0.2279  0.3214 -0.0341
 7054SOL    HW132798   1.196   2.536  14.374 -1.6068  0.1817  1.9582
 7054SOL    HW232799   1.214   2.469  14.509  0.5366 -0.4644  0.0608
 7055SOL     OW32800   1.181   2.480  13.179  0.3194 -0.4417 -0.1608
 7055SOL    HW132801   1.236   2.407  13.150  1.1030  0.4887 -1.0174
 7055SOL    HW232802   1.225   2.545  13.125 -0.8122 -0.1992 -0.7939
 7056SOL     OW32803   1.295   1.035   9.202  0.4501 -0.2934  0.4809
 7056SOL    HW132804   1.365   1.080   9.248 -0.0867  1.2045 -0.1736
 7056SOL    HW232805   1.245   0.992   9.272  0.7369 -0.7286  0.4221
 7057SOL     OW32806   0.517   2.693   3.635  0.8220 -0.5694  0.3664
 7057SOL    HW132807   0.473   2.737   3.562  0.0690  0.1122  1.2456
 7057SOL    HW232808   0.573   2.768   3.657 -1.7681  1.7829 -0.9758
 7058SOL     OW32809   4.163   2.063   2.471  0.5117 -0.0186  0.0507
 7058SOL    HW132810   4.191   2.141   2.424  0.8978  0.4681  1.0966
 7058SOL    HW232811   4.223   1.992   2.449  0.2326 -0.9220  2.1441
 7059SOL     OW32812   3.559   4.515   8.642 -0.6981 -0.3883 -0.1242
 7059SOL    HW132813   3.613   4.460   8.698  3.3489  1.6879 -1.9896
 7059SOL    HW232814   3.535   4.447   8.578 -1.9245 -1.2046  1.2064
 7060SOL     OW32815   2.140   1.791   8.114  0.2377  0.3694 -0.4056
 7060SOL    HW132816   2.110   1.874   8.078 -1.1011  0.8791  1.8457
 7060SOL    HW232817   2.112   1.736   8.041 -0.3310  0.6558 -0.4004
 7061SOL     OW32818   4.301   3.194   4.016 -0.5172 -0.1977 -0.3714
 7061SOL    HW132819   4.286   3.162   4.105  1.0522  1.4069  0.4859
 7061SOL    HW232820   4.315   3.110   3.972  0.9889 -0.2723  0.2576
 7062SOL     OW32821   1.469   2.292   6.534  0.3413 -0.1597 -0.0794
 7062SOL    HW132822   1.492   2.344   6.457 -0.4787 -0.5688 -0.5933
 7062SOL    HW232823   1.512   2.209   6.516 -2.2329 -1.0674 -1.9522
 7063SOL     OW32824   2.429   0.137   5.823 -0.1421  0.2819 -0.0501
 7063SOL    HW132825   2.433   0.064   5.885  1.2773  2.0022  1.9044
 7063SOL    HW232826   2.357   0.188   5.860 -0.9025 -0.3868 -0.6160
 7064SOL     OW32827   3.224   2.697   2.688 -0.7561 -0.4140 -0.5097
 7064SOL    HW132828   3.254   2.743   2.610  1.7126  1.6154  1.6242
 7064SOL    HW232829   3.306   2.689   2.736 -0.3015 -1.2405 -1.4285
 7065SOL     OW32830   1.928   0.688   4.328  0.7139  0.4665 -0.2879
 7065SOL    HW132831   1.889   0.642   4.253 -0.9977 -1.0696  1.5499
 7065SOL    HW232832   1.987   0.620   4.358  1.1826  1.5072  1.1164
 7066SOL     OW32833   1.802   3.947  16.663 -0.4707  0.6540 -0.6696
 7066SOL    HW132834   1.721   3.988  16.635 -0.4741  0.9156 -0.2682
 7066SOL    HW232835   1.769   3.858  16.652  0.1987  0.5167 -1.6032
 7067SOL     OW32836   4.062   2.993   8.990 -0.0649 -0.2881  0.1980
 7067SOL    HW132837   3.986   3.047   8.967 -0.6154 -0.8921  0.6013
 7067SOL    HW232838   4.142   3.039   8.964  0.6062 -1.0682  0.8751
 7068SOL     OW32839   3.622   0.563   3.532 -0.4083 -0.3983 -0.1525
 7068SOL    HW132840   3.656   0.533   3.448  0.5246  1.4875 -0.4582
 7068SOL    HW232841   3.648   0.492   3.590  1.8029  0.7311  0.2235
 7069SOL     OW32842   0.952   0.435   2.066 -0.4026 -0.1811 -0.0557
 7069SOL    HW132843   0.997   0.362   2.110  0.5658 -0.0205 -0.7905
 7069SOL    HW232844   0.865   0.402   2.043 -1.3715  1.1557  1.6076
 7070SOL     OW32845   3.734   3.207  15.996  0.5333 -1.3662  0.2475
 7070SOL    HW132846   3.680   3.195  15.917  2.3065 -1.4839 -0.9582
 7070SOL    HW232847   3.664   3.247  16.048  0.6952  2.1358 -2.1409
 7071SOL     OW32848   3.025   0.246   2.525 -0.2700  0.4407 -0.1983
 7071SOL    HW132849   3.095   0.180   2.528 -0.5901  0.0665 -1.1433
 7071SOL    HW232850   3.015   0.293   2.608  1.1445 -0.1642  0.3317
 7072SOL     OW32851   4.015   0.324   0.404  0.2039 -0.1096  0.5305
 7072SOL    HW132852   3.926   0.293   0.419  0.3129  0.6755  2.8498
 7072SOL    HW232853   4.057   0.238   0.400  1.2888  0.5629 -2.3113
 7073SOL     OW32854   4.638   3.839   4.430 -0.2790 -0.2261  0.5227
 7073SOL    HW132855   4.701   3.838   4.502  0.8010 -1.7041 -0.4516
 7073SOL    HW232856   4.600   3.927   4.439  1.0741  0.6455 -2.4963
 7074SOL     OW32857   1.576   3.547  13.215  0.8763  0.2206 -0.2322
 7074SOL    HW132858   1.504   3.489  13.238  0.6566 -0.1432 -1.8646
 7074SOL    HW232859   1.559   3.625  13.268 -0.9990  0.5827 -1.3742
 7075SOL     OW32860   0.143   0.704   4.767  0.2807  0.3480  0.0638
 7075SOL    HW132861   0.101   0.618   4.777  0.6680  0.4527  2.5432
 7075SOL    HW232862   0.083   0.762   4.721 -0.5146  0.0366  0.6888
 7076SOL     OW32863   3.235   3.359   6.123  0.2473 -0.5980 -0.2768
 7076SOL    HW132864   3.286   3.279   6.129  0.0227 -0.6257  1.3750
 7076SOL    HW232865   3.298   3.406   6.178  0.5337 -1.2442 -0.0569
 7077SOL     OW32866   3.722   3.755   5.134  0.4093  0.0888  0.3742
 7077SOL    HW132867   3.760   3.668   5.123  1.4665  0.9356 -2.9160
 7077SOL    HW232868   3.752   3.785   5.219  0.7248 -0.0441  0.3116
 7078SOL     OW32869   1.557   3.236   8.322 -0.0134  0.3611  0.1422
 7078SOL    HW132870   1.557   3.320   8.275  0.1581  1.6478  2.4182
 7078SOL    HW232871   1.618   3.256   8.393  0.8205 -1.5932 -0.0542
 7079SOL     OW32872   1.093   4.696  15.460 -0.1959  0.0946  0.3185
 7079SOL    HW132873   1.018   0.015  15.447  0.2421  0.6659  0.3107
 7079SOL    HW232874   1.094   4.652  15.375 -0.9266  1.7404 -0.5423
 7080SOL     OW32875   1.258   4.179  11.354  0.5398  0.1930 -0.0928
 7080SOL    HW132876   1.202   4.248  11.319 -1.3315 -1.5535 -0.5708
 7080SOL    HW232877   1.272   4.212  11.443 -0.5942  1.7920 -0.5161
 7081SOL     OW32878   0.401   0.109  15.472 -0.0909  0.0201 -0.1377
 7081SOL    HW132879   0.338   0.050  15.431 -0.6170 -0.5764  1.5524
 7081SOL    HW232880   0.379   0.182  15.414  1.7472 -1.5074 -2.7557
 7082SOL     OW32881   4.701   1.643   8.617  0.0095  0.0470 -0.0223
 7082SOL    HW132882   0.045   1.690   8.618  0.8324 -1.4256  0.3097
 7082SOL    HW232883   4.645   1.717   8.643  1.1955  0.4967  1.2324
 7083SOL     OW32884   4.404   2.506  17.005 -0.1644  0.5087 -0.0342
 7083SOL    HW132885   4.371   2.556  17.080 -0.2412 -0.6922  0.7345
 7083SOL    HW232886   4.435   2.580  16.953  0.9323  0.2826  0.2887
 7084SOL     OW32887   0.518   2.284   2.456  0.0145  0.1930  0.3283
 7084SOL    HW132888   0.607   2.316   2.441  0.0747  0.2173  0.7406
 7084SOL    HW232889   0.526   2.191   2.479  2.8213  0.2993 -0.2209
 7085SOL     OW32890   3.650   1.180   0.245 -0.3332  0.0746 -0.2548
 7085SOL    HW132891   3.570   1.231   0.237  0.4566  1.7829  3.0126
 7085SOL    HW232892   3.653   1.140   0.158  2.0315  0.7113 -0.4771
 7086SOL     OW32893   1.064   3.589  11.896 -0.1954 -0.0068  0.4229
 7086SOL    HW132894   1.144   3.620  11.938  0.4922 -0.4789 -0.5420
 7086SOL    HW232895   1.013   3.669  11.880  0.2172  0.6197  2.1661
 7087SOL     OW32896   3.051   2.763   6.534  0.5001 -0.1655  0.0756
 7087SOL    HW132897   2.976   2.756   6.475  1.4707  0.4414 -1.2341
 7087SOL    HW232898   3.038   2.684   6.586 -1.9927  1.1342  1.4644
 7088SOL     OW32899   4.130   0.273   7.208  0.1575  0.2247 -0.2672
 7088SOL    HW132900   4.093   0.354   7.243  1.0947  1.7060 -2.7204
 7088SOL    HW232901   4.219   0.303   7.189 -0.1000 -0.0205 -1.8056
 7089SOL     OW32902   0.843   3.481   1.316  0.2784 -0.1491  0.2197
 7089SOL    HW132903   0.816   3.395   1.283 -1.1034 -0.2791  1.6704
 7089SOL    HW232904   0.889   3.516   1.240 -2.0646 -0.7918 -1.5104
 7090SOL     OW32905   2.410   1.785   9.310 -0.0854 -0.1692  0.2311
 7090SOL    HW132906   2.460   1.830   9.242 -0.1984 -1.8111 -0.9468
 7090SOL    HW232907   2.476   1.786   9.379  0.1308 -1.1949  0.0400
 7091SOL     OW32908   0.884   2.285   6.567 -0.0603  0.5714  0.1426
 7091SOL    HW132909   0.978   2.289   6.548  0.2576  0.6682  1.7762
 7091SOL    HW232910   0.898   2.237   6.648  4.4420  0.8969 -0.4277
 7092SOL     OW32911   3.260   0.046  16.953  0.1039 -0.4096 -0.0143
 7092SOL    HW132912   3.292   0.014  16.869  0.4973  0.3599 -0.1503
 7092SOL    HW232913   3.338   0.035  17.007  0.0869  0.3973  0.1737
 7093SOL     OW32914   1.619   1.829  13.197  0.1844  0.0487 -0.1780
 7093SOL    HW132915   1.533   1.785  13.195  0.4153 -0.3159 -2.3944
 7093SOL    HW232916   1.682   1.772  13.242 -0.4854  0.5508  1.4049
 7094SOL     OW32917   1.670   1.216   8.327  0.2794 -0.3421 -0.5602
 7094SOL    HW132918   1.633   1.188   8.244 -0.0057  0.1885 -0.6121
 7094SOL    HW232919   1.682   1.306   8.295 -1.7045  0.7451  1.7709
 7095SOL     OW32920   0.160   0.541   8.464  0.1611 -0.0370  0.3419
 7095SOL    HW132921   0.125   0.574   8.382  0.7284 -2.0865 -0.7412
 7095SOL    HW232922   0.096   0.479   8.499  0.4574 -0.8553 -0.5636
 7096SOL     OW32923   0.827   2.558  10.995  0.3666 -0.6504  0.9841
 7096SOL    HW132924   0.855   2.601  10.915 -0.2779 -1.9181  0.0827
 7096SOL    HW232925   0.779   2.482  10.962 -1.6587  0.2404  1.8989
 7097SOL     OW32926   1.625   1.482   7.605  0.4227  0.2858  0.0798
 7097SOL    HW132927   1.605   1.544   7.535  0.0089  0.8681  0.7119
 7097SOL    HW232928   1.558   1.414   7.600  1.8944 -1.1018 -0.8140
 7098SOL     OW32929   2.931   1.075   8.745  0.3008 -0.2954 -0.4516
 7098SOL    HW132930   2.906   1.000   8.799  0.3967 -0.4902 -0.6756
 7098SOL    HW232931   2.844   1.116   8.742  0.8888  0.8052 -2.4058
 7099SOL     OW32932   2.812   0.944   2.610 -0.3330  0.1030 -0.5543
 7099SOL    HW132933   2.829   0.873   2.548  1.8708  1.4165 -1.4414
 7099SOL    HW232934   2.718   0.933   2.625 -0.2591  1.1000  0.6131
 7100SOL     OW32935   2.146   3.823  15.374 -0.2717 -0.2585  0.4560
 7100SOL    HW132936   2.078   3.854  15.434 -0.6568 -1.0448  0.4317
 7100SOL    HW232937   2.140   3.727  15.375  1.3544 -0.3534 -1.8957
 7101SOL     OW32938   4.045   0.853   8.405  0.1242 -0.1130 -0.3561
 7101SOL    HW132939   4.083   0.911   8.471  1.1676 -1.1216 -0.0605
 7101SOL    HW232940   3.988   0.919   8.366  1.6177  2.3033  1.5481
 7102SOL     OW32941   2.649   1.375   7.893 -0.3654  0.0366  0.1905
 7102SOL    HW132942   2.556   1.355   7.894 -0.1315 -1.0847  0.3510
 7102SOL    HW232943   2.677   1.302   7.838 -3.5068 -0.4537 -0.7626
 7103SOL     OW32944   3.849   0.020   2.675  0.4187 -0.3822  0.5519
 7103SOL    HW132945   3.770   0.023   2.730  0.4609 -0.5369  0.6214
 7103SOL    HW232946   3.811   4.711   2.601  0.6884 -1.1286  0.8937
 7104SOL     OW32947   1.870   1.622   4.031  0.0834 -0.0228  0.2516
 7104SOL    HW132948   1.791   1.672   4.012  0.4642 -0.8361 -3.4340
 7104SOL    HW232949   1.852   1.590   4.120  0.7048 -0.0161  0.3823
 7105SOL     OW32950   1.431   0.990  13.996  0.1609 -0.2791  0.0196
 7105SOL    HW132951   1.468   0.928  13.932 -0.3326  0.6276 -1.1463
 7105SOL    HW232952   1.418   1.068  13.942 -1.5596 -1.0736 -0.7079
 7106SOL     OW32953   1.577   3.156   3.236 -0.6277 -0.3951  0.1834
 7106SOL    HW132954   1.649   3.149   3.298 -1.1387 -1.7770  0.6125
 7106SOL    HW232955   1.621   3.136   3.153 -0.5226 -0.7614  0.3285
 7107SOL     OW32956   1.990   4.614   2.979  0.2201  0.4428  0.1685
 7107SOL    HW132957   1.927   4.578   2.917 -1.6408 -0.8759  2.8099
 7107SOL    HW232958   2.057   4.545   2.984 -1.7015 -1.3728  1.0154
 7108SOL     OW32959   1.631   0.239   8.033  0.2452 -0.5865  0.4918
 7108SOL    HW132960   1.712   0.262   7.987  0.5918  2.1189  2.4550
 7108SOL    HW232961   1.623   0.297   8.109  2.0140  0.1064  0.1578
 7109SOL     OW32962   4.633   0.242   8.114  0.3183 -0.6088  0.4795
 7109SOL    HW132963   4.646   0.299   8.189  1.2770  0.4773 -0.5326
 7109SOL    HW232964   4.677   0.288   8.042 -2.2059  1.4912  0.2846
 7110SOL     OW32965   0.967   0.081  11.308  0.2921  0.0587 -0.2596
 7110SOL    HW132966   1.054   0.052  11.332  0.4914  1.0682  0.2214
 7110SOL    HW232967   0.960   0.036  11.224 -2.6655 -2.0030  1.0821
 7111SOL     OW32968   3.252   3.954   8.173  0.0819 -0.5406  0.0343
 7111SOL    HW132969   3.311   3.888   8.138 -0.8645 -1.4723  0.1979
 7111SOL    HW232970   3.234   3.912   8.258 -0.1998  1.1250  0.7953
 7112SOL     OW32971   0.883   4.394  13.377  0.0904  0.1420 -0.4703
 7112SOL    HW132972   0.956   4.449  13.350  0.0509  0.3266 -0.2000
 7112SOL    HW232973   0.877   4.410  13.471 -0.0731  2.1548 -0.8361
 7113SOL     OW32974   1.428   4.054   6.261  0.6587  0.2776 -0.6419
 7113SOL    HW132975   1.518   4.044   6.290  0.4080  0.8667  0.3175
 7113SOL    HW232976   1.379   4.078   6.339  2.5316 -0.5255  0.7882
 7114SOL     OW32977   1.791   1.506   3.593  0.2903  0.1224 -0.2622
 7114SOL    HW132978   1.701   1.517   3.564  0.0400 -1.0157  0.0784
 7114SOL    HW232979   1.805   1.593   3.630  0.3017  0.6811 -1.5993
 7115SOL     OW32980   4.443   1.173   6.291 -0.4988  0.1432  0.6685
 7115SOL    HW132981   4.373   1.203   6.349 -1.6972  0.0073 -0.6987
 7115SOL    HW232982   4.510   1.228   6.331 -0.8237  1.4828 -0.6287
 7116SOL     OW32983   4.430   3.569   8.366 -0.0901 -0.4171 -0.3557
 7116SOL    HW132984   4.453   3.646   8.313 -0.9215  0.2027  0.1714
 7116SOL    HW232985   4.398   3.616   8.443 -0.9268  0.2075 -1.0693
 7117SOL     OW32986   4.188   1.748   6.884  0.5811  0.1936 -0.3927
 7117SOL    HW132987   4.231   1.799   6.953 -3.1290 -0.3127  2.3050
 7117SOL    HW232988   4.214   1.787   6.801 -1.6931  0.6600 -0.8908
 7118SOL     OW32989   0.603   0.620  15.547 -0.0863 -0.0157  0.5097
 7118SOL    HW132990   0.525   0.675  15.544 -0.5303 -0.7337 -1.2638
 7118SOL    HW232991   0.610   0.589  15.456 -0.3804 -0.1300  0.5271
 7119SOL     OW32992   2.571   2.871   2.045  0.1328  0.2109  0.1853
 7119SOL    HW132993   2.541   2.951   2.089  0.0538  0.2209  0.1139
 7119SOL    HW232994   2.508   2.801   2.061  1.5658 -0.7821  1.5201
 7120SOL     OW32995   0.340   2.196  15.424 -0.3079  0.0676 -0.1062
 7120SOL    HW132996   0.402   2.247  15.372 -1.9242  0.5172 -1.5785
 7120SOL    HW232997   0.282   2.269  15.443  0.0302 -0.2720  2.3132
 7121SOL     OW32998   2.001   4.262   7.396 -0.6696  0.2359 -0.3388
 7121SOL    HW132999   2.013   4.184   7.449 -0.0334  0.8016  0.3480
 7121SOL    HW233000   2.089   4.300   7.394 -0.1579 -0.9894 -0.8993
 7122SOL     OW33001   4.192   2.326   2.321 -0.7417 -0.1292  0.0644
 7122SOL    HW133002   4.231   2.398   2.272 -0.1725  0.7304  1.7808
 7122SOL    HW233003   4.130   2.283   2.262 -0.4010 -1.4435  0.6609
 7123SOL     OW33004   0.015   1.442   5.129 -0.3369 -0.3104 -0.4791
 7123SOL    HW133005   0.083   1.379   5.105  0.3843  0.4290 -0.3828
 7123SOL    HW233006   4.679   1.402   5.086  0.0779 -2.5188  0.8874
 7124SOL     OW33007   0.643   0.914   5.763 -0.0064  0.8071 -0.3119
 7124SOL    HW133008   0.663   0.821   5.776  0.5380  0.8630 -0.7134
 7124SOL    HW233009   0.548   0.921   5.774 -0.2622 -1.2932 -1.1593
 7125SOL     OW33010   2.079   2.587  10.160  0.0035  0.2376  0.1024
 7125SOL    HW133011   2.054   2.610  10.070 -2.1765  1.4644  1.0119
 7125SOL    HW233012   2.052   2.497  10.144  0.3506  0.2793 -0.7129
 7126SOL     OW33013   0.044   1.839   5.129  0.4365  0.4461  0.1204
 7126SOL    HW133014   4.717   1.891   5.081 -1.4770 -1.2402  0.9287
 7126SOL    HW233015   0.114   1.904   5.136 -0.8987  1.9640 -0.4313
 7127SOL     OW33016   0.630   0.761   6.859  0.4653 -0.2769  0.3428
 7127SOL    HW133017   0.619   0.684   6.915  0.3114  0.2166  0.9903
 7127SOL    HW233018   0.604   0.716   6.779 -0.7768  1.7924 -0.4057
 7128SOL     OW33019   2.516   4.364   1.715  0.9078 -0.3582  0.0706
 7128SOL    HW133020   2.428   4.341   1.686  1.3038 -0.5246 -1.0082
 7128SOL    HW233021   2.527   4.316   1.797  0.9599  1.5314  1.1575
 7129SOL     OW33022   1.376   4.576   3.505  0.4442 -0.0050 -0.2565
 7129SOL    HW133023   1.342   4.494   3.540 -0.6512  0.2621 -0.6873
 7129SOL    HW233024   1.325   4.637   3.559 -0.2617  0.9487 -2.0118
 7130SOL     OW33025   0.721   3.008   4.722  0.0192 -0.5901 -0.0866
 7130SOL    HW133026   0.699   3.078   4.783 -1.7552 -1.1229 -0.1309
 7130SOL    HW233027   0.644   2.952   4.730  0.3133 -0.6313  2.4105
 7131SOL     OW33028   3.993   0.297   8.511 -0.1479 -1.1239 -0.4189
 7131SOL    HW133029   4.026   0.278   8.599  0.2931 -0.7930 -0.5095
 7131SOL    HW233030   3.930   0.368   8.525 -0.2785 -1.5557  1.1093
 7132SOL     OW33031   3.254   0.670   1.500 -0.1142  0.3291  0.3138
 7132SOL    HW133032   3.309   0.630   1.567 -0.4629  0.2784  0.5706
 7132SOL    HW233033   3.171   0.654   1.545  0.4415 -2.2813  0.4444
 7133SOL     OW33034   2.813   2.163   6.438  0.2597  0.1575 -0.2749
 7133SOL    HW133035   2.907   2.149   6.426  0.1727 -1.8705  1.3003
 7133SOL    HW233036   2.785   2.120   6.357  0.1878  0.8978 -0.6425
 7134SOL     OW33037   3.124   1.070   6.451  0.2326  0.4575 -0.2767
 7134SOL    HW133038   3.100   0.983   6.420 -1.0044  0.5239  0.4779
 7134SOL    HW233039   3.077   1.123   6.386 -0.8419  0.4786  0.5218
 7135SOL     OW33040   3.569   1.321  14.771 -0.5813  0.3299  0.5166
 7135SOL    HW133041   3.592   1.260  14.842  1.2584  2.5433  1.8125
 7135SOL    HW233042   3.475   1.315  14.788 -0.8937 -1.1201 -1.7088
 7136SOL     OW33043   0.398   4.637   7.441 -0.3225 -0.2709 -0.7146
 7136SOL    HW133044   0.380   4.579   7.515  1.1464 -0.3394 -0.4187
 7136SOL    HW233045   0.409   4.723   7.481  0.3644 -1.0253  0.7306
 7137SOL     OW33046   0.946   1.506   0.054 -0.3777 -0.3757 -0.2979
 7137SOL    HW133047   0.933   1.579  17.746 -1.0511  0.5124  0.8940
 7137SOL    HW233048   0.890   1.442   0.011  0.1041 -2.0360  1.5468
 7138SOL     OW33049   3.171   4.670   2.185  0.3840 -0.4023  0.2902
 7138SOL    HW133050   3.078   4.679   2.162  0.7013  1.3022 -0.2850
 7138SOL    HW233051   3.161   4.661   2.280  1.3084 -3.6050  0.0883
 7139SOL     OW33052   3.917   0.195  10.127  0.2431 -0.2233 -0.6871
 7139SOL    HW133053   3.866   0.168  10.203  1.3251 -1.1055 -0.2739
 7139SOL    HW233054   3.932   0.112  10.083  1.0797 -0.4655  0.0470
 7140SOL     OW33055   0.086   4.382   5.151  0.5790 -0.1396  0.3428
 7140SOL    HW133056   4.736   4.353   5.130  1.2001 -1.1343 -0.9009
 7140SOL    HW233057   0.075   4.477   5.149 -2.5395 -0.4774  1.1193
 7141SOL     OW33058   1.843   1.288  10.676  0.2419 -0.1850  0.3128
 7141SOL    HW133059   1.778   1.294  10.746  0.0664  0.3053  0.1105
 7141SOL    HW233060   1.901   1.223  10.714 -0.2039 -0.9720 -0.3479
 7142SOL     OW33061   1.278   1.394  10.299 -0.0492 -0.2191  0.1090
 7142SOL    HW133062   1.201   1.451  10.296  0.3502  0.4317  2.1743
 7142SOL    HW233063   1.236   1.320  10.343 -1.2169  0.8408  0.7638
 7143SOL     OW33064   0.967   2.735   7.624  0.1771 -0.5446 -0.2230
 7143SOL    HW133065   1.050   2.724   7.578  1.1791  1.7189  1.0463
 7143SOL    HW233066   0.968   2.830   7.629 -0.5468 -0.5575  0.1256
 7144SOL     OW33067   2.207   2.774   4.721  0.4761  0.2290  0.0667
 7144SOL    HW133068   2.150   2.708   4.761  1.6472  0.2470  1.7788
 7144SOL    HW233069   2.152   2.849   4.699 -0.7697 -0.4630  0.8760
 7145SOL     OW33070   2.958   3.548   6.934  0.2799 -0.2558  0.0143
 7145SOL    HW133071   3.011   3.515   6.861 -0.6330 -1.7070  0.0008
 7145SOL    HW233072   2.869   3.523   6.907  0.4309 -1.2783  0.4490
 7146SOL     OW33073   3.491   0.607   9.619 -0.4034  0.0851  0.2159
 7146SOL    HW133074   3.444   0.534   9.659 -0.9401 -0.2415 -1.0227
 7146SOL    HW233075   3.447   0.632   9.538  0.0721 -1.2479 -0.4666
 7147SOL     OW33076   2.035   0.625   3.671  0.0477 -0.4154  0.4883
 7147SOL    HW133077   2.086   0.699   3.637 -1.5248  0.8410  0.8978
 7147SOL    HW233078   2.113   0.569   3.679 -0.2200 -0.8045  0.4104
 7148SOL     OW33079   0.345   1.482   3.493 -0.3193  0.1998 -0.1286
 7148SOL    HW133080   0.265   1.522   3.527  0.7383  1.1184  1.2829
 7148SOL    HW233081   0.409   1.499   3.562 -0.2275 -1.8941  0.2874
 7149SOL     OW33082   3.163   1.820   7.717 -0.6899 -0.1389  0.1340
 7149SOL    HW133083   3.212   1.903   7.718 -1.3931  0.2820 -0.1220
 7149SOL    HW233084   3.195   1.783   7.799  0.6290  3.2265  1.1440
 7150SOL     OW33085   3.396   0.269   4.851  0.0291 -0.1437  0.1518
 7150SOL    HW133086   3.489   0.284   4.836  0.9408 -3.2249  2.7424
 7150SOL    HW233087   3.369   0.227   4.770 -1.2843 -1.5142  1.2998
 7151SOL     OW33088   3.638   2.412   9.024  0.1749 -0.6374 -0.2116
 7151SOL    HW133089   3.611   2.320   9.019 -3.7421  0.4127  1.5494
 7151SOL    HW233090   3.712   2.396   9.082  1.7622  1.5438 -1.6553
 7152SOL     OW33091   3.615   3.167   3.844 -0.5436 -0.0663  0.0460
 7152SOL    HW133092   3.550   3.224   3.804  1.6785  1.7518 -0.9675
 7152SOL    HW233093   3.564   3.089   3.868 -3.1304  1.4455 -0.5593
 7153SOL     OW33094   3.577   1.342   1.902 -0.5712 -0.0311 -0.0832
 7153SOL    HW133095   3.565   1.269   1.963  2.9564  1.7718  2.7598
 7153SOL    HW233096   3.520   1.313   1.830 -0.6844 -0.7733  0.3029
 7154SOL     OW33097   0.718   3.431  13.842  0.3604  0.1714 -0.2271
 7154SOL    HW133098   0.739   3.524  13.831 -3.4042  0.8473 -1.5649
 7154SOL    HW233099   0.639   3.438  13.894  0.0968 -1.4739 -0.3941
 7155SOL     OW33100   0.318   1.223   3.640  0.0451  0.4477  0.5683
 7155SOL    HW133101   0.371   1.289   3.595 -1.5348 -0.6228 -2.8345
 7155SOL    HW233102   0.304   1.159   3.570  2.4834 -1.2100  1.5671
 7156SOL     OW33103   0.601   1.550   5.650 -0.0115  0.0880 -0.5717
 7156SOL    HW133104   0.694   1.575   5.652  0.0187 -0.2526  1.5801
 7156SOL    HW233105   0.554   1.627   5.682 -0.6026 -0.6141  0.2161
 7157SOL     OW33106   1.254   0.990   6.919  0.0170  0.2103 -0.6287
 7157SOL    HW133107   1.342   1.027   6.927  0.0052  0.3157 -0.9927
 7157SOL    HW233108   1.216   1.074   6.894 -0.3159 -0.1213 -1.2306
 7158SOL     OW33109   1.687   4.433   7.073 -0.6075  0.8989  0.4624
 7158SOL    HW133110   1.659   4.390   7.153  0.2396  0.2037  0.3778
 7158SOL    HW233111   1.782   4.435   7.078 -0.6769  1.4456  1.3682
 7159SOL     OW33112   1.593   4.063   8.910 -0.1071  0.1178 -0.1193
 7159SOL    HW133113   1.683   4.059   8.878 -0.6862  1.8942 -1.9152
 7159SOL    HW233114   1.544   4.036   8.833 -0.7249  0.6796  0.0800
 7160SOL     OW33115   2.038   0.288   1.732  0.1524  0.0874 -0.3060
 7160SOL    HW133116   2.114   0.261   1.784  1.0212 -1.7117 -2.4822
 7160SOL    HW233117   2.077   0.286   1.645  0.8020 -3.8035  0.0723
 7161SOL     OW33118   3.594   1.720  10.717  0.2969  0.2605 -0.0996
 7161SOL    HW133119   3.546   1.649  10.761  2.0972 -0.2633  1.0003
 7161SOL    HW233120   3.580   1.794  10.776 -0.2246  0.6789 -0.7429
 7162SOL     OW33121   1.737   4.494   2.324 -0.0524  0.4922 -0.4382
 7162SOL    HW133122   1.731   4.521   2.232 -1.9666  0.3208 -0.3815
 7162SOL    HW233123   1.830   4.482   2.341 -0.0602  1.0942  0.0342
 7163SOL     OW33124   3.710   2.732   6.145  0.1668  0.0836  0.1275
 7163SOL    HW133125   3.777   2.709   6.080 -1.0839 -1.2389 -0.6714
 7163SOL    HW233126   3.747   2.704   6.229 -2.8131 -0.9260  1.0672
 7164SOL     OW33127   3.774   2.997   7.644 -0.1893 -0.1286 -0.5255
 7164SOL    HW133128   3.737   2.912   7.669  0.3087 -1.0923 -3.0632
 7164SOL    HW233129   3.698   3.053   7.625 -0.0950  1.1108  2.8168
 7165SOL     OW33130   3.201   2.228   7.466  0.6166 -0.0291  0.3760
 7165SOL    HW133131   3.146   2.150   7.471 -0.0598  0.4228  0.0020
 7165SOL    HW233132   3.129   2.287   7.443 -0.7280 -2.0697 -0.7079
 7166SOL     OW33133   1.908   1.123   4.596  0.4099  0.4028  0.2486
 7166SOL    HW133134   1.822   1.164   4.605 -0.0866 -1.1005  2.3196
 7166SOL    HW233135   1.934   1.168   4.516 -1.5790 -0.4491 -0.8807
 7167SOL     OW33136   3.043   2.911   8.656 -0.2118 -0.2915 -0.5478
 7167SOL    HW133137   3.057   3.004   8.674 -0.7068 -0.3406  0.1083
 7167SOL    HW233138   2.947   2.910   8.658 -0.2329 -0.0990 -1.8617
 7168SOL     OW33139   0.304   1.668   8.576 -0.3993 -0.1334  0.0929
 7168SOL    HW133140   0.342   1.751   8.547 -0.8890  0.1032  0.1272
 7168SOL    HW233141   0.367   1.641   8.644 -0.2419  0.9682  0.3790
 7169SOL     OW33142   0.097   1.508   8.026  0.0349  0.1676 -0.2517
 7169SOL    HW133143   0.099   1.412   8.034  0.2308  0.1443 -0.5704
 7169SOL    HW233144   0.027   1.534   8.086  0.9423  2.4023 -0.1828
 7170SOL     OW33145   3.883   1.253   5.637 -0.6140  0.0099  0.1958
 7170SOL    HW133146   3.937   1.174   5.639  1.2369  1.2357 -1.5774
 7170SOL    HW233147   3.876   1.255   5.541  0.6757  1.7217  0.1401
 7171SOL     OW33148   0.621   4.434  13.281  0.3321  0.0034  0.1127
 7171SOL    HW133149   0.700   4.416  13.332  0.3220  3.5770  1.3903
 7171SOL    HW233150   0.662   4.440  13.195 -1.9381  3.0241 -0.7373
 7172SOL     OW33151   3.394   2.008  15.358  0.4636 -0.2443  0.1982
 7172SOL    HW133152   3.478   2.007  15.403  0.7467  1.7219 -0.2836
 7172SOL    HW233153   3.365   1.921  15.385  1.1117 -0.9630 -1.4694
 7173SOL     OW33154   2.279   2.543  13.358 -0.0707 -0.0126 -0.8393
 7173SOL    HW133155   2.330   2.607  13.407  0.1578  0.2118 -1.3663
 7173SOL    HW233156   2.347   2.504  13.302  1.4537 -0.5194  1.3804
 7174SOL     OW33157   2.143   4.346   3.896 -0.3557  0.0842  0.1790
 7174SOL    HW133158   2.095   4.275   3.938 -2.2813  0.0311 -2.1146
 7174SOL    HW233159   2.078   4.414   3.879 -2.8407 -1.8150  2.1806
 7175SOL     OW33160   0.637   0.188   6.061 -0.4162  0.6823  0.4812
 7175SOL    HW133161   0.720   0.208   6.017  0.7251 -0.2001  2.2589
 7175SOL    HW233162   0.668   0.104   6.093  1.2484  0.4896 -1.6468
 7176SOL     OW33163   2.409   1.137   4.967  0.9289 -0.3828 -0.1495
 7176SOL    HW133164   2.454   1.219   4.947  0.0726 -0.8851 -4.0820
 7176SOL    HW233165   2.454   1.085   4.901  1.5443  1.1098 -0.8870
 7177SOL     OW33166   1.662   3.840  13.797  0.2268  0.0521  0.4802
 7177SOL    HW133167   1.575   3.834  13.757  1.3022 -1.9952 -1.5557
 7177SOL    HW233168   1.711   3.818  13.718 -0.1934 -0.8550  0.4627
 7178SOL     OW33169   3.492   2.760   6.625 -0.0135 -0.1668 -0.1192
 7178SOL    HW133170   3.450   2.807   6.553  0.5771 -0.3547 -0.5837
 7178SOL    HW233171   3.507   2.825   6.694  1.2621  1.3687 -1.8559
 7179SOL     OW33172   0.583   3.173   0.361  0.4149  0.6856  0.3449
 7179SOL    HW133173   0.545   3.098   0.406 -1.9891  1.5014 -0.3186
 7179SOL    HW233174   0.630   3.127   0.291  0.6566  1.3496  0.0680
 7180SOL     OW33175   4.699   2.216   4.027  0.0152 -0.0214  0.2263
 7180SOL    HW133176   0.022   2.288   4.015 -0.5979  0.6732  1.2014
 7180SOL    HW233177   0.011   2.157   4.083  1.8557 -0.6088 -2.0881
 7181SOL     OW33178   0.403   3.159   7.222  0.1394  0.4479  0.0836
 7181SOL    HW133179   0.350   3.108   7.283  1.0529 -1.8718 -1.0415
 7181SOL    HW233180   0.373   3.249   7.229  0.3838  0.3963  1.6289
 7182SOL     OW33181   0.838   0.778   1.562  0.2648 -0.0410 -0.6169
 7182SOL    HW133182   0.826   0.843   1.632  0.4708 -0.6883  0.0262
 7182SOL    HW233183   0.896   0.827   1.504 -1.5264 -0.1399 -2.4799
 7183SOL     OW33184   1.671   3.023  10.910  0.3456 -0.4717 -0.7662
 7183SOL    HW133185   1.675   3.088  10.979  0.8422 -2.9429  1.5261
 7183SOL    HW233186   1.740   2.961  10.934 -0.6032 -0.7519  1.2361
 7184SOL     OW33187   2.686   3.535   6.810  0.5168 -0.1369 -0.2041
 7184SOL    HW133188   2.712   3.626   6.799  0.6317 -0.2526 -0.8950
 7184SOL    HW233189   2.614   3.537   6.747  0.4574 -0.4069 -0.1428
 7185SOL     OW33190   1.472   0.218   7.336 -0.3772 -0.2347 -0.5183
 7185SOL    HW133191   1.513   0.225   7.249 -0.4002  0.9684 -0.4327
 7185SOL    HW233192   1.532   0.264   7.395  0.0854 -1.0029 -0.3804
 7186SOL     OW33193   2.109   2.587   2.786 -0.0505 -0.4724  0.1134
 7186SOL    HW133194   2.128   2.557   2.875  0.7267 -1.7745 -0.4808
 7186SOL    HW233195   2.154   2.521   2.733  0.0677 -1.8032  1.8672
 7187SOL     OW33196   0.536   3.458  13.062  0.1674 -0.2806 -0.5400
 7187SOL    HW133197   0.483   3.469  12.983  1.1838  2.0885 -0.8933
 7187SOL    HW233198   0.483   3.517  13.117 -0.5791 -1.0388 -0.4370
 7188SOL     OW33199   1.377   1.246  13.881 -0.2502  0.5063  0.2132
 7188SOL    HW133200   1.293   1.241  13.928 -0.7614 -2.6193 -1.0179
 7188SOL    HW233201   1.355   1.237  13.788  0.5672  0.1791  0.0526
 7189SOL     OW33202   3.690   4.601   1.780  0.7795 -0.2769 -0.1410
 7189SOL    HW133203   3.688   4.625   1.688 -1.3982 -1.8932 -0.5200
 7189SOL    HW233204   3.756   4.669   1.793  1.0885 -0.0194 -3.1198
 7190SOL     OW33205   4.481   0.188   4.044  0.1898  0.0586  0.7669
 7190SOL    HW133206   4.541   0.162   4.114 -0.4959 -0.8291  1.0313
 7190SOL    HW233207   4.455   0.273   4.079  1.0423  0.2267  1.0035
 7191SOL     OW33208   1.986   0.657  11.423  0.3509 -0.4912 -0.2168
 7191SOL    HW133209   2.059   0.597  11.439  0.4645 -0.1202  0.6536
 7191SOL    HW233210   1.943   0.659  11.508  1.2735 -1.3613  0.2620
 7192SOL     OW33211   0.186   2.092   4.174 -0.0675  0.6877  1.0251
 7192SOL    HW133212   0.221   2.042   4.100  0.8879 -1.4810  2.9647
 7192SOL    HW233213   0.197   2.019   4.236 -1.7480 -2.0845 -1.9370
 7193SOL     OW33214   2.510   3.812  14.236 -0.2597  0.2812  0.6783
 7193SOL    HW133215   2.472   3.899  14.222  3.3971  1.6955 -0.4538
 7193SOL    HW233216   2.567   3.824  14.311 -0.8457  0.7182  1.0515
 7194SOL     OW33217   4.658   2.610   1.901 -0.1843  0.0821 -0.1195
 7194SOL    HW133218   4.600   2.554   1.849 -0.1574 -2.0786  2.1690
 7194SOL    HW233219   4.715   2.545   1.941 -1.9324 -1.2700  0.1715
 7195SOL     OW33220   3.831   1.973  12.760  0.6912  0.6695  0.4027
 7195SOL    HW133221   3.838   2.005  12.670  1.7676  0.2914  0.3499
 7195SOL    HW233222   3.778   1.895  12.740 -1.2046  1.2253  3.3819
 7196SOL     OW33223   3.552   0.402   7.964 -0.4377  0.0607  0.2611
 7196SOL    HW133224   3.584   0.492   7.954 -1.3717  0.3014 -0.5472
 7196SOL    HW233225   3.585   0.357   7.887  0.1437  1.2790 -0.2015
 7197SOL     OW33226   1.379   2.969  10.788  0.1665 -0.1980 -0.0857
 7197SOL    HW133227   1.454   2.955  10.729 -0.7130  0.2875 -1.3324
 7197SOL    HW233228   1.425   3.003  10.864 -0.1714 -1.1938  0.5605
 7198SOL     OW33229   3.133   0.923   2.672 -0.2756 -0.0175  0.1454
 7198SOL    HW133230   3.100   0.901   2.759 -0.9123  0.8026  0.1145
 7198SOL    HW233231   3.121   0.841   2.624  2.5703  0.0742 -0.7260
 7199SOL     OW33232   4.387   0.410   3.264 -0.2582 -0.1817 -0.4967
 7199SOL    HW133233   4.339   0.396   3.183 -2.6207 -0.7024  1.0003
 7199SOL    HW233234   4.338   0.490   3.282 -0.4093 -0.0054 -1.6606
 7200SOL     OW33235   3.165   2.256  15.143  0.0164 -0.2715  0.3783
 7200SOL    HW133236   3.255   2.232  15.118 -0.2600 -0.4859 -0.3986
 7200SOL    HW233237   3.122   2.237  15.060  0.4685 -0.8251  0.2704
 7201SOL     OW33238   2.910   3.712   0.216 -0.9784  0.3532  0.2886
 7201SOL    HW133239   2.881   3.623   0.238  1.2196 -0.4810 -0.2037
 7201SOL    HW233240   3.005   3.715   0.210 -1.1156  3.0390 -0.3463
 7202SOL     OW33241   3.088   0.702   5.881 -0.5506  0.3427  0.3302
 7202SOL    HW133242   3.026   0.775   5.881 -0.2870  0.5669  0.3033
 7202SOL    HW233243   3.099   0.685   5.974  1.9351  0.4957  0.0815
 7203SOL     OW33244   3.588   4.735   6.279  0.4642 -0.4440 -0.1778
 7203SOL    HW133245   3.529   0.072   6.289 -0.4200 -0.9029 -1.9190
 7203SOL    HW233246   3.550   4.698   6.200 -1.6270 -0.5505  0.8589
 7204SOL     OW33247   1.496   1.261  15.468  0.2192  0.0793  0.1341
 7204SOL    HW133248   1.499   1.323  15.395  1.7464 -0.1827 -0.0129
 7204SOL    HW233249   1.519   1.319  15.540  0.4194  0.5224 -0.2913
 7205SOL     OW33250   2.268   4.151   3.728 -0.0844 -0.2247 -0.1743
 7205SOL    HW133251   2.290   4.231   3.680 -0.1311  0.8505  1.5964
 7205SOL    HW233252   2.188   4.183   3.770 -0.3786 -0.2718 -0.6958
 7206SOL     OW33253   1.129   0.260   6.179  0.3167  0.3185  0.3055
 7206SOL    HW133254   1.138   0.259   6.083  1.3135 -2.6145  0.4303
 7206SOL    HW233255   1.076   0.181   6.186 -0.4011  0.7063 -0.6373
 7207SOL     OW33256   2.739   1.556   6.963  0.1000  0.5076  0.0902
 7207SOL    HW133257   2.788   1.583   7.041 -1.9091  0.4179  1.3833
 7207SOL    HW233258   2.721   1.645   6.934 -1.4782  0.7281  1.7465
 7208SOL     OW33259   3.392   3.016   0.683 -0.2997  0.7128 -0.6177
 7208SOL    HW133260   3.299   3.033   0.698 -0.3525 -1.0804  1.0787
 7208SOL    HW233261   3.421   3.076   0.752  1.3170  0.0168 -0.7091
 7209SOL     OW33262   1.292   1.958   4.711 -0.0799  0.1013  0.6525
 7209SOL    HW133263   1.336   1.875   4.729 -0.2458 -0.1228  0.0342
 7209SOL    HW233264   1.206   1.925   4.686  0.1214  0.1278 -0.0695
 7210SOL     OW33265   2.405   0.215  16.323 -0.0643  0.3858  0.1398
 7210SOL    HW133266   2.385   0.217  16.230  2.4775  3.5802 -0.3787
 7210SOL    HW233267   2.342   0.277  16.361  0.1034 -0.1439  1.2738
 7211SOL     OW33268   2.647   2.604   5.922  0.3860  0.2210 -0.3756
 7211SOL    HW133269   2.686   2.565   6.000 -1.1535 -2.9370 -1.1856
 7211SOL    HW233270   2.690   2.690   5.923  3.9529 -1.5416 -1.5227
 7212SOL     OW33271   1.018   1.504   2.021 -0.2922 -0.2514 -0.0443
 7212SOL    HW133272   1.109   1.529   2.003 -1.2903  1.4633 -2.6486
 7212SOL    HW233273   0.973   1.517   1.937 -0.0972 -1.3918 -0.3344
 7213SOL     OW33274   3.544   1.968   7.612 -0.1101  0.4206  0.5928
 7213SOL    HW133275   3.489   2.039   7.646 -3.2198 -0.9723 -1.6078
 7213SOL    HW233276   3.587   2.010   7.538 -5.4746  1.8700 -1.6881
 7214SOL     OW33277   2.763   2.603  12.095  0.4012  0.7145  0.1797
 7214SOL    HW133278   2.728   2.632  12.179 -0.7058 -0.7086  0.1991
 7214SOL    HW233279   2.833   2.542  12.118  1.8966  2.4556  0.3624
 7215SOL     OW33280   4.173   4.203  14.822 -0.5008  0.1723  0.3646
 7215SOL    HW133281   4.233   4.140  14.782 -0.5501  0.3041  0.0835
 7215SOL    HW233282   4.176   4.269  14.753  0.1316 -1.3991 -1.1047
 7216SOL     OW33283   2.556   2.455   3.481 -0.4390  0.6883  0.0965
 7216SOL    HW133284   2.595   2.494   3.559 -1.6861  0.1088  1.0321
 7216SOL    HW233285   2.600   2.370   3.481 -1.4938  0.1383 -0.9012
 7217SOL     OW33286   1.422   2.111   4.531 -0.0779  0.2490  0.3841
 7217SOL    HW133287   1.509   2.073   4.541  0.1054  0.5261 -0.1503
 7217SOL    HW233288   1.368   2.065   4.595  0.7985 -1.9207 -0.4299
 7218SOL     OW33289   2.768   4.071   1.725 -0.6377  0.5853 -0.2431
 7218SOL    HW133290   2.839   4.099   1.783 -3.0381 -0.9888  3.5018
 7218SOL    HW233291   2.706   4.140   1.749 -1.0007 -0.3461  1.5287
 7219SOL     OW33292   4.196   3.707  16.163  0.4218 -0.1897 -0.0497
 7219SOL    HW133293   4.110   3.688  16.127  0.3018  0.3100 -0.0233
 7219SOL    HW233294   4.218   3.790  16.120  0.1278 -0.4123 -0.6306
 7220SOL     OW33295   4.489   1.708   5.200  0.3435  0.1202 -0.1189
 7220SOL    HW133296   4.459   1.652   5.128  0.4108 -0.3926  0.2509
 7220SOL    HW233297   4.564   1.753   5.162  0.2477  1.7486  1.5909
 7221SOL     OW33298   0.830   1.785  10.831  0.5048 -0.1100  0.1006
 7221SOL    HW133299   0.888   1.786  10.755  0.3871 -2.7716 -0.0122
 7221SOL    HW233300   0.751   1.832  10.802  1.5462  2.6092  1.6569
 7222SOL     OW33301   1.277   2.805  16.415 -0.1933 -0.1132  0.3068
 7222SOL    HW133302   1.191   2.840  16.438 -0.4994 -0.5868 -0.1323
 7222SOL    HW233303   1.263   2.711  16.424 -0.0879 -0.3539 -1.9001
 7223SOL     OW33304   0.402   3.037   5.347 -0.0213  0.6514  0.5395
 7223SOL    HW133305   0.322   3.050   5.295 -1.5806  0.9632  3.0047
 7223SOL    HW233306   0.464   3.004   5.282  0.9116  1.3692  1.0829
 7224SOL     OW33307   0.857   0.059   5.669 -0.0188 -0.2881 -0.1392
 7224SOL    HW133308   0.793   0.086   5.603  0.4292 -0.5837 -0.7027
 7224SOL    HW233309   0.903   0.002   5.607  0.1574 -0.4104  0.1051
 7225SOL     OW33310   4.166   2.403  14.659  0.2834 -0.1492  0.3307
 7225SOL    HW133311   4.154   2.413  14.754 -1.0013  0.3347  0.1143
 7225SOL    HW233312   4.073   2.383  14.646  0.5252 -0.3861 -0.9556
 7226SOL     OW33313   2.052   4.729  14.541  0.3884  0.0965  0.2294
 7226SOL    HW133314   2.052   0.086  14.538  1.0881  0.0940  0.1198
 7226SOL    HW233315   2.134   4.716  14.493 -0.7795 -1.6193 -1.3370
 7227SOL     OW33316   2.855   0.870   8.906  0.3282  0.2638 -0.3602
 7227SOL    HW133317   2.832   0.777   8.903  1.9356 -0.1153 -1.2952
 7227SOL    HW233318   2.796   0.894   8.977  0.4151  2.4521 -1.0361
 7228SOL     OW33319   0.717   1.870   6.278 -0.1392  0.5366  0.3423
 7228SOL    HW133320   0.809   1.843   6.285 -0.2370 -0.0188 -0.5547
 7228SOL    HW233321   0.684   1.859   6.367 -1.5154 -2.9905 -0.6371
 7229SOL     OW33322   1.717   1.377   2.622  0.3526 -0.1441  0.0853
 7229SOL    HW133323   1.673   1.406   2.542 -0.5615  1.0671  1.0093
 7229SOL    HW233324   1.644   1.395   2.682 -0.1373  1.6164 -1.0437
 7230SOL     OW33325   3.963   0.532  16.708  0.1697  0.1029  0.2853
 7230SOL    HW133326   3.918   0.616  16.697 -0.0012 -0.2753 -1.7792
 7230SOL    HW233327   3.928   0.493  16.628  1.1784 -3.4951  1.6214
 7231SOL     OW33328   0.544   2.254  16.890  0.3442 -0.1780 -0.4503
 7231SOL    HW133329   0.460   2.299  16.900  0.3671  0.1226 -1.6576
 7231SOL    HW233330   0.560   2.213  16.975 -1.8015  1.7432  0.8769
 7232SOL     OW33331   2.211   1.139  16.648  0.1449  0.6025  0.1153
 7232SOL    HW133332   2.263   1.060  16.660  0.7627  0.9364 -0.3751
 7232SOL    HW233333   2.135   1.126  16.704  0.2525 -0.5185  0.0007
 7233SOL     OW33334   2.718   3.767   3.170 -0.5067 -0.2608  1.1833
 7233SOL    HW133335   2.703   3.862   3.170 -0.8634 -0.3174  1.6480
 7233SOL    HW233336   2.629   3.746   3.142 -1.8744  1.6763  3.9929
 7234SOL     OW33337   0.154   0.807   3.881  0.0712  0.0505  0.7148
 7234SOL    HW133338   0.201   0.888   3.861 -1.3662  0.6697 -0.1542
 7234SOL    HW233339   0.098   0.800   3.804  1.4820 -0.9025 -0.2233
 7235SOL     OW33340   3.914   3.159   2.066  0.5389  0.2635  0.0436
 7235SOL    HW133341   3.955   3.244   2.081 -0.8710  1.1589 -1.1452
 7235SOL    HW233342   3.837   3.176   2.012  0.5451  1.2152  0.3389
 7236SOL     OW33343   0.216   4.290   2.294 -0.1215 -0.3085  0.4092
 7236SOL    HW133344   0.283   4.252   2.236  0.5810  4.9320 -2.2566
 7236SOL    HW233345   0.206   4.216   2.353 -0.5829 -2.5961 -2.5220
 7237SOL     OW33346   1.059   3.281   7.414 -0.0959  0.6760 -0.6611
 7237SOL    HW133347   1.014   3.263   7.332  2.0686 -3.9952 -0.8057
 7237SOL    HW233348   1.093   3.195   7.437 -1.8326  0.0927 -0.2617
 7238SOL     OW33349   3.039   1.100   5.873  0.4940 -0.0443  0.4378
 7238SOL    HW133350   3.037   1.196   5.870 -1.1346  0.0312  3.3582
 7238SOL    HW233351   2.975   1.076   5.940 -0.2352  0.7574  0.0178
 7239SOL     OW33352   1.358   3.882   7.046  0.3731 -0.4013 -0.4336
 7239SOL    HW133353   1.452   3.877   7.031  0.3428 -3.0161  0.2728
 7239SOL    HW233354   1.358   3.860   7.139  0.7805 -0.3208 -0.4147
 7240SOL     OW33355   2.409   4.704   8.608 -0.0425 -0.4072  0.2271
 7240SOL    HW133356   2.398   4.631   8.548  1.0159  0.2600 -0.7747
 7240SOL    HW233357   2.442   4.649   8.679 -0.7489 -0.9561  0.1214
 7241SOL     OW33358   2.711   2.115   6.869 -0.1292 -0.5134 -0.1070
 7241SOL    HW133359   2.616   2.130   6.860  0.0387  0.4734 -0.2384
 7241SOL    HW233360   2.721   2.127   6.964  1.0623 -2.2709 -0.0293
 7242SOL     OW33361   1.797   0.780   8.732 -0.3871  0.5303 -0.0634
 7242SOL    HW133362   1.800   0.693   8.691  0.0112  0.8554 -0.7300
 7242SOL    HW233363   1.711   0.775   8.774 -0.0086  1.2928  0.7841
 7243SOL     OW33364   2.052   2.419   9.536  0.2670  0.2410  0.1878
 7243SOL    HW133365   2.069   2.505   9.498  2.4223  0.0583  0.7489
 7243SOL    HW233366   2.116   2.423   9.607  0.6301 -0.7326 -0.0834
 7244SOL     OW33367   1.818   4.054   7.745  0.5096  0.0848  0.1004
 7244SOL    HW133368   1.873   3.992   7.697 -1.1393 -0.7780 -0.6655
 7244SOL    HW233369   1.856   4.034   7.831  0.0980 -1.7196 -0.1281
 7245SOL     OW33370   2.085   3.692   8.540  0.0215 -0.3743  0.4518
 7245SOL    HW133371   2.008   3.652   8.498 -0.9396  3.2667 -1.2720
 7245SOL    HW233372   2.098   3.616   8.596 -1.4173 -1.9703 -1.3629
 7246SOL     OW33373   2.952   0.378   9.135 -0.2139 -0.1957  0.7584
 7246SOL    HW133374   2.965   0.471   9.153 -1.2485  0.3170 -1.0846
 7246SOL    HW233375   2.981   0.366   9.045 -0.0901  2.0302  0.4956
 7247SOL     OW33376   1.453   3.017   4.183 -0.0661 -0.3128  0.3674
 7247SOL    HW133377   1.518   2.995   4.250  1.3092  0.7787 -0.6051
 7247SOL    HW233378   1.453   3.112   4.180 -1.7598 -0.3107  0.6067
 7248SOL     OW33379   2.988   1.149   2.593 -0.2213  0.0523  0.1928
 7248SOL    HW133380   3.051   1.079   2.611 -0.3034 -0.4046 -1.2889
 7248SOL    HW233381   2.906   1.106   2.568 -0.3663 -0.6355  1.8416
 7249SOL     OW33382   1.924   2.852   4.355  0.2870  0.0871  0.0548
 7249SOL    HW133383   1.912   2.762   4.384  0.1566  0.3144  0.6962
 7249SOL    HW233384   1.845   2.855   4.301 -0.5396 -1.4016  1.1962
 7250SOL     OW33385   1.699   3.120   6.551  0.1298  0.0658 -0.0329
 7250SOL    HW133386   1.750   3.067   6.489 -0.6986 -0.0427 -0.6328
 7250SOL    HW233387   1.610   3.091   6.530  0.3905 -2.0248  1.8797
 7251SOL     OW33388   2.195   2.657   3.205 -0.3335 -0.6976 -0.5648
 7251SOL    HW133389   2.265   2.668   3.141 -0.4493  1.1148 -0.3798
 7251SOL    HW233390   2.244   2.659   3.287 -0.9459  1.9827 -0.2799
 7252SOL     OW33391   0.735   2.512  16.811 -0.3881 -0.0548 -0.0121
 7252SOL    HW133392   0.650   2.469  16.815 -0.5989  0.1640 -2.3071
 7252SOL    HW233393   0.788   2.439  16.777  1.1685  2.0561 -2.1481
 7253SOL     OW33394   3.985   3.887  10.998  0.1839 -0.3532 -1.0475
 7253SOL    HW133395   4.028   3.967  11.029  1.4371 -0.7168 -1.8741
 7253SOL    HW233396   4.064   3.848  10.962  0.2209  0.2821 -1.6574
 7254SOL     OW33397   4.219   3.051   4.967 -0.0758 -0.2130  0.0508
 7254SOL    HW133398   4.302   3.021   5.005  0.0551 -1.3459 -1.1085
 7254SOL    HW233399   4.172   3.040   5.050  1.3563 -0.6790  0.7997
 7255SOL     OW33400   1.869   2.735  10.574  0.0368  0.2584 -0.1115
 7255SOL    HW133401   1.802   2.683  10.530  0.2001  0.6254 -0.8054
 7255SOL    HW233402   1.952   2.726  10.528  0.4042 -1.8809  1.0183
 7256SOL     OW33403   3.398   3.890   2.814  0.0954 -0.4993  0.4816
 7256SOL    HW133404   3.416   3.924   2.727 -1.0531  0.8109  0.7616
 7256SOL    HW233405   3.304   3.903   2.820 -0.1331 -1.5806 -0.7408
 7257SOL     OW33406   0.659   4.438   7.573  0.5064  0.2067  0.0246
 7257SOL    HW133407   0.583   4.416   7.627 -0.4139  3.4208  0.0251
 7257SOL    HW233408   0.678   4.522   7.616 -3.6538  0.8079  0.6631
 7258SOL     OW33409   4.006   2.501  15.628  0.6281  0.1170  0.3742
 7258SOL    HW133410   3.925   2.500  15.679  1.6133  0.0072  1.9334
 7258SOL    HW233411   4.044   2.585  15.656 -0.4578  1.0754 -1.0458
 7259SOL     OW33412   2.317   1.632   1.138  0.9723 -0.4521  0.0426
 7259SOL    HW133413   2.320   1.572   1.213  0.9636  1.0817  1.2829
 7259SOL    HW233414   2.313   1.573   1.063  2.1496 -0.6396  0.1153
 7260SOL     OW33415   0.688   3.290   7.936  0.0975  0.3120  0.2244
 7260SOL    HW133416   0.682   3.385   7.935  0.3929  0.3360  0.5742
 7260SOL    HW233417   0.602   3.263   7.970 -0.0387  2.7358  1.7618
 7261SOL     OW33418   3.242   4.662   3.101  0.2255 -0.4058  0.3179
 7261SOL    HW133419   3.316   4.691   3.154  2.0209 -2.1355 -1.2294
 7261SOL    HW233420   3.256   4.568   3.113 -0.4762 -0.6588 -0.8656
 7262SOL     OW33421   0.589   4.497   3.053 -0.3761 -0.1520 -0.2760
 7262SOL    HW133422   0.539   4.578   3.066  1.1332  1.2095 -2.8879
 7262SOL    HW233423   0.520   4.440   3.020  0.4565 -1.1673 -0.2523
 7263SOL     OW33424   4.350   3.184   9.516  0.3743  0.1935 -0.0052
 7263SOL    HW133425   4.260   3.182   9.486  1.0750 -0.2237 -2.0619
 7263SOL    HW233426   4.355   3.245   9.590 -1.4632  1.6209 -1.0582
 7264SOL     OW33427   3.749   3.899   8.304 -0.0449  0.4502  0.6344
 7264SOL    HW133428   3.739   3.896   8.209  0.9155  1.9595  0.4907
 7264SOL    HW233429   3.686   3.968   8.322  0.9754  1.3559  0.7192
 7265SOL     OW33430   4.434   3.811  12.973 -0.0350  0.0503  0.1820
 7265SOL    HW133431   4.378   3.838  12.899 -0.6958 -2.2958 -0.2127
 7265SOL    HW233432   4.497   3.882  12.979  0.1558 -0.0392 -0.6594
 7266SOL     OW33433   3.186   1.993  11.952  0.0844 -0.5239  0.6508
 7266SOL    HW133434   3.126   1.929  11.990 -0.7041  0.8958  1.8092
 7266SOL    HW233435   3.268   1.952  11.977 -0.6083 -2.3334 -0.0915
 7267SOL     OW33436   1.519   0.260   4.708 -0.2407  0.1837  0.0696
 7267SOL    HW133437   1.573   0.337   4.729 -1.7851  1.5678 -1.0085
 7267SOL    HW233438   1.505   0.223   4.796 -1.0902 -1.6829 -0.8547
 7268SOL     OW33439   1.542   0.739   3.006  0.2393 -0.0698 -0.8758
 7268SOL    HW133440   1.526   0.757   2.913 -1.2724  2.3228 -0.1522
 7268SOL    HW233441   1.633   0.763   3.021 -0.2854  0.3482  1.6484
 7269SOL     OW33442   0.578   0.136   0.502  0.0152  0.0340  0.6983
 7269SOL    HW133443   0.521   0.072   0.460 -0.4342  1.7848 -1.3634
 7269SOL    HW233444   0.594   0.111   0.593 -0.7019 -2.5617  0.1166
 7270SOL     OW33445   0.734   1.270   6.099  0.3784 -0.2325  0.1764
 7270SOL    HW133446   0.666   1.246   6.036  0.2369 -0.1950  0.3148
 7270SOL    HW233447   0.674   1.296   6.168 -0.7639 -0.0143 -0.8877
 7271SOL     OW33448   3.156   3.218   1.509 -0.1985 -0.3683 -0.0040
 7271SOL    HW133449   3.142   3.146   1.570  1.1801 -1.9334 -1.5196
 7271SOL    HW233450   3.192   3.284   1.568 -0.4331 -0.8458  0.6722
 7272SOL     OW33451   3.962   0.513  13.819  0.3282  0.2668  0.4929
 7272SOL    HW133452   3.978   0.603  13.790  0.7206  0.0053 -0.1122
 7272SOL    HW233453   4.003   0.521  13.905  2.0579 -1.1331 -0.1975
 7273SOL     OW33454   1.865   2.966   6.046 -0.3145 -0.5773  0.3212
 7273SOL    HW133455   1.886   3.027   6.116  1.3098  0.2501 -0.8778
 7273SOL    HW233456   1.942   2.910   6.041  0.2351  0.0289  2.0986
 7274SOL     OW33457   3.147   0.205  12.794 -0.8536  0.3046 -1.0283
 7274SOL    HW133458   3.129   0.297  12.810 -1.5358  0.2317 -1.3856
 7274SOL    HW233459   3.224   0.190  12.849  0.4623 -2.1558 -3.5531
 7275SOL     OW33460   1.087   3.375   0.922  0.4829  0.0462  0.2522
 7275SOL    HW133461   1.057   3.446   0.979  0.9056 -0.8591  1.5910
 7275SOL    HW233462   1.086   3.309   0.991  0.6532  2.5625  2.6695
 7276SOL     OW33463   0.368   4.245  10.230  0.0697  0.1444  0.8139
 7276SOL    HW133464   0.323   4.233  10.313 -2.8308  0.2426 -0.7384
 7276SOL    HW233465   0.337   4.330  10.198  2.6827  0.2010 -1.5465
 7277SOL     OW33466   3.648   4.603   2.847  0.0282  0.0230  0.2032
 7277SOL    HW133467   3.602   4.557   2.918  1.0121 -1.1240  0.0866
 7277SOL    HW233468   3.564   4.621   2.804  0.6979  2.2354 -0.1664
 7278SOL     OW33469   4.425   2.913  16.531  0.2541  0.0793 -0.1152
 7278SOL    HW133470   4.441   2.994  16.579  0.8561  1.1257 -2.0493
 7278SOL    HW233471   4.514   2.878  16.538 -0.1083 -0.7856  0.1882
 7279SOL     OW33472   3.317   1.723   9.612  0.3582  0.1605 -0.0507
 7279SOL    HW133473   3.295   1.632   9.589 -0.6386  0.1863  0.7844
 7279SOL    HW233474   3.412   1.719   9.624 -0.0911 -2.1673  2.9351
 7280SOL     OW33475   4.513   3.887  16.085  0.1814  0.1592 -0.6613
 7280SOL    HW133476   4.419   3.902  16.097  0.0184 -0.9780 -0.5206
 7280SOL    HW233477   4.545   3.861  16.172  2.0862  0.3562 -1.3258
 7281SOL     OW33478   0.348   4.367   3.860  0.2717 -0.2682 -0.2109
 7281SOL    HW133479   0.312   4.407   3.939  0.8261 -1.0588  0.4439
 7281SOL    HW233480   0.368   4.437   3.798 -0.0920 -1.5853 -1.8168
 7282SOL     OW33481   0.337   0.334   0.116 -0.1263  0.0573  0.0226
 7282SOL    HW133482   0.422   0.299   0.088 -0.3910 -1.6969  1.3925
 7282SOL    HW233483   0.282   0.261   0.144  0.8469  0.3942  2.9129
 7283SOL     OW33484   3.967   1.862   1.879 -0.8921 -0.7017  0.1279
 7283SOL    HW133485   3.971   1.809   1.800  1.7920  0.3418 -0.4369
 7283SOL    HW233486   4.041   1.919   1.858 -1.0481 -0.3635  0.4906
 7284SOL     OW33487   1.806   2.550  10.965 -0.2502  0.4649  0.2059
 7284SOL    HW133488   1.755   2.476  10.997 -1.3643  1.6083  1.0805
 7284SOL    HW233489   1.881   2.551  11.024  0.3415 -0.8267 -0.5169
 7285SOL     OW33490   1.802   0.055   1.849 -0.2858 -0.4242  0.1298
 7285SOL    HW133491   1.857   0.024   1.776 -2.1368  0.6232 -1.7268
 7285SOL    HW233492   1.713   0.045   1.813 -0.5350 -0.3633  0.7340
 7286SOL     OW33493   1.594   3.241   3.793  0.1826  0.1221  0.2602
 7286SOL    HW133494   1.676   3.249   3.744  1.4828  0.7730  2.5604
 7286SOL    HW233495   1.598   3.149   3.816  1.7504  0.1380  0.0476
 7287SOL     OW33496   2.967   1.614   9.036  0.0438  0.4197  0.1288
 7287SOL    HW133497   2.935   1.549   8.973  1.3295 -0.5121  0.4513
 7287SOL    HW233498   3.051   1.632   8.993 -0.3710 -1.5687 -1.5023
 7288SOL     OW33499   4.612   3.506   3.391 -0.1677 -0.4017  0.0339
 7288SOL    HW133500   4.537   3.549   3.351 -0.6898 -0.6992  0.6987
 7288SOL    HW233501   4.616   3.555   3.473  0.2190  0.9616 -0.7857
 7289SOL     OW33502   4.425   1.167   1.769  0.1454  0.0347  0.1292
 7289SOL    HW133503   4.383   1.156   1.855 -2.3572  0.4930 -1.0202
 7289SOL    HW233504   4.359   1.225   1.730  2.2052  1.9231 -0.5172
 7290SOL     OW33505   2.482   4.337  10.023 -0.2092 -0.0449  0.2270
 7290SOL    HW133506   2.477   4.242  10.007 -1.1725 -0.0277  0.4170
 7290SOL    HW233507   2.435   4.336  10.106  1.6838 -2.8748  1.2765
 7291SOL     OW33508   1.468   3.016   6.433  0.0750 -0.0445 -0.2372
 7291SOL    HW133509   1.413   3.022   6.354  0.5108 -0.8714 -0.6104
 7291SOL    HW233510   1.425   2.945   6.480  1.4516 -0.1145  0.9119
 7292SOL     OW33511   1.088   3.129   5.973  0.0728  0.2969  0.3442
 7292SOL    HW133512   1.077   3.202   6.034 -0.5106  0.6167 -0.1487
 7292SOL    HW233513   1.178   3.098   5.981  0.3081  0.6398 -0.8772
 7293SOL     OW33514   2.772   3.969   5.202  0.1800 -0.0102  0.4904
 7293SOL    HW133515   2.860   3.935   5.184  0.1812  0.0646  0.3521
 7293SOL    HW233516   2.787   4.033   5.271  0.9015  1.3120 -0.8840
 7294SOL     OW33517   2.034   1.516   7.548 -0.0862 -0.0356 -0.0786
 7294SOL    HW133518   2.005   1.553   7.465  3.2531 -1.0678 -1.7106
 7294SOL    HW233519   1.981   1.565   7.611 -0.4068 -0.0531 -0.3311
 7295SOL     OW33520   4.462   2.336  12.843  0.7135 -0.0685  0.0254
 7295SOL    HW133521   4.483   2.428  12.827  0.2320  0.0653  0.1563
 7295SOL    HW233522   4.517   2.322  12.920 -0.2657 -2.7716  0.2403
 7296SOL     OW33523   3.260   0.079   6.360  0.1713  0.1664  0.2637
 7296SOL    HW133524   3.331   0.128   6.317 -0.0846  1.9586  1.8986
 7296SOL    HW233525   3.182   0.127   6.333 -0.2247  0.2131  1.5205
 7297SOL     OW33526   0.219   3.919   6.375  0.5816  0.3358 -0.4963
 7297SOL    HW133527   0.157   3.850   6.399  0.8385 -0.2572 -1.5584
 7297SOL    HW233528   0.148   3.981   6.359  0.4049  0.6401  1.4395
 7298SOL     OW33529   3.641   3.479  16.201 -0.0980 -0.7287 -0.2823
 7298SOL    HW133530   3.577   3.442  16.262  0.3276  1.2195  1.3527
 7298SOL    HW233531   3.653   3.568  16.234 -0.3347 -1.1491  0.9543
 7299SOL     OW33532   0.951   1.254  15.465 -0.4194  0.5187 -0.8719
 7299SOL    HW133533   0.943   1.336  15.513 -0.4120  0.2822 -0.4630
 7299SOL    HW233534   1.037   1.260  15.424  0.1910 -0.9389  0.1784
 7300SOL     OW33535   3.383   0.676   5.257  0.2946 -0.2263 -0.1580
 7300SOL    HW133536   3.419   0.588   5.245  2.2463  0.5933 -0.1949
 7300SOL    HW233537   3.456   0.725   5.294 -1.3887  2.2965 -0.2286
 7301SOL     OW33538   0.788   2.433  17.543 -0.2730 -0.8720 -0.2421
 7301SOL    HW133539   0.718   2.399  17.599  0.8294  0.4309  1.9037
 7301SOL    HW233540   0.795   2.358  17.484 -1.3985  0.2853 -1.8539
 7302SOL     OW33541   1.785   2.234   7.560 -0.2003  0.1684  0.1690
 7302SOL    HW133542   1.785   2.330   7.555 -1.8425  0.1147 -0.8026
 7302SOL    HW233543   1.875   2.213   7.585 -0.3503  0.3747  0.8942
 7303SOL     OW33544   4.441   2.289   7.437 -0.1830 -0.0753  0.2574
 7303SOL    HW133545   4.415   2.258   7.524 -1.8105  0.3709 -0.0592
 7303SOL    HW233546   4.420   2.383   7.442 -1.2198 -0.3608  1.1634
 7304SOL     OW33547   2.529   1.936   9.092 -0.6315 -0.1129 -0.8714
 7304SOL    HW133548   2.543   2.006   9.029 -1.9387 -0.1538 -1.1933
 7304SOL    HW233549   2.612   1.893   9.070  1.1242  2.2955  1.0216
 7305SOL     OW33550   2.289   1.485  17.564 -0.1427  0.0979 -0.3622
 7305SOL    HW133551   2.372   1.491  17.517  0.9567  0.1300  1.5566
 7305SOL    HW233552   2.249   1.424  17.503  0.8193 -0.7570 -0.1384
 7306SOL     OW33553   3.596   1.696   9.125  0.0106  0.1935 -0.5258
 7306SOL    HW133554   3.576   1.663   9.213  0.4615  1.1615 -0.0701
 7306SOL    HW233555   3.570   1.611   9.088 -1.6156  0.9885 -1.2365
 7307SOL     OW33556   0.815   0.318   3.043  0.4275  0.2267 -0.8171
 7307SOL    HW133557   0.905   0.288   3.055 -1.1496 -4.0183  0.4390
 7307SOL    HW233558   0.798   0.251   2.977 -0.3364 -0.3183 -0.0721
 7308SOL     OW33559   1.471   1.328   4.958 -0.5434  0.2742  0.3129
 7308SOL    HW133560   1.443   1.310   4.868  1.4001  0.1172 -0.2569
 7308SOL    HW233561   1.531   1.255   4.972 -0.9943  0.3758  2.8494
 7309SOL     OW33562   4.088   1.286   5.383  0.1571 -0.8321 -0.2665
 7309SOL    HW133563   4.000   1.279   5.348  1.0363 -1.6320 -2.3307
 7309SOL    HW233564   4.083   1.212   5.444 -1.1240 -0.1572  0.4452
 7310SOL     OW33565   3.982   0.228   4.548 -0.3486  0.1718  0.4003
 7310SOL    HW133566   4.060   0.260   4.503  0.3845 -0.6170  1.1159
 7310SOL    HW233567   3.911   0.273   4.502 -1.3775 -0.0221  1.7797
 7311SOL     OW33568   4.005   3.760   5.931 -0.0158  0.3179 -0.8233
 7311SOL    HW133569   3.951   3.700   5.880  0.0003 -0.3013 -0.1096
 7311SOL    HW233570   4.054   3.781   5.851 -1.3314  1.2209 -1.3984
 7312SOL     OW33571   3.971   3.720   6.416  0.0239  0.6769  0.4189
 7312SOL    HW133572   4.013   3.737   6.331  0.0743 -1.8506 -0.0431
 7312SOL    HW233573   3.993   3.803   6.458  0.7781  0.1540  1.0500
 7313SOL     OW33574   1.357   0.512   9.927 -0.2068  0.2429 -0.6589
 7313SOL    HW133575   1.293   0.510   9.856 -1.0599 -4.1192  0.2495
 7313SOL    HW233576   1.444   0.512   9.888  0.4268 -0.1427  0.7644
 7314SOL     OW33577   4.044   0.792  11.179  0.6013 -0.1372 -0.2483
 7314SOL    HW133578   4.131   0.808  11.217  0.5663  0.4048 -0.3941
 7314SOL    HW233579   4.026   0.880  11.147  0.2519 -0.4270 -0.8594
 7315SOL     OW33580   2.718   2.542  14.610 -0.3515 -0.1636 -0.3732
 7315SOL    HW133581   2.712   2.552  14.515  1.9147 -0.1394 -0.5183
 7315SOL    HW233582   2.624   2.551  14.624 -0.0528 -0.7688  1.9020
 7316SOL     OW33583   0.234   1.750   4.222  0.3890  0.2748  0.1915
 7316SOL    HW133584   0.277   1.813   4.279  1.5647  2.0350 -2.5982
 7316SOL    HW233585   0.243   1.794   4.137  0.7480 -0.4031 -0.1242
 7317SOL     OW33586   4.515   2.029   4.123 -0.3499  0.2772 -0.3716
 7317SOL    HW133587   4.514   2.097   4.190  0.9658 -0.0423 -0.0095
 7317SOL    HW233588   4.587   2.057   4.066 -0.5387 -1.5241 -1.5032
 7318SOL     OW33589   3.977   3.201  16.132  0.3516  0.3562 -0.3533
 7318SOL    HW133590   4.003   3.109  16.139  1.3624  0.7352  0.9505
 7318SOL    HW233591   3.896   3.204  16.082  0.2716 -3.3603 -0.4131
 7319SOL     OW33592   0.893   4.268   4.107  0.2936  0.1285  0.0538
 7319SOL    HW133593   0.812   4.318   4.122  0.3839 -0.8113  3.5829
 7319SOL    HW233594   0.914   4.297   4.018 -0.9712 -0.3299 -0.3965
 7320SOL     OW33595   4.616   4.705   2.378  0.1174  0.1536 -0.3371
 7320SOL    HW133596   4.670   4.703   2.457  0.2970  0.7226 -0.4426
 7320SOL    HW233597   4.604   4.611   2.365 -1.2948  0.0965  1.4695
 7321SOL     OW33598   4.496   4.502   1.997 -0.1830  0.3853  0.3490
 7321SOL    HW133599   4.511   4.446   2.073  3.8474  0.8577 -0.1340
 7321SOL    HW233600   4.405   4.524   2.017 -0.8252 -1.6750 -0.3361
 7322SOL     OW33601   1.487   3.533   9.119 -0.2411 -0.9901  0.2161
 7322SOL    HW133602   1.418   3.560   9.180  1.3070  0.5773  1.2428
 7322SOL    HW233603   1.553   3.502   9.180 -0.4995 -0.9671  0.5080
 7323SOL     OW33604   1.120   1.770  16.421 -0.1218 -0.3594 -0.5133
 7323SOL    HW133605   1.158   1.778  16.334  2.0907 -1.3979  0.3650
 7323SOL    HW233606   1.107   1.864  16.439  2.1995 -0.3097  0.9548
 7324SOL     OW33607   4.718   0.301   7.290  1.0645 -0.4188 -0.2065
 7324SOL    HW133608   4.633   0.344   7.296  1.2812 -0.3502  2.1469
 7324SOL    HW233609   0.039   0.376   7.291 -2.5178  2.3837 -0.4923
 7325SOL     OW33610   0.465   0.523   5.920  0.2105 -0.4959  0.3193
 7325SOL    HW133611   0.394   0.462   5.940  0.6509 -1.0032  0.3497
 7325SOL    HW233612   0.531   0.462   5.884  0.4774  0.4837 -0.8541
 7326SOL     OW33613   1.139   0.463   3.948  0.2271 -0.2864 -0.5697
 7326SOL    HW133614   1.120   0.397   4.015  2.5663  1.4175  1.7610
 7326SOL    HW233615   1.226   0.486   3.981 -0.7524  2.1633  0.2951
 7327SOL     OW33616   0.061   4.673  10.854 -0.0566 -0.4846  0.6770
 7327SOL    HW133617   4.728   4.626  10.810  1.0714 -2.2842  0.7493
 7327SOL    HW233618   0.083   4.620  10.931  1.5734  0.0025  0.5429
 7328SOL     OW33619   0.081   1.770  17.263  0.3612 -0.0933  0.0830
 7328SOL    HW133620   0.011   1.709  17.239 -0.1547  0.7978 -0.6799
 7328SOL    HW233621   0.132   1.724  17.330  1.2974 -1.2374 -1.4121
 7329SOL     OW33622   2.023   1.125  16.865 -0.3036 -0.1559 -0.5021
 7329SOL    HW133623   1.942   1.170  16.891 -0.0175  1.6080 -2.6306
 7329SOL    HW233624   2.072   1.113  16.946 -2.3032 -2.3469  0.3749
 7330SOL     OW33625   3.252   1.198   8.134  0.0890  0.4065  0.1123
 7330SOL    HW133626   3.184   1.247   8.181 -0.6830  0.1606 -0.7312
 7330SOL    HW233627   3.279   1.136   8.201 -2.1178 -1.5936 -0.8280
 7331SOL     OW33628   0.985   3.092   4.632  0.0647  1.0089 -0.2272
 7331SOL    HW133629   1.008   3.136   4.714  0.0383 -0.4083  0.5469
 7331SOL    HW233630   0.894   3.067   4.648  0.8025 -1.4316  0.2692
 7332SOL     OW33631   4.184   0.060   8.314  0.4909 -0.2771  0.6855
 7332SOL    HW133632   4.205   0.140   8.363 -0.4130 -0.4324  1.3369
 7332SOL    HW233633   4.254   4.736   8.331  0.9584  0.4675  1.5323
 7333SOL     OW33634   3.721   4.164   4.898 -0.1529  0.5869  0.3958
 7333SOL    HW133635   3.759   4.126   4.977 -1.9184 -1.2928  0.3467
 7333SOL    HW233636   3.637   4.117   4.897 -0.7914  1.7344  0.8484
 7334SOL     OW33637   2.594   3.329   2.885 -0.5468 -0.3991 -0.2542
 7334SOL    HW133638   2.672   3.353   2.936 -1.7901  1.4340  0.7822
 7334SOL    HW233639   2.533   3.372   2.945 -1.6216 -1.6696 -0.4487
 7335SOL     OW33640   2.162   2.449   8.759  0.1961  0.3095  0.4574
 7335SOL    HW133641   2.078   2.494   8.762 -0.7682 -1.3593 -1.5997
 7335SOL    HW233642   2.219   2.500   8.816  1.1415  0.1504 -0.3442
 7336SOL     OW33643   0.198   2.824   7.883  0.0683  0.1410 -0.6769
 7336SOL    HW133644   0.128   2.759   7.881  1.0000 -0.8482 -1.3292
 7336SOL    HW233645   0.144   2.900   7.902 -1.1687 -0.1629 -2.9746
 7337SOL     OW33646   2.558   4.159  13.898  0.3732  0.4193  0.2197
 7337SOL    HW133647   2.546   4.113  13.981 -1.0199 -0.1041 -0.2724
 7337SOL    HW233648   2.498   4.112  13.840  1.4032  1.2021 -1.4738
 7338SOL     OW33649   3.889   3.495   9.642 -0.4380 -0.4097  0.8224
 7338SOL    HW133650   3.937   3.564   9.596  0.8094  0.0869  2.8425
 7338SOL    HW233651   3.896   3.511   9.737 -0.0328  0.5427  0.6374
 7339SOL     OW33652   2.694   3.467   0.670  0.3303 -0.2940  0.1743
 7339SOL    HW133653   2.702   3.513   0.754 -2.0773  0.2267  0.1330
 7339SOL    HW233654   2.786   3.456   0.647 -0.4471  0.0984 -3.1613
 7340SOL     OW33655   1.222   1.836   7.296 -0.1418 -0.0564 -0.3664
 7340SOL    HW133656   1.128   1.838   7.277 -0.4472  1.6034  1.3461
 7340SOL    HW233657   1.248   1.928   7.306 -0.2616 -0.1604  0.8196
 7341SOL     OW33658   0.157   3.378   8.890  0.6029 -0.2519  0.0128
 7341SOL    HW133659   0.084   3.428   8.925 -0.6714 -2.8901  1.1804
 7341SOL    HW233660   0.234   3.433   8.901 -0.2049  0.8743 -0.0270
 7342SOL     OW33661   0.752   4.019   3.927  0.1915 -0.3267 -0.0488
 7342SOL    HW133662   0.765   3.978   4.012  1.7115  1.9840  0.8241
 7342SOL    HW233663   0.761   4.109   3.959  1.0592 -0.3587 -0.2264
 7343SOL     OW33664   3.076   2.416   8.971  0.1335 -0.3726  0.0385
 7343SOL    HW133665   3.141   2.460   8.917 -0.9372  0.0488 -0.9115
 7343SOL    HW233666   3.028   2.496   8.991 -1.6606 -1.3184 -0.4908
 7344SOL     OW33667   4.073   2.404  11.708  0.0177 -0.6383  0.1333
 7344SOL    HW133668   3.989   2.444  11.728  0.0645  1.2181 -3.3728
 7344SOL    HW233669   4.067   2.320  11.755 -0.1453 -1.0724 -0.6629
 7345SOL     OW33670   3.670   1.222   2.514  0.1379  0.3229 -0.3064
 7345SOL    HW133671   3.708   1.168   2.445  0.0515 -0.6611  0.4104
 7345SOL    HW233672   3.612   1.281   2.466  1.5302  2.1933  0.2850
 7346SOL     OW33673   3.717   3.562   7.128 -0.4128  0.0528  0.4205
 7346SOL    HW133674   3.798   3.535   7.086 -1.9034 -1.3623 -1.5344
 7346SOL    HW233675   3.730   3.531   7.218  1.0179 -0.6290 -0.0191
 7347SOL     OW33676   1.628   1.273   6.993 -0.2332  0.1189 -0.5121
 7347SOL    HW133677   1.564   1.335   7.028 -0.4697  0.8235 -2.2085
 7347SOL    HW233678   1.663   1.248   7.078  2.0178 -0.0851 -1.4868
 7348SOL     OW33679   2.654   0.247   9.903  0.1051 -0.7821  0.1549
 7348SOL    HW133680   2.575   0.284   9.943 -0.2750 -1.0230 -0.3655
 7348SOL    HW233681   2.618   0.164   9.874 -2.1263 -0.4225  1.8823
 7349SOL     OW33682   2.510   2.360   8.785  0.1799 -0.4486  0.6987
 7349SOL    HW133683   2.598   2.395   8.769  0.2348 -0.5176  0.8542
 7349SOL    HW233684   2.460   2.440   8.797 -1.6829 -1.6545  0.9354
 7350SOL     OW33685   1.604   2.379   5.938  0.0246 -0.5221 -0.0519
 7350SOL    HW133686   1.674   2.409   5.995 -0.5141 -0.4968  0.5955
 7350SOL    HW233687   1.651   2.327   5.873  0.6048  0.2477 -0.2455
 7351SOL     OW33688   4.650   3.833  12.635  0.7668 -0.1914  0.0266
 7351SOL    HW133689   4.587   3.856  12.566 -0.7964  1.4057  1.9986
 7351SOL    HW233690   4.603   3.763  12.680  0.6378  0.2510  0.5681
 7352SOL     OW33691   1.768   1.819   5.315  0.1395  0.1929 -0.2804
 7352SOL    HW133692   1.686   1.772   5.328  0.9256 -1.1869 -0.2948
 7352SOL    HW233693   1.737   1.906   5.342 -3.3138 -1.8443  2.2882
 7353SOL     OW33694   2.026   2.559  15.673 -0.4024  0.4115 -0.4200
 7353SOL    HW133695   2.052   2.524  15.587 -2.0547  0.9946 -1.1569
 7353SOL    HW233696   1.932   2.544  15.673 -0.5420  1.2752 -0.1524
 7354SOL     OW33697   0.470   1.790   5.744 -0.2125  0.2987 -0.1312
 7354SOL    HW133698   0.415   1.752   5.676  0.7579  0.4037 -0.9775
 7354SOL    HW233699   0.404   1.825   5.803 -1.2385 -0.5010 -0.8165
 7355SOL     OW33700   3.994   3.826   2.121  0.4521 -0.6135  0.3767
 7355SOL    HW133701   4.022   3.812   2.211  1.3508 -1.6754 -0.0744
 7355SOL    HW233702   3.941   3.904   2.136  1.3957 -0.1968  1.5742
 7356SOL     OW33703   1.271   3.055  10.110 -0.2591 -0.4752  0.2328
 7356SOL    HW133704   1.179   3.042  10.087 -0.4040  1.5720 -0.3650
 7356SOL    HW233705   1.285   2.984  10.172 -3.3845 -0.9610  0.3813
 7357SOL     OW33706   4.467   4.573   6.903 -0.1315  0.8402 -0.4724
 7357SOL    HW133707   4.404   4.608   6.840 -0.4888  0.2865 -0.4228
 7357SOL    HW233708   4.515   4.652   6.927 -0.0555  0.3306  1.0453
 7358SOL     OW33709   0.425   2.161  12.123 -0.0545  0.7107 -0.1622
 7358SOL    HW133710   0.481   2.102  12.073  1.6972  0.1110  2.4761
 7358SOL    HW233711   0.483   2.236  12.142  0.7645  0.4481 -1.6159
 7359SOL     OW33712   3.639   1.417   5.165  0.0148 -0.2354 -0.2193
 7359SOL    HW133713   3.632   1.488   5.228 -1.3079  0.7302 -1.4491
 7359SOL    HW233714   3.733   1.398   5.162  0.1269  0.3710 -0.3792
 7360SOL     OW33715   4.305   3.928   3.993  0.1718  0.2916 -0.6825
 7360SOL    HW133716   4.367   3.862   4.022  1.0590  1.4487  0.0342
 7360SOL    HW233717   4.243   3.903   4.061 -0.0014  3.4012  0.3195
 7361SOL     OW33718   0.118   1.627   6.544  0.0966  0.2406  0.1154
 7361SOL    HW133719   0.108   1.559   6.610  0.6818  2.1436  2.1590
 7361SOL    HW233720   0.172   1.693   6.587 -0.5137 -0.0477  1.3113
 7362SOL     OW33721   2.029   2.140   5.011  0.3196 -0.0600 -0.0888
 7362SOL    HW133722   2.099   2.075   5.021  0.9447  0.5289 -0.6855
 7362SOL    HW233723   2.056   2.216   5.063 -0.7443  0.2499  0.0098
 7363SOL     OW33724   2.244   0.066   2.893 -0.3567 -0.3875  0.1348
 7363SOL    HW133725   2.214   0.104   2.975  1.1664 -0.1849  0.6017
 7363SOL    HW233726   2.336   0.083   2.911  0.0246 -1.9903 -0.3288
 7364SOL     OW33727   1.800   2.641   2.705 -0.0146 -0.1673  0.3703
 7364SOL    HW133728   1.882   2.604   2.736 -0.4964 -2.6053 -1.2375
 7364SOL    HW233729   1.736   2.574   2.729 -1.6027  1.0150 -0.5107
 7365SOL     OW33730   2.624   4.139   5.723  0.2829  0.3049 -1.0601
 7365SOL    HW133731   2.613   4.058   5.674  0.6391  0.3932 -1.2899
 7365SOL    HW233732   2.660   4.116   5.808  0.0140  3.8117  0.0260
 7366SOL     OW33733   1.011   0.667  17.614  0.1389 -0.0318  0.3004
 7366SOL    HW133734   1.103   0.685  17.598 -0.2980  1.6919 -0.2509
 7366SOL    HW233735   1.002   0.578  17.579  0.4433 -0.9054  2.4370
 7367SOL     OW33736   0.496   0.293   3.689  0.2254 -0.2650  0.6896
 7367SOL    HW133737   0.519   0.375   3.733 -0.2412  2.0238 -3.2851
 7367SOL    HW233738   0.506   0.322   3.598 -3.0555 -0.2549  0.3292
 7368SOL     OW33739   3.062   0.616   9.080  0.0670 -0.0398 -0.3419
 7368SOL    HW133740   3.109   0.686   9.124 -0.5959  2.3300 -3.3683
 7368SOL    HW233741   3.128   0.583   9.018 -0.3422 -2.1601  0.3867
 7369SOL     OW33742   4.149   3.912   4.278 -0.6853 -0.0198  0.0171
 7369SOL    HW133743   4.075   3.929   4.336  0.8816 -0.9639  2.2851
 7369SOL    HW233744   4.160   3.992   4.226 -1.8377 -0.1511 -0.4485
 7370SOL     OW33745   2.755   2.613  12.365  0.5598  0.2148 -0.1063
 7370SOL    HW133746   2.753   2.684  12.429 -0.2783  2.0400 -2.1341
 7370SOL    HW233747   2.848   2.620  12.342  0.1424  2.1931 -1.1949
 7371SOL     OW33748   4.516   4.034   5.723  0.1797  0.0579  0.2473
 7371SOL    HW133749   4.432   4.063   5.689  0.7785 -0.5789 -1.7581
 7371SOL    HW233750   4.493   3.947   5.756 -0.2769  0.1379  0.1371
 7372SOL     OW33751   0.604   0.806  14.148  0.2535  0.3174  0.0635
 7372SOL    HW133752   0.611   0.712  14.163 -3.7497 -0.1049 -0.7483
 7372SOL    HW233753   0.551   0.834  14.222  1.0841 -1.0435  1.1762
 7373SOL     OW33754   3.299   3.236   9.038  0.6258 -0.0987 -0.5738
 7373SOL    HW133755   3.247   3.317   9.040  0.2791 -0.3304 -0.1681
 7373SOL    HW233756   3.314   3.231   9.133 -1.4564 -1.1875 -0.2930
 7374SOL     OW33757   4.061   0.646   6.619  0.0910  0.3677  0.6370
 7374SOL    HW133758   4.148   0.606   6.628 -0.1192 -0.3114 -0.3590
 7374SOL    HW233759   4.051   0.715   6.685 -1.9348  0.0354  0.6844
 7375SOL     OW33760   0.729   4.114   8.439  0.1011 -0.0097 -0.0136
 7375SOL    HW133761   0.699   4.074   8.357  2.2477 -1.2305 -0.2006
 7375SOL    HW233762   0.794   4.180   8.414 -0.6624  0.7653  0.0739
 7376SOL     OW33763   0.355   0.299  14.162 -0.2887  0.5404 -0.0020
 7376SOL    HW133764   0.437   0.252  14.144 -0.1154  1.2298 -1.0340
 7376SOL    HW233765   0.321   0.321  14.075  1.0612 -0.6282 -0.8511
 7377SOL     OW33766   2.321   3.240   4.536 -0.1918  0.0088 -0.1932
 7377SOL    HW133767   2.298   3.202   4.620 -1.1725 -1.2519 -1.0290
 7377SOL    HW233768   2.285   3.328   4.544  0.9160 -0.0061  4.8019
 7378SOL     OW33769   4.650   2.800   7.203  0.1047 -0.3097  0.1142
 7378SOL    HW133770   4.663   2.893   7.217 -1.3727 -0.0910  0.0977
 7378SOL    HW233771   4.737   2.765   7.218  1.0762  1.7062 -0.8714
 7379SOL     OW33772   1.829   1.787   4.539 -0.4990 -0.5892 -0.1613
 7379SOL    HW133773   1.783   1.743   4.610 -1.0844 -1.6481 -1.1980
 7379SOL    HW233774   1.906   1.730   4.540  0.5733  0.8619  0.7090
 7380SOL     OW33775   4.701   3.698   7.883 -0.2857 -0.3173 -0.5046
 7380SOL    HW133776   4.661   3.654   7.808  0.3061  0.9097 -1.5414
 7380SOL    HW233777   0.039   3.729   7.834  0.0447 -3.4290 -1.9268
 7381SOL     OW33778   3.826   2.097   6.804  0.2950  0.5675  0.1580
 7381SOL    HW133779   3.772   2.100   6.725 -0.2857  4.2091  0.6873
 7381SOL    HW233780   3.749   2.090   6.860 -0.2742  0.8870 -0.5803
 7382SOL     OW33781   0.777   1.212   1.821  0.1893  0.2943  0.3000
 7382SOL    HW133782   0.850   1.231   1.763  1.0180  0.5192  1.4178
 7382SOL    HW233783   0.772   1.118   1.805 -1.3546  0.4169  0.0152
 7383SOL     OW33784   1.165   2.926   4.517  0.3336 -0.0400  0.0638
 7383SOL    HW133785   1.130   2.857   4.574  1.9643 -2.9420 -2.4416
 7383SOL    HW233786   1.106   2.997   4.540 -0.3372 -1.5293  2.9170
 7384SOL     OW33787   2.283   1.844   4.319 -0.0626 -0.2277  0.6893
 7384SOL    HW133788   2.292   1.824   4.412 -2.4058  1.9400  1.4106
 7384SOL    HW233789   2.201   1.800   4.294  0.3078 -0.1738 -0.6134
 7385SOL     OW33790   2.348   2.037   9.952 -0.1818  0.1069  0.4773
 7385SOL    HW133791   2.433   2.003   9.926 -0.7801 -0.5772 -0.5729
 7385SOL    HW233792   2.345   2.104   9.884 -0.6710 -0.2002  0.1919
 7386SOL     OW33793   2.884   0.905   7.770  0.0947  0.3236  0.0432
 7386SOL    HW133794   2.951   0.910   7.838  0.5913  1.7171 -0.5316
 7386SOL    HW233795   2.806   0.869   7.811 -1.2684  0.7079 -2.2311
 7387SOL     OW33796   0.380   3.667   3.924 -0.1707  0.0649  0.1509
 7387SOL    HW133797   0.285   3.668   3.931 -0.3652  1.5842 -2.4875
 7387SOL    HW233798   0.393   3.707   3.837 -1.4355 -1.2895 -0.6571
 7388SOL     OW33799   3.412   2.179   5.656  0.2586  0.4498  0.2409
 7388SOL    HW133800   3.322   2.168   5.687  0.3716  1.3625  0.8840
 7388SOL    HW233801   3.460   2.177   5.739  1.9168 -0.5492 -0.7397
 7389SOL     OW33802   4.732   0.173  16.720  0.0188  0.2545 -0.1910
 7389SOL    HW133803   4.685   0.153  16.639  1.7830 -0.7256 -0.9895
 7389SOL    HW233804   4.660   0.199  16.776  0.4246  1.0488 -0.0414
 7390SOL     OW33805   3.917   4.523  16.760  0.5666 -0.2885  0.3909
 7390SOL    HW133806   3.967   4.582  16.817  1.2074  0.5526 -1.0275
 7390SOL    HW233807   3.841   4.504  16.815  0.8626 -0.6958  0.6571
 7391SOL     OW33808   4.645   4.590   7.177  0.4022  0.4840  0.5247
 7391SOL    HW133809   4.709   4.658   7.199  0.2493  1.2740 -1.4864
 7391SOL    HW233810   4.588   4.589   7.254 -0.6893  0.1670 -0.2832
 7392SOL     OW33811   4.143   2.048   5.103  0.4794  0.4479  0.1015
 7392SOL    HW133812   4.052   2.032   5.076  0.7781  1.9274 -1.7387
 7392SOL    HW233813   4.135   2.060   5.198 -0.4405 -1.3356  0.2532
 7393SOL     OW33814   2.838   2.642  15.136  0.2234  0.5148  0.2569
 7393SOL    HW133815   2.857   2.680  15.050  0.6601  0.6545  0.4138
 7393SOL    HW233816   2.919   2.590  15.138  1.7506  2.8579 -0.9624
 7394SOL     OW33817   2.732   0.612  15.803  0.2425  0.1019  0.2192
 7394SOL    HW133818   2.799   0.582  15.864 -1.4054 -1.6189  1.1744
 7394SOL    HW233819   2.675   0.666  15.858  2.5200  2.9629 -0.1885
 7395SOL     OW33820   0.960   1.457   7.469  0.2646  0.3782 -0.1528
 7395SOL    HW133821   0.891   1.446   7.403 -0.1673  0.1288  0.3427
 7395SOL    HW233822   0.914   1.517   7.526  0.3093 -2.1102  2.4936
 7396SOL     OW33823   4.712   3.558  10.341 -0.6261 -0.0234 -0.3418
 7396SOL    HW133824   4.660   3.503  10.283  0.4488  0.7346 -2.0243
 7396SOL    HW233825   0.057   3.555  10.294 -0.6670 -0.3401 -0.3934
 7397SOL     OW33826   2.750   0.313  13.969 -0.8283  0.0020  0.0987
 7397SOL    HW133827   2.738   0.218  13.969 -1.0497  0.0289  0.0240
 7397SOL    HW233828   2.769   0.322  14.062  1.7893 -0.8739 -0.3463
 7398SOL     OW33829   1.034   3.587   7.640  0.3445 -0.1938 -0.5416
 7398SOL    HW133830   1.107   3.527   7.658 -0.7874 -1.7107 -0.9788
 7398SOL    HW233831   1.078   3.669   7.662 -0.9854 -0.0333  1.5477
 7399SOL     OW33832   1.214   2.349   8.462  0.0961 -0.6746  0.3076
 7399SOL    HW133833   1.289   2.296   8.490  1.9594  1.5907 -0.3964
 7399SOL    HW233834   1.184   2.302   8.384 -1.3046 -1.3856  1.2665
 7400SOL     OW33835   0.480   3.177   6.569  0.0591  0.4092  0.4528
 7400SOL    HW133836   0.526   3.156   6.650 -1.0677  0.2571  1.0520
 7400SOL    HW233837   0.482   3.273   6.569  0.7606  0.3933 -0.8494
 7401SOL     OW33838   0.545   4.206  10.451 -0.1674 -0.2660  0.0731
 7401SOL    HW133839   0.456   4.177  10.471  0.0143 -0.0728  1.1471
 7401SOL    HW233840   0.551   4.146  10.376  0.9153 -0.2088  0.1046
 7402SOL     OW33841   3.849   4.471  15.619 -0.2674 -0.2526  0.4359
 7402SOL    HW133842   3.930   4.434  15.585 -0.2328 -0.4775  0.7653
 7402SOL    HW233843   3.790   4.450  15.546  0.8561  0.7046 -0.7581
 7403SOL     OW33844   0.400   0.138   8.558  0.0712 -0.1557 -0.3225
 7403SOL    HW133845   0.467   0.136   8.490  2.5777  0.6644  2.1498
 7403SOL    HW233846   0.348   0.058   8.546 -0.6902  0.1428  0.9123
 7404SOL     OW33847   1.920   0.090  11.330  1.2342 -0.3795 -0.3117
 7404SOL    HW133848   1.881   0.128  11.251  0.4775  1.5831  1.0008
 7404SOL    HW233849   1.907   4.737  11.306  2.4232 -0.6791  0.1666
 7405SOL     OW33850   3.912   1.330  14.254 -0.1242 -0.5264  0.3349
 7405SOL    HW133851   3.894   1.277  14.176 -0.3501  0.8872 -0.5881
 7405SOL    HW233852   4.007   1.322  14.260 -0.2441 -1.9455  0.4352
 7406SOL     OW33853   2.879   4.199   5.335 -0.4667  0.3088  0.3440
 7406SOL    HW133854   2.875   4.290   5.303  2.2534  0.2616 -0.0993
 7406SOL    HW233855   2.973   4.190   5.349 -0.3409  0.8662 -0.1119
 7407SOL     OW33856   2.866   0.410  10.414 -0.5143  0.4966  0.2038
 7407SOL    HW133857   2.938   0.358  10.378 -0.8415  0.4288 -0.3538
 7407SOL    HW233858   2.813   0.339  10.449 -1.2805  2.2651  2.6487
 7408SOL     OW33859   3.182   3.161   4.829 -0.5923  0.1573  0.1981
 7408SOL    HW133860   3.244   3.097   4.797 -0.2569  0.5203  0.1173
 7408SOL    HW233861   3.135   3.167   4.746  1.7518  0.2295 -1.1253
 7409SOL     OW33862   0.057   4.237  10.635 -0.3402 -0.4341  0.0238
 7409SOL    HW133863   0.053   4.180  10.558  0.8513 -2.0060  1.1246
 7409SOL    HW233864   4.706   4.251  10.663 -0.8623  0.6086 -2.2124
 7410SOL     OW33865   3.602   3.443   6.496 -0.1664 -0.0918  0.4926
 7410SOL    HW133866   3.587   3.532   6.527  3.1089  1.2521 -1.8126
 7410SOL    HW233867   3.672   3.448   6.430  1.8652  1.0032  2.7502
 7411SOL     OW33868   3.004   3.425   1.362  0.3699  0.5480 -0.5820
 7411SOL    HW133869   2.912   3.430   1.389  0.0141 -2.3240 -1.3007
 7411SOL    HW233870   3.018   3.335   1.335  0.1112  0.0243  1.0389
 7412SOL     OW33871   4.070   2.745   9.509 -0.2210 -0.0688 -0.2393
 7412SOL    HW133872   4.006   2.796   9.459 -0.4710 -1.9869 -1.8399
 7412SOL    HW233873   4.032   2.772   9.593  2.9578 -0.1881  1.2345
 7413SOL     OW33874   0.481   1.824   3.306 -0.5499  0.3322  0.1834
 7413SOL    HW133875   0.413   1.762   3.281 -0.6515 -0.6808  3.0041
 7413SOL    HW233876   0.456   1.897   3.250 -0.1292  0.5938  0.3349
 7414SOL     OW33877   1.766   3.115   7.756  0.9082 -0.1039  0.4667
 7414SOL    HW133878   1.800   3.138   7.842  3.5458 -1.4097 -0.2453
 7414SOL    HW233879   1.850   3.085   7.722  0.9403 -0.0255  0.4770
 7415SOL     OW33880   1.062   3.088  15.291  0.1001  0.1946 -0.6501
 7415SOL    HW133881   1.121   3.162  15.284 -1.5249  1.6342  0.8528
 7415SOL    HW233882   1.003   3.096  15.215  0.9307 -1.4638 -1.4780
 7416SOL     OW33883   4.514   3.298   5.350 -0.3713  0.0245  0.2159
 7416SOL    HW133884   4.521   3.204   5.371  1.3954  0.3962  1.3258
 7416SOL    HW233885   4.475   3.337   5.428  0.4457  2.6002 -0.6614
 7417SOL     OW33886   4.382   3.870   5.012 -0.2528  0.1793 -0.3797
 7417SOL    HW133887   4.374   3.844   4.920  1.9047  0.9819 -0.7817
 7417SOL    HW233888   4.363   3.781   5.041  0.2894  0.3235  0.4287
 7418SOL     OW33889   0.862   0.724   5.174 -0.1749  0.9117  0.1105
 7418SOL    HW133890   0.940   0.682   5.209  0.2921 -0.2826 -2.3721
 7418SOL    HW233891   0.894   0.780   5.103 -0.2579 -0.2603 -0.8340
 7419SOL     OW33892   0.004   0.376  10.865  0.7953  0.2028  0.0134
 7419SOL    HW133893   4.679   0.341  10.927  1.4560 -1.2819 -0.1487
 7419SOL    HW233894   4.700   0.459  10.843  1.3310  0.9654  1.8019
 7420SOL     OW33895   2.791   0.766  14.628 -0.0034  0.0724 -0.1481
 7420SOL    HW133896   2.863   0.732  14.575  0.5735 -1.2882  1.4661
 7420SOL    HW233897   2.846   0.805  14.696  1.0168  0.5042 -1.2185
 7421SOL     OW33898   4.675   1.210   6.906 -0.5062  0.2671  0.0678
 7421SOL    HW133899   4.591   1.253   6.920 -2.4338 -3.5134  0.0751
 7421SOL    HW233900   4.647   1.120   6.889 -2.5890  1.0883 -0.9577
 7422SOL     OW33901   0.155   3.371   2.076 -0.0057 -0.2300 -0.0433
 7422SOL    HW133902   0.247   3.360   2.052  0.1830 -0.4739  0.8099
 7422SOL    HW233903   0.116   3.300   2.025  1.0543 -1.7596  1.2898
 7423SOL     OW33904   1.510   3.815   3.279 -0.3619 -0.0530 -0.5981
 7423SOL    HW133905   1.547   3.789   3.195 -2.0420 -0.9853 -1.0382
 7423SOL    HW233906   1.415   3.818   3.272 -0.3686  1.2783  0.0658
 7424SOL     OW33907   3.066   0.063   0.912  0.2993 -0.2209 -0.5736
 7424SOL    HW133908   3.116   4.721   0.899  1.5229  0.4390  0.1471
 7424SOL    HW233909   3.012   0.060   0.832 -2.3318  0.3827  1.1983
 7425SOL     OW33910   1.645   4.498   3.134 -0.7767  0.3097 -0.1246
 7425SOL    HW133911   1.578   4.456   3.188 -0.3429 -1.1044 -0.6994
 7425SOL    HW233912   1.630   4.462   3.047 -0.7469 -0.3803  0.1529
 7426SOL     OW33913   0.182   2.274   2.277  0.4943  0.5663 -0.2385
 7426SOL    HW133914   0.114   2.332   2.314  0.4099  0.0893  0.3621
 7426SOL    HW233915   0.172   2.198   2.334  0.3627  0.4213 -0.4552
 7427SOL     OW33916   1.690   0.735  10.820  0.1898 -0.5334 -0.4707
 7427SOL    HW133917   1.661   0.762  10.907  0.9943 -1.4857  0.0964
 7427SOL    HW233918   1.777   0.775  10.811  0.0344 -0.4536 -1.5505
 7428SOL     OW33919   3.906   4.203   9.828  0.2856 -0.1336 -0.3633
 7428SOL    HW133920   3.992   4.170   9.855  0.7368  0.2680 -1.2770
 7428SOL    HW233921   3.908   4.292   9.864  0.9759 -1.4520  2.8205
 7429SOL     OW33922   3.369   3.446  17.700 -0.3602  0.5051 -0.5923
 7429SOL    HW133923   3.284   3.408  17.725  0.3440  1.1781  2.7559
 7429SOL    HW233924   3.433   3.391  17.743  1.2391  1.7862 -1.3369
 7430SOL     OW33925   3.114   4.433   2.376 -0.2381  0.0107 -0.5414
 7430SOL    HW133926   3.075   4.388   2.451  0.1570  0.4958 -0.0381
 7430SOL    HW233927   3.082   4.522   2.392 -0.3771 -0.3326  1.1339
 7431SOL     OW33928   2.125   3.533   0.701 -0.3165  0.0377  0.3224
 7431SOL    HW133929   2.208   3.528   0.750 -0.9510  0.8908  1.4685
 7431SOL    HW233930   2.078   3.457   0.736 -0.3511 -0.0180  0.1521
 7432SOL     OW33931   0.603   3.906  17.174  0.0053 -0.5644 -0.6052
 7432SOL    HW133932   0.637   3.865  17.094  0.0990 -1.2895 -0.1917
 7432SOL    HW233933   0.565   3.834  17.224 -1.1061  2.1014  2.4694
 7433SOL     OW33934   1.209   3.727  15.438 -0.3245  0.1261  0.0507
 7433SOL    HW133935   1.143   3.786  15.402 -1.3667 -0.3283  1.2217
 7433SOL    HW233936   1.221   3.688  15.352 -1.6102 -2.3445  0.9987
 7434SOL     OW33937   2.532   3.031   0.104 -0.3576  0.1050  0.2720
 7434SOL    HW133938   2.572   3.043   0.190 -1.6196  0.7974  0.7554
 7434SOL    HW233939   2.467   3.101   0.112  1.0545  1.2980  1.2609
 7435SOL     OW33940   0.643   0.938  13.910 -0.3273 -0.4131 -0.1293
 7435SOL    HW133941   0.659   0.888  13.990  0.3653  0.4879  0.2805
 7435SOL    HW233942   0.734   0.933  13.879 -0.3706 -2.2612  0.0127
 7436SOL     OW33943   2.634   1.539   6.693  0.7869  0.2362  0.1126
 7436SOL    HW133944   2.567   1.588   6.741 -0.1379 -0.0555 -0.8977
 7436SOL    HW233945   2.701   1.524   6.760 -0.3300 -2.6206  0.5548
 7437SOL     OW33946   2.766   2.313   9.269  0.1929 -0.3199  0.6337
 7437SOL    HW133947   2.805   2.289   9.185 -0.2006  1.7183 -0.1385
 7437SOL    HW233948   2.744   2.225   9.299  2.0207 -1.7227 -2.1749
 7438SOL     OW33949   3.879   3.534   5.050 -0.2145 -0.0452 -0.4183
 7438SOL    HW133950   3.935   3.611   5.058 -2.1300  1.4831 -1.5070
 7438SOL    HW233951   3.929   3.476   4.992  0.7374  1.2317 -0.8634
 7439SOL     OW33952   3.879   4.272   6.291 -0.0099  0.3486 -0.1908
 7439SOL    HW133953   3.933   4.313   6.224 -1.1164  3.5232  0.8960
 7439SOL    HW233954   3.847   4.349   6.338 -1.5477  0.7922 -1.9625
 7440SOL     OW33955   0.750   1.620   1.474  0.2849  0.1262  0.4187
 7440SOL    HW133956   0.694   1.690   1.508 -1.3565  0.0175 -2.0747
 7440SOL    HW233957   0.699   1.549   1.514 -0.8465  0.3603 -0.6031
 7441SOL     OW33958   4.249   2.210   6.881  0.5069  0.2550 -0.2361
 7441SOL    HW133959   4.205   2.171   6.805  0.1216 -0.8914  0.5800
 7441SOL    HW233960   4.330   2.234   6.836  0.9483 -0.1000  0.3663
 7442SOL     OW33961   2.016   3.790   1.007 -0.1396  0.2572 -0.1451
 7442SOL    HW133962   2.106   3.787   0.976  0.4063  0.4532  1.4374
 7442SOL    HW233963   1.967   3.767   0.928 -0.3073  1.1325 -0.2921
 7443SOL     OW33964   3.213   3.890   7.498  0.1053 -0.2285 -0.1991
 7443SOL    HW133965   3.301   3.925   7.515 -0.7409  1.4179  0.7733
 7443SOL    HW233966   3.165   3.951   7.554  2.2416  0.3374  1.0078
 7444SOL     OW33967   3.378   4.249  14.225  0.4920 -0.2445  0.8158
 7444SOL    HW133968   3.331   4.190  14.165 -0.0966 -0.5586  1.5967
 7444SOL    HW233969   3.438   4.290  14.162  0.4983  0.9846  1.6379
 7445SOL     OW33970   3.861   3.136   8.897  0.0293  0.2955  0.8472
 7445SOL    HW133971   3.779   3.119   8.944  0.1846 -0.4598  0.8413
 7445SOL    HW233972   3.840   3.216   8.848  2.4427  0.9957  0.9766
 7446SOL     OW33973   1.683   0.906  12.616 -0.3300 -1.0459  0.3722
 7446SOL    HW133974   1.635   0.828  12.643  0.6828 -1.8654 -0.2493
 7446SOL    HW233975   1.743   0.864  12.555  1.5243 -2.1240  2.9619
 7447SOL     OW33976   3.084   3.588   4.105  0.2096  0.6644 -0.2081
 7447SOL    HW133977   3.001   3.631   4.125  1.1046  1.8520  0.9694
 7447SOL    HW233978   3.067   3.541   4.024 -1.0140 -0.4824  0.7214
 7448SOL     OW33979   1.364   1.806   7.801 -0.7029 -0.0074  0.2387
 7448SOL    HW133980   1.415   1.726   7.805  1.6515  1.3594 -2.5747
 7448SOL    HW233981   1.370   1.845   7.889 -2.2044 -0.4590  0.5362
 7449SOL     OW33982   1.679   0.084   3.920 -0.1625  0.4851 -0.5931
 7449SOL    HW133983   1.718   0.121   3.999  0.3970  1.0630 -1.1371
 7449SOL    HW233984   1.723   0.146   3.861  0.8048 -0.3627 -0.7629
 7450SOL     OW33985   4.539   2.981   1.492  0.7942  0.3963 -0.2708
 7450SOL    HW133986   4.597   2.953   1.563 -2.0425 -1.0206  1.4767
 7450SOL    HW233987   4.526   2.893   1.456  0.3652  0.9823 -1.5487
 7451SOL     OW33988   1.373   4.218   7.576  0.3728 -0.2486 -0.4788
 7451SOL    HW133989   1.356   4.258   7.662 -0.3322 -0.4524 -0.5210
 7451SOL    HW233990   1.282   4.190   7.563  1.3066 -2.4390 -2.3825
 7452SOL     OW33991   3.364   0.672  12.233  0.4810 -0.0015 -0.2533
 7452SOL    HW133992   3.338   0.646  12.321  1.8096  2.2576  0.8091
 7452SOL    HW233993   3.459   0.679  12.241  0.3794  1.0693 -0.0116
 7453SOL     OW33994   0.158   2.675  15.601 -0.5088 -0.2206 -0.3878
 7453SOL    HW133995   0.149   2.670  15.505 -0.7321 -1.1614 -0.3152
 7453SOL    HW233996   0.075   2.714  15.626 -1.2318 -0.1503 -2.8600
 7454SOL     OW33997   2.318   3.389   7.469 -0.4108  0.4328 -0.1303
 7454SOL    HW133998   2.366   3.397   7.386  0.3261 -1.5124  0.1180
 7454SOL    HW233999   2.372   3.334   7.525 -1.0330  0.8694  0.8981
 7455SOL     OW34000   0.448   2.567  12.850  0.0098 -0.2112  0.3434
 7455SOL    HW134001   0.526   2.566  12.905 -0.5662 -1.7447  1.1261
 7455SOL    HW234002   0.420   2.658  12.851  2.5488  0.6156 -1.4861
 7456SOL     OW34003   3.048   2.136   3.094 -0.0289  0.6401 -0.3033
 7456SOL    HW134004   2.961   2.170   3.069  0.1488 -0.3435 -2.3113
 7456SOL    HW234005   3.039   2.049   3.057 -0.4956 -0.0047  1.3419
 7457SOL     OW34006   1.192   3.054  16.142 -0.4853  0.8002  0.2238
 7457SOL    HW134007   1.189   3.140  16.100 -1.1275 -0.4156 -2.2021
 7457SOL    HW234008   1.251   3.008  16.083 -1.3110  0.1978 -0.1365
 7458SOL     OW34009   3.549   1.802   7.179 -0.0706  0.3096 -0.3256
 7458SOL    HW134010   3.635   1.762   7.171  0.9080  2.0683  1.1405
 7458SOL    HW234011   3.508   1.744   7.243  1.0917 -0.6266 -0.4196
 7459SOL     OW34012   4.440   3.369   8.938 -0.1433 -0.3989  0.4374
 7459SOL    HW134013   4.504   3.304   8.969  0.6584  0.0020 -0.3647
 7459SOL    HW234014   4.492   3.449   8.938  0.0706 -0.5426  1.9386
 7460SOL     OW34015   3.587   2.414  11.082 -0.2868  0.5918  0.1001
 7460SOL    HW134016   3.678   2.425  11.108  0.1447 -3.8924  0.6370
 7460SOL    HW234017   3.552   2.499  11.105 -0.2384 -0.3808  3.8176
 7461SOL     OW34018   4.133   4.115   3.870 -0.1861 -0.1695 -0.6908
 7461SOL    HW134019   4.150   4.047   3.936  3.7143  0.4731 -1.0397
 7461SOL    HW234020   4.141   4.054   3.796  0.8074 -1.6189  0.6050
 7462SOL     OW34021   1.265   3.685   4.216  0.8505  0.0514  0.2688
 7462SOL    HW134022   1.215   3.750   4.266 -1.6154  1.1008 -3.5855
 7462SOL    HW234023   1.203   3.613   4.225  0.8965  0.0590  0.6764
 7463SOL     OW34024   0.329   0.080   6.562 -0.5771 -0.5450  0.0615
 7463SOL    HW134025   0.323   4.730   6.597  1.9325 -0.7125  0.0829
 7463SOL    HW234026   0.256   0.077   6.500  0.0252  2.1288 -0.7894
 7464SOL     OW34027   1.049   0.628  12.803  0.2945  1.3869 -0.0151
 7464SOL    HW134028   1.133   0.621  12.849  0.4241  0.2098 -0.4342
 7464SOL    HW234029   0.987   0.595  12.869  1.1384 -1.4764 -0.6546
 7465SOL     OW34030   2.730   4.609  15.445  0.4497 -0.2117  0.5648
 7465SOL    HW134031   2.756   4.597  15.354 -1.6602 -0.6386  0.0033
 7465SOL    HW234032   2.687   4.693  15.428  0.8819  0.2957  1.9890
 7466SOL     OW34033   1.106   0.159   7.517  0.5530 -0.2620  0.3831
 7466SOL    HW134034   1.186   0.119   7.552 -0.1307 -1.7284  0.2644
 7466SOL    HW234035   1.096   0.102   7.441 -0.1559  1.5285 -0.8646
 7467SOL     OW34036   0.507   4.474  14.622  0.2871 -0.0479  0.3179
 7467SOL    HW134037   0.475   4.527  14.549  1.3550  0.3346  0.1148
 7467SOL    HW234038   0.496   4.386  14.588  2.7373 -0.3189  0.2207
 7468SOL     OW34039   1.345   2.410   5.992 -0.6647  0.0850  0.2318
 7468SOL    HW134040   1.306   2.468   5.927  0.4648  0.0114 -0.5007
 7468SOL    HW234041   1.425   2.389   5.945 -1.1199 -1.3235  0.0812
 7469SOL     OW34042   4.692   2.008   6.723 -0.0650 -0.2209  0.3550
 7469SOL    HW134043   0.035   1.988   6.678 -0.2522  0.4761 -0.2832
 7469SOL    HW234044   4.719   2.028   6.812 -1.3673 -1.6297  1.0819
 7470SOL     OW34045   1.416   1.307  14.424 -0.3627 -0.1964 -0.0726
 7470SOL    HW134046   1.501   1.271  14.451 -0.7772 -0.6691  0.5673
 7470SOL    HW234047   1.349   1.278  14.485 -0.7443  0.1726 -0.3104
 7471SOL     OW34048   3.816   0.749   2.254  0.4301  1.7114  0.4647
 7471SOL    HW134049   3.738   0.698   2.275  1.0334 -0.0225 -1.5191
 7471SOL    HW234050   3.844   0.711   2.171 -0.3303  0.6065  0.7054
 7472SOL     OW34051   0.636   0.524   8.568  0.3530 -0.1054 -0.0999
 7472SOL    HW134052   0.548   0.485   8.560  0.2666 -0.2562  1.6273
 7472SOL    HW234053   0.688   0.459   8.522 -0.1722 -0.1380 -0.6552
 7473SOL     OW34054   3.400   3.143   6.157 -0.1209 -0.5138  0.4150
 7473SOL    HW134055   3.445   3.138   6.241  0.1364 -3.0390  0.1442
 7473SOL    HW234056   3.422   3.059   6.116  2.7406  0.2298  0.4931
 7474SOL     OW34057   0.080   3.816  10.403 -0.3228  0.0632  0.2540
 7474SOL    HW134058   0.070   3.720  10.403  0.6878 -0.0446  0.0994
 7474SOL    HW234059   0.176   3.811  10.400 -0.2946  0.2358  1.0032
 7475SOL     OW34060   2.159   3.430   7.980  0.3928 -0.1760  0.4707
 7475SOL    HW134061   2.170   3.473   7.895  1.2639 -1.0005  0.1583
 7475SOL    HW234062   2.222   3.483   8.029  0.7967 -0.0281 -0.1959
 7476SOL     OW34063   3.149   1.961  10.723 -0.5170  0.1930  0.0370
 7476SOL    HW134064   3.219   1.906  10.759  0.9325  1.4970 -0.8415
 7476SOL    HW234065   3.175   1.963  10.631  1.1649  1.2496  0.5351
 7477SOL     OW34066   2.011   2.147   7.654 -0.0771  0.3496 -0.1566
 7477SOL    HW134067   2.092   2.181   7.692  0.1997 -0.5672  0.0826
 7477SOL    HW234068   2.030   2.056   7.632  0.0341  0.4174 -0.3410
 7478SOL     OW34069   3.131   0.151   3.410 -0.4570  0.0892  0.3536
 7478SOL    HW134070   3.130   0.160   3.505  0.9384  0.1934  0.3615
 7478SOL    HW234071   3.213   0.107   3.387 -1.1061 -1.2882  0.7013
 7479SOL     OW34072   2.060   3.430   1.444  0.2285 -0.1656 -0.1600
 7479SOL    HW134073   2.056   3.335   1.456  0.1186 -0.0525  0.7507
 7479SOL    HW234074   2.002   3.461   1.514 -0.1846 -2.4535  0.4995
 7480SOL     OW34075   4.252   1.725  14.778 -0.2447  0.3218 -0.3722
 7480SOL    HW134076   4.290   1.688  14.858 -1.3586  1.7081  0.7814
 7480SOL    HW234077   4.322   1.715  14.714  0.7371  2.7670  0.3306
 7481SOL     OW34078   3.237   2.473   2.362  0.2505 -0.4019 -0.1972
 7481SOL    HW134079   3.186   2.466   2.443  0.2166 -1.8689 -0.3344
 7481SOL    HW234080   3.280   2.387   2.367 -0.8011 -0.8627  1.0286
 7482SOL     OW34081   0.366   0.909   8.462 -0.1464 -0.4154  0.4692
 7482SOL    HW134082   0.369   0.999   8.496  0.7026  0.1500 -1.1084
 7482SOL    HW234083   0.403   0.860   8.535 -0.7370 -1.2224  0.2227
 7483SOL     OW34084   0.245   3.676   7.464  0.1493  0.1005  0.1258
 7483SOL    HW134085   0.335   3.706   7.455 -0.4754  1.7355 -0.6208
 7483SOL    HW234086   0.250   3.593   7.511  1.0649  0.8863  1.4279
 7484SOL     OW34087   2.239   0.720   3.076 -0.6078 -0.7692  0.6869
 7484SOL    HW134088   2.280   0.638   3.048  0.5512 -0.1290  0.5463
 7484SOL    HW234089   2.247   0.771   2.996  0.4977 -2.0434 -0.0041
 7485SOL     OW34090   1.802   1.671  15.169  0.0829  0.3486 -0.1793
 7485SOL    HW134091   1.816   1.733  15.097  1.1596  1.4743  1.0275
 7485SOL    HW234092   1.745   1.718  15.229  1.2685  0.1995  1.0536
 7486SOL     OW34093   4.736   3.195   4.973  0.1878  0.2956 -0.0438
 7486SOL    HW134094   0.086   3.207   4.940  0.0521  0.7508 -0.2305
 7486SOL    HW234095   4.717   3.110   4.933 -1.0588  0.4773  0.1616
 7487SOL     OW34096   3.609   4.244  11.414  0.9164  0.5244 -0.2684
 7487SOL    HW134097   3.702   4.258  11.432  1.0295  0.7377 -1.0311
 7487SOL    HW234098   3.580   4.334  11.428 -1.9948 -0.6436  1.3286
 7488SOL     OW34099   0.188   2.075   2.968 -0.0446  0.4350  0.2990
 7488SOL    HW134100   0.149   2.159   2.990 -0.3172 -0.1597  2.0925
 7488SOL    HW234101   0.110   2.021   2.976 -0.9617  1.6235 -0.7034
 7489SOL     OW34102   3.418   1.310  14.166 -0.9684  0.4774  0.2760
 7489SOL    HW134103   3.342   1.272  14.211 -1.4950  0.7449 -0.3990
 7489SOL    HW234104   3.483   1.241  14.171 -1.4391 -0.0759 -1.5156
 7490SOL     OW34105   4.165   2.759   6.477  0.4100  0.2686  0.6592
 7490SOL    HW134106   4.254   2.742   6.508  0.4699  0.4052  0.5645
 7490SOL    HW234107   4.119   2.698   6.534  0.2358  0.4327  0.6950
 7491SOL     OW34108   4.501   4.126   2.799 -0.4441  0.7391  0.2163
 7491SOL    HW134109   4.445   4.203   2.807 -3.8519 -1.8571  0.8851
 7491SOL    HW234110   4.454   4.066   2.742  2.4714 -1.1015 -0.2472
 7492SOL     OW34111   1.917   0.432   2.736  0.6491  0.1594  0.6082
 7492SOL    HW134112   1.916   0.515   2.688  1.5024  0.6539  1.4392
 7492SOL    HW234113   1.825   0.419   2.759  0.4713 -1.2459 -0.8668
 7493SOL     OW34114   1.687   2.041   9.266 -0.5308 -0.0446  0.3905
 7493SOL    HW134115   1.727   2.084   9.190  0.4063 -3.7573 -1.1928
 7493SOL    HW234116   1.676   1.955   9.225  0.8439  0.7857 -1.7540
 7494SOL     OW34117   1.206   0.039   4.597  0.3761 -0.2606  0.1346
 7494SOL    HW134118   1.133   4.727   4.633 -0.0102  0.6886  0.6780
 7494SOL    HW234119   1.258   4.707   4.558 -1.4528  0.0203 -2.8882
 7495SOL     OW34120   4.672   0.488   1.717  0.3473  0.1646  0.3012
 7495SOL    HW134121   4.647   0.546   1.646  2.2414  0.9084  0.2326
 7495SOL    HW234122   4.616   0.411   1.703  0.1021  0.5108 -0.6595
 7496SOL     OW34123   2.632   2.125   7.149 -0.3335  0.6167  0.2098
 7496SOL    HW134124   2.606   2.037   7.122  1.1596  0.5908 -1.1065
 7496SOL    HW234125   2.709   2.093   7.196  0.1651  0.4971 -0.7000
 7497SOL     OW34126   4.380   0.362   5.832 -0.3671  0.2066  0.1268
 7497SOL    HW134127   4.408   0.453   5.838  4.2395 -1.2508  1.2979
 7497SOL    HW234128   4.446   0.317   5.885 -0.9342 -0.7330  0.0408
 7498SOL     OW34129   4.460   0.997  11.035  0.1078  0.6009 -0.6339
 7498SOL    HW134130   4.550   1.029  11.046  0.4801 -1.0111  1.0270
 7498SOL    HW234131   4.447   1.000  10.940 -0.4865 -2.4784 -0.6607
 7499SOL     OW34132   1.770   2.373   8.973 -0.2347  0.4719 -0.0279
 7499SOL    HW134133   1.677   2.359   8.987 -0.0269 -0.9887 -0.1438
 7499SOL    HW234134   1.789   2.467   8.966  0.0950  0.3994 -0.1039
 7500SOL     OW34135   2.429   1.999   4.584  0.9776  0.2670  0.1042
 7500SOL    HW134136   2.382   2.058   4.525 -1.9884 -0.5682  1.6277
 7500SOL    HW234137   2.360   1.953   4.633  1.7916 -0.9798  0.0744
 7501SOL     OW34138   4.570   0.498   6.472 -0.5198 -0.0832 -0.4285
 7501SOL    HW134139   4.596   0.589   6.457  3.3932 -1.0520  0.4328
 7501SOL    HW234140   4.588   0.446   6.394 -0.2501  0.6974 -0.8916
 7502SOL     OW34141   2.321   4.360   7.935  0.1000 -0.2895 -0.3902
 7502SOL    HW134142   2.248   4.397   7.985  2.2054  4.0852 -0.5379
 7502SOL    HW234143   2.367   4.438   7.903 -1.4831  0.8677  0.1254
 7503SOL     OW34144   4.162   0.983  10.109  0.5257 -0.3349  0.7036
 7503SOL    HW134145   4.151   0.998  10.015 -1.9045 -0.6497  0.9388
 7503SOL    HW234146   4.234   0.921  10.120  2.4987  1.5311 -1.5146
 7504SOL     OW34147   0.479   0.892  14.457  0.4701 -0.3393 -0.2748
 7504SOL    HW134148   0.425   0.879  14.535  0.1511  1.0792 -0.2623
 7504SOL    HW234149   0.490   0.987  14.462  0.0551 -0.1892 -2.0021
 7505SOL     OW34150   2.101   1.690   5.011 -0.3426 -0.3474 -0.0352
 7505SOL    HW134151   2.141   1.637   4.943  2.1836  0.7230  0.6104
 7505SOL    HW234152   2.076   1.615   5.065 -3.4472 -0.7893 -2.1326
 7506SOL     OW34153   3.178   3.453   8.285  0.6817 -0.6449  0.4986
 7506SOL    HW134154   3.158   3.518   8.352 -0.2677 -0.4699  0.0466
 7506SOL    HW234155   3.269   3.478   8.268  0.7558 -1.3748 -0.2086
 7507SOL     OW34156   4.021   2.497   4.393 -0.6816 -0.4453  0.2311
 7507SOL    HW134157   4.028   2.543   4.476 -0.9398  1.7967 -0.9944
 7507SOL    HW234158   4.062   2.415   4.420 -1.1621 -0.1874  1.7474
 7508SOL     OW34159   2.165   0.216   5.051 -0.3088 -0.0180 -0.1141
 7508SOL    HW134160   2.255   0.218   5.083 -0.6087 -0.1902  0.7407
 7508SOL    HW234161   2.153   0.303   5.012  1.4540 -0.2602 -1.1484
 7509SOL     OW34162   4.628   1.799   7.485 -0.3701  0.4806 -0.4973
 7509SOL    HW134163   4.642   1.759   7.571 -1.0154 -0.4908 -0.8454
 7509SOL    HW234164   4.655   1.888   7.507 -1.2477  0.6535 -0.1380
 7510SOL     OW34165   3.462   3.453   1.977 -0.3048  0.1086 -0.7132
 7510SOL    HW134166   3.426   3.540   1.960  0.2525  0.7564  1.4721
 7510SOL    HW234167   3.536   3.479   2.031 -2.3132  3.2812  0.5196
 7511SOL     OW34168   0.126   3.762   1.967 -0.2782 -0.0072  0.0945
 7511SOL    HW134169   0.041   3.785   1.929 -0.4215  0.7435  0.8620
 7511SOL    HW234170   0.170   3.846   1.983 -0.6459  0.5187 -1.6611
 7512SOL     OW34171   3.278   3.578   4.929 -0.0695  0.4674  0.0328
 7512SOL    HW134172   3.279   3.552   5.021 -0.4956  0.3273 -0.0016
 7512SOL    HW234173   3.320   3.504   4.886 -0.6639  0.2029 -0.0926
 7513SOL     OW34174   0.955   2.943   6.198 -0.4137  0.1476  0.0734
 7513SOL    HW134175   1.000   3.024   6.222 -1.0836  0.4643  0.2480
 7513SOL    HW234176   0.968   2.907   6.286  0.0487  0.8755  0.2996
 7514SOL     OW34177   3.650   1.616   5.340  0.2920  0.0151 -0.4063
 7514SOL    HW134178   3.620   1.706   5.327  1.1799  0.0663 -2.2640
 7514SOL    HW234179   3.741   1.630   5.368  0.1216  2.0511 -0.8334
 7515SOL     OW34180   1.394   0.685   3.787  0.2036 -0.1097 -0.2604
 7515SOL    HW134181   1.441   0.603   3.773 -0.6709 -0.2189 -2.6462
 7515SOL    HW234182   1.457   0.757   3.787  0.9012 -0.7329  0.4566
 7516SOL     OW34183   1.357   2.323   7.841 -0.2814  0.2871  0.4544
 7516SOL    HW134184   1.449   2.336   7.820 -0.4285  1.4700  0.5624
 7516SOL    HW234185   1.336   2.255   7.777  3.0462  0.0872 -0.4166
 7517SOL     OW34186   3.139   4.432   5.409  0.5399 -0.2642 -0.8672
 7517SOL    HW134187   3.180   4.477   5.334  0.5620  0.2323 -0.5582
 7517SOL    HW234188   3.056   4.478   5.424  1.7680  1.7200 -0.0517
 7518SOL     OW34189   1.427   0.941  16.497 -0.7521 -0.2426 -0.0026
 7518SOL    HW134190   1.484   1.009  16.462 -2.3094  2.3895  2.5641
 7518SOL    HW234191   1.474   0.919  16.578 -1.0024 -0.0609  0.1940
 7519SOL     OW34192   1.032   2.037  12.386  0.5295 -0.4651  0.0990
 7519SOL    HW134193   1.087   2.052  12.310  0.2908 -0.7666 -0.1311
 7519SOL    HW234194   0.983   2.117  12.372  0.3645 -0.4560  0.7079
 7520SOL     OW34195   3.644   3.510   2.600  0.4477 -0.2848  0.2980
 7520SOL    HW134196   3.672   3.567   2.672 -0.4307 -0.8913  1.1068
 7520SOL    HW234197   3.719   3.456   2.573  0.3492 -0.0958 -0.3427
 7521SOL     OW34198   3.043   2.053   8.517  0.4042  0.0802 -0.1339
 7521SOL    HW134199   3.020   1.974   8.567  0.4273  2.1989  3.2234
 7521SOL    HW234200   2.955   2.077   8.488  0.5607 -1.7334 -2.0942
 7522SOL     OW34201   1.525   4.004  16.605 -0.3421  0.1970 -0.6120
 7522SOL    HW134202   1.463   4.010  16.678  0.2541 -2.4307  0.1200
 7522SOL    HW234203   1.469   4.008  16.527 -2.0212  1.7136  0.6703
 7523SOL     OW34204   2.057   2.802   3.716 -0.2515 -0.0315  0.2330
 7523SOL    HW134205   2.102   2.833   3.795  0.3606  0.3106 -0.2426
 7523SOL    HW234206   2.128   2.833   3.658  2.0023 -2.2702  1.7949
 7524SOL     OW34207   0.842   4.347  13.078 -0.0272 -0.1834  0.3245
 7524SOL    HW134208   0.823   4.439  13.063  0.0511 -0.5408 -2.0369
 7524SOL    HW234209   0.917   4.353  13.136 -1.0466 -0.7727  1.6934
 7525SOL     OW34210   4.314   0.827   6.845  0.3077  0.7291  0.2634
 7525SOL    HW134211   4.295   0.776   6.923 -0.6669  0.1952 -0.3335
 7525SOL    HW234212   4.226   0.829   6.809  0.3942  0.5890  0.0459
 7526SOL     OW34213   4.187   4.638   6.487 -0.9597  0.0046 -0.0156
 7526SOL    HW134214   4.169   4.588   6.567 -2.2239 -1.0614 -0.9741
 7526SOL    HW234215   4.273   4.679   6.502 -0.0229 -1.0341 -2.6986
 7527SOL     OW34216   0.406   2.573  12.574 -0.1208  0.1485 -0.0854
 7527SOL    HW134217   0.412   2.608  12.663  2.9730  1.1539 -0.7058
 7527SOL    HW234218   0.493   2.535  12.565 -0.4719 -0.4384 -0.9811
 7528SOL     OW34219   2.317   4.213   6.062 -0.1786 -0.2210  0.1598
 7528SOL    HW134220   2.226   4.185   6.063  0.6992 -3.1923 -2.6374
 7528SOL    HW234221   2.331   4.235   6.154 -0.4902  0.1036  0.1296
 7529SOL     OW34222   2.551   3.163   5.953  0.3354 -0.0838  0.2490
 7529SOL    HW134223   2.563   3.248   5.909  2.1590 -0.2448  0.4632
 7529SOL    HW234224   2.552   3.112   5.872  0.5455  2.1685 -1.1876
 7530SOL     OW34225   1.315   0.098  15.524 -0.0053  0.7023  0.4800
 7530SOL    HW134226   1.255   0.171  15.511 -2.0411 -1.1922 -0.6760
 7530SOL    HW234227   1.269   0.035  15.468 -0.2850  1.2501  0.0940
 7531SOL     OW34228   4.418   2.114   1.674 -0.2841  0.4676  0.6558
 7531SOL    HW134229   4.456   2.084   1.591 -1.2684 -0.0116  0.3748
 7531SOL    HW234230   4.457   2.048   1.731 -0.3611 -0.2520 -0.1024
 7532SOL     OW34231   0.552   4.296   2.300  0.0546  0.5415  0.2768
 7532SOL    HW134232   0.647   4.284   2.297 -0.1032 -0.9663  1.2824
 7532SOL    HW234233   0.537   4.377   2.251  0.1839 -1.1368 -2.5087
 7533SOL     OW34234   1.371   1.842  16.543  0.1323  0.2573  0.2476
 7533SOL    HW134235   1.353   1.901  16.617 -0.0654  2.2526 -1.3734
 7533SOL    HW234236   1.281   1.823  16.517  0.2885  0.9561 -0.7972
 7534SOL     OW34237   0.856   4.648  11.845  0.3286 -0.8419 -0.4971
 7534SOL    HW134238   0.807   4.566  11.844  0.6804 -1.0208 -2.6687
 7534SOL    HW234239   0.789   4.715  11.853  1.9827  0.5954  1.2467
 7535SOL     OW34240   1.036   0.181  14.733 -0.2058 -0.2722  0.4304
 7535SOL    HW134241   1.002   0.200  14.821 -2.6469  0.9275 -0.7667
 7535SOL    HW234242   1.130   0.187  14.752 -0.7663  0.6498  2.9347
 7536SOL     OW34243   4.209   4.456   4.642 -0.2179 -0.1801  0.1329
 7536SOL    HW134244   4.136   4.427   4.587 -1.4890 -1.7602  2.6523
 7536SOL    HW234245   4.231   4.545   4.615 -1.2179  0.7380  2.4021
 7537SOL     OW34246   0.970   0.198  14.416  0.3737  0.4700  0.6636
 7537SOL    HW134247   1.031   0.182  14.487  0.5879 -1.0190  0.1494
 7537SOL    HW234248   1.016   0.258  14.358 -0.8592  2.6488  1.9318
 7538SOL     OW34249   4.152   4.668   7.014 -0.4556  0.5976  0.1480
 7538SOL    HW134250   4.203   0.009   7.028 -0.7874  1.0234 -1.0559
 7538SOL    HW234251   4.208   4.594   7.036  0.5330  1.7212  1.3570
 7539SOL     OW34252   1.228   0.976   3.475  0.4964  0.2446  0.1315
 7539SOL    HW134253   1.144   0.975   3.521  0.6732  0.1019  0.4521
 7539SOL    HW234254   1.286   1.030   3.528  0.5816  1.6742 -1.4372
 7540SOL     OW34255   3.352   3.300   3.081 -0.3801  0.3338  0.2712
 7540SOL    HW134256   3.414   3.367   3.053  2.0661 -1.8868  0.4780
 7540SOL    HW234257   3.386   3.227   3.030  3.6163  0.6185  2.5419
 7541SOL     OW34258   3.410   1.491   4.056  0.4554  0.2937 -0.5634
 7541SOL    HW134259   3.497   1.458   4.033  0.3971  0.4357 -0.9924
 7541SOL    HW234260   3.419   1.486   4.151  0.7635 -1.4571 -0.6665
 7542SOL     OW34261   2.291   4.574   7.724 -0.1627 -0.2599  0.1152
 7542SOL    HW134262   2.268   4.604   7.636  1.4453  1.9573  0.4667
 7542SOL    HW234263   2.212   4.539   7.765 -0.6593 -0.4041 -0.9649
 7543SOL     OW34264   0.317   2.230   6.844 -0.0024  0.1777  0.3877
 7543SOL    HW134265   0.353   2.318   6.831  0.3956  0.1903  1.5557
 7543SOL    HW234266   0.343   2.202   6.931  2.1180 -1.7697 -0.8500
 7544SOL     OW34267   4.378   0.356   7.152 -0.2329  0.0498 -0.3154
 7544SOL    HW134268   4.448   0.370   7.088 -0.8753  2.0880 -0.5968
 7544SOL    HW234269   4.385   0.436   7.204  2.1410 -0.1302 -0.3700
 7545SOL     OW34270   4.001   0.755  13.733  0.5614 -0.3859 -0.2840
 7545SOL    HW134271   4.025   0.737  13.642 -0.1259 -2.5029 -0.0243
 7545SOL    HW234272   4.082   0.799  13.759  1.0550 -0.1439 -2.2246
 7546SOL     OW34273   3.501   3.869   3.376 -0.1614  0.0035  1.1601
 7546SOL    HW134274   3.509   3.938   3.442  0.0394  0.9439  0.1485
 7546SOL    HW234275   3.412   3.886   3.343  0.8291  1.5831 -0.7303
 7547SOL     OW34276   1.466   3.986   5.636 -0.1225  0.1264 -0.1743
 7547SOL    HW134277   1.522   3.937   5.577 -1.2954 -4.1226  2.2739
 7547SOL    HW234278   1.497   4.076   5.625  2.2586 -0.8603 -1.3497
 7548SOL     OW34279   2.157   2.298  17.425  0.4055  0.2958 -0.2909
 7548SOL    HW134280   2.224   2.357  17.392 -1.6068  3.2949  0.8586
 7548SOL    HW234281   2.113   2.288  17.341  0.8004 -0.8100 -0.3624
 7549SOL     OW34282   4.143   1.769   8.657  0.3304 -0.0232 -0.1475
 7549SOL    HW134283   4.157   1.854   8.699  2.8300 -2.1344  3.2919
 7549SOL    HW234284   4.057   1.780   8.617  0.8243 -0.4387 -1.2995
 7550SOL     OW34285   3.615   0.579   6.155 -0.2539  0.2291 -0.1860
 7550SOL    HW134286   3.668   0.508   6.189  0.1005  0.8499  0.5491
 7550SOL    HW234287   3.546   0.534   6.106  0.4097 -1.0426  0.0682
 7551SOL     OW34288   4.653   2.324   0.002  0.6304  0.3284  0.5029
 7551SOL    HW134289   4.667   2.268   0.078  3.3229 -0.3029 -0.4823
 7551SOL    HW234290   0.004   2.340  17.726  0.3349 -2.6676 -2.0929
 7552SOL     OW34291   0.269   2.504   7.021 -0.2025 -0.0628  0.1683
 7552SOL    HW134292   0.356   2.468   7.009 -0.3335  0.2273 -1.7605
 7552SOL    HW234293   0.278   2.594   6.989  1.5898 -0.0433  0.7334
 7553SOL     OW34294   4.662   1.383   8.559  0.1511  0.3569  0.2127
 7553SOL    HW134295   4.663   1.329   8.638 -2.4604 -1.0330 -0.6658
 7553SOL    HW234296   4.661   1.469   8.600  0.8185  0.4426  0.0524
 7554SOL     OW34297   3.512   1.697   2.521  0.1070 -0.1167 -0.2787
 7554SOL    HW134298   3.574   1.626   2.538  0.5655 -0.1034 -1.9024
 7554SOL    HW234299   3.426   1.662   2.547  0.5410  0.6617  2.2147
 7555SOL     OW34300   1.768   1.240  11.540  0.4642 -0.0029 -0.9382
 7555SOL    HW134301   1.780   1.295  11.463  1.8946  1.5828  0.4029
 7555SOL    HW234302   1.734   1.299  11.607  0.2750 -0.0845 -0.9627
 7556SOL     OW34303   1.940   2.688  13.843  0.5528  0.0360  0.2131
 7556SOL    HW134304   2.022   2.737  13.838 -0.4876  1.6150 -1.4816
 7556SOL    HW234305   1.956   2.597  13.818 -0.2984 -0.4257  1.3337
 7557SOL     OW34306   2.473   0.073  11.044  0.1042  0.0447  0.0940
 7557SOL    HW134307   2.408   0.062  10.974 -0.1749  1.8388  0.0643
 7557SOL    HW234308   2.555   0.083  10.994  0.3356 -0.3093  0.4099
 7558SOL     OW34309   3.717   1.496   3.641 -0.0862  0.3417 -0.1662
 7558SOL    HW134310   3.776   1.536   3.578  0.7885  1.1842  1.1790
 7558SOL    HW234311   3.694   1.572   3.695 -2.8970 -1.3235  1.0217
 7559SOL     OW34312   3.982   1.220  14.718  0.3124  0.0058 -0.0978
 7559SOL    HW134313   4.049   1.254  14.659 -0.7677  0.6462 -0.9484
 7559SOL    HW234314   3.904   1.270  14.693  1.1853  1.4134 -0.0206
 7560SOL     OW34315   4.680   3.972  15.735 -0.6744  0.1058  0.1255
 7560SOL    HW134316   0.027   3.999  15.703 -0.8296  1.6543  1.0433
 7560SOL    HW234317   4.647   4.062  15.729 -1.3269 -0.0953  0.6972
 7561SOL     OW34318   2.114   4.461   8.101 -0.3133  0.1931  0.3531
 7561SOL    HW134319   2.128   4.546   8.144 -1.0277  0.5647 -0.1517
 7561SOL    HW234320   2.020   4.459   8.087 -0.1034 -0.3211 -0.9420
 7562SOL     OW34321   3.236   1.050  15.582 -0.4259  0.3977 -0.0716
 7562SOL    HW134322   3.175   0.985  15.548 -0.6837  1.2220 -1.1811
 7562SOL    HW234323   3.311   1.024  15.527 -0.8783  1.8925 -1.4101
 7563SOL     OW34324   2.566   2.044   2.078  0.0038  0.4647 -0.1911
 7563SOL    HW134325   2.565   1.951   2.103  1.4212  0.3523 -0.5894
 7563SOL    HW234326   2.558   2.082   2.166  4.3410 -1.2168  0.9316
 7564SOL     OW34327   0.267   0.439  10.783 -0.0345 -0.0827 -0.1109
 7564SOL    HW134328   0.286   0.383  10.858  1.3531  0.4233 -0.0966
 7564SOL    HW234329   0.171   0.441  10.783  0.0118  3.1502  1.8686
 7565SOL     OW34330   0.827   0.787  10.086 -0.4216 -0.3344  0.7510
 7565SOL    HW134331   0.734   0.806  10.093 -0.5904 -0.7883 -0.3970
 7565SOL    HW234332   0.850   0.788  10.179  1.2495  0.9520  0.3242
 7566SOL     OW34333   2.171   2.312  17.142 -0.2791  0.2767 -0.1629
 7566SOL    HW134334   2.266   2.299  17.138 -0.0887  1.2804  0.9708
 7566SOL    HW234335   2.141   2.253  17.073  2.8178  0.8046 -1.9423
 7567SOL     OW34336   0.406   0.521  10.569 -0.5947 -1.0635 -0.2048
 7567SOL    HW134337   0.350   0.501  10.643  0.7945 -0.6860  0.9568
 7567SOL    HW234338   0.410   0.433  10.531  0.4770 -0.7823 -0.7685
 7568SOL     OW34339   4.123   0.361  10.026 -0.2029 -0.4952 -0.4470
 7568SOL    HW134340   4.128   0.452  10.053 -0.9865 -0.4771 -0.3816
 7568SOL    HW234341   4.041   0.331  10.065  0.5608  0.0677  1.5736
 7569SOL     OW34342   3.697   0.826   6.242 -0.2858  0.1309 -0.1973
 7569SOL    HW134343   3.780   0.782   6.261 -0.0330 -0.3794 -2.4906
 7569SOL    HW234344   3.658   0.759   6.186 -0.7710  0.8326 -0.6931
 7570SOL     OW34345   1.216   3.971   8.375  0.3969  0.1202 -0.5889
 7570SOL    HW134346   1.220   3.891   8.427  0.6750  1.1620  1.0100
 7570SOL    HW234347   1.271   3.946   8.301  1.0188  1.4731 -0.5803
 7571SOL     OW34348   0.793   0.483   4.396 -0.6071  0.0588  0.0355
 7571SOL    HW134349   0.868   0.428   4.374 -0.9421  0.1012 -1.2485
 7571SOL    HW234350   0.802   0.557   4.335 -1.3878  0.0550 -0.0761
 7572SOL     OW34351   0.601   1.753   7.591  0.1147 -0.0201  0.0221
 7572SOL    HW134352   0.576   1.739   7.682  1.2963 -0.1852  0.3208
 7572SOL    HW234353   0.517   1.747   7.544 -0.7650  2.1079  1.3050
 7573SOL     OW34354   4.178   3.348  16.014 -0.3459  0.0581  0.5024
 7573SOL    HW134355   4.136   3.279  16.065  0.2502 -0.6154  0.0864
 7573SOL    HW234356   4.229   3.396  16.079  0.4324 -0.7986  0.5251
 7574SOL     OW34357   2.490   3.258  16.927  0.0012  0.3056 -0.2242
 7574SOL    HW134358   2.489   3.323  16.857  0.8135  0.5900  0.0243
 7574SOL    HW234359   2.490   3.316  17.003  0.5670  0.2473 -0.1759
 7575SOL     OW34360   2.795   0.567   8.917 -0.1651  0.4252 -0.1022
 7575SOL    HW134361   2.880   0.559   8.959 -0.3733 -1.5712 -0.0658
 7575SOL    HW234362   2.792   0.491   8.859 -1.9507 -1.0812  1.9445
 7576SOL     OW34363   1.184   1.264   8.112  0.1507 -0.2144 -0.2781
 7576SOL    HW134364   1.117   1.223   8.058 -1.1189 -0.1764  1.2617
 7576SOL    HW234365   1.237   1.186   8.127 -0.1075 -0.2480  0.4768
 7577SOL     OW34366   2.922   4.022   4.009 -0.3608  0.3835 -0.5254
 7577SOL    HW134367   2.902   3.956   4.075  0.0060  1.0607  0.2595
 7577SOL    HW234368   2.839   4.044   3.967 -0.6047 -1.7300 -1.1863
 7578SOL     OW34369   0.994   1.994   1.939  0.4448 -0.3875  0.2434
 7578SOL    HW134370   0.985   1.988   1.844  1.1046 -0.1920  0.1709
 7578SOL    HW234371   0.989   1.901   1.962 -1.5174  0.0830  1.7233
 7579SOL     OW34372   0.426   4.074   8.464  0.6512 -0.1217  0.0744
 7579SOL    HW134373   0.369   4.015   8.515  0.6300 -0.6737 -0.5881
 7579SOL    HW234374   0.381   4.060   8.381  2.0459  0.6390 -0.8102
 7580SOL     OW34375   0.393   0.681  17.065  0.9856 -0.6216 -0.1419
 7580SOL    HW134376   0.481   0.684  17.103  0.5498 -1.1997  0.9039
 7580SOL    HW234377   0.402   0.730  16.983 -0.3667 -0.6343 -0.2998
 7581SOL     OW34378   3.635   2.903  15.891  0.4946  0.0832 -0.4454
 7581SOL    HW134379   3.689   2.893  15.970  0.1465 -1.0927 -0.3559
 7581SOL    HW234380   3.575   2.829  15.907  1.9676 -0.8160  0.8926
 7582SOL     OW34381   3.319   1.081   4.093 -0.0869  0.5390  0.2302
 7582SOL    HW134382   3.354   1.130   4.019  0.9842  0.0675  0.4114
 7582SOL    HW234383   3.300   1.001   4.044 -1.7025  1.6896 -1.0113
 7583SOL     OW34384   2.530   2.155   2.350  0.1248 -0.1253  0.3720
 7583SOL    HW134385   2.448   2.142   2.399 -0.0825 -1.8993 -0.4296
 7583SOL    HW234386   2.590   2.125   2.418  1.5947 -1.4508 -1.5071
 7584SOL     OW34387   1.427   2.794   9.310 -0.0811  0.1987 -0.0741
 7584SOL    HW134388   1.403   2.730   9.243  1.5019  0.1172 -0.5841
 7584SOL    HW234389   1.513   2.761   9.336  0.7193  2.7623  0.5730
 7585SOL     OW34390   0.479   3.475   3.208 -0.6190 -0.1206 -0.4307
 7585SOL    HW134391   0.563   3.483   3.164  0.1557  3.9872  1.7979
 7585SOL    HW234392   0.498   3.410   3.275 -0.9433 -1.4161 -1.6008
 7586SOL     OW34393   3.525   0.200   7.709  0.4707 -0.0970 -0.3809
 7586SOL    HW134394   3.617   0.203   7.680  0.2012 -2.4095 -1.4057
 7586SOL    HW234395   3.477   0.185   7.628  0.5342 -0.1976 -0.3998
 7587SOL     OW34396   3.882   4.103   6.620  0.0727  0.1258 -0.2345
 7587SOL    HW134397   3.964   4.058   6.600  1.3426  1.6431  1.5536
 7587SOL    HW234398   3.917   4.182   6.661 -1.3452  0.0669  1.1259
 7588SOL     OW34399   2.523   1.996  10.880  0.0264  0.6761  0.0157
 7588SOL    HW134400   2.465   1.957  10.946  0.0062 -0.1866 -0.5054
 7588SOL    HW234401   2.609   1.963  10.903 -0.0340 -1.6214 -3.0626
 7589SOL     OW34402   2.498   4.079   5.044 -0.0679 -0.2050  0.5100
 7589SOL    HW134403   2.523   4.119   5.127  2.5415 -0.5611 -0.1191
 7589SOL    HW234404   2.497   3.985   5.061  1.8447  0.0225  1.8185
 7590SOL     OW34405   4.158   4.498   3.604 -0.3726  0.0798  0.3519
 7590SOL    HW134406   4.212   4.558   3.553 -1.0448  0.7498  0.4102
 7590SOL    HW234407   4.069   4.518   3.572  0.4806 -1.0431 -2.7328
 7591SOL     OW34408   1.999   4.303   5.829  0.2113 -0.5043  1.6306
 7591SOL    HW134409   1.961   4.354   5.757  0.5675 -2.2885  0.1730
 7591SOL    HW234410   1.958   4.218   5.818  0.0565 -0.1070 -0.7674
 7592SOL     OW34411   4.075   3.367   8.959 -0.9709 -0.4985 -0.2835
 7592SOL    HW134412   4.142   3.299   8.951 -1.2889 -1.1452  2.5429
 7592SOL    HW234413   4.013   3.338   8.892 -3.4554  0.0926  1.7475
 7593SOL     OW34414   0.681   0.849   3.675 -0.2668 -0.1830 -0.2577
 7593SOL    HW134415   0.753   0.785   3.678  0.3864  0.6361  1.6277
 7593SOL    HW234416   0.622   0.806   3.614  0.8826 -0.8114 -0.9446
 7594SOL     OW34417   3.278   2.836   9.098  0.4238 -0.5549  0.0095
 7594SOL    HW134418   3.243   2.757   9.140  0.4323 -0.8191 -0.4819
 7594SOL    HW234419   3.360   2.853   9.144  0.3436 -0.2486  0.0438
 7595SOL     OW34420   0.550   3.675   5.831  0.1379  0.2277 -0.3274
 7595SOL    HW134421   0.610   3.608   5.800  0.9323  0.9060 -0.2497
 7595SOL    HW234422   0.492   3.689   5.756  0.4490  0.4847 -0.5174
 7596SOL     OW34423   1.401   3.215   5.714  0.1957  0.3176 -0.6599
 7596SOL    HW134424   1.442   3.162   5.783 -1.6925 -1.5500 -0.9550
 7596SOL    HW234425   1.471   3.227   5.650  1.1677 -1.3933  0.0604
 7597SOL     OW34426   3.872   2.283   9.988 -0.2461 -0.5094 -0.2484
 7597SOL    HW134427   3.885   2.377  10.005  3.8434 -1.0970 -0.1980
 7597SOL    HW234428   3.781   2.268  10.013 -1.0063  3.4547 -0.6017
 7598SOL     OW34429   1.320   1.911   8.547 -0.6147  0.1506  0.4234
 7598SOL    HW134430   1.314   1.882   8.456 -0.1245  2.6087 -0.3770
 7598SOL    HW234431   1.238   1.873   8.578 -1.3481  1.0287 -0.4622
 7599SOL     OW34432   2.509   0.442   5.526 -0.0408 -0.0266  0.3146
 7599SOL    HW134433   2.595   0.474   5.496 -0.2598  0.6485  0.4114
 7599SOL    HW234434   2.532   0.448   5.618  0.5033  0.2200  0.1646
 7600SOL     OW34435   2.570   4.384  16.976 -0.1379 -0.2197 -0.0942
 7600SOL    HW134436   2.612   4.423  17.053  1.3967  1.8835 -1.9717
 7600SOL    HW234437   2.485   4.427  16.985  0.1802  0.3997 -0.0380
 7601SOL     OW34438   0.903   2.968   9.387  0.7675 -0.1992  0.1358
 7601SOL    HW134439   0.853   2.890   9.363  0.0975  0.7441 -1.5365
 7601SOL    HW234440   0.903   3.010   9.301  1.3215  2.3027  1.3642
 7602SOL     OW34441   1.202   4.300   9.518  0.4125  0.3343  0.3426
 7602SOL    HW134442   1.221   4.383   9.473  1.1205 -0.0202 -0.0092
 7602SOL    HW234443   1.291   4.277   9.545  0.9107 -0.4200 -1.8974
 7603SOL     OW34444   1.562   4.132   8.002  0.7693 -0.2559  0.0709
 7603SOL    HW134445   1.530   4.220   7.983  2.0621 -0.3564 -2.5934
 7603SOL    HW234446   1.655   4.139   7.978  0.2214  1.0732 -1.6464
 7604SOL     OW34447   0.809   0.348   3.712  0.3808 -0.1496 -0.1697
 7604SOL    HW134448   0.744   0.417   3.697 -1.1596 -0.8488  3.3905
 7604SOL    HW234449   0.866   0.361   3.636  0.3628 -1.1018 -0.3478
 7605SOL     OW34450   0.680   4.437   4.157 -0.2024  0.0932 -0.0019
 7605SOL    HW134451   0.736   4.508   4.124  0.6434  0.5024  2.3001
 7605SOL    HW234452   0.652   4.479   4.238 -1.1360 -1.5247  0.5053
 7606SOL     OW34453   3.685   1.852   8.296  0.4201 -0.2652  0.4071
 7606SOL    HW134454   3.742   1.877   8.223 -0.4820 -2.1311 -0.9581
 7606SOL    HW234455   3.595   1.856   8.263 -0.0996  0.6045  1.9530
 7607SOL     OW34456   0.940   3.387   6.619 -0.1320  0.9289 -0.1877
 7607SOL    HW134457   0.958   3.294   6.628 -1.8371  0.8683  2.6015
 7607SOL    HW234458   0.846   3.380   6.629  0.2106 -1.5148  1.2501
 7608SOL     OW34459   0.760   4.163   5.623  0.3225  0.8836  0.1054
 7608SOL    HW134460   0.752   4.216   5.544 -0.6669  0.9890  0.2799
 7608SOL    HW234461   0.731   4.217   5.696  0.8707  1.1518  0.1276
 7609SOL     OW34462   0.824   4.046  11.611 -0.4672  0.0131 -0.3198
 7609SOL    HW134463   0.831   4.138  11.587  1.4175  0.0445  0.3810
 7609SOL    HW234464   0.879   3.997  11.550 -1.1730 -1.2697  0.0699
 7610SOL     OW34465   4.290   3.389   4.388  0.1196  0.4486 -0.3020
 7610SOL    HW134466   4.228   3.433   4.331 -0.5134 -1.1903 -0.8787
 7610SOL    HW234467   4.329   3.467   4.428 -0.1873  0.4196  0.0477
 7611SOL     OW34468   4.031   3.477   8.095  0.3496 -0.0432 -0.0208
 7611SOL    HW134469   4.104   3.483   8.157 -0.3046 -0.7934  0.8122
 7611SOL    HW234470   4.042   3.566   8.061  0.0768  0.0088  0.0296
 7612SOL     OW34471   4.616   4.718   9.228  0.8601  0.0312 -0.2254
 7612SOL    HW134472   4.697   4.713   9.178  1.1659 -1.1064  0.3996
 7612SOL    HW234473   4.584   0.068   9.207 -0.0907 -0.2578 -0.0264
 7613SOL     OW34474   1.292   4.476   2.287 -0.1182 -0.1850  0.0867
 7613SOL    HW134475   1.253   4.477   2.375  0.4235 -0.7781  0.3367
 7613SOL    HW234476   1.346   4.399   2.304  0.1841  0.3464  1.6077
 7614SOL     OW34477   2.393   1.869   5.645  0.0320 -0.1962 -0.2358
 7614SOL    HW134478   2.398   1.785   5.599  0.7618 -0.0716 -0.3864
 7614SOL    HW234479   2.472   1.907   5.608 -1.5074  2.6102 -0.5977
 7615SOL     OW34480   2.195   1.079   0.565 -0.6298 -0.3950 -0.1295
 7615SOL    HW134481   2.167   1.011   0.504 -2.1825 -0.2984  0.4871
 7615SOL    HW234482   2.213   1.032   0.647 -1.8596  0.3438  0.5563
 7616SOL     OW34483   2.069   1.303  13.300 -0.5924 -0.2995  0.2004
 7616SOL    HW134484   2.067   1.273  13.390  1.3274 -3.1963 -0.7227
 7616SOL    HW234485   2.096   1.392  13.320 -2.8306  0.1628  1.0903
 7617SOL     OW34486   0.284   1.458   3.964 -0.2700 -0.0503 -0.5029
 7617SOL    HW134487   0.366   1.429   3.926 -0.1084  0.9859 -0.9428
 7617SOL    HW234488   0.297   1.552   3.949 -0.7639 -0.1688 -1.6549
 7618SOL     OW34489   1.616   0.309   2.582 -0.4654  0.1062  0.0998
 7618SOL    HW134490   1.650   0.221   2.565 -0.5813 -0.2334  1.5979
 7618SOL    HW234491   1.640   0.324   2.674  0.5744 -0.8233 -0.0106
 7619SOL     OW34492   3.305   3.672   1.616 -0.1214  0.1577 -0.8122
 7619SOL    HW134493   3.382   3.705   1.662 -1.3614 -0.6450  1.8378
 7619SOL    HW234494   3.249   3.749   1.603  1.0852  1.0896 -0.5273
 7620SOL     OW34495   2.277   1.444   5.204 -0.0076 -0.7345  0.1929
 7620SOL    HW134496   2.317   1.359   5.223 -0.2383 -1.6398 -3.4395
 7620SOL    HW234497   2.193   1.412   5.172 -0.5436 -0.4032  1.2512
 7621SOL     OW34498   4.316   1.065   5.349  0.4622 -0.0203 -0.6921
 7621SOL    HW134499   4.404   1.093   5.373  0.2215  1.0549 -1.0710
 7621SOL    HW234500   4.262   1.142   5.367 -0.5409 -1.1160  0.9879
 7622SOL     OW34501   0.355   4.724   6.003 -0.4413  0.5064 -0.2649
 7622SOL    HW134502   0.346   0.049   5.933  0.8713  1.8777  0.8013
 7622SOL    HW234503   0.327   0.032   6.082  0.1297  0.4453 -0.0258
 7623SOL     OW34504   3.763   0.781   5.144 -0.3319  0.6377 -0.4174
 7623SOL    HW134505   3.852   0.748   5.152 -1.0096 -1.0369  0.1019
 7623SOL    HW234506   3.705   0.706   5.150 -0.3304  0.5304 -1.6176
 7624SOL     OW34507   0.957   3.872   9.453 -0.1019 -0.1220  0.3343
 7624SOL    HW134508   0.982   3.806   9.517 -1.1016 -0.7314  0.1086
 7624SOL    HW234509   1.025   3.939   9.449 -0.2818  0.1166  1.4126
 7625SOL     OW34510   2.522   3.807  16.809  0.4496  0.1678 -0.5229
 7625SOL    HW134511   2.544   3.823  16.717 -0.5357  2.3487 -0.3824
 7625SOL    HW234512   2.452   3.871  16.824  1.4905  0.6673  2.1855
 7626SOL     OW34513   3.784   2.355  13.150  0.2387  0.5649 -0.2149
 7626SOL    HW134514   3.786   2.281  13.089  0.9222  1.2558 -1.0389
 7626SOL    HW234515   3.845   2.413  13.103 -0.4556  0.8570 -0.7610
 7627SOL     OW34516   1.443   3.626   6.690 -0.4103 -0.3487 -0.0523
 7627SOL    HW134517   1.513   3.581   6.738 -1.6163 -1.6271  0.5168
 7627SOL    HW234518   1.470   3.621   6.598  0.1452  0.2744  0.0758
 7628SOL     OW34519   1.439   0.266   2.170 -0.5366  0.2549 -0.3056
 7628SOL    HW134520   1.439   0.218   2.087 -0.2265  0.4127 -0.3954
 7628SOL    HW234521   1.429   0.353   2.131  1.5695  1.0733  1.0259
 7629SOL     OW34522   4.653   1.688   6.926 -0.1422 -0.5343 -0.1715
 7629SOL    HW134523   4.648   1.709   7.019 -0.6495 -0.3586 -0.2394
 7629SOL    HW234524   4.583   1.740   6.886 -0.1434 -1.6432 -1.6087
 7630SOL     OW34525   2.441   0.852   6.722  0.0210 -0.2567  0.2527
 7630SOL    HW134526   2.433   0.844   6.627 -0.0075 -0.3336  0.2617
 7630SOL    HW234527   2.527   0.813   6.735 -0.0705 -0.2310  0.9637
 7631SOL     OW34528   2.556   4.283   2.715 -0.0501 -0.2163 -0.4142
 7631SOL    HW134529   2.525   4.238   2.637 -1.5862 -0.4181  0.3238
 7631SOL    HW234530   2.542   4.375   2.692 -2.1208 -0.4859 -0.1800
 7632SOL     OW34531   0.715   0.632   5.365 -0.5360 -0.4842 -0.1478
 7632SOL    HW134532   0.625   0.663   5.364 -0.1091  0.6961 -1.9345
 7632SOL    HW234533   0.749   0.677   5.287 -0.5182  0.8060  0.6059
 7633SOL     OW34534   2.058   2.211  11.187  0.1337  0.0964  0.2011
 7633SOL    HW134535   2.120   2.273  11.224  0.4678 -0.6142  0.8353
 7633SOL    HW234536   1.976   2.254  11.210  0.9288  2.0499 -0.6225
 7634SOL     OW34537   3.879   3.515   1.316 -0.0074 -0.6923 -0.8059
 7634SOL    HW134538   3.816   3.534   1.386 -1.0303  1.7708 -2.4065
 7634SOL    HW234539   3.876   3.420   1.304  0.0675 -0.5857 -1.6348
 7635SOL     OW34540   0.386   4.603   3.686  0.1131  0.5812  0.0084
 7635SOL    HW134541   0.392   4.646   3.771 -0.0371 -0.8033  0.7187
 7635SOL    HW234542   0.331   4.667   3.641  0.1673  1.0793  0.6406
 7636SOL     OW34543   2.965   2.244   2.018  0.4620 -0.3102 -0.3525
 7636SOL    HW134544   2.980   2.334   2.046  1.5153  0.3927 -3.2106
 7636SOL    HW234545   3.009   2.197   2.089 -1.6836 -1.1690  0.4275
 7637SOL     OW34546   0.731   1.997   2.098 -0.1958 -0.5630  0.0220
 7637SOL    HW134547   0.743   2.041   2.014 -0.8370 -0.2569  0.0965
 7637SOL    HW234548   0.778   1.914   2.090  1.5553  0.5380 -1.2584
 7638SOL     OW34549   2.424   0.887   7.268  0.4557 -0.1368 -0.0907
 7638SOL    HW134550   2.485   0.869   7.196 -0.9088 -0.5166 -1.1451
 7638SOL    HW234551   2.446   0.979   7.278  1.0115 -0.0404 -2.1162
 7639SOL     OW34552   4.081   0.991   8.009 -0.3762 -0.3360  0.3457
 7639SOL    HW134553   4.134   1.067   8.032  2.0080 -1.9640  0.1647
 7639SOL    HW234554   3.998   1.027   8.040  1.3001  2.2545  1.7925
 7640SOL     OW34555   4.227   4.244   6.864 -0.2930  0.7837 -0.1432
 7640SOL    HW134556   4.134   4.255   6.842 -0.4659 -0.6476 -0.1781
 7640SOL    HW234557   4.264   4.230   6.777 -3.1391  1.1997 -1.4226
 7641SOL     OW34558   3.337   3.626  11.108  0.4126 -0.3121 -0.0323
 7641SOL    HW134559   3.349   3.532  11.097  2.0275 -0.0499 -0.5363
 7641SOL    HW234560   3.383   3.665  11.033 -0.4885  1.3744  0.2747
 7642SOL     OW34561   4.106   0.595   5.121 -0.3790  0.1040  0.3270
 7642SOL    HW134562   4.201   0.596   5.117 -0.4597  0.2937 -1.3262
 7642SOL    HW234563   4.074   0.540   5.193  0.7253 -1.0406 -0.0782
 7643SOL     OW34564   0.190   3.622   3.568 -0.0219 -0.4582  0.2791
 7643SOL    HW134565   0.104   3.636   3.606 -0.3853 -0.8835 -0.4022
 7643SOL    HW234566   0.185   3.690   3.502  0.2873 -0.2568  0.4615
 7644SOL     OW34567   0.517   2.697   5.773 -0.3086 -0.7537 -0.4269
 7644SOL    HW134568   0.475   2.767   5.723 -1.0179 -1.2658 -0.5516
 7644SOL    HW234569   0.505   2.615   5.725  0.4103  0.5890 -2.8826
 7645SOL     OW34570   3.303   1.545   2.708 -0.0519  0.3175 -0.2847
 7645SOL    HW134571   3.227   1.604   2.709 -0.0565  0.3662 -2.7292
 7645SOL    HW234572   3.353   1.578   2.782  0.6033  0.3034 -0.7155
 7646SOL     OW34573   3.165   1.859   0.923 -0.2233 -0.8572  0.2091
 7646SOL    HW134574   3.150   1.772   0.884 -2.0512 -0.7054  0.5699
 7646SOL    HW234575   3.239   1.894   0.874 -1.1875  0.7714 -0.0817
 7647SOL     OW34576   2.752   1.940   1.477 -0.0411  0.0894  0.0015
 7647SOL    HW134577   2.781   1.949   1.568 -2.3387 -0.1282  0.7524
 7647SOL    HW234578   2.840   1.947   1.439 -0.9123  1.1227 -1.7937
 7648SOL     OW34579   4.242   1.315  10.547  0.4437 -0.3661  0.4392
 7648SOL    HW134580   4.172   1.304  10.612 -1.1488 -1.1967 -1.4177
 7648SOL    HW234581   4.200   1.267  10.476 -2.0373  0.5007  1.3189
 7649SOL     OW34582   1.260   0.525   6.165  0.1862 -0.2906 -0.7325
 7649SOL    HW134583   1.215   0.444   6.188 -0.1209 -0.4540 -1.8941
 7649SOL    HW234584   1.273   0.564   6.252 -1.5551  0.3589 -0.7549
 7650SOL     OW34585   1.317   2.593   5.230 -0.0604 -0.2644  0.3567
 7650SOL    HW134586   1.240   2.628   5.186 -0.0225  1.3143  1.5124
 7650SOL    HW234587   1.326   2.662   5.296 -3.0253  1.1425 -0.7229
 7651SOL     OW34588   2.312   2.171  10.199  0.1096  0.5074 -0.3766
 7651SOL    HW134589   2.324   2.108  10.129  1.5376 -0.0618  0.3812
 7651SOL    HW234590   2.376   2.140  10.263  0.2938  2.8925  0.5924
 7652SOL     OW34591   3.152   2.501   8.212 -0.3374 -0.0466 -0.0852
 7652SOL    HW134592   3.205   2.567   8.168  1.7247 -2.7582 -1.7229
 7652SOL    HW234593   3.209   2.476   8.284 -0.7881  2.5689  1.1715
 7653SOL     OW34594   4.339   1.511  17.707 -0.5276 -0.1502  0.6903
 7653SOL    HW134595   4.414   1.538  17.654 -1.5689  0.0566 -0.6694
 7653SOL    HW234596   4.378   1.437   0.000  1.2103  0.2618 -0.1114
 7654SOL     OW34597   0.348   3.562   8.900 -0.4675 -0.2055 -0.2074
 7654SOL    HW134598   0.408   3.489   8.914 -2.4828 -1.8464 -0.0834
 7654SOL    HW234599   0.409   3.632   8.879 -0.6032 -0.2124 -0.6317
 7655SOL     OW34600   1.955   1.846   6.829  0.1099 -0.1755  0.1269
 7655SOL    HW134601   2.027   1.796   6.867  1.5323  1.2331 -0.7180
 7655SOL    HW234602   1.992   1.931   6.853  0.1784 -0.2678  0.3500
 7656SOL     OW34603   3.226   2.519   8.596  0.0108  0.1276  0.3530
 7656SOL    HW134604   3.257   2.533   8.686  0.8279 -0.0607  0.0945
 7656SOL    HW234605   3.161   2.450   8.611  0.6833 -0.7115 -0.5988
 7657SOL     OW34606   1.551   4.324   8.234 -0.6611  0.3601 -0.1348
 7657SOL    HW134607   1.518   4.340   8.145  0.6316 -0.7467 -0.8102
 7657SOL    HW234608   1.531   4.411   8.269 -3.2029 -0.4782  0.5369
 7658SOL     OW34609   2.088   4.679   8.244  0.5029 -0.2312  0.6850
 7658SOL    HW134610   2.030   4.720   8.180 -0.2814 -0.0962  1.4842
 7658SOL    HW234611   2.034   4.701   8.321  1.2978 -2.5571  1.9182
 7659SOL     OW34612   3.740   3.749  14.103  0.2650 -0.4228 -0.1810
 7659SOL    HW134613   3.743   3.824  14.163  0.4941 -0.5609 -0.0214
 7659SOL    HW234614   3.648   3.725  14.109  0.6870 -1.2710  2.6503
 7660SOL     OW34615   2.721   2.842  12.552 -0.8153  0.0534  0.0565
 7660SOL    HW134616   2.810   2.878  12.559 -0.7214 -0.0363 -0.7008
 7660SOL    HW234617   2.680   2.922  12.521  0.2260  0.4252 -0.3485
 7661SOL     OW34618   2.931   4.283  17.570  0.4978  0.3266  0.0810
 7661SOL    HW134619   2.882   4.335  17.633 -0.7266  2.1523 -2.3900
 7661SOL    HW234620   3.021   4.303  17.595  0.9468 -1.8417  0.2240
 7662SOL     OW34621   0.026   3.047   7.927  0.4867  0.0184  0.3967
 7662SOL    HW134622   4.710   3.060   8.004 -0.7521  0.1540 -0.4990
 7662SOL    HW234623   4.702   3.010   7.864  0.4577 -0.6077  0.7928
 7663SOL     OW34624   1.475   4.398   7.962  0.1537 -0.5777 -0.2815
 7663SOL    HW134625   1.414   4.466   7.991  0.3132 -0.1954 -0.8519
 7663SOL    HW234626   1.549   4.444   7.922 -0.0031 -1.1784 -1.2511
 7664SOL     OW34627   2.929   1.767   3.529  0.5737 -0.1497 -0.0021
 7664SOL    HW134628   2.895   1.732   3.446  0.5490 -0.6302  0.2087
 7664SOL    HW234629   2.867   1.839   3.540  0.2388 -0.4504  0.0693
 7665SOL     OW34630   2.361   0.603   0.629  0.0461 -0.5712 -0.3621
 7665SOL    HW134631   2.339   0.522   0.585  1.1117 -1.2590  0.3659
 7665SOL    HW234632   2.318   0.665   0.571  0.9237  1.5352  1.1979
 7666SOL     OW34633   1.655   0.283   5.705  0.9770  0.2376  0.0229
 7666SOL    HW134634   1.667   0.375   5.684 -0.4765 -0.2151 -2.7900
 7666SOL    HW234635   1.565   0.269   5.675  1.5178 -0.5229 -1.2730
 7667SOL     OW34636   0.416   4.547   4.709 -0.0114  0.1570 -0.1462
 7667SOL    HW134637   0.393   4.575   4.621 -1.0882 -3.7113 -1.0840
 7667SOL    HW234638   0.364   4.593   4.775 -0.4170 -0.8639  0.2448
 7668SOL     OW34639   4.691   4.701   3.294  0.4295 -0.1531 -0.3076
 7668SOL    HW134640   4.718   4.672   3.207 -1.0409  1.5188 -1.3318
 7668SOL    HW234641   0.038   4.737   3.320 -0.6185  1.6888  0.6444
 7669SOL     OW34642   2.384   1.397   4.368 -0.1522  0.0889  0.1355
 7669SOL    HW134643   2.396   1.491   4.378  0.1449  0.1283 -0.6465
 7669SOL    HW234644   2.425   1.386   4.282  0.5524  0.9451  0.3670
 7670SOL     OW34645   1.453   3.686  16.625 -0.0633  0.2304  0.4338
 7670SOL    HW134646   1.469   3.641  16.542 -4.9742  1.1528 -0.9919
 7670SOL    HW234647   1.544   3.710  16.643  0.0818  0.0944 -0.1060
 7671SOL     OW34648   0.144   3.630   0.360 -0.1319 -0.4786  0.6978
 7671SOL    HW134649   0.081   3.700   0.376 -1.2267 -1.2062 -0.3770
 7671SOL    HW234650   0.220   3.670   0.402 -1.0749 -0.1620  2.1117
 7672SOL     OW34651   3.028   0.443   7.906 -0.1818  0.2214  0.2927
 7672SOL    HW134652   3.117   0.444   7.942  1.0081  1.7995 -2.6688
 7672SOL    HW234653   2.993   0.360   7.936  0.6974 -0.0807  0.4899
 7673SOL     OW34654   4.520   1.426   2.468 -0.0020  0.3405  0.3221
 7673SOL    HW134655   4.543   1.442   2.377  0.1204  1.2339  0.5109
 7673SOL    HW234656   4.466   1.347   2.464 -0.4685  0.5963  1.4506
 7674SOL     OW34657   0.515   3.445   7.029  0.0765 -0.9155 -0.1703
 7674SOL    HW134658   0.573   3.401   6.967  1.1650  1.1500 -0.5966
 7674SOL    HW234659   0.563   3.452   7.111  0.0442 -2.6733 -0.0038
 7675SOL     OW34660   2.993   2.246   1.741  0.3884  0.0214 -0.3327
 7675SOL    HW134661   2.993   2.250   1.836 -2.7534  1.3373 -0.3951
 7675SOL    HW234662   2.949   2.325   1.712  0.6332  0.2170 -0.1649
 7676SOL     OW34663   4.042   2.308   1.463 -0.7287  0.5521 -0.2928
 7676SOL    HW134664   4.104   2.372   1.429  0.5103 -1.1693 -1.2846
 7676SOL    HW234665   4.079   2.294   1.549 -1.4771 -0.1717 -0.0840
 7677SOL     OW34666   0.766   0.839  17.609 -0.4246 -0.8526  0.3302
 7677SOL    HW134667   0.698   0.772  17.610 -1.1494 -0.1174 -1.3161
 7677SOL    HW234668   0.840   0.783  17.633 -0.3907 -1.0878 -0.3386
 7678SOL     OW34669   0.714   4.582  13.058 -0.0488 -0.0697 -0.6053
 7678SOL    HW134670   0.677   4.666  13.085 -1.9709 -0.6955 -1.2779
 7678SOL    HW234671   0.680   4.577  12.969  0.1829 -2.7710 -0.5712
 7679SOL     OW34672   1.375   2.028   2.131 -0.0064  0.5697  0.3151
 7679SOL    HW134673   1.378   2.035   2.035  1.0717 -1.7280  0.1674
 7679SOL    HW234674   1.436   1.955   2.147 -1.1035 -0.3270  0.3756
 7680SOL     OW34675   1.394   0.061   4.027  0.0578 -0.5324  0.4686
 7680SOL    HW134676   1.461   0.049   3.960  1.2894  0.6938  1.4844
 7680SOL    HW234677   1.435   0.037   4.110  0.1773 -2.2075 -0.0587
 7681SOL     OW34678   2.064   4.583  11.764 -0.3181  0.2825 -0.1507
 7681SOL    HW134679   2.131   4.558  11.700 -1.1145 -0.1576 -0.8190
 7681SOL    HW234680   2.126   4.603  11.834  0.5475 -0.6621 -0.6461
 7682SOL     OW34681   1.572   4.289  10.682 -0.9826 -0.4977 -0.9824
 7682SOL    HW134682   1.528   4.207  10.702 -0.2328 -0.7575 -0.3723
 7682SOL    HW234683   1.600   4.271  10.593  0.6446  0.6374 -0.7047
 7683SOL     OW34684   3.537   4.369   1.167  0.0047 -0.1198 -0.0747
 7683SOL    HW134685   3.584   4.387   1.248  0.1737  0.9682 -0.4183
 7683SOL    HW234686   3.449   4.397   1.192  0.2308  0.7071 -0.2192
 7684SOL     OW34687   1.778   2.877   4.684 -0.0759 -0.5425  0.6292
 7684SOL    HW134688   1.733   2.793   4.683 -1.0072 -0.0288 -0.0504
 7684SOL    HW234689   1.751   2.925   4.606  2.2881 -0.7571 -0.3305
 7685SOL     OW34690   4.058   4.308   7.128 -0.5335 -0.7522 -0.5963
 7685SOL    HW134691   4.122   4.348   7.069 -0.8872  1.3566  0.4456
 7685SOL    HW234692   4.118   4.250   7.176  2.0491  2.0169 -0.4678
 7686SOL     OW34693   3.277   2.309  17.639 -0.1056 -0.1171 -0.0700
 7686SOL    HW134694   3.347   2.304  17.704 -0.7116  1.3614  0.6804
 7686SOL    HW234695   3.259   2.403  17.644 -0.3624 -0.1088 -1.0316
 7687SOL     OW34696   3.003   2.029   1.423  0.4077  0.4090  0.4203
 7687SOL    HW134697   3.032   1.979   1.499  1.2771 -1.1994 -0.9584
 7687SOL    HW234698   3.055   1.992   1.352 -0.4628  0.1774 -0.1000
 7688SOL     OW34699   3.220   4.046   2.547  0.1875  0.1948  0.3032
 7688SOL    HW134700   3.265   3.992   2.483 -0.5679 -0.7333  0.5519
 7688SOL    HW234701   3.286   4.111   2.572  0.4843  0.8409 -2.1716
 7689SOL     OW34702   3.049   3.052   7.879  0.1663 -0.8576 -0.5102
 7689SOL    HW134703   3.098   2.985   7.831  0.5200 -0.7646 -0.2845
 7689SOL    HW234704   3.096   3.128   7.843  0.6709 -0.9323 -0.0102
 7690SOL     OW34705   1.969   2.257   3.605 -0.0610  0.3004  0.0703
 7690SOL    HW134706   2.023   2.294   3.675  0.1103 -0.6931  0.4604
 7690SOL    HW234707   2.014   2.173   3.596 -0.4376 -0.1292  2.3317
 7691SOL     OW34708   2.598   0.074  15.119  0.1439 -0.0458  0.5709
 7691SOL    HW134709   2.625   4.722  15.136 -0.3329  0.0088  1.6400
 7691SOL    HW234710   2.645   0.084  15.036  1.2268  2.1363  1.4552
 7692SOL     OW34711   3.946   2.763  17.440 -0.5939 -0.2221 -0.4705
 7692SOL    HW134712   4.039   2.743  17.452 -0.7098 -0.5210 -0.0923
 7692SOL    HW234713   3.948   2.853  17.470  2.7596 -0.7417  0.8497
 7693SOL     OW34714   2.190   0.136   8.600  0.1790 -0.3279 -0.0470
 7693SOL    HW134715   2.261   0.076   8.624 -0.4893 -0.2945  2.0347
 7693SOL    HW234716   2.225   0.201   8.539  0.6506 -0.2488  0.3134
 7694SOL     OW34717   1.167   0.286   5.902  0.2941  0.0255 -0.2788
 7694SOL    HW134718   1.125   0.339   5.835 -0.5265  1.1278  1.1266
 7694SOL    HW234719   1.256   0.281   5.867  0.7949 -1.5983  1.2142
 7695SOL     OW34720   4.375   4.153   6.056 -0.6899 -0.1056 -0.4332
 7695SOL    HW134721   4.365   4.248   6.060 -2.4427 -0.2287 -1.8666
 7695SOL    HW234722   4.291   4.120   6.085 -0.8627  0.8156  0.1327
 7696SOL     OW34723   1.699   0.808   3.261 -0.3472 -0.0271  0.3297
 7696SOL    HW134724   1.605   0.797   3.268 -0.4520  0.8033  0.1128
 7696SOL    HW234725   1.737   0.772   3.342  3.5245 -1.1388 -1.9803
 7697SOL     OW34726   2.820   3.592   8.286 -0.4253 -0.2101 -0.2001
 7697SOL    HW134727   2.874   3.580   8.208  0.8157 -1.1119  0.7976
 7697SOL    HW234728   2.853   3.673   8.325 -1.1780 -0.3799  0.7937
 7698SOL     OW34729   2.767   2.838  10.774 -0.5062  0.7510  0.0361
 7698SOL    HW134730   2.735   2.788  10.849  2.7011 -1.5261 -0.1097
 7698SOL    HW234731   2.732   2.923  10.800 -0.1524  1.3329 -1.3691
 7699SOL     OW34732   0.782   3.775   2.723 -0.0782  0.3901  0.4509
 7699SOL    HW134733   0.729   3.854   2.713  1.5177  1.4536  0.3541
 7699SOL    HW234734   0.749   3.738   2.805 -0.5786 -1.8946 -0.7824
 7700SOL     OW34735   1.471   0.613   4.668 -0.0480 -0.1734  0.0802
 7700SOL    HW134736   1.431   0.622   4.582  1.8555 -0.5303 -0.8509
 7700SOL    HW234737   1.419   0.671   4.724 -0.2243 -0.1522 -0.1088
 7701SOL     OW34738   3.971   2.104   8.366  0.7598  0.2832  0.1713
 7701SOL    HW134739   4.049   2.121   8.418  0.3295  0.4166  0.7801
 7701SOL    HW234740   3.930   2.043   8.428 -2.0192  1.4280 -0.5371
 7702SOL     OW34741   3.381   3.536   3.814 -0.3366 -0.3933  0.2780
 7702SOL    HW134742   3.381   3.467   3.748 -0.3730  1.3291 -1.5312
 7702SOL    HW234743   3.375   3.615   3.759  0.7698 -1.0070 -0.7123
 7703SOL     OW34744   0.497   0.639  16.374 -0.5190  0.0510  0.0746
 7703SOL    HW134745   0.434   0.670  16.309  0.9137  0.4653 -1.1386
 7703SOL    HW234746   0.448   0.579  16.430  1.3108 -0.9347  0.6260
 7704SOL     OW34747   1.261   1.795  15.674  0.0824 -0.6641  0.2999
 7704SOL    HW134748   1.278   1.868  15.734  0.7498 -1.9096  1.6373
 7704SOL    HW234749   1.235   1.845  15.597 -2.5771 -1.9335  0.3759
 7705SOL     OW34750   0.577   4.576  12.801 -0.4429 -0.3798  0.0619
 7705SOL    HW134751   0.494   4.605  12.838  0.7250  1.7780  1.0281
 7705SOL    HW234752   0.562   4.588  12.707  1.0087  2.7803  0.2280
 7706SOL     OW34753   3.301   2.551   9.464  0.4692  0.5859  0.5264
 7706SOL    HW134754   3.277   2.511   9.548  3.1150 -0.3808  0.8234
 7706SOL    HW234755   3.375   2.494   9.441  0.5185  0.6535  0.5168
 7707SOL     OW34756   1.061   0.332   8.921  0.0184  0.5680 -0.1337
 7707SOL    HW134757   1.083   0.341   9.013  2.5115  0.4868 -0.7428
 7707SOL    HW234758   0.978   0.380   8.918  0.1124  0.8693  2.5484
 7708SOL     OW34759   0.589   0.936  17.061  0.2673  0.3458  0.2533
 7708SOL    HW134760   0.657   0.871  17.042 -0.2539  0.0689 -0.6782
 7708SOL    HW234761   0.613   1.009  17.004  1.3767  1.2422  1.8636
 7709SOL     OW34762   3.553   4.081  14.396 -0.1508 -0.1070 -0.0283
 7709SOL    HW134763   3.518   4.129  14.471 -2.0259 -3.1455  1.0442
 7709SOL    HW234764   3.478   4.092  14.336 -0.4742  1.0273  0.5863
 7710SOL     OW34765   0.010   1.793  11.138 -0.3793  0.0020  0.2524
 7710SOL    HW134766   4.720   1.842  11.215 -3.1392  0.3721 -1.0241
 7710SOL    HW234767   4.676   1.802  11.077 -0.5889  0.7230  0.6074
 7711SOL     OW34768   3.551   4.653   7.842  0.0206  0.3851  0.3236
 7711SOL    HW134769   3.489   4.708   7.890 -0.8177 -0.2083 -0.0817
 7711SOL    HW234770   3.586   4.723   7.787  1.3618 -1.2681 -0.9169
 7712SOL     OW34771   3.200   1.524  10.798  0.1847 -0.3330 -0.0011
 7712SOL    HW134772   3.266   1.460  10.824 -1.5452 -2.7410 -1.5119
 7712SOL    HW234773   3.153   1.473  10.732 -0.4386  0.7604 -0.4087
 7713SOL     OW34774   0.514   1.950  11.921 -0.2964 -0.0491  0.1520
 7713SOL    HW134775   0.522   1.940  11.826 -0.3411  2.3371 -0.1145
 7713SOL    HW234776   0.546   1.866  11.952 -0.6338  0.5408  2.1169
 7714SOL     OW34777   3.704   3.110   0.335  0.3143 -0.8879 -0.3405
 7714SOL    HW134778   3.723   3.173   0.404 -0.0244 -2.4223  1.1851
 7714SOL    HW234779   3.649   3.059   0.395  2.8358 -1.2210  1.6728
 7715SOL     OW34780   0.651   2.153   6.908  0.0919 -0.3073  0.2671
 7715SOL    HW134781   0.726   2.099   6.882  0.4051  0.0346  0.4708
 7715SOL    HW234782   0.605   2.152   6.824  2.7927  2.4293 -1.2305
 7716SOL     OW34783   2.490   2.074   6.506  0.1954 -0.3480 -0.2149
 7716SOL    HW134784   2.457   2.162   6.524  0.3171 -0.4372  0.4408
 7716SOL    HW234785   2.584   2.078   6.492  0.4816 -0.2709  1.6810
 7717SOL     OW34786   4.450   2.866   0.232  0.0238  0.3276 -0.4353
 7717SOL    HW134787   4.358   2.844   0.215  0.1817 -1.7685  1.4833
 7717SOL    HW234788   4.443   2.895   0.323 -0.3507  0.8409 -0.6302
 7718SOL     OW34789   1.279   3.577  15.932  0.5407  0.6034 -0.1649
 7718SOL    HW134790   1.212   3.641  15.955 -0.2309 -0.6209  0.9780
 7718SOL    HW234791   1.278   3.513  16.003 -2.8490 -0.3798 -1.1267
 7719SOL     OW34792   2.467   2.851   6.123  0.2255  0.0388 -0.0155
 7719SOL    HW134793   2.428   2.855   6.035  0.6953  2.4211 -0.1111
 7719SOL    HW234794   2.480   2.945   6.135  1.3109 -0.0720 -0.3076
 7720SOL     OW34795   1.861   4.146  10.388 -0.3496 -0.5087 -0.4300
 7720SOL    HW134796   1.854   4.088  10.463 -0.5494 -2.1343 -1.7158
 7720SOL    HW234797   1.782   4.199  10.400 -0.0294 -0.1285  0.0417
 7721SOL     OW34798   2.049   4.609   8.937  0.2524  0.2480 -1.0961
 7721SOL    HW134799   1.976   4.671   8.942  0.0717  0.2147 -3.1962
 7721SOL    HW234800   2.121   4.650   8.984 -0.8826  1.4413 -0.3828
 7722SOL     OW34801   1.259   0.564   6.450  0.3819 -0.5146  0.0704
 7722SOL    HW134802   1.194   0.630   6.472 -1.4803 -1.9763 -0.9731
 7722SOL    HW234803   1.337   0.617   6.461  0.8482 -1.0588 -0.6210
 7723SOL     OW34804   3.076   3.827   2.620  0.6329  0.0807  0.1819
 7723SOL    HW134805   3.116   3.913   2.606  1.3231  0.4375  4.4171
 7723SOL    HW234806   3.151   3.770   2.604  0.6545 -0.6028  2.7374
 7724SOL     OW34807   2.580   4.617   2.634 -0.5632 -0.2888  0.0485
 7724SOL    HW134808   2.557   4.588   2.546 -0.4089 -3.5321  1.0603
 7724SOL    HW234809   2.659   4.663   2.605  0.9335 -0.2422  4.1507
 7725SOL     OW34810   4.276   1.294  11.847  0.0024 -0.1411  0.1147
 7725SOL    HW134811   4.291   1.327  11.936  1.2352 -0.5478  0.0484
 7725SOL    HW234812   4.180   1.300  11.843 -0.0704 -1.0780  0.4513
 7726SOL     OW34813   3.907   4.601   7.687  0.0241  0.3855  0.2907
 7726SOL    HW134814   3.965   4.663   7.643  1.6117 -0.2901  1.4236
 7726SOL    HW234815   3.835   4.664   7.700 -0.6647 -0.1297 -1.0297
 7727SOL     OW34816   4.389   2.213   3.427  0.1126  0.2887 -0.7217
 7727SOL    HW134817   4.373   2.185   3.337 -0.2387 -0.6300 -0.3763
 7727SOL    HW234818   4.436   2.141   3.470 -0.2910 -0.9155 -2.2962
 7728SOL     OW34819   1.491   2.641  10.198 -0.3329 -0.1199 -0.3363
 7728SOL    HW134820   1.418   2.675  10.147 -1.3664  0.6675  1.6842
 7728SOL    HW234821   1.492   2.711  10.263  0.2924  0.1820 -0.6706
 7729SOL     OW34822   4.062   0.133   2.389  0.8347  0.8521  0.0563
 7729SOL    HW134823   4.152   0.126   2.422  0.1398 -3.4697  1.0783
 7729SOL    HW234824   4.036   0.042   2.406  1.6491  1.1342  2.7463
 7730SOL     OW34825   2.692   3.983   7.804 -0.6661 -0.2084 -0.4223
 7730SOL    HW134826   2.651   4.063   7.837 -0.0538  1.1597 -3.0300
 7730SOL    HW234827   2.652   3.970   7.718  0.3280 -2.0675 -0.5989
 7731SOL     OW34828   2.904   3.880   8.316 -0.3737 -1.1775 -0.2809
 7731SOL    HW134829   2.906   3.955   8.257 -0.3951  0.1742  1.4372
 7731SOL    HW234830   2.819   3.888   8.359 -0.0065  1.5416 -0.0886
 7732SOL     OW34831   0.208   1.243   5.070  0.6172  0.0121 -0.4249
 7732SOL    HW134832   0.155   1.168   5.042  0.5219 -0.3435  0.7163
 7732SOL    HW234833   0.289   1.225   5.022  0.0365 -0.9454 -1.0526
 7733SOL     OW34834   0.460   2.323   6.492  0.2182  0.4100 -0.8042
 7733SOL    HW134835   0.526   2.304   6.425  1.5797  0.0086  0.6416
 7733SOL    HW234836   0.441   2.413   6.466 -0.2124  0.2006 -1.2094
 7734SOL     OW34837   1.569   4.589   4.861 -0.3758 -0.0942 -0.1991
 7734SOL    HW134838   1.637   4.522   4.846  1.8399  1.6680  1.9628
 7734SOL    HW234839   1.567   4.581   4.957  0.5547 -2.3745 -0.3600
 7735SOL     OW34840   3.042   3.181   5.784 -0.2106 -0.2455  0.0227
 7735SOL    HW134841   3.041   3.160   5.877 -2.0934  0.3558  0.1426
 7735SOL    HW234842   3.124   3.133   5.773  0.4367  0.8190  0.2234
 7736SOL     OW34843   0.250   3.196  12.917  0.2986  0.3963  0.3218
 7736SOL    HW134844   0.225   3.174  13.007 -0.2768  0.1749  0.1048
 7736SOL    HW234845   0.315   3.126  12.909  1.1525  1.2982 -0.7538
 7737SOL     OW34846   1.848   3.528   2.221  0.1319 -0.2316 -0.5878
 7737SOL    HW134847   1.802   3.516   2.304  0.4659 -0.7110 -0.4742
 7737SOL    HW234848   1.859   3.623   2.212 -0.2844 -0.3053 -1.8079
 7738SOL     OW34849   3.656   2.208   9.240 -0.3261  0.1780  0.1609
 7738SOL    HW134850   3.747   2.224   9.217 -0.0969  1.0978  1.6777
 7738SOL    HW234851   3.650   2.118   9.273  3.4246  0.8527  2.6538
 7739SOL     OW34852   2.536   3.304   2.612 -0.4337  0.0103 -0.6399
 7739SOL    HW134853   2.522   3.304   2.707  0.0134 -0.8599 -0.5756
 7739SOL    HW234854   2.526   3.397   2.589 -3.3295 -0.3405 -0.7453
 7740SOL     OW34855   0.755   1.930   2.894 -0.3461  0.0000 -0.1326
 7740SOL    HW134856   0.736   1.977   2.975  2.1067 -2.7481  2.0352
 7740SOL    HW234857   0.714   1.850   2.926 -0.3968 -0.0307 -0.2723
 7741SOL     OW34858   0.275   1.348   6.399  0.0445  0.1672  0.1515
 7741SOL    HW134859   0.258   1.333   6.492 -0.2684  0.6722  0.1787
 7741SOL    HW234860   0.239   1.267   6.364 -0.3155  0.0852  0.7111
 7742SOL     OW34861   3.189   4.728   4.138  0.4890  0.9106 -0.6120
 7742SOL    HW134862   3.202   4.634   4.131  0.5720  0.8725  0.1181
 7742SOL    HW234863   3.276   0.023   4.117 -0.0570  1.3417 -2.2463
 7743SOL     OW34864   2.526   0.804  17.631 -0.6557 -0.6383 -0.5124
 7743SOL    HW134865   2.583   0.879  17.645 -0.7713 -0.7789  0.6406
 7743SOL    HW234866   2.565   0.726  17.670  0.3884 -0.4048 -1.0739
 7744SOL     OW34867   4.179   3.506   4.182  0.3454  0.3545 -0.0012
 7744SOL    HW134868   4.141   3.455   4.110  2.0962 -1.3612  0.2846
 7744SOL    HW234869   4.212   3.581   4.132 -1.4541  0.6317 -0.7749
 7745SOL     OW34870   1.390   1.395  14.804 -0.0779  0.1958  0.0507
 7745SOL    HW134871   1.474   1.398  14.758 -0.1090 -1.3300 -0.1167
 7745SOL    HW234872   1.347   1.322  14.759  0.9880  0.4132 -1.3104
 7746SOL     OW34873   0.687   2.658  10.144 -0.6283  0.4228  0.3328
 7746SOL    HW134874   0.730   2.614  10.218 -0.5036  0.3211  0.2005
 7746SOL    HW234875   0.595   2.671  10.167 -1.0872 -0.8379 -0.8032
 7747SOL     OW34876   1.661   0.764   1.973 -0.2752  0.6262 -0.6753
 7747SOL    HW134877   1.669   0.683   2.023  2.0065 -0.8899 -3.4851
 7747SOL    HW234878   1.628   0.733   1.888  3.0806 -1.2670 -1.2738
 7748SOL     OW34879   1.242   2.835   5.780 -0.2877 -0.2820 -0.4157
 7748SOL    HW134880   1.237   2.861   5.871 -0.2201 -0.8115 -0.2598
 7748SOL    HW234881   1.325   2.865   5.742 -1.1761  2.4352 -0.1631
 7749SOL     OW34882   0.597   0.502   4.890  0.3351  0.0055  0.0561
 7749SOL    HW134883   0.545   0.573   4.929  0.7197  0.5362 -0.3880
 7749SOL    HW234884   0.628   0.540   4.808 -1.3526  1.5831  0.1404
 7750SOL     OW34885   4.106   1.027   2.369  0.3529 -0.6766 -0.3410
 7750SOL    HW134886   4.039   1.004   2.434 -0.3066 -0.3617 -0.9031
 7750SOL    HW234887   4.164   1.088   2.414 -0.3455 -1.2823  1.3748
 7751SOL     OW34888   1.584   4.243   5.559 -0.2886 -0.1245 -0.2856
 7751SOL    HW134889   1.676   4.271   5.559 -0.4816  0.5429  2.1612
 7751SOL    HW234890   1.539   4.316   5.518  0.0113 -0.3749 -1.0660
 7752SOL     OW34891   0.321   3.597   1.487  0.2944 -0.2434 -0.6623
 7752SOL    HW134892   0.279   3.663   1.542  1.8919  1.2817 -1.2826
 7752SOL    HW234893   0.319   3.520   1.544 -0.8524 -1.1111 -1.8666
 7753SOL     OW34894   0.243   0.998   4.590  0.3396  0.2584  0.4415
 7753SOL    HW134895   0.185   0.981   4.516  0.4772  0.0462  0.3811
 7753SOL    HW234896   0.281   0.911   4.603 -1.8524 -0.9797 -1.5554
 7754SOL     OW34897   0.693   1.799  12.195  0.7500 -0.1506  0.2395
 7754SOL    HW134898   0.720   1.762  12.111 -1.1963  1.0201 -0.8984
 7754SOL    HW234899   0.735   1.884  12.189  1.3218 -0.4427  0.0684
 7755SOL     OW34900   2.971   1.550  11.224 -0.1492  0.2790  0.1802
 7755SOL    HW134901   2.884   1.589  11.227  0.9963  2.8515 -0.6552
 7755SOL    HW234902   2.994   1.541  11.131 -1.5951 -1.7002  0.0048
 7756SOL     OW34903   0.957   4.277   1.675 -0.2468  0.5934  0.5044
 7756SOL    HW134904   0.873   4.231   1.672  0.5849 -0.8085 -1.3358
 7756SOL    HW234905   0.953   4.310   1.765  0.8092 -0.3583  0.9051
 7757SOL     OW34906   3.280   3.298   0.699 -0.3433 -0.1157 -0.3447
 7757SOL    HW134907   3.235   3.242   0.761  1.0982  0.6281  1.3860
 7757SOL    HW234908   3.294   3.375   0.754 -0.4142  0.3627 -0.9881
 7758SOL     OW34909   3.893   4.568  11.602  0.0037  0.0113  0.0995
 7758SOL    HW134910   3.880   4.625  11.677  1.4000 -2.0019  1.8460
 7758SOL    HW234911   3.866   4.484  11.640  0.8781 -0.1038  0.4489
 7759SOL     OW34912   3.579   2.432  12.494 -0.2704 -0.6736  0.0324
 7759SOL    HW134913   3.624   2.402  12.573  0.7717 -1.7994 -0.9816
 7759SOL    HW234914   3.639   2.403  12.425 -1.6943  3.4088 -2.8830
 7760SOL     OW34915   3.261   2.165   1.284 -0.0225  0.4741 -0.0229
 7760SOL    HW134916   3.254   2.193   1.375  0.0462  0.9007 -0.1445
 7760SOL    HW234917   3.219   2.243   1.248  0.3125  1.1108  0.9496
 7761SOL     OW34918   2.857   0.953   3.497  0.4917 -0.0213 -0.5733
 7761SOL    HW134919   2.864   0.861   3.523 -0.8133  0.3333  1.0578
 7761SOL    HW234920   2.842   0.995   3.582  1.2498  1.9410 -1.4090
 7762SOL     OW34921   2.400   2.476  14.260  0.3473  0.3405 -0.9847
 7762SOL    HW134922   2.329   2.477  14.324  1.1592  1.3927 -0.0876
 7762SOL    HW234923   2.460   2.541  14.297  2.1709 -1.2156 -1.1860
 7763SOL     OW34924   4.500   1.938   2.680 -0.1676  0.7092 -0.2265
 7763SOL    HW134925   4.406   1.928   2.689 -0.0145 -1.0091 -0.4377
 7763SOL    HW234926   4.526   1.846   2.689 -0.4739  0.8543  2.0745
 7764SOL     OW34927   4.315   3.540   9.365 -0.1666  0.2767  0.0159
 7764SOL    HW134928   4.398   3.507   9.329 -0.6580 -1.3479  0.3679
 7764SOL    HW234929   4.350   3.598   9.434 -0.5157  1.9792 -1.2399
 7765SOL     OW34930   1.914   2.404  13.452  0.6751 -0.5194  0.1017
 7765SOL    HW134931   1.907   2.380  13.545  1.3955 -1.0582  0.0105
 7765SOL    HW234932   1.918   2.500  13.454  1.0843 -0.5238 -0.5585
 7766SOL     OW34933   0.180   4.557   9.676 -0.2732 -0.7321 -0.1515
 7766SOL    HW134934   0.171   4.628   9.613  0.0278  0.0824  0.7086
 7766SOL    HW234935   0.275   4.545   9.669 -0.3714 -3.0198  2.1219
 7767SOL     OW34936   1.633   4.515   2.804  0.5041 -0.0799  0.4303
 7767SOL    HW134937   1.728   4.528   2.813  0.3293  0.5904  1.2178
 7767SOL    HW234938   1.625   4.487   2.712 -0.6705 -0.3451  0.6163
 7768SOL     OW34939   4.625   0.514  13.275 -0.2892 -0.3080  0.5427
 7768SOL    HW134940   4.714   0.548  13.272 -0.8063  1.1363  1.7093
 7768SOL    HW234941   4.601   0.544  13.187  1.6588  1.4840  0.6206
 7769SOL     OW34942   1.362   2.387   4.458  0.1666 -0.6767  0.5259
 7769SOL    HW134943   1.406   2.304   4.477 -2.4487 -2.1555  0.0328
 7769SOL    HW234944   1.308   2.407   4.533 -0.5823  1.0560 -0.4796
 7770SOL     OW34945   4.691   1.979   2.076 -0.2958  0.6768 -0.1632
 7770SOL    HW134946   4.687   2.010   2.167 -0.3272  1.0400 -0.2868
 7770SOL    HW234947   4.709   2.061   2.030 -2.5477 -0.0684 -2.3566
 7771SOL     OW34948   0.420   0.223   9.561  0.3181  0.2490 -0.7815
 7771SOL    HW134949   0.355   0.172   9.513 -1.4669 -1.1187  3.1418
 7771SOL    HW234950   0.376   0.222   9.646  2.1755 -0.8185  0.1729
 7772SOL     OW34951   1.229   1.246   6.270  0.1749 -0.5027  0.5247
 7772SOL    HW134952   1.308   1.285   6.307 -0.2205  0.2548  0.5721
 7772SOL    HW234953   1.265   1.216   6.186 -0.3747  0.3851 -0.0335
 7773SOL     OW34954   3.469   2.589   6.245 -0.1310 -0.0020  0.4843
 7773SOL    HW134955   3.391   2.603   6.190 -0.3045 -0.9825  0.4889
 7773SOL    HW234956   3.522   2.668   6.234  0.8426 -0.8788 -1.1716
 7774SOL     OW34957   3.113   0.900  13.056  0.5475  0.4343 -0.4945
 7774SOL    HW134958   3.101   0.838  12.984 -0.0364  0.2123 -0.2069
 7774SOL    HW234959   3.178   0.965  13.029  0.5411  0.6157 -0.0714
 7775SOL     OW34960   3.755   4.654  16.033  0.0492  1.0185 -0.3011
 7775SOL    HW134961   3.723   4.587  15.973 -0.2385  0.7951  0.1034
 7775SOL    HW234962   3.752   4.622  16.123 -1.1486  0.5868 -0.4954
 7776SOL     OW34963   0.474   3.446   6.512 -0.5326  0.2260  0.1599
 7776SOL    HW134964   0.490   3.517   6.574  0.2836 -1.0565  1.3891
 7776SOL    HW234965   0.560   3.439   6.470 -0.5815 -0.3501  0.1588
 7777SOL     OW34966   0.770   3.744  16.428 -0.2679 -0.2596 -0.4176
 7777SOL    HW134967   0.765   3.834  16.461 -2.2706 -0.3887 -0.3486
 7777SOL    HW234968   0.781   3.689  16.505  2.3610 -0.7593 -1.1778
 7778SOL     OW34969   4.135   4.606   9.927  0.0304  0.2033  0.0950
 7778SOL    HW134970   4.217   4.655   9.917 -0.0271 -0.1782 -2.3082
 7778SOL    HW234971   4.070   4.676   9.928  0.7540  0.8927 -0.4398
 7779SOL     OW34972   2.759   1.633   7.855  0.2069 -0.0353  0.0605
 7779SOL    HW134973   2.728   1.548   7.887 -0.1280  0.3301  0.7176
 7779SOL    HW234974   2.711   1.634   7.772 -0.2872 -2.2284  0.3077
 7780SOL     OW34975   2.574   2.941   4.610  0.1148 -0.2207  0.2644
 7780SOL    HW134976   2.546   2.952   4.519  3.3362 -2.9219 -1.0745
 7780SOL    HW234977   2.606   3.027   4.638 -0.4265  0.8049 -2.2570
 7781SOL     OW34978   1.181   2.123   3.014 -0.1522  0.3718 -0.3896
 7781SOL    HW134979   1.176   2.189   3.083 -0.9375 -0.8259  0.6965
 7781SOL    HW234980   1.208   2.174   2.938  1.0417  2.2860  1.2985
 7782SOL     OW34981   0.012   2.951   7.468  0.1099 -0.1324 -0.5116
 7782SOL    HW134982   4.717   2.948   7.558  1.4619 -2.3309 -0.0816
 7782SOL    HW234983   4.683   3.008   7.432  0.3707 -0.4115 -1.4316
 7783SOL     OW34984   3.052   2.994   5.029 -0.1516 -0.0099 -0.4367
 7783SOL    HW134985   3.091   3.048   4.960 -0.4180 -0.0390 -0.6099
 7783SOL    HW234986   3.063   2.901   5.007  1.4566 -0.1145  0.8033
 7784SOL     OW34987   2.783   2.833   4.771  0.5312  0.0537 -0.2456
 7784SOL    HW134988   2.723   2.864   4.703 -0.1407 -0.9318 -0.0918
 7784SOL    HW234989   2.784   2.905   4.834 -0.0345  0.4408 -0.6753
 7785SOL     OW34990   3.591   1.798   9.690  0.0082  0.5548  0.4217
 7785SOL    HW134991   3.654   1.738   9.729 -2.5600 -1.8903  0.8746
 7785SOL    HW234992   3.554   1.832   9.771 -3.0161  0.1926 -0.7860
 7786SOL     OW34993   0.437   0.924   0.006 -0.0388  0.3675  0.0359
 7786SOL    HW134994   0.452   0.973  17.677 -0.3901  0.0398 -0.2246
 7786SOL    HW234995   0.522   0.933   0.049  0.0245 -2.8091  0.5361
 7787SOL     OW34996   0.195   0.513   7.292  0.2701  0.3615  0.3174
 7787SOL    HW134997   0.202   0.476   7.380  1.0689  2.3875  1.0878
 7787SOL    HW234998   0.279   0.480   7.262  1.0370  1.9045  0.7765
 7788SOL     OW34999   0.733   0.003   4.694 -0.4109 -0.0942 -0.0273
 7788SOL    HW135000   0.668   0.072   4.682 -1.7327 -1.0503  1.5585
 7788SOL    HW235001   0.806   0.030   4.638 -1.6037  0.1520 -1.4776
 7789SOL     OW35002   0.193   3.617   2.187  0.9510 -0.0470  0.6534
 7789SOL    HW135003   0.188   3.530   2.147 -2.5414  0.4064  0.1369
 7789SOL    HW235004   0.160   3.669   2.114 -2.7426 -3.4091 -0.0475
 7790SOL     OW35005   1.375   0.629   7.359 -0.1749 -0.3279 -0.2037
 7790SOL    HW135006   1.375   0.706   7.416  0.4147 -0.5518  0.0933
 7790SOL    HW235007   1.467   0.641   7.335  0.1287  2.0468  2.1137
 7791SOL     OW35008   0.694   1.051   5.508 -0.4862 -0.2712 -0.4359
 7791SOL    HW135009   0.780   1.035   5.545 -1.3432 -0.1487  1.6205
 7791SOL    HW235010   0.642   1.000   5.570  0.4742  0.2919  0.8149
 7792SOL     OW35011   4.283   2.702  17.193  0.0620 -0.3775  0.2810
 7792SOL    HW135012   4.282   2.798  17.200 -1.6395 -0.4808  1.7917
 7792SOL    HW235013   4.268   2.681  17.285  0.9498  0.0588  0.5252
 7793SOL     OW35014   0.172   2.775   1.747  0.2481  0.3278  0.2676
 7793SOL    HW135015   0.203   2.686   1.762 -0.8273  0.3183  2.3875
 7793SOL    HW235016   0.204   2.814   1.829  2.0060  0.3318 -0.4162
 7794SOL     OW35017   3.413   3.009   7.863 -0.3584  0.0156 -0.0416
 7794SOL    HW135018   3.392   3.064   7.788  1.4841 -0.6230 -1.0330
 7794SOL    HW235019   3.336   2.953   7.874 -1.6149  1.3576 -2.0992
 7795SOL     OW35020   1.120   2.708   9.797 -0.5560  0.1452  0.1350
 7795SOL    HW135021   1.029   2.737   9.783  0.0369  1.0773 -1.7228
 7795SOL    HW235022   1.150   2.703   9.706 -1.7967  0.5972 -0.3107
 7796SOL     OW35023   1.784   3.401  13.127  0.6190 -0.0436  0.5819
 7796SOL    HW135024   1.720   3.460  13.166 -0.5185  1.2263 -3.1624
 7796SOL    HW235025   1.718   3.341  13.089  0.1215  0.6416  0.3564
 7797SOL     OW35026   4.104   2.824   6.226 -0.3638  0.3537  0.1058
 7797SOL    HW135027   4.016   2.784   6.223 -0.6362  0.9497  0.1976
 7797SOL    HW235028   4.132   2.791   6.311 -0.9385  0.1213  0.2081
 7798SOL     OW35029   1.011   3.860   0.828  0.2682  0.4426  0.0667
 7798SOL    HW135030   1.068   3.793   0.791 -0.3433  0.1160 -0.2807
 7798SOL    HW235031   0.987   3.831   0.916 -0.3396  0.0733 -0.2168
 7799SOL     OW35032   1.308   4.338  16.936 -0.2800 -0.6099 -0.0362
 7799SOL    HW135033   1.232   4.329  16.994 -1.1516  2.6080 -0.6453
 7799SOL    HW235034   1.333   4.428  16.958 -1.6751 -0.4386  0.8992
 7800SOL     OW35035   3.781   4.730  10.300 -0.0713  0.1365  0.1773
 7800SOL    HW135036   3.815   4.642  10.313  0.4257  0.4242  0.8080
 7800SOL    HW235037   3.823   0.035  10.374 -0.1089 -0.2309  0.4138
 7801SOL     OW35038   0.121   1.930  17.623 -0.2731 -0.5001 -0.4453
 7801SOL    HW135039   0.130   1.914  17.717 -1.4506 -0.5170 -0.3366
 7801SOL    HW235040   0.043   1.879  17.601 -1.3769  0.9636  0.0580
 7802SOL     OW35041   1.238   0.162   3.582 -0.0027  0.2277 -0.1158
 7802SOL    HW135042   1.211   0.084   3.629 -0.2794  1.2233  1.3600
 7802SOL    HW235043   1.331   0.150   3.600 -0.3916 -2.6380  0.0453
 7803SOL     OW35044   0.762   3.353   2.215 -0.2375  0.0395 -0.3413
 7803SOL    HW135045   0.807   3.303   2.283  0.5420  1.1556 -0.0374
 7803SOL    HW235046   0.777   3.296   2.139  3.6781  1.1275 -0.3806
 7804SOL     OW35047   4.037   0.788   6.869 -0.3011  0.4176 -0.2227
 7804SOL    HW135048   4.082   0.746   6.942  0.6109  0.6891 -0.6256
 7804SOL    HW235049   3.954   0.793   6.916  0.4168  0.0154  1.0838
 7805SOL     OW35050   0.453   1.077   6.204 -0.6454 -0.1982 -0.4591
 7805SOL    HW135051   0.478   1.109   6.291  1.8772  0.1602 -1.3237
 7805SOL    HW235052   0.514   1.004   6.197 -0.3934  0.1225 -1.6655
 7806SOL     OW35053   1.092   0.399  17.565  0.3211 -0.7655 -0.6503
 7806SOL    HW135054   1.126   0.403  17.475  0.7417  2.4269 -0.3613
 7806SOL    HW235055   1.037   0.321  17.556 -0.6160  0.0837 -2.3770
 7807SOL     OW35056   4.153   4.478  10.589 -0.1489 -0.0386  1.0641
 7807SOL    HW135057   4.152   4.566  10.552  0.3670 -0.2964  0.4379
 7807SOL    HW235058   4.227   4.476  10.649  1.1912 -3.1004 -0.6841
 7808SOL     OW35059   0.429   2.356  15.201  0.0278  0.1079 -0.2070
 7808SOL    HW135060   0.340   2.376  15.230 -0.1377  1.1414 -1.3782
 7808SOL    HW235061   0.404   2.288  15.138 -0.4390  0.8798 -0.8710
 7809SOL     OW35062   0.645   1.344  15.358  0.5250 -0.5114  0.4368
 7809SOL    HW135063   0.672   1.425  15.317 -1.6474  0.1992  0.4014
 7809SOL    HW235064   0.691   1.276  15.308 -0.5603 -0.6780 -0.3424
 7810SOL     OW35065   1.909   1.125   5.415  0.4074 -0.1614  0.0834
 7810SOL    HW135066   1.968   1.126   5.490 -0.6153 -2.2032  0.8946
 7810SOL    HW235067   1.920   1.217   5.389  1.9194  0.4440  2.8878
 7811SOL     OW35068   3.461   2.079   6.747  0.2663  0.4563  0.1087
 7811SOL    HW135069   3.544   2.057   6.705  0.1589  1.6027 -0.7024
 7811SOL    HW235070   3.454   1.995   6.792 -1.8687  0.0112 -1.0414
 7812SOL     OW35071   2.602   3.211   6.742 -0.5554 -0.2600  0.3659
 7812SOL    HW135072   2.614   3.189   6.649 -0.1747  0.4132  0.2534
 7812SOL    HW235073   2.673   3.155   6.773  2.3324  4.1593  1.8881
 7813SOL     OW35074   0.572   4.481  11.597 -0.1108 -0.7239  0.0446
 7813SOL    HW135075   0.620   4.526  11.528  3.0039 -3.0665  0.6473
 7813SOL    HW235076   0.627   4.477  11.675 -1.2711 -0.5338  0.8812
 7814SOL     OW35077   2.286   3.157   6.086 -0.0359 -0.0029  0.5196
 7814SOL    HW135078   2.374   3.176   6.052 -0.2612  1.9947  1.1193
 7814SOL    HW235079   2.234   3.227   6.047 -0.5684  0.3102  1.8058
 7815SOL     OW35080   0.468   0.439   7.174 -0.1584  0.1851  0.2392
 7815SOL    HW135081   0.555   0.476   7.190  1.0520 -2.4230 -0.3462
 7815SOL    HW235082   0.443   0.503   7.107 -1.4674 -1.8322 -1.1862
 7816SOL     OW35083   4.459   3.655   0.431 -0.0579 -0.3091 -0.1890
 7816SOL    HW135084   4.379   3.649   0.379 -0.8541  1.6503  0.8224
 7816SOL    HW235085   4.455   3.747   0.456 -0.0897 -0.8311  1.7612
 7817SOL     OW35086   4.688   2.210   0.258 -0.5847  0.0718 -0.2918
 7817SOL    HW135087   4.623   2.166   0.314 -1.1286  0.3898 -0.6680
 7817SOL    HW235088   4.699   2.288   0.312 -0.6441  0.3353 -0.6608
 7818SOL     OW35089   1.216   3.362   7.620 -0.0036  0.2416  0.6831
 7818SOL    HW135090   1.150   3.357   7.551 -1.5952  2.9258  2.0088
 7818SOL    HW235091   1.290   3.352   7.560  0.3570  3.3228  0.6291
 7819SOL     OW35092   1.534   2.116   7.492  0.1804  0.5319  0.3515
 7819SOL    HW135093   1.608   2.162   7.532 -0.6993  0.7986  1.6834
 7819SOL    HW235094   1.471   2.188   7.497 -1.4193 -0.8781  0.4806
 7820SOL     OW35095   0.064   1.366   3.310  0.0702  0.1081 -0.3755
 7820SOL    HW135096   0.011   1.295   3.346  1.1267  0.8247  2.6019
 7820SOL    HW235097   0.083   1.407   3.395 -3.5620 -0.9199  0.9527
 7821SOL     OW35098   1.825   3.832   9.030  0.2826  0.0376 -0.4254
 7821SOL    HW135099   1.814   3.738   9.047 -1.0934  0.8179  3.0101
 7821SOL    HW235100   1.794   3.881   9.106 -0.2705 -0.0028 -0.6242
 7822SOL     OW35101   3.675   3.230   5.508 -0.0443  0.3085 -0.0801
 7822SOL    HW135102   3.735   3.282   5.455 -0.3735  0.4388 -0.3289
 7822SOL    HW235103   3.675   3.285   5.586  1.0073 -1.3704  1.0989
 7823SOL     OW35104   4.695   4.314   2.237 -0.1514  0.0108 -0.0659
 7823SOL    HW135105   0.043   4.275   2.224 -1.5589 -3.4303  0.8555
 7823SOL    HW235106   4.644   4.263   2.174 -0.0449 -1.0524  0.7047
 7824SOL     OW35107   4.402   2.756   4.486  0.0699 -0.0856 -0.1327
 7824SOL    HW135108   4.400   2.752   4.390  0.0693 -0.0557 -0.1340
 7824SOL    HW235109   4.339   2.827   4.501 -1.7065 -1.4534 -1.0784
 7825SOL     OW35110   1.808   1.978   7.781 -0.0245 -0.6138 -0.8141
 7825SOL    HW135111   1.845   2.043   7.721 -1.6467  1.5744  0.5238
 7825SOL    HW235112   1.840   2.008   7.867  0.0279 -1.3322 -0.5856
 7826SOL     OW35113   0.423   1.933   5.271  0.1442  0.5819 -0.2640
 7826SOL    HW135114   0.472   2.001   5.318 -1.1454  1.3477 -0.0045
 7826SOL    HW235115   0.444   1.856   5.323 -2.9188  1.0789  1.7400
 7827SOL     OW35116   3.712   3.292   1.380 -0.3112  0.4330 -0.5302
 7827SOL    HW135117   3.688   3.276   1.471  1.3107  0.9528 -0.0255
 7827SOL    HW235118   3.626   3.324   1.351 -1.8156  1.1646  4.7622
 7828SOL     OW35119   4.275   0.370   0.291 -0.2737 -0.2306 -0.6225
 7828SOL    HW135120   4.183   0.378   0.317  0.0031  0.4756  0.1253
 7828SOL    HW235121   4.274   0.298   0.227 -0.1682  0.2770 -1.1871
 7829SOL     OW35122   1.886   1.995   2.433 -0.3965 -0.6518 -0.5998
 7829SOL    HW135123   1.972   2.009   2.473 -0.4816  0.9897 -0.9830
 7829SOL    HW235124   1.900   1.973   2.341  0.0128  1.7056 -1.1103
 7830SOL     OW35125   1.583   3.776   4.952 -0.6297  0.1611  0.0298
 7830SOL    HW135126   1.545   3.817   4.875 -1.0738  2.4373  1.4658
 7830SOL    HW235127   1.675   3.795   4.932 -0.1749 -2.6785 -0.5087
 7831SOL     OW35128   4.436   3.686  15.910 -0.1388  0.7590  0.2647
 7831SOL    HW135129   4.470   3.749  15.974  0.4329 -1.0638  1.7643
 7831SOL    HW235130   4.514   3.699  15.856 -2.2057  3.3389 -2.0664
 7832SOL     OW35131   2.930   2.173  10.672 -0.2065  0.0561  0.0533
 7832SOL    HW135132   2.964   2.244  10.727 -1.1715 -0.3556  1.1681
 7832SOL    HW235133   2.985   2.102  10.705  0.1194 -0.1464 -0.9198
 7833SOL     OW35134   3.811   2.496   9.358 -0.8403  0.1739  0.0037
 7833SOL    HW135135   3.868   2.537   9.424 -1.5991  0.0005  0.7684
 7833SOL    HW235136   3.733   2.478   9.411 -1.7598  0.6563 -1.1943
 7834SOL     OW35137   4.394   0.597   5.135  0.0086  0.9714  0.8914
 7834SOL    HW135138   4.463   0.536   5.110 -0.7756  0.8670 -1.0487
 7834SOL    HW235139   4.420   0.607   5.227 -1.6818  0.5571  1.4113
 7835SOL     OW35140   1.645   2.901  10.663 -0.6921 -0.0669 -0.1506
 7835SOL    HW135141   1.657   2.943  10.748  0.9175 -0.6063 -0.1098
 7835SOL    HW235142   1.719   2.842  10.677 -0.2580  0.5211  0.0252
 7836SOL     OW35143   1.681   2.996   2.075 -0.1457 -0.2895  0.6764
 7836SOL    HW135144   1.599   2.949   2.061 -0.0888 -0.6067  1.3915
 7836SOL    HW235145   1.728   2.974   1.995 -1.0269  1.2848 -0.2769
 7837SOL     OW35146   4.293   3.154   2.807 -0.1427 -0.0777 -0.3311
 7837SOL    HW135147   4.327   3.128   2.892  1.6815  0.5488 -0.8776
 7837SOL    HW235148   4.371   3.189   2.764 -0.3618  0.1011 -0.5816
 7838SOL     OW35149   4.379   2.491   4.594 -0.5383 -0.1475  0.1313
 7838SOL    HW135150   4.327   2.479   4.515  0.1482  0.7118 -0.4526
 7838SOL    HW235151   4.401   2.582   4.573  0.8155 -0.8018 -1.2740
 7839SOL     OW35152   1.271   4.353   7.785  0.7507  0.1771 -0.2485
 7839SOL    HW135153   1.344   4.362   7.845 -1.0687 -1.9716  2.3163
 7839SOL    HW235154   1.215   4.292   7.833 -0.3787  0.5586 -1.0652
 7840SOL     OW35155   1.402   0.939  13.690  0.0358  0.0430  0.3942
 7840SOL    HW135156   1.335   1.004  13.668 -0.9188 -0.3725  2.0260
 7840SOL    HW235157   1.480   0.995  13.688 -0.5206  0.8746  1.6796
 7841SOL     OW35158   3.172   1.719   8.875 -0.0223  0.0654  0.1186
 7841SOL    HW135159   3.156   1.729   8.781 -0.0365 -0.8447  0.0189
 7841SOL    HW235160   3.265   1.698   8.882  0.2522  1.1862 -0.1192
 7842SOL     OW35161   4.049   0.678   6.098  0.1849  0.5386  0.1860
 7842SOL    HW135162   4.034   0.705   6.188 -0.8758 -0.0118  0.1722
 7842SOL    HW235163   4.143   0.699   6.096  0.2158  0.4517  0.7312
 7843SOL     OW35164   4.058   3.205  15.371 -0.1394 -0.1671  0.6069
 7843SOL    HW135165   4.088   3.282  15.420  2.3227  0.7296 -2.2904
 7843SOL    HW235166   4.143   3.165  15.356 -0.2238 -0.1292  0.0170
 7844SOL     OW35167   1.007   2.431   2.395 -0.2049 -0.3950 -0.5979
 7844SOL    HW135168   1.072   2.405   2.330 -2.3296  1.0302 -3.2833
 7844SOL    HW235169   1.051   2.419   2.480 -0.9220 -1.5434 -0.3922
 7845SOL     OW35170   0.781   3.596  11.752  0.3450  0.1217  0.3611
 7845SOL    HW135171   0.739   3.670  11.708  0.3750 -1.3846 -2.2466
 7845SOL    HW235172   0.806   3.554  11.669 -0.7309  0.3055 -0.0562
 7846SOL     OW35173   3.797   4.222   7.413 -0.3614 -0.1650  0.4141
 7846SOL    HW135174   3.761   4.229   7.501  1.1383 -0.8343  1.0855
 7846SOL    HW235175   3.872   4.164   7.425 -1.3360 -1.4468  0.2767
 7847SOL     OW35176   4.489   2.410   1.817  0.4816  0.0309 -0.1010
 7847SOL    HW135177   4.495   2.376   1.728  0.4244  3.5493 -1.4656
 7847SOL    HW235178   4.412   2.468   1.815 -1.3895 -2.4836 -0.2079
 7848SOL     OW35179   4.104   1.185   1.271  0.5433  0.3711  0.7214
 7848SOL    HW135180   4.120   1.207   1.180 -1.2352 -1.1811  0.0337
 7848SOL    HW235181   4.037   1.251   1.292  0.8959  0.2964  2.1338
 7849SOL     OW35182   2.076   0.763   7.932 -0.0195  0.1914 -0.1561
 7849SOL    HW135183   2.075   0.822   8.007  0.3689  1.0043 -0.8011
 7849SOL    HW235184   2.007   0.810   7.885 -0.9904 -2.0102 -0.9657
 7850SOL     OW35185   3.504   1.186   3.297 -0.1951  0.5405  0.2811
 7850SOL    HW135186   3.414   1.157   3.312  0.5096 -2.0297 -0.5255
 7850SOL    HW235187   3.513   1.251   3.367 -2.4953 -0.7405  1.7862
 7851SOL     OW35188   4.041   3.897   9.376 -0.5520  0.1232 -0.1588
 7851SOL    HW135189   4.025   3.958   9.305 -0.9084  0.5069  0.2527
 7851SOL    HW235190   4.019   3.810   9.341  0.1219  0.0327 -0.3543
 7852SOL     OW35191   4.125   0.882   3.054 -0.1685 -0.1329  0.1941
 7852SOL    HW135192   4.190   0.938   3.011  2.5810 -1.9119  2.0280
 7852SOL    HW235193   4.072   0.957   3.079  0.6278  1.5833 -3.1683
 7853SOL     OW35194   1.728   2.681   7.744 -0.1606  0.7562  0.1314
 7853SOL    HW135195   1.809   2.644   7.707 -0.9063 -0.3097 -0.4455
 7853SOL    HW235196   1.728   2.759   7.688  1.1202 -0.6950 -1.9245
 7854SOL     OW35197   1.690   3.783   7.641 -0.3385  0.7217 -0.0294
 7854SOL    HW135198   1.777   3.800   7.606 -0.4910  0.5034 -0.5245
 7854SOL    HW235199   1.656   3.873   7.642  1.3908  1.3464  0.5487
 7855SOL     OW35200   3.036   0.089   3.945  0.1107 -0.4293  0.1624
 7855SOL    HW135201   3.071   0.053   4.026 -1.7683  0.2640  1.2985
 7855SOL    HW235202   3.012   0.013   3.893 -0.0406  0.5394 -1.1971
 7856SOL     OW35203   4.021   2.703  17.047 -0.3084  0.6099  0.3343
 7856SOL    HW135204   4.020   2.619  17.001 -0.8946 -0.1112  1.6697
 7856SOL    HW235205   4.099   2.714  17.101 -1.0777  1.9261  1.1652
 7857SOL     OW35206   1.800   3.841   7.955 -0.0281 -0.2484 -0.5501
 7857SOL    HW135207   1.710   3.825   7.928 -0.3861  1.4612 -0.3436
 7857SOL    HW235208   1.785   3.841   8.050  1.2496  2.0382 -0.3560
 7858SOL     OW35209   3.057   1.838   9.605 -0.1072  0.4178 -0.0223
 7858SOL    HW135210   3.036   1.885   9.686  0.2492  2.3715 -1.0872
 7858SOL    HW235211   3.151   1.820   9.613  0.4139  3.0828 -0.3447
 7859SOL     OW35212   1.325   1.824   9.078 -0.7691  0.1234 -0.1465
 7859SOL    HW135213   1.253   1.797   9.022  0.3379 -0.9143 -1.0782
 7859SOL    HW235214   1.341   1.757   9.145 -2.0156  0.5113  0.5417
 7860SOL     OW35215   2.725   3.630   8.740  0.0096 -0.2262 -0.2361
 7860SOL    HW135216   2.779   3.568   8.788  2.9004  0.9738 -1.8480
 7860SOL    HW235217   2.717   3.581   8.658 -0.8385 -0.5695  0.0625
 7861SOL     OW35218   0.140   1.254   0.416 -0.7216  0.3115 -0.2577
 7861SOL    HW135219   0.129   1.184   0.352  1.1898 -0.4420  0.2130
 7861SOL    HW235220   0.086   1.219   0.487  1.4189 -3.0139 -0.2847
 7862SOL     OW35221   3.176   3.974   4.267  0.0254 -0.2907  0.2534
 7862SOL    HW135222   3.113   4.027   4.317 -1.4990 -2.5161  0.6806
 7862SOL    HW235223   3.173   3.892   4.316 -1.9155 -0.1694  0.3715
 7863SOL     OW35224   1.940   1.118   8.298 -0.5136  0.3214  0.1729
 7863SOL    HW135225   1.854   1.159   8.307  0.7975  3.3851 -1.2432
 7863SOL    HW235226   2.004   1.163   8.353 -0.5661 -1.9775  2.1333
 7864SOL     OW35227   3.461   0.073   7.436 -0.2986  0.2309  0.3411
 7864SOL    HW135228   3.524   0.013   7.396  0.4941  0.1943  1.6340
 7864SOL    HW235229   3.456   0.131   7.361 -1.6488 -0.7941 -0.3635
 7865SOL     OW35230   4.321   3.536  15.655  0.5176  0.0223 -0.7743
 7865SOL    HW135231   4.403   3.527  15.606  0.4694 -0.6515 -0.7357
 7865SOL    HW235232   4.357   3.556  15.742 -0.0392 -0.9665 -0.3114
 7866SOL     OW35233   2.080   2.548   0.255  0.1439  0.3439 -0.4329
 7866SOL    HW135234   2.103   2.621   0.198 -0.0010  0.9274  0.2509
 7866SOL    HW235235   1.985   2.547   0.245  0.2710 -1.0274 -1.5922
 7867SOL     OW35236   0.194   2.980  10.636 -0.0415 -0.2415  0.2516
 7867SOL    HW135237   0.101   3.005  10.636 -0.1345 -0.5853  0.1139
 7867SOL    HW235238   0.190   2.887  10.659 -3.2961  0.1721  1.3492
 7868SOL     OW35239   3.863   4.694   6.215  0.3970  0.4875 -0.2570
 7868SOL    HW135240   3.776   4.713   6.249 -0.0632 -2.0330 -0.0574
 7868SOL    HW235241   3.853   4.732   6.128 -1.7625  1.5651  0.4658
 7869SOL     OW35242   4.299   4.696   3.422  0.3268  1.2071  0.0152
 7869SOL    HW135243   4.375   4.640   3.411 -1.0741 -0.5070 -0.8440
 7869SOL    HW235244   4.305   0.014   3.346  2.3566  0.6181 -0.2370
 7870SOL     OW35245   0.881   0.791   6.315 -0.2450 -0.3147  0.2629
 7870SOL    HW135246   0.955   0.829   6.269  0.1396  0.6932  1.7253
 7870SOL    HW235247   0.805   0.830   6.271 -2.1426 -2.1246  1.9374
 7871SOL     OW35248   1.079   1.006  14.642 -0.4518  0.4279 -0.1678
 7871SOL    HW135249   1.169   0.990  14.616 -0.3260  0.2213  0.3932
 7871SOL    HW235250   1.029   0.954  14.578  0.2926  0.0648 -0.4497
 7872SOL     OW35251   0.243   0.500   3.506  0.0683 -0.1554 -0.1583
 7872SOL    HW135252   0.260   0.425   3.450  2.3378  0.2597 -0.0353
 7872SOL    HW235253   0.159   0.479   3.545 -0.2102  0.7681 -0.2586
 7873SOL     OW35254   4.312   3.629   2.889 -0.1865 -0.2192 -0.0902
 7873SOL    HW135255   4.335   3.567   2.958  1.0433 -0.8589 -1.0631
 7873SOL    HW235256   4.401   3.659   2.869  0.0419 -0.2203  0.9194
 7874SOL     OW35257   3.945   4.560   0.082  0.4055  0.0644  0.1100
 7874SOL    HW135258   3.907   4.647   0.068  0.1375 -0.1183 -0.3135
 7874SOL    HW235259   3.888   4.505   0.027  1.5094 -1.2041  0.2193
 7875SOL     OW35260   1.373   3.928  11.331  0.4047  0.6501 -0.6606
 7875SOL    HW135261   1.323   4.009  11.335  0.6976  0.7091  2.0532
 7875SOL    HW235262   1.304   3.861  11.330  0.5975  0.4288  0.4131
 7876SOL     OW35263   4.401   4.248   6.628  0.7673 -0.2581 -0.3682
 7876SOL    HW135264   4.395   4.177   6.564  0.7711 -0.6267  0.0442
 7876SOL    HW235265   4.418   4.323   6.570  1.2898  1.0693  1.5050
 7877SOL     OW35266   2.627   0.573   9.141  0.0052 -0.4084  0.0189
 7877SOL    HW135267   2.687   0.618   9.200 -0.1118  0.6740 -0.6958
 7877SOL    HW235268   2.680   0.554   9.063  0.5787  0.6179  0.1615
 7878SOL     OW35269   3.279   1.305   2.090  0.2954  0.2209  0.4126
 7878SOL    HW135270   3.359   1.296   2.037 -0.9623 -2.0273 -1.1229
 7878SOL    HW235271   3.294   1.386   2.138 -1.0928  0.4408  0.4603
 7879SOL     OW35272   0.808   4.638  14.963  0.4945 -0.2753 -0.1642
 7879SOL    HW135273   0.896   4.674  14.974  0.1540  0.3962  0.3470
 7879SOL    HW235274   0.765   4.660  15.045  2.5893 -1.0119  1.1132
 7880SOL     OW35275   1.459   2.169   8.366  0.2118  0.5115  0.1609
 7880SOL    HW135276   1.503   2.253   8.375  2.1567 -0.3737 -1.3046
 7880SOL    HW235277   1.521   2.103   8.398 -0.6018 -0.3880 -0.1014
 7881SOL     OW35278   4.121   3.350   9.426  0.3667 -0.2008 -0.3023
 7881SOL    HW135279   4.187   3.406   9.387  0.8614 -0.7628 -0.2707
 7881SOL    HW235280   4.062   3.330   9.353 -0.9697  0.9255  0.4806
 7882SOL     OW35281   1.209   3.887   2.491  0.0408  0.3679 -0.0880
 7882SOL    HW135282   1.187   3.827   2.562 -0.9899  1.8145  0.8139
 7882SOL    HW235283   1.303   3.902   2.506  0.0811  2.7847 -2.6006
 7883SOL     OW35284   0.976   0.840  15.469  0.1066  0.0734  0.1434
 7883SOL    HW135285   1.072   0.843  15.474  0.1387 -0.4741 -0.1750
 7883SOL    HW235286   0.966   0.907  15.401 -0.6834  0.8889  1.0556
 7884SOL     OW35287   0.087   0.516   5.341 -0.0173  0.1808 -0.3464
 7884SOL    HW135288   0.092   0.451   5.412  2.2871  0.6527 -0.0839
 7884SOL    HW235289   0.082   0.457   5.266 -1.0151 -1.3955  0.9356
 7885SOL     OW35290   4.446   3.843   9.509 -0.2220 -0.5285 -0.8089
 7885SOL    HW135291   4.356   3.874   9.512  0.6807  2.0922 -0.8838
 7885SOL    HW235292   4.463   3.819   9.599  1.1964  3.6946  0.0611
 7886SOL     OW35293   2.604   2.067  11.427 -0.3099 -0.2539  0.2393
 7886SOL    HW135294   2.593   1.993  11.367 -2.2417  0.4067 -0.2147
 7886SOL    HW235295   2.549   2.129  11.380 -0.7914 -0.3011  0.7412
 7887SOL     OW35296   3.225   3.011   7.206  0.0400 -0.1718  0.1445
 7887SOL    HW135297   3.132   3.006   7.226  0.3267 -3.0032  0.7170
 7887SOL    HW235298   3.247   2.918   7.201  1.4056  0.0055  2.6489
 7888SOL     OW35299   0.777   4.395  14.887 -0.4328  0.3159 -0.5473
 7888SOL    HW135300   0.682   4.394  14.890 -0.4797 -0.0009 -2.0623
 7888SOL    HW235301   0.788   4.488  14.907 -3.1485  0.5144 -0.0496
 7889SOL     OW35302   2.607   0.915   7.493 -0.2599 -0.4512 -0.7943
 7889SOL    HW135303   2.560   0.869   7.562 -1.3731  0.9185 -0.6523
 7889SOL    HW235304   2.566   0.880   7.414 -1.8396  0.2633 -0.2701
 7890SOL     OW35305   3.296   3.235   3.976 -0.5018 -0.3158  0.1727
 7890SOL    HW135306   3.308   3.329   3.963 -0.5916 -0.4033 -0.5424
 7890SOL    HW235307   3.212   3.225   3.931  0.1055 -0.1484 -1.0004
 7891SOL     OW35308   4.148   2.378   1.976  0.4820 -0.2210 -0.1706
 7891SOL    HW135309   4.207   2.435   2.025 -0.8303  0.5001  0.5789
 7891SOL    HW235310   4.120   2.436   1.905 -1.2437 -0.7043  0.1122
 7892SOL     OW35311   1.482   2.914   5.674  0.0096 -0.5835 -0.4471
 7892SOL    HW135312   1.528   2.943   5.753 -2.4168 -0.6727  1.0119
 7892SOL    HW235313   1.555   2.877   5.625 -1.0350  2.4577 -4.2490
 7893SOL     OW35314   3.997   4.363   4.495  0.0067  0.0601 -0.0437
 7893SOL    HW135315   3.986   4.311   4.575  1.2352 -1.7680 -1.0612
 7893SOL    HW235316   3.939   4.320   4.432 -3.2063  2.2617  1.4200
 7894SOL     OW35317   2.177   0.052   6.196  0.3656  0.5488  0.4480
 7894SOL    HW135318   2.162   0.012   6.110 -1.1310  1.5212  0.2628
 7894SOL    HW235319   2.198   4.710   6.243  2.1592  0.0314 -1.2513
 7895SOL     OW35320   3.737   2.809   8.830 -0.0950 -0.4500 -0.0675
 7895SOL    HW135321   3.720   2.829   8.738  1.0023  0.3273 -0.0999
 7895SOL    HW235322   3.718   2.893   8.871 -0.7381  0.4720 -2.2772
 7896SOL     OW35323   0.261   2.598   7.684 -0.0018 -0.2147 -0.0962
 7896SOL    HW135324   0.263   2.675   7.740 -0.3471 -0.8313  0.7568
 7896SOL    HW235325   0.169   2.583   7.663 -1.0392  3.2489  1.9399
 7897SOL     OW35326   2.432   1.390   8.997 -0.4243  0.1519 -0.2413
 7897SOL    HW135327   2.365   1.332   8.960  1.2748 -1.9068 -0.0813
 7897SOL    HW235328   2.391   1.444   9.064 -1.5492 -2.2876  1.0518
 7898SOL     OW35329   1.500   1.860   5.070 -0.3125  0.7783 -0.6007
 7898SOL    HW135330   1.590   1.858   5.039 -0.1054 -0.3295  0.1016
 7898SOL    HW235331   1.463   1.775   5.050 -1.7638  1.0377  0.9577
 7899SOL     OW35332   1.200   0.411   5.322  0.3023  0.4078 -0.7484
 7899SOL    HW135333   1.155   0.334   5.355  0.0800 -0.6016 -3.4735
 7899SOL    HW235334   1.240   0.369   5.247 -1.2215  1.1207 -1.9684
 7900SOL     OW35335   4.717   2.074   3.554 -0.3204  0.2672  0.1310
 7900SOL    HW135336   4.665   2.011   3.504  0.8564  0.3894 -1.2286
 7900SOL    HW235337   4.655   2.113   3.616 -1.6764 -2.8988  0.7849
 7901SOL     OW35338   3.334   2.742  14.324  0.0201 -0.4034  0.2788
 7901SOL    HW135339   3.357   2.791  14.245 -0.6216  1.6176  1.3478
 7901SOL    HW235340   3.278   2.669  14.299  1.1647 -1.4606  0.7906
 7902SOL     OW35341   0.483   1.036  11.778  0.0136 -0.5380 -0.5368
 7902SOL    HW135342   0.403   1.044  11.830 -0.1691 -0.2155 -0.8655
 7902SOL    HW235343   0.454   0.965  11.722  1.4612 -0.6205 -1.1760
 7903SOL     OW35344   3.181   1.726   3.352 -0.0686 -0.2544  0.3698
 7903SOL    HW135345   3.204   1.818   3.343  0.8369 -0.4978  0.2274
 7903SOL    HW235346   3.089   1.745   3.370 -0.2502 -1.7800  1.1027
 7904SOL     OW35347   0.650   0.542   1.531 -0.4033  0.1278 -0.0168
 7904SOL    HW135348   0.719   0.607   1.548 -2.0261  1.5819  0.9678
 7904SOL    HW235349   0.620   0.566   1.443 -1.3158  0.4848  0.4002
 7905SOL     OW35350   0.510   1.018   6.753 -0.3248  0.2677 -0.3087
 7905SOL    HW135351   0.583   0.958   6.770 -1.3499 -1.6054 -2.5701
 7905SOL    HW235352   0.438   0.963   6.785  1.4261 -0.8099  1.8098
 7906SOL     OW35353   2.404   3.202   1.332 -0.8204  0.3725  0.0454
 7906SOL    HW135354   2.479   3.201   1.272 -1.8751 -0.4338 -1.2623
 7906SOL    HW235355   2.342   3.261   1.289 -1.0478  1.0574  1.3375
 7907SOL     OW35356   4.540   4.538  16.623 -0.2933  0.3271  0.1491
 7907SOL    HW135357   4.525   4.632  16.630  0.0401  0.4601 -0.9763
 7907SOL    HW235358   4.633   4.527  16.605 -0.3762 -1.1529  0.6106
 7908SOL     OW35359   0.479   3.206   1.454 -0.7635 -0.1552 -0.0957
 7908SOL    HW135360   0.512   3.125   1.495  0.4696 -0.5032 -1.8028
 7908SOL    HW235361   0.434   3.238   1.533 -1.0908 -3.0499  0.9137
 7909SOL     OW35362   3.045   2.644  10.967 -0.3255 -0.0963 -0.3264
 7909SOL    HW135363   3.112   2.655  10.899  0.5077  0.9384  0.6830
 7909SOL    HW235364   3.081   2.585  11.033  0.3787  1.1401  0.3831
 7910SOL     OW35365   1.610   3.076   9.371  0.5949 -0.0365 -0.2627
 7910SOL    HW135366   1.556   3.122   9.436  0.7664 -1.1531  0.6638
 7910SOL    HW235367   1.653   3.007   9.421 -0.6305 -0.1415  0.6245
 7911SOL     OW35368   4.036   1.033   5.586  0.9078  0.0402  0.0680
 7911SOL    HW135369   4.019   1.016   5.679 -3.6856 -0.9892 -0.9158
 7911SOL    HW235370   3.990   0.959   5.545 -0.3051  0.8670 -0.0799
 7912SOL     OW35371   0.671   4.095   7.867 -0.2846 -0.4765 -0.0862
 7912SOL    HW135372   0.698   4.185   7.886  2.3574 -1.0883 -0.9408
 7912SOL    HW235373   0.608   4.065   7.933 -0.1373 -1.6334 -0.4795
 7913SOL     OW35374   1.621   1.128  13.665  0.5179  0.6782 -0.2674
 7913SOL    HW135375   1.640   1.207  13.614  1.1319 -0.9751 -2.5654
 7913SOL    HW235376   1.708   1.104  13.699  0.1424 -1.3006 -0.7728
 7914SOL     OW35377   3.201   1.866   9.932 -0.1426 -0.0772 -0.3985
 7914SOL    HW135378   3.142   1.916   9.876 -1.7474 -0.5680  0.8467
 7914SOL    HW235379   3.267   1.935   9.934 -0.4260  0.1514  1.2639
 7915SOL     OW35380   3.444   0.246   1.820 -0.1301  0.0622  0.2195
 7915SOL    HW135381   3.429   0.190   1.897 -0.6989 -1.0792 -0.7163
 7915SOL    HW235382   3.530   0.283   1.840  0.1929  0.4113 -1.9022
 7916SOL     OW35383   4.435   4.591  14.394 -0.0839 -0.2945  0.0125
 7916SOL    HW135384   4.407   4.514  14.344  0.1283 -1.0392  1.0316
 7916SOL    HW235385   4.432   4.557  14.484 -0.8704  1.9352  0.8411
 7917SOL     OW35386   1.535   0.163   6.431 -0.0245 -0.3116  0.0012
 7917SOL    HW135387   1.488   0.109   6.367  1.2359  1.2813 -2.2936
 7917SOL    HW235388   1.622   0.164   6.390 -0.4908 -0.8973 -1.0292
 7918SOL     OW35389   1.842   1.020  12.901  0.0966  0.3224  0.2054
 7918SOL    HW135390   1.884   1.084  12.959  0.6709 -1.9492  2.2664
 7918SOL    HW235391   1.775   1.067  12.851 -0.2081 -1.2073 -0.8047
 7919SOL     OW35392   3.177   3.541  16.354 -0.6220  0.1318  0.0904
 7919SOL    HW135393   3.219   3.596  16.420  0.5877 -0.0545 -0.5126
 7919SOL    HW235394   3.116   3.493  16.410 -0.2700  0.3308  0.6423
 7920SOL     OW35395   4.722   3.944   2.827  0.0245 -0.1749  0.4533
 7920SOL    HW135396   0.064   3.969   2.782 -1.1168  0.3971 -1.2538
 7920SOL    HW235397   4.652   4.000   2.794  0.1323 -1.9111 -2.7062
 7921SOL     OW35398   0.755   0.223   3.384 -0.1661 -0.3469 -0.4277
 7921SOL    HW135399   0.783   0.158   3.320  2.1307  0.4103 -0.1899
 7921SOL    HW235400   0.831   0.281   3.389 -0.8204  0.3277  2.0718
 7922SOL     OW35401   3.465   3.055   8.668 -0.0247 -0.0430  0.0019
 7922SOL    HW135402   3.429   3.050   8.756 -2.2606 -0.8016 -0.9448
 7922SOL    HW235403   3.514   2.973   8.665  0.8326  0.3734  2.4950
 7923SOL     OW35404   0.273   1.725   1.936 -0.0924 -0.3427 -0.3174
 7923SOL    HW135405   0.254   1.724   2.030 -3.6715 -3.0607 -1.0731
 7923SOL    HW235406   0.280   1.631   1.923  3.7345 -0.1188  0.0808
 7924SOL     OW35407   3.852   3.113   1.212  0.7607  0.6233 -0.7047
 7924SOL    HW135408   3.924   3.167   1.181  1.9500 -2.1701 -2.7882
 7924SOL    HW235409   3.812   3.168   1.280  0.5071  1.7375 -1.7551
 7925SOL     OW35410   3.001   4.226   8.438 -0.5102 -0.0211  0.6053
 7925SOL    HW135411   2.939   4.224   8.365  0.4021  1.1033 -0.2097
 7925SOL    HW235412   3.079   4.223   8.382  0.2157  1.3767  1.5261
 7926SOL     OW35413   0.126   0.080   1.483 -0.7792 -0.0910 -0.0958
 7926SOL    HW135414   0.147   4.727   1.467 -0.5272 -0.2536  1.1274
 7926SOL    HW235415   0.117   0.079   1.578 -0.3071 -0.1751 -0.0513
 7927SOL     OW35416   2.603   3.101   8.290  0.3770 -0.0788 -0.8915
 7927SOL    HW135417   2.551   3.163   8.239 -2.3636 -0.4881  1.4265
 7927SOL    HW235418   2.681   3.155   8.297 -0.5471  0.9677  1.2522
 7928SOL     OW35419   2.736   4.016   8.643 -0.0072 -0.0350  0.4659
 7928SOL    HW135420   2.824   4.052   8.631 -0.7928  1.2065 -1.5108
 7928SOL    HW235421   2.756   3.926   8.618  1.3163  0.5901 -0.7154
 7929SOL     OW35422   1.811   4.178   5.379 -0.1140  0.1334 -0.4299
 7929SOL    HW135423   1.867   4.111   5.339  1.7636  2.2493 -1.3485
 7929SOL    HW235424   1.851   4.250   5.330 -1.9997  0.7322 -1.0820
 7930SOL     OW35425   1.892   3.108   3.968  0.0201 -0.1051  0.1961
 7930SOL    HW135426   1.952   3.067   4.029 -1.6362 -3.5991 -0.5595
 7930SOL    HW235427   1.825   3.041   3.951 -0.0169 -0.0221  0.0057
 7931SOL     OW35428   0.677   0.286   0.293  0.0785  0.3095  0.0692
 7931SOL    HW135429   0.661   0.264   0.385 -0.6590 -1.3467 -0.4655
 7931SOL    HW235430   0.629   0.213   0.254 -0.2442  0.9888 -0.8061
 7932SOL     OW35431   0.428   3.420   1.275 -0.0734 -0.3169  0.3050
 7932SOL    HW135432   0.386   3.469   1.346 -0.0980 -0.5249  0.4333
 7932SOL    HW235433   0.463   3.342   1.318 -1.1034 -1.0188 -0.1401
 7933SOL     OW35434   0.809   1.532   7.138  0.4502  0.1819 -0.1749
 7933SOL    HW135435   0.732   1.579   7.169 -0.1752 -0.9371 -0.0025
 7933SOL    HW235436   0.791   1.449   7.182  1.7462 -0.1587 -0.2825
 7934SOL     OW35437   0.832   1.262   9.841  0.1932 -0.1668 -0.3054
 7934SOL    HW135438   0.795   1.297   9.761 -0.5439  0.5853  0.3602
 7934SOL    HW235439   0.921   1.298   9.842  0.4227 -0.7539  0.8936
 7935SOL     OW35440   0.735   0.087  15.670 -0.6340 -0.2384 -0.6722
 7935SOL    HW135441   0.659   0.086  15.728  1.8142 -3.2488  2.5368
 7935SOL    HW235442   0.702   0.152  15.609 -0.6137  0.6957  0.3122
 7936SOL     OW35443   2.642   0.912   8.440  0.0582  0.5082 -0.5746
 7936SOL    HW135444   2.628   0.999   8.403 -1.9540 -0.1526 -1.4028
 7936SOL    HW235445   2.667   0.867   8.359  0.8730 -1.1172  0.5851
 7937SOL     OW35446   3.925   3.310   8.278 -0.0968  0.5490  0.1707
 7937SOL    HW135447   3.969   3.361   8.210  1.8126  0.0819  1.0650
 7937SOL    HW235448   3.962   3.351   8.356  0.5178  1.0333 -0.3778
 7938SOL     OW35449   1.061   3.946  12.676  0.5650  0.1325 -0.0641
 7938SOL    HW135450   1.003   4.003  12.727 -1.0219 -2.9210  1.5787
 7938SOL    HW235451   1.105   3.899  12.747 -0.1867  0.1818  0.4387
 7939SOL     OW35452   3.886   1.339   1.245 -0.1592  0.2328  0.1618
 7939SOL    HW135453   3.873   1.344   1.150  0.3854 -0.7163  0.0426
 7939SOL    HW235454   3.810   1.376   1.291 -1.3421  1.1828 -2.5084
 7940SOL     OW35455   0.224   0.629   1.306 -0.1338 -0.3828  0.1308
 7940SOL    HW135456   0.259   0.543   1.329 -0.4909 -0.4909  0.2697
 7940SOL    HW235457   0.257   0.684   1.377  0.2268  1.3825 -1.3970
 7941SOL     OW35458   2.189   0.272   5.920 -0.2648  0.1182  0.3718
 7941SOL    HW135459   2.177   0.366   5.908 -0.7929  0.1725  1.3532
 7941SOL    HW235460   2.127   0.257   5.992 -0.8929  0.6747 -0.0596
 7942SOL     OW35461   0.477   2.619   5.436 -0.2314  0.0526 -0.0318
 7942SOL    HW135462   0.446   2.674   5.508  2.1195  0.2188  0.8657
 7942SOL    HW235463   0.408   2.637   5.372 -0.9274 -0.3539  0.5994
 7943SOL     OW35464   3.587   3.443   6.893 -0.4667  0.7091  0.2860
 7943SOL    HW135465   3.608   3.499   6.967 -1.2047  1.6580 -0.2261
 7943SOL    HW235466   3.503   3.411   6.925 -1.0621 -0.2761 -2.2551
 7944SOL     OW35467   2.346   2.547   0.254  0.3348 -0.0759  0.0364
 7944SOL    HW135468   2.252   2.554   0.236 -0.0576 -2.9494  1.0564
 7944SOL    HW235469   2.338   2.511   0.342  0.1542 -1.5490 -0.5787
 7945SOL     OW35470   4.211   3.778  12.106 -0.4107 -0.3538 -0.4728
 7945SOL    HW135471   4.216   3.871  12.086  0.2686  0.0926  1.8343
 7945SOL    HW235472   4.144   3.744  12.046 -1.4290  0.4258  0.2233
 7946SOL     OW35473   0.883   3.106  13.323 -0.1057  0.5733  0.5372
 7946SOL    HW135474   0.805   3.150  13.356  0.5596  1.4067  0.9975
 7946SOL    HW235475   0.865   3.012  13.327 -1.6756  0.9378  2.0317
 7947SOL     OW35476   3.004   1.152  12.311 -0.6862 -0.3717  0.1498
 7947SOL    HW135477   3.032   1.065  12.284 -2.2537 -0.6296 -0.6338
 7947SOL    HW235478   3.079   1.182  12.363 -0.9072  0.2226  0.1326
 7948SOL     OW35479   4.276   1.297  12.116  0.4671  0.0353 -0.0179
 7948SOL    HW135480   4.219   1.254  12.181 -2.5264  0.6767 -2.2311
 7948SOL    HW235481   4.304   1.365  12.177  1.4258  0.0058 -0.4369
 7949SOL     OW35482   2.922   1.545   3.702 -0.0023  0.2632 -0.1190
 7949SOL    HW135483   2.949   1.630   3.667  0.8928  0.5035  1.1754
 7949SOL    HW235484   2.844   1.537   3.647 -0.1486  1.6021 -0.1083
 7950SOL     OW35485   3.902   3.729   9.066 -0.1617 -0.1297  0.2705
 7950SOL    HW135486   3.973   3.696   9.120  0.7097  0.3862 -0.5708
 7950SOL    HW235487   3.939   3.811   9.034  0.5015 -1.0965 -1.4710
 7951SOL     OW35488   2.450   1.835   5.030 -0.5179  0.1596 -0.1491
 7951SOL    HW135489   2.503   1.839   4.950 -0.8047 -1.4078 -0.4250
 7951SOL    HW235490   2.478   1.749   5.063 -0.6522  0.1477 -0.0689
 7952SOL     OW35491   4.236   3.542   3.639 -1.2908  0.0299  0.1747
 7952SOL    HW135492   4.302   3.608   3.619  0.5134 -2.1579 -1.1878
 7952SOL    HW235493   4.162   3.579   3.592 -0.2333 -0.1851 -1.6830
 7953SOL     OW35494   1.640   3.931  14.245  0.0337  0.2228  0.0036
 7953SOL    HW135495   1.602   3.984  14.176 -1.2160 -0.4373  0.1836
 7953SOL    HW235496   1.687   3.994  14.300 -2.3313  0.4255  1.8051
 7954SOL     OW35497   0.175   1.953   7.668 -0.1847  0.1587 -0.0821
 7954SOL    HW135498   0.087   1.992   7.672  0.0925  0.6881  0.7070
 7954SOL    HW235499   0.163   1.872   7.717 -1.8083  1.5967  1.8786
 7955SOL     OW35500   0.040   2.066   1.578 -0.0342  0.6838  0.0959
 7955SOL    HW135501   4.725   2.121   1.634 -0.5885  0.0487  0.1934
 7955SOL    HW235502   0.061   1.994   1.637  1.9896 -0.3055 -1.8057
 7956SOL     OW35503   0.760   2.523   6.103 -0.8576  0.0636 -0.1903
 7956SOL    HW135504   0.747   2.603   6.051 -2.2799  0.3150  0.5646
 7956SOL    HW235505   0.735   2.544   6.192 -1.6168 -0.2490 -0.3377
 7957SOL     OW35506   1.772   1.220  10.969  0.5932 -0.1738 -0.2905
 7957SOL    HW135507   1.690   1.204  11.016  0.9375 -0.9689  0.0417
 7957SOL    HW235508   1.778   1.314  10.988 -2.5323 -0.1119  0.3221
 7958SOL     OW35509   4.595   2.382   5.935 -0.0196 -0.1389 -0.5431
 7958SOL    HW135510   4.589   2.413   6.026 -0.2573  0.1404 -0.6557
 7958SOL    HW235511   4.690   2.388   5.921 -0.1073 -0.3862 -1.2307
 7959SOL     OW35512   3.832   0.435   6.578 -0.4455  0.8014 -0.2749
 7959SOL    HW135513   3.792   0.514   6.613  2.1037  0.9513  2.2390
 7959SOL    HW235514   3.921   0.468   6.579 -0.8018  1.7474 -0.2963
 7960SOL     OW35515   3.438   4.457   6.473  0.4163  0.1975 -0.3560
 7960SOL    HW135516   3.355   4.468   6.425  0.0951  0.9676  0.3790
 7960SOL    HW235517   3.410   4.396   6.541  1.0406  0.2345 -0.0705
 7961SOL     OW35518   2.219   0.788   0.414 -0.0800  0.0841 -0.2165
 7961SOL    HW135519   2.203   0.866   0.361 -2.2729 -1.1391 -1.3950
 7961SOL    HW235520   2.228   0.730   0.338 -0.3583 -0.2209 -0.0205
 7962SOL     OW35521   2.107   4.364  14.369 -0.0870 -0.2594 -0.0910
 7962SOL    HW135522   2.104   4.435  14.306  1.6402 -1.1186 -1.1528
 7962SOL    HW235523   2.045   4.391  14.437 -0.8792 -2.0100 -0.0952
 7963SOL     OW35524   1.890   2.430  12.816  0.2640  0.2909  0.3102
 7963SOL    HW135525   1.827   2.500  12.797 -1.4108 -0.6918  2.2449
 7963SOL    HW235526   1.971   2.473  12.843  0.4517  0.8212 -1.0684
 7964SOL     OW35527   3.603   2.145   4.664  0.4143 -0.2620 -0.0215
 7964SOL    HW135528   3.533   2.089   4.629  0.1579 -0.1553  0.3141
 7964SOL    HW235529   3.681   2.100   4.632 -0.0499 -0.4157 -0.9529
 7965SOL     OW35530   1.115   3.040   2.121 -0.1429 -0.4261  0.2409
 7965SOL    HW135531   1.066   2.965   2.085 -0.0546 -0.7804  0.8531
 7965SOL    HW235532   1.098   3.097   2.045  1.6521  0.4955  0.5308
 7966SOL     OW35533   0.910   4.482   9.525  0.4017  0.2262 -0.0057
 7966SOL    HW135534   0.926   4.394   9.493  0.4670  0.6756 -1.2124
 7966SOL    HW235535   0.821   4.472   9.558 -0.5619  2.7058 -1.8324
 7967SOL     OW35536   1.956   3.810   7.017  0.1940  0.0163  0.1190
 7967SOL    HW135537   1.941   3.743   7.084  0.5098  1.0987  1.2619
 7967SOL    HW235538   2.045   3.834   7.041  0.2970 -0.8680  0.6397
 7968SOL     OW35539   0.719   4.446  11.283 -0.0041 -0.3677  0.3818
 7968SOL    HW135540   0.789   4.439  11.218 -1.2056 -0.3197 -0.9155
 7968SOL    HW235541   0.702   4.540  11.283 -0.7782 -0.5065 -0.1408
 7969SOL     OW35542   3.441   0.126   7.975 -0.4751  0.4404 -0.4706
 7969SOL    HW135543   3.378   0.183   8.019  1.5214  1.1809  1.4357
 7969SOL    HW235544   3.462   0.181   7.899 -2.4130 -1.0807 -2.1114
 7970SOL     OW35545   2.335   3.468   5.540 -0.2472  0.0787  0.1718
 7970SOL    HW135546   2.307   3.465   5.448 -1.1127  1.0020  0.4126
 7970SOL    HW235547   2.279   3.396   5.569 -1.2990  0.9477  0.2482
 7971SOL     OW35548   1.388   2.392  11.321  0.0587  0.2824  0.0393
 7971SOL    HW135549   1.374   2.297  11.317  3.5880 -0.2000 -0.9369
 7971SOL    HW235550   1.466   2.397  11.376  0.6267  2.9754 -1.0098
 7972SOL     OW35551   0.782   1.021   2.376  0.3131 -0.0843 -0.2669
 7972SOL    HW135552   0.785   1.103   2.424 -1.3151 -0.6899  0.8725
 7972SOL    HW235553   0.746   1.052   2.293  0.2038 -0.4289 -0.3489
 7973SOL     OW35554   3.006   0.791   2.868  0.0389 -0.4700 -0.0962
 7973SOL    HW135555   2.912   0.777   2.857  0.3430 -2.4097 -0.2564
 7973SOL    HW235556   3.007   0.841   2.950  0.1700 -0.1787 -0.2775
 7974SOL     OW35557   3.562   4.056   7.975  0.1952  0.4538 -0.0487
 7974SOL    HW135558   3.486   4.080   8.028  0.4472 -1.8004  1.2946
 7974SOL    HW235559   3.588   4.141   7.938 -1.6410  1.1763  0.3018
 7975SOL     OW35560   1.734   3.368  11.359 -0.9413  0.8165  0.6235
 7975SOL    HW135561   1.784   3.428  11.304  1.8343 -0.6786  1.5356
 7975SOL    HW235562   1.758   3.396  11.447 -1.0010  0.6971  0.6778
 7976SOL     OW35563   1.170   0.625   7.737 -0.3103 -0.6609 -0.0261
 7976SOL    HW135564   1.112   0.702   7.740 -0.1676 -0.4713 -1.7511
 7976SOL    HW235565   1.196   0.629   7.645 -0.6948 -0.0661 -0.1151
 7977SOL     OW35566   3.043   1.105  15.288  0.2382  0.1081  0.0890
 7977SOL    HW135567   3.078   1.118  15.376 -1.4896 -0.7099  0.9082
 7977SOL    HW235568   2.953   1.134  15.304 -0.6275 -1.9930 -1.0709
 7978SOL     OW35569   0.908   1.521   5.607 -0.5723 -0.3469  0.6133
 7978SOL    HW135570   0.980   1.503   5.668  1.3377 -4.1539 -2.7765
 7978SOL    HW235571   0.948   1.490   5.525  0.2287  1.9667  0.1441
 7979SOL     OW35572   0.490   4.496   6.231  0.2037 -0.3574 -0.5332
 7979SOL    HW135573   0.529   4.528   6.313 -2.0842 -1.7793  1.1327
 7979SOL    HW235574   0.404   4.535   6.248 -0.3104 -1.1731 -1.2639
 7980SOL     OW35575   1.576   2.757   4.850 -0.2793  0.3438  0.3480
 7980SOL    HW135576   1.554   2.723   4.763 -1.0876  1.2879  0.1818
 7980SOL    HW235577   1.498   2.730   4.898 -0.5329  0.6380  0.1080
 7981SOL     OW35578   0.430   4.501   9.572 -0.9370  0.1005  0.6888
 7981SOL    HW135579   0.486   4.552   9.631 -0.0826 -1.2171  1.0044
 7981SOL    HW235580   0.491   4.470   9.506 -0.5248  1.5827  0.3689
 7982SOL     OW35581   3.813   0.164   7.679  0.0786 -0.2625 -0.5910
 7982SOL    HW135582   3.835   0.178   7.586  3.2624 -3.0260 -0.2653
 7982SOL    HW235583   3.883   0.221   7.712  0.1561 -0.4994 -0.3459
 7983SOL     OW35584   0.941   3.483   4.606 -0.0515  0.4384  0.1538
 7983SOL    HW135585   0.852   3.516   4.591  1.1688  2.3619 -2.8994
 7983SOL    HW235586   0.947   3.418   4.537 -0.1668 -1.3298  1.8073
 7984SOL     OW35587   2.964   4.631   5.494 -0.1211 -0.1296  0.3830
 7984SOL    HW135588   2.944   4.700   5.430  0.6220  0.8148  1.1822
 7984SOL    HW235589   2.878   4.613   5.533 -1.3029  3.5166 -0.5468
 7985SOL     OW35590   4.221   1.573   9.595  0.1792  0.3501  0.4626
 7985SOL    HW135591   4.298   1.615   9.557 -0.9226 -1.0995 -3.3685
 7985SOL    HW235592   4.267   1.492   9.616  0.0251 -0.4600 -2.3070
 7986SOL     OW35593   3.308   1.890   6.197  0.4285 -0.1027 -0.2447
 7986SOL    HW135594   3.367   1.935   6.256  0.4021 -0.3247 -0.0488
 7986SOL    HW235595   3.356   1.885   6.114  3.3969  0.5884  1.4470
 7987SOL     OW35596   3.913   0.595   8.618  0.0988 -0.3716 -0.2905
 7987SOL    HW135597   3.850   0.667   8.615 -0.4746 -0.9433 -2.6538
 7987SOL    HW235598   3.866   0.541   8.681  0.1023  1.6587  1.4511
 7988SOL     OW35599   2.489   3.245   7.626  0.1171  0.2290 -0.2070
 7988SOL    HW135600   2.487   3.154   7.656 -2.7734  0.6001  0.7820
 7988SOL    HW235601   2.560   3.282   7.678 -0.0421 -1.4871  1.2435
 7989SOL     OW35602   1.248   2.650   1.733  0.2013  0.6635 -0.3823
 7989SOL    HW135603   1.289   2.566   1.712  2.6401  1.9795 -0.8845
 7989SOL    HW235604   1.159   2.616   1.741  0.3087  0.2828 -0.8167
 7990SOL     OW35605   2.244   1.665   6.278 -0.0524 -0.0431 -0.2560
 7990SOL    HW135606   2.243   1.641   6.370  1.5988  2.6266  0.4707
 7990SOL    HW235607   2.289   1.750   6.281  0.1719 -0.1826  0.2581
 7991SOL     OW35608   4.488   4.030   9.106 -0.0185  0.3503 -0.4879
 7991SOL    HW135609   4.492   3.947   9.153 -0.0100 -0.1139 -1.3016
 7991SOL    HW235610   4.393   4.033   9.094  0.0900  3.6037 -0.4129
 7992SOL     OW35611   4.121   1.617  14.527  0.5143  0.5650 -0.8180
 7992SOL    HW135612   4.143   1.687  14.466 -1.4458  1.6062 -0.3420
 7992SOL    HW235613   4.158   1.664  14.602 -3.2257  3.3857 -0.7604
 7993SOL     OW35614   2.158   0.954   6.701  0.0093  0.8082  0.3385
 7993SOL    HW135615   2.205   1.017   6.646  1.1074  2.0308  2.6776
 7993SOL    HW235616   2.234   0.921   6.750 -1.2285  1.0032  2.3904
 7994SOL     OW35617   0.914   1.910   2.653 -0.0689 -0.6324  0.0062
 7994SOL    HW135618   0.866   1.885   2.732 -1.4710  0.1339 -0.5982
 7994SOL    HW235619   0.855   1.873   2.587 -0.5632 -1.2370  0.7877
 7995SOL     OW35620   0.177   3.411   7.951 -0.1222 -0.4586 -0.1153
 7995SOL    HW135621   0.209   3.330   7.911  0.0760 -0.7228  0.5810
 7995SOL    HW235622   0.091   3.406   7.909 -0.7908  1.3827  1.0562
 7996SOL     OW35623   4.047   4.052   6.343  0.2493  0.5839 -0.5221
 7996SOL    HW135624   4.067   4.011   6.259  0.7071 -0.1667 -0.0428
 7996SOL    HW235625   3.975   4.112   6.322 -0.2091  0.0592 -0.4769
 7997SOL     OW35626   2.418   4.592   3.780 -0.1151 -0.3511 -0.1522
 7997SOL    HW135627   2.383   4.642   3.707  0.0347 -1.8095 -1.2380
 7997SOL    HW235628   2.382   4.640   3.855  1.4515  0.8731 -0.1776
 7998SOL     OW35629   3.190   3.371   2.761 -0.0437 -0.4456 -0.0311
 7998SOL    HW135630   3.233   3.349   2.678 -0.6909  0.4207 -0.5994
 7998SOL    HW235631   3.151   3.455   2.737 -1.1165 -0.5324  1.4316
 7999SOL     OW35632   1.086   1.867  12.063 -0.0778 -0.5008  0.8734
 7999SOL    HW135633   1.165   1.921  12.069  0.0489 -0.6946  0.9384
 7999SOL    HW235634   1.023   1.939  12.064  1.8515  1.1752  3.4140
 8000SOL     OW35635   0.711   2.736  12.340  0.1569  0.1259  0.0077
 8000SOL    HW135636   0.746   2.823  12.358 -0.4514 -0.2652  3.1442
 8000SOL    HW235637   0.618   2.755  12.328 -0.6244 -2.4603  1.9620
 8001SOL     OW35638   0.735   1.122  16.930  0.2052 -0.0621 -0.3982
 8001SOL    HW135639   0.733   1.174  17.011 -0.3893  1.4806 -1.4202
 8001SOL    HW235640   0.830   1.114  16.927  0.2069  0.9149 -2.9462
 8002SOL     OW35641   1.396   0.181   3.343 -0.1200 -0.5492 -0.1436
 8002SOL    HW135642   1.433   0.116   3.284 -2.1159 -0.1742 -1.8012
 8002SOL    HW235643   1.449   0.171   3.422 -2.2997  2.7183  1.7380
 8003SOL     OW35644   1.554   1.869   3.623  0.5514  0.3454  0.7500
 8003SOL    HW135645   1.548   1.786   3.670 -0.8365 -0.3019 -0.5613
 8003SOL    HW235646   1.491   1.923   3.671 -1.8899  1.2208 -3.4989
 8004SOL     OW35647   0.480   4.399   8.241  0.1144  0.6113  0.3238
 8004SOL    HW135648   0.446   4.425   8.327 -2.6113 -3.0642  0.4171
 8004SOL    HW235649   0.503   4.479   8.194  0.4057  0.8379  0.8523
 8005SOL     OW35650   0.393   3.368   8.226 -0.0703 -0.0624  0.6912
 8005SOL    HW135651   0.431   3.297   8.174 -1.6040 -1.4005  1.3823
 8005SOL    HW235652   0.385   3.310   8.302 -2.6440 -1.4137 -0.5947
 8006SOL     OW35653   3.024   2.966  10.702  0.4830  0.2475 -0.0970
 8006SOL    HW135654   2.940   2.927  10.727 -0.5596  2.7161  0.2794
 8006SOL    HW235655   2.993   3.056  10.702  0.5922  0.2845 -0.2161
 8007SOL     OW35656   4.715   4.380  10.361  0.3502 -0.7688  0.1134
 8007SOL    HW135657   0.063   4.347  10.384  1.6720  2.1806 -0.5720
 8007SOL    HW235658   4.720   4.465  10.405 -0.7261  0.7316 -2.7003
 8008SOL     OW35659   4.619   2.240  10.377 -0.2223 -0.0732  0.5524
 8008SOL    HW135660   4.622   2.193  10.460  1.6590  0.5996  0.8544
 8008SOL    HW235661   4.671   2.319  10.389  0.7842 -0.5032 -0.9922
 8009SOL     OW35662   2.467   3.994   2.226  0.5544 -0.0426  0.5293
 8009SOL    HW135663   2.540   3.952   2.271  0.9756  0.0129 -0.1070
 8009SOL    HW235664   2.421   3.921   2.185  0.6728 -0.3423  0.9292
 8010SOL     OW35665   4.182   2.106   8.093 -0.4823 -0.1774  0.1384
 8010SOL    HW135666   4.223   2.172   8.148 -0.4313 -0.6711  0.6953
 8010SOL    HW235667   4.114   2.167   8.065  1.0087  2.7149  2.8882
 8011SOL     OW35668   3.571   1.915  10.923  0.4553 -0.4327  0.7024
 8011SOL    HW135669   3.506   1.974  10.961 -0.5873 -0.3012 -1.2852
 8011SOL    HW235670   3.638   1.927  10.990  1.6397 -0.3187 -0.5145
 8012SOL     OW35671   1.034   0.708  11.587 -0.3786 -0.3598 -0.0782
 8012SOL    HW135672   1.122   0.692  11.622 -1.3085 -0.8775  2.0260
 8012SOL    HW235673   1.043   0.793  11.545  2.9077 -0.1342  1.0758
 8013SOL     OW35674   4.242   2.115   3.166  0.1646  0.2710  0.1076
 8013SOL    HW135675   4.291   2.055   3.110 -1.3125  0.6843 -1.6032
 8013SOL    HW235676   4.162   2.064   3.180  0.5751  0.2835  2.5480
 8014SOL     OW35677   2.607   2.552   1.935 -0.2284 -0.6505  0.2717
 8014SOL    HW135678   2.622   2.458   1.947  1.4846 -0.3479  0.4934
 8014SOL    HW235679   2.560   2.546   1.852 -0.4025 -1.6073  0.4345
 8015SOL     OW35680   3.896   1.654  14.276 -0.3702 -0.1518 -0.2101
 8015SOL    HW135681   3.942   1.610  14.348  0.8306 -0.2982 -1.0585
 8015SOL    HW235682   3.952   1.645  14.199 -1.7562  1.4939 -1.4010
 8016SOL     OW35683   4.327   0.606   3.512 -1.0195 -0.5068  0.2396
 8016SOL    HW135684   4.273   0.655   3.450  1.1783  0.3355 -0.9939
 8016SOL    HW235685   4.392   0.669   3.542 -1.5274  1.2890 -2.4649
 8017SOL     OW35686   3.511   3.918  15.416  0.0861 -0.3799  0.4518
 8017SOL    HW135687   3.591   3.958  15.384 -0.1656  0.0086  0.3043
 8017SOL    HW235688   3.542   3.858  15.484  3.0801  0.0041 -0.6210
 8018SOL     OW35689   1.499   0.938   5.719 -0.4291  0.0374  0.2825
 8018SOL    HW135690   1.454   0.966   5.640 -1.7027  2.7213  1.9893
 8018SOL    HW235691   1.580   0.983   5.695 -0.8306  0.3536 -0.4956
 8019SOL     OW35692   1.391   2.327  11.043 -0.5390  0.4437 -0.0188
 8019SOL    HW135693   1.361   2.346  11.132 -4.1116  1.1285 -1.3836
 8019SOL    HW235694   1.310   2.313  10.994  0.7475 -1.9710 -1.4403
 8020SOL     OW35695   0.682   4.071   5.008 -0.6780  0.5626  0.0892
 8020SOL    HW135696   0.682   4.028   4.923 -1.4113  2.3250 -0.8017
 8020SOL    HW235697   0.753   4.022   5.050 -1.3538 -0.6485 -0.1936
 8021SOL     OW35698   2.900   3.977   9.038  0.2901  0.2197 -0.0254
 8021SOL    HW135699   2.872   4.033   9.111  0.7817  2.5663 -1.6371
 8021SOL    HW235700   2.821   3.923   9.044 -0.3513  1.0248 -1.2001
 8022SOL     OW35701   4.114   0.762  15.343  0.5038 -0.2169  0.1416
 8022SOL    HW135702   4.144   0.679  15.380  1.5838 -0.4573 -1.2696
 8022SOL    HW235703   4.161   0.765  15.260 -0.2479 -1.6788 -0.3416
 8023SOL     OW35704   2.026   4.138   4.052  0.2625  0.7154 -0.0849
 8023SOL    HW135705   1.987   4.149   4.139 -2.4156 -0.3017 -1.1806
 8023SOL    HW235706   1.947   4.114   4.005 -0.8517  0.4010  1.9410
 8024SOL     OW35707   1.345   1.328   1.799 -0.3399  0.5785  0.2914
 8024SOL    HW135708   1.340   1.335   1.894  0.7063 -1.5569  0.4847
 8024SOL    HW235709   1.272   1.269   1.782 -0.7927  1.6944 -1.7300
 8025SOL     OW35710   0.307   4.547   9.068  0.1421  0.0803 -0.4829
 8025SOL    HW135711   0.359   4.515   8.994  0.4201  2.1936 -1.1977
 8025SOL    HW235712   0.372   4.533   9.137  0.2867  0.3817 -0.5564
 8026SOL     OW35713   1.434   0.927  11.986  0.1107  0.5013  0.4128
 8026SOL    HW135714   1.392   0.913  12.071  0.8202 -3.8595  0.0619
 8026SOL    HW235715   1.492   1.002  11.997  1.1808 -0.3340  0.4191
 8027SOL     OW35716   3.956   3.493   7.034 -0.4310 -0.0514 -0.2345
 8027SOL    HW135717   3.964   3.454   6.947  1.7895 -2.1558  0.8937
 8027SOL    HW235718   4.042   3.478   7.074 -0.5360  2.4232  0.8924
 8028SOL     OW35719   1.168   0.312  15.473 -0.1681 -0.2620 -0.5363
 8028SOL    HW135720   1.162   0.337  15.565  1.0794 -0.5463 -0.3793
 8028SOL    HW235721   1.077   0.315  15.443 -1.3751 -1.6121  3.1082
 8029SOL     OW35722   0.078   2.738   5.521  0.5375  0.6714  0.6830
 8029SOL    HW135723   0.073   2.815   5.578 -0.0340 -0.3386  1.9873
 8029SOL    HW235724   0.141   2.765   5.454  0.0433  0.0891 -0.0279
 8030SOL     OW35725   2.479   2.395   3.029 -0.4834  0.1920 -0.1706
 8030SOL    HW135726   2.431   2.470   2.995  2.0375  0.9307 -2.1065
 8030SOL    HW235727   2.463   2.412   3.122 -1.2990 -2.5630  0.2122
 8031SOL     OW35728   1.721   2.148   3.341 -0.2815 -0.5399 -0.2274
 8031SOL    HW135729   1.688   2.091   3.271  0.7540 -2.9547  1.2820
 8031SOL    HW235730   1.646   2.172   3.394 -1.7006  0.2848 -2.6180
 8032SOL     OW35731   1.190   1.078   2.277 -0.4396  0.0608 -0.2985
 8032SOL    HW135732   1.259   1.031   2.230 -0.6806  0.1828 -0.7724
 8032SOL    HW235733   1.135   1.004   2.303 -0.0859 -0.9327 -2.3784
 8033SOL     OW35734   4.269   0.999   0.585  0.5169 -0.4791 -0.2425
 8033SOL    HW135735   4.334   1.029   0.649  0.0230  0.3098 -0.1101
 8033SOL    HW235736   4.273   0.903   0.576 -1.0166 -0.5417 -0.2030
 8034SOL     OW35737   0.187   4.559   6.550  0.1936 -0.1199  0.4359
 8034SOL    HW135738   0.129   4.494   6.590 -2.3463  0.8972 -1.6107
 8034SOL    HW235739   0.267   4.506   6.549 -0.7557 -1.5389 -1.3514
 8035SOL     OW35740   3.719   2.555   7.149 -0.3762  0.0619 -0.2753
 8035SOL    HW135741   3.709   2.502   7.071 -1.1984 -0.4157  0.1530
 8035SOL    HW235742   3.805   2.522   7.175 -0.1138  0.3647 -0.7633
 8036SOL     OW35743   4.321   0.543   6.633 -0.2617 -0.5974 -0.7074
 8036SOL    HW135744   4.380   0.508   6.565  0.9488  0.6734 -0.3158
 8036SOL    HW235745   4.382   0.583   6.695 -1.0402 -2.8633  1.5355
 8037SOL     OW35746   0.336   3.330   3.976  0.2112 -0.2079  0.4130
 8037SOL    HW135747   0.324   3.349   3.883 -0.7553 -0.9572  0.3829
 8037SOL    HW235748   0.257   3.377   4.002  0.3657  0.2439  0.0706
 8038SOL     OW35749   3.323   3.382   5.485 -0.0988  0.0938 -0.0387
 8038SOL    HW135750   3.237   3.423   5.474 -0.4619 -0.5738  0.3078
 8038SOL    HW235751   3.300   3.294   5.516  2.1635 -0.6087 -0.3356
 8039SOL     OW35752   0.139   0.960   5.027  0.0417  0.0408 -1.1370
 8039SOL    HW135753   0.049   0.926   5.027  0.6077 -1.4064 -1.8814
 8039SOL    HW235754   0.172   0.915   5.105  1.0016  0.0308 -1.5639
 8040SOL     OW35755   2.104   0.412   6.620  0.0024 -0.3726 -0.2872
 8040SOL    HW135756   2.033   0.471   6.644 -0.0992 -0.5907 -0.0510
 8040SOL    HW235757   2.097   0.350   6.692 -1.7228 -1.9944 -1.8326
 8041SOL     OW35758   1.023   3.282   4.815 -0.0221 -0.1313 -0.1837
 8041SOL    HW135759   0.989   3.348   4.755  1.3440  0.4416 -0.3305
 8041SOL    HW235760   0.987   3.315   4.898  0.4688  0.7402 -0.3120
 8042SOL     OW35761   2.417   2.182   9.750 -0.4831  0.4528 -0.2786
 8042SOL    HW135762   2.481   2.228   9.805  0.3014  0.0031 -0.8316
 8042SOL    HW235763   2.410   2.235   9.671 -2.2105  0.8918  0.1595
 8043SOL     OW35764   0.740   0.016   4.983  0.0446 -0.2122 -0.4700
 8043SOL    HW135765   0.723   0.013   4.889 -0.3406  1.0557 -0.4380
 8043SOL    HW235766   0.810   0.081   4.982  0.7754 -0.9623  1.3436
 8044SOL     OW35767   3.092   0.295   2.804  0.0020  0.0095  0.1555
 8044SOL    HW135768   3.045   0.222   2.843  0.7864 -1.1724 -1.1121
 8044SOL    HW235769   3.172   0.285   2.856  0.3333  1.2845 -0.0968
 8045SOL     OW35770   1.026   3.073  13.092  0.1163 -0.0945 -0.6784
 8045SOL    HW135771   0.976   3.087  13.173  0.1227 -0.3976 -0.6209
 8045SOL    HW235772   1.092   3.023  13.140 -3.1377 -1.3359  2.4979
 8046SOL     OW35773   4.537   4.601   7.924 -0.0979  0.5383 -0.2675
 8046SOL    HW135774   4.561   4.666   7.991  0.9518 -0.3355  0.2058
 8046SOL    HW235775   4.447   4.575   7.945  0.3110 -0.4192  0.2629
 8047SOL     OW35776   3.313   0.453  17.616 -0.1492 -0.1830 -0.2847
 8047SOL    HW135777   3.369   0.411  17.551 -0.8645 -1.1367 -0.2917
 8047SOL    HW235778   3.257   0.499  17.554  0.2467  1.7278  0.7892
 8048SOL     OW35779   4.678   4.618   3.005 -0.3051 -0.1525 -0.1156
 8048SOL    HW135780   4.683   4.570   2.922 -1.9024 -1.7722  0.7477
 8048SOL    HW235781   4.644   4.702   2.975  0.5394  0.8358  1.6902
 8049SOL     OW35782   2.827   3.499   2.273 -0.4853  0.4784 -0.0694
 8049SOL    HW135783   2.762   3.556   2.232 -0.1054  0.5944 -0.4996
 8049SOL    HW235784   2.879   3.476   2.197 -0.8918  0.2978 -0.2908
 8050SOL     OW35785   1.571   2.866   8.556 -0.1798 -0.0651  0.0424
 8050SOL    HW135786   1.579   2.949   8.508  0.2711 -0.0837  0.0848
 8050SOL    HW235787   1.479   2.846   8.571 -0.8945  0.8895 -3.0168
 8051SOL     OW35788   0.341   1.025   2.046 -0.5154 -0.6157 -0.1224
 8051SOL    HW135789   0.343   1.075   2.127  0.2315  2.2665 -1.9056
 8051SOL    HW235790   0.382   1.087   1.985 -1.1768 -0.2111 -0.1606
 8052SOL     OW35791   2.748   2.009   6.221  0.2916  0.2850 -0.2500
 8052SOL    HW135792   2.670   2.044   6.179 -0.9821 -2.5024 -0.1614
 8052SOL    HW235793   2.815   2.020   6.153  0.5050  2.0120  0.2226
 8053SOL     OW35794   2.599   3.548   2.641 -0.0830 -0.3618 -0.5581
 8053SOL    HW135795   2.615   3.579   2.730  1.2899 -1.8123 -0.2971
 8053SOL    HW235796   2.686   3.533   2.605 -0.5909  1.2291 -2.4539
 8054SOL     OW35797   4.316   1.834  16.280  0.4604  0.1658  0.2065
 8054SOL    HW135798   4.246   1.806  16.338  2.2395 -1.2950  1.6433
 8054SOL    HW235799   4.268   1.871  16.206  0.4953  1.2286  0.7170
 8055SOL     OW35800   0.632   0.306   5.771 -0.0255  0.1159  0.0707
 8055SOL    HW135801   0.676   0.316   5.687  0.6388 -1.6314  0.1997
 8055SOL    HW235802   0.715   0.318   5.818 -0.6590 -1.0107  1.5000
 8056SOL     OW35803   3.622   0.454  17.630  0.8110 -0.0731 -0.1373
 8056SOL    HW135804   3.682   0.384  17.658 -2.3489 -2.2478  1.2471
 8056SOL    HW235805   3.611   0.436  17.537  0.3924 -0.8276  0.0570
 8057SOL     OW35806   2.859   0.918  15.120  0.1983  0.1127 -0.3153
 8057SOL    HW135807   2.851   1.000  15.169 -1.0257 -0.8431  1.0687
 8057SOL    HW235808   2.902   0.857  15.180 -1.3505  0.8621  1.5531
 8058SOL     OW35809   3.348   1.715  13.519 -0.6702 -0.2944  0.6828
 8058SOL    HW135810   3.379   1.676  13.600  1.8870 -0.0250 -0.1680
 8058SOL    HW235811   3.378   1.642  13.465 -0.2749 -0.6951  1.4416
 8059SOL     OW35812   3.398   3.323  16.053 -0.1880  0.4101 -0.3820
 8059SOL    HW135813   3.344   3.300  16.129 -1.8749 -1.3321 -2.1104
 8059SOL    HW235814   3.472   3.358  16.103  0.3842 -2.5584  0.7998
 8060SOL     OW35815   3.606   2.254   4.927 -0.2773 -0.0572 -0.4297
 8060SOL    HW135816   3.567   2.334   4.891  1.3627  0.3353 -1.2962
 8060SOL    HW235817   3.620   2.203   4.848  1.1064  0.1668 -0.3334
 8061SOL     OW35818   3.754   1.177   6.305 -0.5460 -0.4197  0.4985
 8061SOL    HW135819   3.688   1.246   6.301 -0.8520 -0.7915 -0.7839
 8061SOL    HW235820   3.699   1.102   6.329  0.5810 -0.9913  1.2599
 8062SOL     OW35821   1.045   1.335   2.272 -0.5394 -0.2358 -0.5833
 8062SOL    HW135822   1.073   1.374   2.189  0.6045  0.4137  0.1036
 8062SOL    HW235823   1.100   1.256   2.271 -2.4914 -1.6023  2.1834
 8063SOL     OW35824   4.124   1.306   7.777 -0.2870  0.1598 -0.1214
 8063SOL    HW135825   4.104   1.227   7.727 -0.4454  1.3682 -1.9472
 8063SOL    HW235826   4.040   1.349   7.762 -0.8083 -0.6290  0.5045
 8064SOL     OW35827   0.049   2.982   6.598 -0.1888 -0.2185 -0.3582
 8064SOL    HW135828   0.002   3.047   6.546  0.2771  0.6202  0.2749
 8064SOL    HW235829   0.000   2.993   6.680 -0.3265 -1.4537 -0.2697
 8065SOL     OW35830   2.717   3.283   7.802  0.6440  0.6474  0.0401
 8065SOL    HW135831   2.697   3.318   7.889 -1.1972  0.3236 -0.2394
 8065SOL    HW235832   2.810   3.305   7.795  0.0666  3.2201  0.5050
 8066SOL     OW35833   4.612   4.281   0.678  0.7086  0.7657 -0.3689
 8066SOL    HW135834   4.609   4.374   0.655  2.4778  0.4111 -2.0680
 8066SOL    HW235835   4.689   4.284   0.734 -0.0959  1.1189  0.7015
 8067SOL     OW35836   4.317   1.111   3.183 -0.2778 -0.4569 -0.5869
 8067SOL    HW135837   4.271   1.054   3.244  2.2740 -1.1576  0.6377
 8067SOL    HW235838   4.406   1.078   3.183  0.4484  1.4911 -0.1871
 8068SOL     OW35839   4.446   1.946  14.781  0.1258  0.4419 -0.5129
 8068SOL    HW135840   4.476   1.857  14.795 -2.0051 -0.1933  0.0987
 8068SOL    HW235841   4.487   1.964  14.696  1.0597 -1.9924 -0.5700
 8069SOL     OW35842   2.955   2.230   1.240 -0.1272  0.5659 -0.0275
 8069SOL    HW135843   2.976   2.185   1.322 -0.2646  0.5953  0.0245
 8069SOL    HW235844   2.895   2.167   1.201  2.4523 -3.1474  1.9970
 8070SOL     OW35845   1.552   4.581   6.111  0.1709  0.2930 -0.2737
 8070SOL    HW135846   1.568   4.500   6.063 -1.5978  0.6146 -1.3998
 8070SOL    HW235847   1.562   4.647   6.042  1.1739 -0.7880 -1.1793
 8071SOL     OW35848   2.878   1.868   6.505 -0.4356  0.0522 -0.0421
 8071SOL    HW135849   2.953   1.822   6.543 -0.6995  0.0952  0.5398
 8071SOL    HW235850   2.871   1.947   6.558 -0.0567 -0.4875  0.8278
 8072SOL     OW35851   3.692   3.557  14.528 -0.5461 -0.0074 -0.0341
 8072SOL    HW135852   3.731   3.554  14.616 -0.0535  4.6768 -0.0881
 8072SOL    HW235853   3.762   3.594  14.475 -0.6874 -1.0976 -0.9803
 8073SOL     OW35854   2.474   0.752  16.386  0.0117 -0.8050 -0.0887
 8073SOL    HW135855   2.497   0.665  16.419 -3.7364 -2.2879 -1.3802
 8073SOL    HW235856   2.557   0.781  16.347  0.1080 -1.1486 -0.1351
 8074SOL     OW35857   2.642   4.151   2.948  0.4014  0.2858  0.5712
 8074SOL    HW135858   2.593   4.138   2.867  1.5988 -2.3406  0.2513
 8074SOL    HW235859   2.591   4.216   2.995  1.7606  0.9013  1.1993
 8075SOL     OW35860   2.240   0.393   5.614 -0.5618 -0.0105 -0.3552
 8075SOL    HW135861   2.325   0.407   5.572  0.0012 -2.1809  0.0373
 8075SOL    HW235862   2.219   0.476   5.656  0.3011 -0.6299  1.3328
 8076SOL     OW35863   1.588   4.400   9.464  0.3085 -0.4134 -0.5288
 8076SOL    HW135864   1.619   4.381   9.553  0.3651  0.1839 -0.4252
 8076SOL    HW235865   1.532   4.475   9.480  0.3558 -0.7554  1.2704
 8077SOL     OW35866   4.653   2.238   5.704 -0.7321  0.5579 -0.6094
 8077SOL    HW135867   4.624   2.157   5.748 -1.6664  0.5805 -1.1899
 8077SOL    HW235868   4.617   2.296   5.771  0.9469  0.0815  0.7095
 8078SOL     OW35869   2.410   0.877   9.148 -0.1968 -0.0384  0.3295
 8078SOL    HW135870   2.405   0.901   9.241 -0.3421  2.0997 -0.2455
 8078SOL    HW235871   2.493   0.829   9.152  0.4376  1.0128 -0.4888
 8079SOL     OW35872   3.021   2.772   4.649 -0.4210  0.4718 -0.1452
 8079SOL    HW135873   3.036   2.681   4.676 -1.9566  0.4699  0.7022
 8079SOL    HW235874   2.940   2.794   4.695 -1.0587 -2.2503  0.0200
 8080SOL     OW35875   4.169   0.629   7.883 -0.3888  0.1816 -0.6123
 8080SOL    HW135876   4.120   0.684   7.944  1.9095  3.2887 -1.5496
 8080SOL    HW235877   4.151   0.538   7.908 -1.6577  1.5127  3.3847
 8081SOL     OW35878   2.688   4.708   4.506 -0.2293 -0.2025  0.3604
 8081SOL    HW135879   2.750   0.017   4.450  2.0336 -1.8323  1.4841
 8081SOL    HW235880   2.684   4.621   4.466  1.4841 -0.3604  0.5588
 8082SOL     OW35881   3.764   2.729  13.885  0.1060 -0.1424  0.0023
 8082SOL    HW135882   3.823   2.778  13.828  0.2019 -0.8564 -0.5259
 8082SOL    HW235883   3.799   2.641  13.869 -0.2203 -0.0485 -1.2551
 8083SOL     OW35884   1.460   0.509   8.927 -0.4442 -0.1895  0.0839
 8083SOL    HW135885   1.374   0.547   8.945  0.4397  1.4169  0.8448
 8083SOL    HW235886   1.444   0.423   8.965  0.5617 -0.1746  0.5406
 8084SOL     OW35887   1.158   2.834   4.271  0.5518  0.4364 -0.2834
 8084SOL    HW135888   1.237   2.782   4.258  2.0583  2.1802  1.9144
 8084SOL    HW235889   1.168   2.859   4.363 -1.2482 -4.2181  1.1753
 8085SOL     OW35890   4.104   2.798   3.227  0.0020 -0.1031 -0.3598
 8085SOL    HW135891   4.122   2.748   3.147  3.5579  1.7822 -0.7538
 8085SOL    HW235892   4.112   2.737   3.300  0.4028  0.3407 -0.0308
 8086SOL     OW35893   0.673   4.447   7.125  0.5658 -0.4790  0.0809
 8086SOL    HW135894   0.731   4.435   7.050  0.0709 -0.9405 -0.2216
 8086SOL    HW235895   0.730   4.422   7.197 -1.3198  1.0793  2.1071
 8087SOL     OW35896   1.450   2.025  13.090  0.3479 -0.0973  0.0515
 8087SOL    HW135897   1.523   1.972  13.124 -1.0339 -1.1849  1.3517
 8087SOL    HW235898   1.375   1.970  13.114 -0.3209  0.5541 -0.5656
 8088SOL     OW35899   3.486   4.672  15.155 -0.5327  0.2341  0.0023
 8088SOL    HW135900   3.560   4.635  15.106 -0.0671  1.1285  0.0150
 8088SOL    HW235901   3.521   0.020  15.175  0.2858 -0.5924  2.1614
 8089SOL     OW35902   1.132   0.355  11.176  0.1553 -0.1912 -0.0703
 8089SOL    HW135903   1.176   0.270  11.165  1.2920  0.3725  0.1013
 8089SOL    HW235904   1.105   0.348  11.267 -1.1045  0.0740 -0.4271
 8090SOL     OW35905   2.779   4.213  15.251  0.6164  0.6989  0.0144
 8090SOL    HW135906   2.856   4.267  15.236  0.0712  1.8949  1.5532
 8090SOL    HW235907   2.718   4.252  15.188 -0.4684 -1.2915 -0.1785
 8091SOL     OW35908   2.251   1.505   4.839 -0.2554  0.3157  0.0593
 8091SOL    HW135909   2.342   1.507   4.868  0.0087  0.1299 -0.7718
 8091SOL    HW235910   2.271   1.458   4.758  1.5782  1.0932  0.0540
 8092SOL     OW35911   2.608   2.703  12.738  0.4384  0.2117  0.1920
 8092SOL    HW135912   2.644   2.755  12.667  0.1386  0.2660  0.0812
 8092SOL    HW235913   2.550   2.768  12.777  0.4829 -1.5979  3.3260
 8093SOL     OW35914   3.099   1.159   3.826  0.4614 -0.0055  0.1239
 8093SOL    HW135915   3.127   1.226   3.888  0.4140 -1.6845  1.9490
 8093SOL    HW235916   3.027   1.114   3.871  0.6114 -2.4066 -2.0251
 8094SOL     OW35917   1.018   2.189   5.193  0.3572 -0.0420 -0.0899
 8094SOL    HW135918   0.987   2.263   5.141 -1.0187 -0.2385  0.4508
 8094SOL    HW235919   0.952   2.184   5.262  1.0124 -1.5964  0.4073
 8095SOL     OW35920   3.263   3.069  17.661  0.4843 -0.3737 -1.0474
 8095SOL    HW135921   3.239   3.037  17.574  0.4705 -0.5109 -0.9939
 8095SOL    HW235922   3.331   3.132  17.639  1.0298 -0.3276  0.7226
 8096SOL     OW35923   3.933   3.311   5.740  0.0068  0.5250 -0.2213
 8096SOL    HW135924   3.899   3.368   5.810 -2.4722  0.7227 -1.5691
 8096SOL    HW235925   3.983   3.252   5.796 -2.2612  1.0683  2.4057
 8097SOL     OW35926   0.991   1.467  11.274  0.3635  0.2892 -0.4190
 8097SOL    HW135927   0.940   1.508  11.204  0.1544  1.3974  0.3739
 8097SOL    HW235928   0.999   1.536  11.340  0.3253 -1.9618  1.9324
 8098SOL     OW35929   4.511   1.613  17.529  0.0811  0.2963  0.4003
 8098SOL    HW135930   4.535   1.705  17.544  2.6973 -0.1007 -1.3013
 8098SOL    HW235931   4.593   1.568  17.548  0.7969  1.6700  0.5766
 8099SOL     OW35932   0.730   2.311   5.046  0.0771 -0.1733  0.1435
 8099SOL    HW135933   0.664   2.302   5.114 -3.1118 -1.3264 -3.1045
 8099SOL    HW235934   0.678   2.283   4.970  0.2699  2.3660 -0.9337
 8100SOL     OW35935   2.298   0.273   2.679 -0.0127  0.2364 -0.2241
 8100SOL    HW135936   2.244   0.352   2.674  1.9403  1.6663  1.3169
 8100SOL    HW235937   2.249   0.223   2.744  2.7650 -2.7399 -0.4317
 8101SOL     OW35938   0.428   2.201   2.146 -0.2744  0.2406 -0.4451
 8101SOL    HW135939   0.417   2.110   2.170 -1.1866  0.8219  1.3077
 8101SOL    HW235940   0.356   2.244   2.192  0.2984  0.7466 -0.0091
 8102SOL     OW35941   0.551   3.088  12.210 -0.1517 -0.0500 -0.2255
 8102SOL    HW135942   0.461   3.058  12.199 -0.3452  1.0515 -1.7073
 8102SOL    HW235943   0.547   3.176  12.171 -0.6024  0.5909  1.2704
 8103SOL     OW35944   2.360   3.312  10.079  0.0981  0.0475 -0.0840
 8103SOL    HW135945   2.366   3.300   9.984 -1.2645 -1.4616  0.0240
 8103SOL    HW235946   2.429   3.250  10.100  0.1624  0.7041  1.6310
 8104SOL     OW35947   0.323   1.633  11.853  0.1902  0.0129  0.5178
 8104SOL    HW135948   0.324   1.546  11.814  0.8408  0.3160 -0.1547
 8104SOL    HW235949   0.414   1.658  11.865 -0.0710  1.5870 -0.7103
 8105SOL     OW35950   2.596   1.968   3.069 -0.4480 -0.0788  0.0235
 8105SOL    HW135951   2.530   1.998   3.132 -1.5557  1.3805 -1.8360
 8105SOL    HW235952   2.659   2.039   3.079  0.6754 -0.9203 -0.9999
 8106SOL     OW35953   3.460   0.582  15.996  0.7009 -0.2815 -0.0732
 8106SOL    HW135954   3.512   0.574  16.076  0.7747  0.9733  0.0135
 8106SOL    HW235955   3.516   0.645  15.950 -0.2451  0.4009 -0.2856
 8107SOL     OW35956   0.245   1.744  16.106  0.1445 -0.0153 -0.2829
 8107SOL    HW135957   0.329   1.752  16.061 -1.2669 -0.3341 -2.9935
 8107SOL    HW235958   0.270   1.794  16.184 -2.8775  1.3925 -0.1991
 8108SOL     OW35959   2.796   3.566  15.696  0.6037 -0.3587  0.3227
 8108SOL    HW135960   2.775   3.648  15.650  0.0867 -1.1646 -0.8565
 8108SOL    HW235961   2.891   3.574  15.685  0.7183 -0.1137  1.4184
 8109SOL     OW35962   0.934   0.728   3.594 -0.1520 -0.3035  0.0122
 8109SOL    HW135963   1.004   0.668   3.621  0.4675  0.7142  0.6651
 8109SOL    HW235964   0.969   0.813   3.622 -1.4195  0.2507 -0.1037
 8110SOL     OW35965   1.097   1.801   5.434  0.5394 -0.4525  0.3968
 8110SOL    HW135966   1.167   1.866   5.429 -0.0748  0.1197 -0.7148
 8110SOL    HW235967   1.017   1.848   5.410 -0.2920 -1.4301  1.2454
 8111SOL     OW35968   4.410   0.094  14.113 -0.0116 -0.4057  0.4099
 8111SOL    HW135969   4.499   0.073  14.140 -0.1587 -0.4070  0.9015
 8111SOL    HW235970   4.430   0.133  14.028  0.5942  0.2363  0.8448
 8112SOL     OW35971   2.795   0.991  11.176  0.0003  0.1479 -0.2468
 8112SOL    HW135972   2.857   1.005  11.248 -1.2434 -1.0823  1.0682
 8112SOL    HW235973   2.796   0.896  11.180 -1.3084  0.1890  1.2593
 8113SOL     OW35974   3.993   0.988  11.549  0.1699  0.2459 -0.6658
 8113SOL    HW135975   3.975   1.015  11.459 -1.1044 -1.9650 -1.0868
 8113SOL    HW235976   3.989   0.892  11.542 -0.9742  0.1966  0.6791
 8114SOL     OW35977   1.766   3.867   6.312  0.3493 -0.5852  0.3215
 8114SOL    HW135978   1.851   3.838   6.277  0.5409 -0.6654  0.8498
 8114SOL    HW235979   1.715   3.897   6.236 -0.8361  0.6857  1.6341
 8115SOL     OW35980   4.702   2.647   7.842  0.2547 -0.0080  0.4717
 8115SOL    HW135981   4.632   2.664   7.779 -0.4192  0.0877  1.2465
 8115SOL    HW235982   4.662   2.566   7.874  0.6322 -0.4450 -0.1798
 8116SOL     OW35983   2.421   1.594   4.562  0.4158  0.1777  0.4930
 8116SOL    HW135984   2.388   1.519   4.611 -0.9183 -2.1730 -3.9444
 8116SOL    HW235985   2.357   1.657   4.595  0.0835  0.0794  0.0418
 8117SOL     OW35986   2.136   3.235   9.804 -0.8404  0.6119  0.3758
 8117SOL    HW135987   2.228   3.259   9.816 -1.5979  2.3403  2.6732
 8117SOL    HW235988   2.122   3.193   9.889  1.1488 -1.1240 -0.1612
 8118SOL     OW35989   1.328   4.507   4.498  0.7693  0.2958  0.8684
 8118SOL    HW135990   1.270   4.524   4.424  0.7377  1.6313  1.2051
 8118SOL    HW235991   1.360   4.421   4.472 -0.3737 -0.2681  1.3084
 8119SOL     OW35992   2.027   3.983   8.279  0.0235  0.1372 -0.1054
 8119SOL    HW135993   1.956   3.971   8.342 -0.6454  2.6423 -0.3902
 8119SOL    HW235994   1.981   4.020   8.203  2.3929  0.4152 -1.4252
 8120SOL     OW35995   1.320   0.997   2.890 -0.0850 -0.2655  0.7949
 8120SOL    HW135996   1.334   0.980   2.797  0.3933  0.0030  0.8218
 8120SOL    HW235997   1.403   1.038   2.913 -0.0689 -0.2088  0.6333
 8121SOL     OW35998   1.318   3.242   0.822 -0.1915  0.3903  0.0212
 8121SOL    HW135999   1.380   3.302   0.781  2.0102 -1.7159  0.2519
 8121SOL    HW236000   1.254   3.303   0.859 -0.7141 -0.8889  1.2203
 8122SOL     OW36001   1.913   3.332   4.642  0.7594 -0.0398 -0.2752
 8122SOL    HW136002   1.895   3.252   4.690 -0.9809  0.2220 -0.5128
 8122SOL    HW236003   1.864   3.319   4.561 -0.8763  2.1624  0.3780
 8123SOL     OW36004   0.445   2.132   5.470 -0.3418  0.2471 -0.0217
 8123SOL    HW136005   0.513   2.137   5.538  0.4633  2.0183 -0.9565
 8123SOL    HW236006   0.375   2.086   5.517  0.6352 -0.4752  0.7411
 8124SOL     OW36007   2.030   4.427  12.045  0.5274  0.1693  0.2907
 8124SOL    HW136008   2.124   4.419  12.029  0.2011 -1.4497 -0.8094
 8124SOL    HW236009   2.002   4.337  12.058  1.7055 -0.0932  0.9339
 8125SOL     OW36010   2.320   3.499   2.334  0.4312 -1.0247  0.0887
 8125SOL    HW136011   2.366   3.578   2.364 -1.7134 -0.3125  1.5247
 8125SOL    HW236012   2.235   3.516   2.374  0.0014 -2.2042 -0.3389
 8126SOL     OW36013   0.094   3.303   2.818 -0.0938  0.2242  0.2263
 8126SOL    HW136014   0.152   3.380   2.813  2.0111 -1.2914  1.3762
 8126SOL    HW236015   0.061   3.298   2.728 -0.7247 -1.9680  0.5829
 8127SOL     OW36016   1.556   4.509  12.625  0.3468 -0.4572 -0.2600
 8127SOL    HW136017   1.626   4.445  12.638 -0.2130 -1.3660 -1.6734
 8127SOL    HW236018   1.492   4.463  12.572  0.3158  0.3151 -0.9000
 8128SOL     OW36019   3.884   1.181   7.390 -0.5777 -0.3400  0.2441
 8128SOL    HW136020   3.859   1.273   7.400 -0.0865 -0.0223 -1.5582
 8128SOL    HW236021   3.798   1.148   7.363 -0.8768  1.0957 -0.5585
 8129SOL     OW36022   0.732   3.134   3.766  0.4776 -0.6700  0.7161
 8129SOL    HW136023   0.735   3.189   3.844  1.6824 -0.5370  0.5834
 8129SOL    HW236024   0.699   3.198   3.703 -3.9702 -1.6567  2.0449
 8130SOL     OW36025   2.132   3.814   1.451 -0.2354 -0.0005  0.7363
 8130SOL    HW136026   2.069   3.755   1.409  0.5818  0.7296 -1.5308
 8130SOL    HW236027   2.077   3.884   1.487  0.0412  0.0265  1.1017
 8131SOL     OW36028   0.165   3.007  11.299 -0.6155 -0.3108  0.1402
 8131SOL    HW136029   0.148   3.002  11.393  0.1081  2.2054  0.3874
 8131SOL    HW236030   0.237   2.945  11.287 -1.5835 -1.2057 -1.0438
 8132SOL     OW36031   0.856   0.436   7.686 -0.0547 -0.0149  0.0701
 8132SOL    HW136032   0.931   0.382   7.712 -0.2594 -0.0496  0.5983
 8132SOL    HW236033   0.820   0.382   7.615  1.4518 -0.0227 -0.6914
 8133SOL     OW36034   1.449   3.059   2.586  0.1323 -0.1088  0.0049
 8133SOL    HW136035   1.519   3.002   2.553 -0.2704 -0.7323  0.2255
 8133SOL    HW236036   1.397   3.071   2.507  0.5428  0.4491 -0.1813
 8134SOL     OW36037   4.279   0.879   8.216 -0.3375 -0.1986 -0.1585
 8134SOL    HW136038   4.276   0.952   8.278 -2.5732 -0.5612  0.1772
 8134SOL    HW236039   4.215   0.891   8.145  0.9896  0.3587 -1.2582
 8135SOL     OW36040   1.142   0.087   1.806  0.4565 -0.2588 -0.6298
 8135SOL    HW136041   1.124   0.129   1.890  1.8249 -0.0501 -0.4412
 8135SOL    HW236042   1.230   0.122   1.793 -0.6091  2.2959 -0.7876
 8136SOL     OW36043   3.659   2.895   4.031  0.1888  0.1418 -0.4415
 8136SOL    HW136044   3.646   2.813   4.080  1.1942  0.1209 -0.2012
 8136SOL    HW236045   3.583   2.889   3.973  1.8383 -1.1274 -2.4551
 8137SOL     OW36046   3.602   4.355   3.965  0.4277  0.0524 -0.3066
 8137SOL    HW136047   3.638   4.268   3.985 -1.9466 -1.0126 -0.6989
 8137SOL    HW236048   3.513   4.337   3.935 -0.6798  1.4209  2.1559
 8138SOL     OW36049   2.006   1.573   4.540  0.3533 -0.0605 -0.1167
 8138SOL    HW136050   2.062   1.508   4.498 -0.1659 -0.1026 -0.7571
 8138SOL    HW236051   1.932   1.513   4.545  1.2658 -1.2037 -0.5410
 8139SOL     OW36052   0.133   0.058  11.637 -0.1797 -0.3992  0.0797
 8139SOL    HW136053   0.134   0.116  11.561  0.2068  0.4052  0.6952
 8139SOL    HW236054   0.194   4.733  11.601  0.0666  0.2284 -0.6224
 8140SOL     OW36055   2.765   2.549   6.165 -0.0222 -0.5980 -0.0433
 8140SOL    HW136056   2.778   2.522   6.256 -2.7455 -1.4440  0.0719
 8140SOL    HW236057   2.848   2.588   6.136  0.2655 -1.2413 -0.0938
 8141SOL     OW36058   3.673   1.533  11.637  0.0546  0.2522 -0.0575
 8141SOL    HW136059   3.697   1.621  11.609 -0.9994  0.7722  0.6784
 8141SOL    HW236060   3.684   1.490  11.552 -1.8386 -2.9041  1.2698
 8142SOL     OW36061   4.228   2.493   1.345 -0.1121  0.6068  0.3350
 8142SOL    HW136062   4.306   2.487   1.291  0.1977  0.3271  0.8187
 8142SOL    HW236063   4.186   2.564   1.297  0.3044  0.7588  0.1999
 8143SOL     OW36064   4.284   3.259   5.801 -0.3888 -0.6293  0.1534
 8143SOL    HW136065   4.205   3.209   5.821 -0.6510  0.1143  0.9855
 8143SOL    HW236066   4.262   3.352   5.803  2.0178 -0.1346  2.4201
 8144SOL     OW36067   4.572   1.875   4.805  0.0507 -0.5021  0.4515
 8144SOL    HW136068   4.605   1.788   4.784  1.3316 -0.3312  1.7616
 8144SOL    HW236069   4.479   1.858   4.823 -0.4032  0.9320 -0.5244
 8145SOL     OW36070   3.217   0.583   6.134  0.4226  0.0165 -0.5321
 8145SOL    HW136071   3.177   0.524   6.071  1.8349 -1.5995  0.1175
 8145SOL    HW236072   3.161   0.569   6.211 -0.7473  0.6567 -1.2690
 8146SOL     OW36073   0.124   0.249   8.330 -0.5389 -0.1285 -0.5688
 8146SOL    HW136074   0.054   0.290   8.381  1.6471  1.7562  0.9036
 8146SOL    HW236075   0.148   0.175   8.386 -0.5475  1.9512  2.1541
 8147SOL     OW36076   1.053   3.867   2.249 -0.0775  0.0096  0.5636
 8147SOL    HW136077   1.095   3.859   2.335 -0.7944 -1.1797  0.8002
 8147SOL    HW236078   1.080   3.957   2.230  0.1726 -0.3592 -0.8318
 8148SOL     OW36079   4.652   1.414   7.210 -0.4715 -0.5354 -0.3903
 8148SOL    HW136080   4.635   1.508   7.217  0.2790 -0.3381 -1.1179
 8148SOL    HW236081   4.569   1.379   7.179 -1.1616 -0.1732  1.0632
 8149SOL     OW36082   0.940   2.860   3.156 -0.2554 -0.0904  0.2102
 8149SOL    HW136083   0.986   2.930   3.203 -0.8046 -0.4960  1.3664
 8149SOL    HW236084   0.850   2.889   3.170 -0.9788 -2.5672  0.6141
 8150SOL     OW36085   2.247   3.270   7.022  0.2824  0.3812  0.0384
 8150SOL    HW136086   2.242   3.281   6.927  1.3387  0.1285 -0.0399
 8150SOL    HW236087   2.154   3.259   7.042  0.8457 -1.3560  1.7082
 8151SOL     OW36088   2.690   3.850   8.043 -0.0668 -0.0775 -0.1185
 8151SOL    HW136089   2.684   3.886   7.954  0.8146 -0.4375 -0.3199
 8151SOL    HW236090   2.747   3.911   8.090 -0.3596 -0.3115  0.5336
 8152SOL     OW36091   3.717   4.220   3.544  0.2219 -0.4048 -0.0238
 8152SOL    HW136092   3.731   4.281   3.617  2.5377 -0.8895 -0.0542
 8152SOL    HW236093   3.805   4.200   3.511 -0.3799 -0.4423 -1.6151
 8153SOL     OW36094   1.500   0.986   1.755  0.2511 -0.0029  0.4165
 8153SOL    HW136095   1.543   1.027   1.830 -1.4903 -1.0159  1.9503
 8153SOL    HW236096   1.544   0.902   1.746  2.2398  1.2849 -1.8658
 8154SOL     OW36097   2.339   2.246  15.510  0.5145 -0.6613  0.5516
 8154SOL    HW136098   2.414   2.302  15.488  1.3046 -0.8036  2.9274
 8154SOL    HW236099   2.382   2.160  15.504 -0.8104 -1.2303 -0.8459
 8155SOL     OW36100   4.291   4.285  16.367 -0.1079  0.0778  0.6337
 8155SOL    HW136101   4.375   4.261  16.407  1.2695  0.6410 -1.8496
 8155SOL    HW236102   4.239   4.253  16.440  1.0298  0.7215  1.7270
 8156SOL     OW36103   0.308   2.721  14.446  0.1650  0.1331 -0.0128
 8156SOL    HW136104   0.336   2.785  14.381  1.2491 -1.8359 -1.4957
 8156SOL    HW236105   0.275   2.652  14.388  0.0061  3.6086 -4.1079
 8157SOL     OW36106   4.287   2.576   8.069 -0.2479 -0.7763  0.9868
 8157SOL    HW136107   4.365   2.623   8.098  0.9702 -0.9985 -1.8465
 8157SOL    HW236108   4.317   2.516   8.000 -0.0115  0.0193  0.4003
 8158SOL     OW36109   2.527   1.355   2.732  0.5812  0.0679 -0.0800
 8158SOL    HW136110   2.599   1.419   2.733  0.0827  0.5876  2.1693
 8158SOL    HW236111   2.552   1.298   2.659  0.3783 -0.6033  0.3760
 8159SOL     OW36112   0.341   3.858  15.644  0.3025 -0.0872 -0.1542
 8159SOL    HW136113   0.394   3.783  15.615  0.0312 -0.8850  1.4294
 8159SOL    HW236114   0.363   3.925  15.579 -0.1039  0.6160  0.4349
 8160SOL     OW36115   2.112   3.191   8.258 -0.8057  0.4384  0.2015
 8160SOL    HW136116   2.035   3.247   8.251  0.5888  2.2471 -0.8449
 8160SOL    HW236117   2.096   3.164   8.348  1.0485 -0.9026  0.1526
 8161SOL     OW36118   3.280   1.996  11.184 -0.4264  0.1803 -0.2662
 8161SOL    HW136119   3.346   2.060  11.157 -0.4118  0.0377 -0.5792
 8161SOL    HW236120   3.315   1.907  11.188  1.2326  0.8158 -0.9232
 8162SOL     OW36121   4.248   1.866   2.749 -0.1876  0.1141 -0.3263
 8162SOL    HW136122   4.170   1.921   2.758  0.9913  2.0121 -1.8185
 8162SOL    HW236123   4.197   1.800   2.702 -0.5694  0.7546 -0.8108
 8163SOL     OW36124   3.129   0.242   4.616  0.8636 -0.0316 -0.0558
 8163SOL    HW136125   3.102   0.191   4.692  1.1535 -3.3250 -2.1898
 8163SOL    HW236126   3.048   0.291   4.602  0.9613 -0.3597 -1.8218
 8164SOL     OW36127   0.819   0.060  10.470 -0.8616 -0.7222 -0.0308
 8164SOL    HW136128   0.849   0.084  10.557  2.3565 -0.7737 -1.1190
 8164SOL    HW236129   0.905   0.086  10.437 -0.9508 -0.7929 -0.3257
 8165SOL     OW36130   1.731   3.320   8.543  0.0159 -0.0791  0.0232
 8165SOL    HW136131   1.804   3.281   8.591  0.4266  0.6455 -0.0281
 8165SOL    HW236132   1.744   3.409   8.574  0.8851 -0.4726  0.7862
 8166SOL     OW36133   3.361   1.647   0.831 -0.1303  0.2825  0.0832
 8166SOL    HW136134   3.441   1.660   0.780 -0.1551 -0.8746 -0.2474
 8166SOL    HW236135   3.302   1.611   0.765  0.1702  0.0285 -0.0477
 8167SOL     OW36136   2.715   3.486   1.433 -0.0281 -0.2209  0.0523
 8167SOL    HW136137   2.631   3.456   1.467 -0.0645 -2.2309 -1.7732
 8167SOL    HW236138   2.721   3.578   1.457  0.4737 -0.0310 -0.7883
 8168SOL     OW36139   1.065   3.465  11.364  0.2558 -0.0887 -0.2921
 8168SOL    HW136140   1.080   3.376  11.333 -0.2947 -0.5082  0.6320
 8168SOL    HW236141   1.123   3.477  11.440  1.5612 -1.0358 -1.1263
 8169SOL     OW36142   1.367   4.437  16.680 -0.7057 -0.0262  0.0396
 8169SOL    HW136143   1.447   4.405  16.637 -1.2225 -0.5244 -0.5380
 8169SOL    HW236144   1.348   4.371  16.747 -0.5375  0.1649  0.2789
 8170SOL     OW36145   4.307   0.777   6.409 -0.5299 -0.0721  0.0192
 8170SOL    HW136146   4.363   0.795   6.334 -3.7926  0.4142 -2.2723
 8170SOL    HW236147   4.358   0.806   6.485  0.1911 -0.1022 -0.4450
 8171SOL     OW36148   1.627   1.461   8.645  0.0225  0.8384  0.5832
 8171SOL    HW136149   1.616   1.493   8.555 -0.6299 -0.7955  0.0860
 8171SOL    HW236150   1.699   1.399   8.631 -1.5876 -0.7523 -0.6434
 8172SOL     OW36151   0.077   3.297   2.555  0.0931  0.1118 -0.0711
 8172SOL    HW136152   0.130   3.229   2.515 -1.0707 -0.6561 -0.2984
 8172SOL    HW236153   0.112   3.375   2.510 -0.8279  0.5628 -0.0033
 8173SOL     OW36154   3.812   0.086   1.920 -0.6523  0.4743 -0.0336
 8173SOL    HW136155   3.827   0.113   1.830 -2.0208  0.6367 -0.2050
 8173SOL    HW236156   3.887   0.132   1.959 -1.3094  0.3485  1.4045
 8174SOL     OW36157   1.376   0.762  17.018  0.1014  0.5026  0.4433
 8174SOL    HW136158   1.403   0.726  17.102 -0.0437 -0.8717 -0.1053
 8174SOL    HW236159   1.283   0.737  17.018  0.2706 -0.1364  2.0198
 8175SOL     OW36160   4.656   0.433  17.652  0.3816  0.0073  0.1052
 8175SOL    HW136161   0.009   0.437  17.678  0.3486 -0.8097  0.3605
 8175SOL    HW236162   4.663   0.432  17.556 -0.5353 -0.9735  0.0442
 8176SOL     OW36163   3.797   1.554   1.925  0.3013  0.3869 -0.1647
 8176SOL    HW136164   3.736   1.486   1.952 -0.6597  1.1163 -0.5167
 8176SOL    HW236165   3.756   1.625   1.975  1.7059  0.2591  1.1750
 8177SOL     OW36166   4.555   1.983   5.071  0.1083 -0.0502  0.1502
 8177SOL    HW136167   4.523   1.943   4.990 -2.2765  0.5125  0.8104
 8177SOL    HW236168   4.570   2.068   5.031 -0.1219 -0.4593 -0.7906
 8178SOL     OW36169   4.263   2.309   4.399  0.3692 -0.2331  0.5209
 8178SOL    HW136170   4.340   2.253   4.394  1.4658  1.1533  1.7706
 8178SOL    HW236171   4.211   2.249   4.451  1.8735  0.7401  3.1782
 8179SOL     OW36172   3.412   2.591   8.011 -0.3415 -0.1388 -0.2364
 8179SOL    HW136173   3.471   2.665   7.996 -0.0499 -0.5175 -0.9044
 8179SOL    HW236174   3.366   2.575   7.929 -1.4488 -0.1225  0.3771
 8180SOL     OW36175   1.731   2.086   5.341  0.2441 -0.0234  0.5351
 8180SOL    HW136176   1.656   2.102   5.284 -0.7393 -0.7035  1.6316
 8180SOL    HW236177   1.766   2.176   5.336  0.2827 -0.0306  0.6602
 8181SOL     OW36178   4.234   1.949   7.879  0.6122 -0.6158  0.0494
 8181SOL    HW136179   4.217   1.988   7.964 -3.0701 -0.9198 -0.5712
 8181SOL    HW236180   4.143   1.946   7.851  0.5724 -1.8436  0.3236
 8182SOL     OW36181   1.768   2.898   8.229 -0.4850  0.6927  0.2883
 8182SOL    HW136182   1.761   2.827   8.164  3.2393  1.7303 -1.2636
 8182SOL    HW236183   1.678   2.930   8.236 -0.0115  2.0893 -0.0542
 8183SOL     OW36184   0.895   1.496   4.642 -0.2131 -0.2472  0.0478
 8183SOL    HW136185   0.808   1.461   4.618 -0.0799  0.6587 -1.7760
 8183SOL    HW236186   0.929   1.518   4.555  0.0579 -0.1732  0.1758
 8184SOL     OW36187   1.618   1.194  14.559 -0.1743 -0.8382 -0.3604
 8184SOL    HW136188   1.664   1.198  14.644  3.7203 -0.8388 -2.4503
 8184SOL    HW236189   1.645   1.106  14.531 -1.3319 -0.5681 -2.3022
 8185SOL     OW36190   3.802   1.941   2.447 -0.1812 -0.2805 -0.4350
 8185SOL    HW136191   3.862   1.940   2.372  1.1653  1.2951  0.6409
 8185SOL    HW236192   3.718   1.921   2.406 -0.8554  1.6787  0.0388
 8186SOL     OW36193   3.996   1.969   2.659  0.0811 -0.3919 -0.0829
 8186SOL    HW136194   3.924   1.963   2.596  0.7456 -2.4090 -0.6604
 8186SOL    HW236195   4.057   2.022   2.609  0.9863 -0.2255  1.2054
 8187SOL     OW36196   0.146   0.046  10.485  0.0800 -0.1213  0.2283
 8187SOL    HW136197   0.120   0.101  10.559 -1.2179 -1.6523  0.9196
 8187SOL    HW236198   0.187   0.113  10.431 -0.1681  1.3276  1.8495
 8188SOL     OW36199   0.620   0.501  14.184 -0.3810 -0.1486 -0.0178
 8188SOL    HW136200   0.576   0.429  14.230 -2.1672 -1.3009 -3.5540
 8188SOL    HW236201   0.710   0.485  14.210  0.0710  0.8111 -0.9965
 8189SOL     OW36202   3.133   0.842  10.032 -0.5899  0.1711 -0.3725
 8189SOL    HW136203   3.110   0.817  10.122  0.9212  0.3986  0.0762
 8189SOL    HW236204   3.093   0.927  10.017 -0.1411  0.7499  1.7404
 8190SOL     OW36205   0.164   3.518   6.781 -0.4407 -0.0877  0.5573
 8190SOL    HW136206   0.179   3.594   6.725  0.9626 -2.9145 -2.8724
 8190SOL    HW236207   0.072   3.503   6.761 -0.5534  0.3065  0.7680
 8191SOL     OW36208   4.015   3.145   3.451  0.3075 -0.2070 -0.4577
 8191SOL    HW136209   3.922   3.169   3.458  0.5026  0.9709 -1.7695
 8191SOL    HW236210   4.030   3.150   3.545 -1.6141  0.2935 -0.1703
 8192SOL     OW36211   4.174   3.362   1.472 -0.0688  0.2675  0.0514
 8192SOL    HW136212   4.258   3.316   1.468  0.9606  2.2601 -1.1979
 8192SOL    HW236213   4.185   3.426   1.402 -0.4729 -1.4301 -1.5713
 8193SOL     OW36214   0.601   2.123   5.686 -0.0281  0.4307  0.1293
 8193SOL    HW136215   0.593   2.080   5.771 -0.5673  2.5076  1.1307
 8193SOL    HW236216   0.690   2.157   5.693  0.3471 -0.4741 -0.3522
 8194SOL     OW36217   3.745   1.358  10.569 -0.6920  0.2390  0.5808
 8194SOL    HW136218   3.810   1.428  10.556 -1.3935  0.8062  0.1001
 8194SOL    HW236219   3.793   1.280  10.541  0.5037  0.2930  2.4753
 8195SOL     OW36220   1.215   0.592  14.740  0.9050  0.4264 -0.4878
 8195SOL    HW136221   1.257   0.668  14.782  1.3599  0.4490 -0.9848
 8195SOL    HW236222   1.249   0.519  14.791 -1.9681 -1.2615 -1.0177
 8196SOL     OW36223   3.150   4.537   7.750  0.1198  0.1687  0.5129
 8196SOL    HW136224   3.197   4.527   7.667  1.4769 -2.1864  1.5736
 8196SOL    HW236225   3.066   4.492   7.736  0.0620  0.6552 -0.7232
 8197SOL     OW36226   2.432   3.254   9.814 -0.1001  0.4716  0.2232
 8197SOL    HW136227   2.525   3.276   9.811  0.3930 -1.2653  3.2617
 8197SOL    HW236228   2.429   3.159   9.803 -1.3664  0.4610  0.6775
 8198SOL     OW36229   1.153   3.889  10.977 -0.3254  0.2541 -0.1942
 8198SOL    HW136230   1.100   3.955  10.931  0.0490  0.3666 -0.4658
 8198SOL    HW236231   1.146   3.919  11.068  2.0431  4.0654 -1.2701
 8199SOL     OW36232   0.482   3.868   9.829 -0.3483  0.5847 -0.0168
 8199SOL    HW136233   0.469   3.924   9.752  0.4551  1.1515  0.2527
 8199SOL    HW236234   0.438   3.918   9.898 -0.0883 -1.0524  1.3406
 8200SOL     OW36235   2.903   3.255   7.323  0.0482 -0.0010 -0.5217
 8200SOL    HW136236   2.966   3.292   7.385 -0.0544 -3.0241  1.3708
 8200SOL    HW236237   2.944   3.171   7.301  0.6742  0.2135 -0.1739
 8201SOL     OW36238   2.154   4.715   5.212 -0.4883  0.0113  0.0715
 8201SOL    HW136239   2.096   0.013   5.147  0.7785  1.5951 -0.1520
 8201SOL    HW236240   2.108   4.730   5.295  0.2994 -0.6188  0.6242
 8202SOL     OW36241   4.214   2.798   8.366 -0.3531 -0.4105 -0.0178
 8202SOL    HW136242   4.214   2.726   8.304 -2.1834  0.6658 -1.2740
 8202SOL    HW236243   4.186   2.870   8.309  0.2859  2.0992  2.8087
 8203SOL     OW36244   0.035   2.295   7.988  0.4529  0.1821 -0.0002
 8203SOL    HW136245   0.116   2.244   7.994  0.3034 -0.1522 -0.7481
 8203SOL    HW236246   0.042   2.308   7.893 -1.5425 -0.6305 -0.2499
 8204SOL     OW36247   3.298   1.212  14.873  0.4219  0.1452  0.4263
 8204SOL    HW136248   3.226   1.184  14.929  1.0346 -0.3646  0.9680
 8204SOL    HW236249   3.360   1.143  14.900  1.1541  0.4371 -0.4875
 8205SOL     OW36250   0.024   4.232   3.013 -0.2409 -0.1074  0.4388
 8205SOL    HW136251   0.015   4.224   2.918  1.5570  3.7900 -0.0685
 8205SOL    HW236252   4.683   4.183   3.034 -1.5034  1.8546  0.2620
 8206SOL     OW36253   4.305   1.386   3.145  0.0854  0.1245 -0.2360
 8206SOL    HW136254   4.318   1.293   3.163  0.0555 -0.2847 -2.3478
 8206SOL    HW236255   4.249   1.390   3.067 -1.7422  0.8706  1.1310
 8207SOL     OW36256   1.759   2.857   7.251 -0.5677  0.0887 -0.0076
 8207SOL    HW136257   1.806   2.847   7.169 -0.2607  0.8191  0.0776
 8207SOL    HW236258   1.693   2.923   7.229 -2.4285 -1.9143 -0.4481
 8208SOL     OW36259   2.561   4.525   5.371 -0.2546  0.2690  0.2835
 8208SOL    HW136260   2.627   4.578   5.327 -0.0809 -0.1801 -0.0009
 8208SOL    HW236261   2.608   4.458   5.420  0.1047 -0.5634 -1.1799
 8209SOL     OW36262   0.682   0.359   2.072  1.4540 -0.5545  0.0402
 8209SOL    HW136263   0.676   0.451   2.097 -0.7248 -1.2354  1.9538
 8209SOL    HW236264   0.655   0.362   1.980  0.2040 -2.4884  0.3442
 8210SOL     OW36265   0.863   2.875   7.336 -0.7432  0.2633  0.1576
 8210SOL    HW136266   0.942   2.831   7.365  0.2605  0.8893 -1.6131
 8210SOL    HW236267   0.805   2.800   7.345  0.8227 -1.3027 -2.7678
 8211SOL     OW36268   4.447   3.653  12.671 -0.6742  0.0210  0.0018
 8211SOL    HW136269   4.440   3.627  12.579 -2.7164  1.7345 -0.3238
 8211SOL    HW236270   4.360   3.685  12.694 -1.5022 -2.3961  0.2806
 8212SOL     OW36271   1.035   2.663  11.156  0.4514 -0.0814  0.1737
 8212SOL    HW136272   1.116   2.637  11.112  2.2030  1.2662  2.5998
 8212SOL    HW236273   0.966   2.614  11.111  1.4348 -0.9834 -0.3483
 8213SOL     OW36274   2.802   0.109   5.417 -0.0995 -0.2574  0.6335
 8213SOL    HW136275   2.733   0.130   5.481 -0.3092  2.3177 -0.4259
 8213SOL    HW236276   2.765   0.046   5.355  1.2056 -0.4516  0.0505
 8214SOL     OW36277   0.648   0.525  14.747 -0.3652  0.1696 -0.1991
 8214SOL    HW136278   0.681   0.455  14.803 -1.2553  0.8416  1.1647
 8214SOL    HW236279   0.699   0.502  14.669  0.8890 -1.0245  0.9854
 8215SOL     OW36280   0.021   2.435   4.874  0.0465  0.5457 -0.0476
 8215SOL    HW136281   0.088   2.385   4.827 -1.0684  0.6250 -1.7002
 8215SOL    HW236282   4.692   2.421   4.808  1.5645 -0.2707 -1.4152
 8216SOL     OW36283   1.729   3.839   3.462 -0.1964  0.5778  0.1331
 8216SOL    HW136284   1.788   3.782   3.414  0.2211  1.4227 -0.3596
 8216SOL    HW236285   1.646   3.839   3.415 -0.1154  2.1588 -0.0345
 8217SOL     OW36286   0.218   2.622  11.205  0.2589 -0.2758  0.1915
 8217SOL    HW136287   0.299   2.574  11.187 -0.0714 -0.1452 -1.5974
 8217SOL    HW236288   0.217   2.636  11.300 -2.4371  1.1485 -0.0477
 8218SOL     OW36289   3.862   1.293   1.000 -0.6318  0.6268 -0.1707
 8218SOL    HW136290   3.868   1.250   0.915 -0.4752 -0.8246  0.5825
 8218SOL    HW236291   3.781   1.344   0.993  0.4954  2.2519 -1.3408
 8219SOL     OW36292   4.316   0.078   3.154  0.0859  0.3900 -0.5430
 8219SOL    HW136293   4.302   0.123   3.070 -0.4177  0.9947 -0.1298
 8219SOL    HW236294   4.319   4.727   3.122 -1.0947  0.2513 -0.2352
 8220SOL     OW36295   0.998   0.270  15.060  0.1406  0.1574 -0.3649
 8220SOL    HW136296   1.050   0.347  15.082 -1.9223  1.3875  0.2410
 8220SOL    HW236297   0.914   0.312  15.037 -0.2464 -0.4441 -0.0470
 8221SOL     OW36298   2.123   1.005   2.715  0.0613 -0.0250  0.4033
 8221SOL    HW136299   2.116   1.025   2.808 -2.7697 -1.6724  0.5585
 8221SOL    HW236300   2.126   0.910   2.715  2.7453  0.0592  1.0315
 8222SOL     OW36301   2.780   0.091  14.909 -0.1671  0.1781 -0.3082
 8222SOL    HW136302   2.844   0.022  14.889  0.1760  0.6394 -0.7918
 8222SOL    HW236303   2.804   0.151  14.838  2.7401 -0.6504 -0.0174
 8223SOL     OW36304   3.888   2.564   2.010  0.1120  0.0021 -0.0193
 8223SOL    HW136305   3.900   2.479   2.052  1.2317 -0.3388 -1.0244
 8223SOL    HW236306   3.797   2.592   2.025 -1.5318 -3.2133 -3.8470
 8224SOL     OW36307   4.125   3.005   2.131 -0.0719  0.0263 -0.5814
 8224SOL    HW136308   4.053   3.058   2.099  0.5370  1.0571 -0.2479
 8224SOL    HW236309   4.162   3.069   2.192  2.4946 -1.0870 -0.9492
 8225SOL     OW36310   3.102   4.641   1.744  0.2022  0.0358  0.5243
 8225SOL    HW136311   3.178   4.601   1.703  0.6791 -0.7367  2.1326
 8225SOL    HW236312   3.020   4.618   1.699  1.1721  1.5392 -2.0140
 8226SOL     OW36313   4.417   0.638   5.416 -1.1323  0.1330  0.1241
 8226SOL    HW136314   4.346   0.702   5.405 -2.7387 -1.7302 -0.4070
 8226SOL    HW236315   4.470   0.672   5.488  0.3661  1.8499 -1.8015
 8227SOL     OW36316   1.194   3.426   9.057 -0.4613 -0.0139  0.3539
 8227SOL    HW136317   1.235   3.385   8.981 -1.4018  1.9787 -1.2255
 8227SOL    HW236318   1.227   3.515   9.069 -0.1636  0.0315 -0.7974
 8228SOL     OW36319   0.989   0.587  15.828 -0.0085 -0.4318 -0.2833
 8228SOL    HW136320   0.928   0.602  15.756  0.2624 -0.0807 -0.4382
 8228SOL    HW236321   0.946   0.530  15.892 -3.1546 -0.4866 -2.4096
 8229SOL     OW36322   3.689   3.939   6.701 -0.1462  0.5369  0.5852
 8229SOL    HW136323   3.751   4.012   6.697 -0.5731  0.8420 -0.4100
 8229SOL    HW236324   3.620   3.980   6.753 -0.8203  0.6019 -0.3584
 8230SOL     OW36325   4.532   2.177   3.736  0.0760  0.0604 -0.1144
 8230SOL    HW136326   4.499   2.259   3.699 -0.7304  0.2137  0.9643
 8230SOL    HW236327   4.551   2.186   3.829  0.3980 -0.7681 -0.1037
 8231SOL     OW36328   1.854   2.905   5.189  0.1132  0.4041 -0.6807
 8231SOL    HW136329   1.893   2.990   5.207  0.9187 -0.2270  0.5299
 8231SOL    HW236330   1.905   2.846   5.245 -1.8781  0.2899  1.0010
 8232SOL     OW36331   3.706   2.314  10.792 -0.0579 -1.0730  0.0490
 8232SOL    HW136332   3.742   2.243  10.739 -1.6851  0.4363 -3.0763
 8232SOL    HW236333   3.734   2.284  10.879 -2.3181 -0.0605  1.1244
 8233SOL     OW36334   1.231   3.461  13.573  0.1519  0.0004  0.7691
 8233SOL    HW136335   1.168   3.526  13.602  1.0643  0.3929  1.8987
 8233SOL    HW236336   1.176   3.406  13.517 -0.8961  2.0626 -0.2162
 8234SOL     OW36337   4.074   2.083   6.692  0.6497 -0.4391 -0.1177
 8234SOL    HW136338   4.000   2.083   6.753  0.4913  0.6776 -0.3048
 8234SOL    HW236339   4.026   2.114   6.616  2.7109  3.0047 -0.0550
 8235SOL     OW36340   1.396   1.733   2.633 -0.3973 -0.5128 -0.6356
 8235SOL    HW136341   1.394   1.827   2.616  0.7207 -0.7318 -1.9753
 8235SOL    HW236342   1.304   1.723   2.656 -1.0966  0.9998 -2.8303
 8236SOL     OW36343   4.405   3.376  17.315  0.1900  0.5373  0.0119
 8236SOL    HW136344   4.458   3.384  17.235 -0.4771  1.0139 -0.3844
 8236SOL    HW236345   4.467   3.334  17.374  0.3864 -0.0690 -0.6246
 8237SOL     OW36346   4.511   4.550   9.038  0.6046 -0.2518 -0.0627
 8237SOL    HW136347   4.541   4.601   9.113 -1.5331  1.2177 -0.2012
 8237SOL    HW236348   4.419   4.553   9.063  0.5426 -0.4026 -0.2711
 8238SOL     OW36349   3.279   2.077   7.703  0.4035  0.3874  0.4166
 8238SOL    HW136350   3.336   2.128   7.761 -2.0969  1.7011  1.7203
 8238SOL    HW236351   3.276   2.140   7.632 -0.7951 -0.1815 -0.0309
 8239SOL     OW36352   3.311   0.769  14.683  0.3928  0.5046 -0.5914
 8239SOL    HW136353   3.310   0.794  14.775 -2.6291  0.1666 -0.5307
 8239SOL    HW236354   3.236   0.710  14.676  0.2604  0.4497  1.1610
 8240SOL     OW36355   0.638   0.633  15.056  0.1922 -0.0600 -0.4727
 8240SOL    HW136356   0.640   0.669  15.145  0.8256 -1.5791  0.1372
 8240SOL    HW236357   0.573   0.688  15.014  0.7387  0.3641 -0.7634
 8241SOL     OW36358   3.042   2.752   1.219  0.4273  0.0144 -0.0886
 8241SOL    HW136359   3.063   2.827   1.164  0.6875  0.6949  0.9264
 8241SOL    HW236360   3.001   2.690   1.159  0.2240  0.2502 -0.1914
 8242SOL     OW36361   4.062   3.269   1.143 -0.3415  0.1504 -0.1408
 8242SOL    HW136362   4.085   3.317   1.063 -1.2093 -0.2316 -0.6163
 8242SOL    HW236363   4.150   3.261   1.180 -1.2186 -0.3830  1.8272
 8243SOL     OW36364   2.656   2.401  16.491 -0.0602 -0.3893  0.8470
 8243SOL    HW136365   2.642   2.444  16.407 -4.4891  0.1368  1.8057
 8243SOL    HW236366   2.646   2.470  16.556  0.9775  1.4833 -1.0112
 8244SOL     OW36367   3.993   3.988   8.993 -0.7518 -0.0719 -0.0006
 8244SOL    HW136368   3.927   4.008   8.927 -0.7640  1.0584  0.3515
 8244SOL    HW236369   4.070   3.984   8.937 -0.2210 -1.0659  0.7918
 8245SOL     OW36370   4.723   4.209   4.009  0.0402 -0.1812  0.0595
 8245SOL    HW136371   4.660   4.230   3.940  0.3024 -1.3429 -0.5279
 8245SOL    HW236372   0.060   4.210   3.951 -0.5355 -1.2784 -0.7017
 8246SOL     OW36373   2.635   4.583   1.625 -0.3911  0.4964 -0.0507
 8246SOL    HW136374   2.608   4.641   1.696  0.6515  3.3976 -2.0318
 8246SOL    HW236375   2.577   4.510   1.645  0.1898 -0.5411 -2.1143
 8247SOL     OW36376   0.392   4.189   5.611 -0.5919 -0.0549  0.0695
 8247SOL    HW136377   0.409   4.270   5.563 -1.4506 -0.1510 -0.4016
 8247SOL    HW236378   0.313   4.166   5.563  0.9392 -1.7876 -1.6184
 8248SOL     OW36379   4.311   4.724   8.085 -0.3998  0.6863  0.2033
 8248SOL    HW136380   4.256   0.043   8.138 -1.4440 -1.3810  1.3387
 8248SOL    HW236381   4.262   4.643   8.093 -0.0607  0.3618 -0.9250
 8249SOL     OW36382   3.207   0.431   5.285  0.7736  0.6767 -0.1570
 8249SOL    HW136383   3.122   0.387   5.277  1.0308  0.2493 -0.5112
 8249SOL    HW236384   3.172   0.513   5.321  0.9545 -0.0936  1.8031
 8250SOL     OW36385   2.063   2.328   4.202  0.4795 -0.3032  0.6071
 8250SOL    HW136386   2.140   2.365   4.158  0.4429 -0.4075  0.4527
 8250SOL    HW236387   2.083   2.238   4.226 -0.3029  0.1571  3.0000
 8251SOL     OW36388   2.967   2.104   8.802  0.0745 -0.1525  0.3678
 8251SOL    HW136389   2.989   2.064   8.886 -0.2171 -0.2990  0.3748
 8251SOL    HW236390   2.936   2.030   8.751 -0.2603  1.5418 -1.8898
 8252SOL     OW36391   4.597   3.819  16.326  0.3058 -0.7245 -0.6509
 8252SOL    HW136392   4.575   3.750  16.388 -2.2094  0.6525 -0.0323
 8252SOL    HW236393   4.678   3.856  16.362  0.1599 -0.0291 -1.0250
 8253SOL     OW36394   2.510   2.034   6.079 -0.0030 -0.4845 -0.1429
 8253SOL    HW136395   2.472   2.115   6.045 -2.4536 -0.5831  2.3823
 8253SOL    HW236396   2.523   1.979   6.001 -1.3805 -0.5961 -0.2919
 8254SOL     OW36397   2.657   3.050   6.218 -0.0764 -0.0654 -0.2786
 8254SOL    HW136398   2.711   3.014   6.148  1.6870  0.0364  1.0088
 8254SOL    HW236399   2.636   3.136   6.183  1.2789  1.2187  2.0271
 8255SOL     OW36400   2.440   0.126   3.378  0.9388 -0.4960 -0.0972
 8255SOL    HW136401   2.451   0.034   3.355  1.2947  0.6858 -4.8054
 8255SOL    HW236402   2.527   0.148   3.410  1.2582 -3.9171  1.3082
 8256SOL     OW36403   2.002   3.385   7.671 -0.6118 -0.4347  0.2827
 8256SOL    HW136404   1.912   3.412   7.689 -0.4256  0.8337 -0.7900
 8256SOL    HW236405   2.004   3.316   7.738 -0.0225 -0.3125  0.3875
 8257SOL     OW36406   1.598   1.066   8.095  0.0018  0.0292  0.6043
 8257SOL    HW136407   1.635   1.058   8.008  0.5886 -0.4033  0.8960
 8257SOL    HW236408   1.506   1.061   8.068 -0.0875 -0.3536  0.9719
 8258SOL     OW36409   0.846   4.590   5.183  0.2014  0.8886 -0.2162
 8258SOL    HW136410   0.824   4.500   5.157 -1.4394  0.8174  1.4381
 8258SOL    HW236411   0.792   4.639   5.121 -0.1687 -0.9285 -1.3323
 8259SOL     OW36412   1.028   4.371   7.532  0.3576  0.3150 -0.0251
 8259SOL    HW136413   0.943   4.376   7.490  0.1446  0.1776  0.3927
 8259SOL    HW236414   1.025   4.298   7.594 -0.4194  1.6405  1.4777
 8260SOL     OW36415   1.020   0.487  10.985  0.2078 -0.2300  0.0898
 8260SOL    HW136416   1.047   0.430  11.057  0.2184 -0.3072  0.0245
 8260SOL    HW236417   1.102   0.516  10.944 -1.4593  2.4003 -1.3588
 8261SOL     OW36418   1.770   1.534  10.499 -0.0500 -0.4695 -0.1734
 8261SOL    HW136419   1.737   1.580  10.576  2.1479 -0.5214  0.7792
 8261SOL    HW236420   1.777   1.445  10.532 -0.6499 -0.5872 -0.3596
 8262SOL     OW36421   0.214   0.207   1.811  0.5894 -0.1504  0.0692
 8262SOL    HW136422   0.259   0.213   1.895  3.0991  1.6781 -1.4329
 8262SOL    HW236423   0.245   0.284   1.764 -2.2428  1.5159  0.9283
 8263SOL     OW36424   2.718   2.878   2.519 -0.0966  0.1264 -0.4306
 8263SOL    HW136425   2.637   2.841   2.485  0.4907 -0.5503 -1.0981
 8263SOL    HW236426   2.768   2.799   2.541  0.7018  1.2047  1.6634
 8264SOL     OW36427   1.665   1.546   9.592 -0.1915 -0.1169  0.0669
 8264SOL    HW136428   1.744   1.585   9.629 -1.0293  1.4880  0.1626
 8264SOL    HW236429   1.590   1.590   9.631  0.0292  0.3278 -0.0202
 8265SOL     OW36430   2.952   2.865   0.963  0.4118  0.0958 -0.3689
 8265SOL    HW136431   2.874   2.811   0.980  1.1679 -0.3091  1.8577
 8265SOL    HW236432   3.022   2.800   0.962  0.8496  0.5932 -1.2272
 8266SOL     OW36433   3.591   1.674  16.625 -0.1789  0.1041 -0.0465
 8266SOL    HW136434   3.504   1.713  16.628 -1.6555 -3.0953 -0.7866
 8266SOL    HW236435   3.648   1.746  16.651  1.1556 -1.3000  0.9542
 8267SOL     OW36436   3.607   1.469   7.453  0.3864  0.7179  0.1959
 8267SOL    HW136437   3.630   1.384   7.491  1.6765  1.0424  0.1396
 8267SOL    HW236438   3.569   1.439   7.370  0.3439 -0.5971  0.6912
 8268SOL     OW36439   4.081   0.693   0.537  0.0725 -0.5844  0.4417
 8268SOL    HW136440   4.160   0.691   0.591  2.4811 -1.2012 -3.1835
 8268SOL    HW236441   4.107   0.745   0.461  3.1731 -2.9406 -0.0823
 8269SOL     OW36442   2.340   0.598   8.210  0.0455 -0.4309  0.5984
 8269SOL    HW136443   2.278   0.533   8.177  2.3649 -2.2573 -0.1751
 8269SOL    HW236444   2.376   0.550   8.285  0.9388 -1.8648 -0.7537
 8270SOL     OW36445   1.357   2.619   8.492 -0.2608  0.4157  0.1048
 8270SOL    HW136446   1.363   2.588   8.583  1.6674  1.1501  0.2228
 8270SOL    HW236447   1.279   2.576   8.457  1.2357 -1.7808 -0.4922
 8271SOL     OW36448   2.296   4.352   2.006 -0.4483  0.1610  0.2822
 8271SOL    HW136449   2.348   4.304   1.942  1.5157  3.4500 -0.5726
 8271SOL    HW236450   2.316   4.439   1.974  0.6797 -0.0090  0.5136
 8272SOL     OW36451   1.905   0.983   2.487 -0.2498  0.3957  0.2849
 8272SOL    HW136452   1.946   1.066   2.510  0.5217  0.1679 -0.2519
 8272SOL    HW236453   1.869   0.966   2.574  0.1393 -0.4828  0.2800
 8273SOL     OW36454   0.323   4.306  15.440  0.4341  0.0229 -0.1852
 8273SOL    HW136455   0.308   4.393  15.403 -1.1276 -0.1505  0.0567
 8273SOL    HW236456   0.418   4.310  15.455  0.5934 -0.9078 -0.9829
 8274SOL     OW36457   2.242   0.339   3.347  0.0599  0.0615  0.0193
 8274SOL    HW136458   2.309   0.271   3.342  0.1388  0.1788 -0.5644
 8274SOL    HW236459   2.273   0.376   3.430 -1.7358 -1.1395  1.2158
 8275SOL     OW36460   4.005   2.368  12.099 -0.0767 -0.2376  0.2396
 8275SOL    HW136461   3.954   2.444  12.072  1.9904  0.3588 -1.9572
 8275SOL    HW236462   3.997   2.385  12.193  1.2421 -2.1751  0.6935
 8276SOL     OW36463   3.360   1.841   2.162  0.3584 -0.0273  0.8165
 8276SOL    HW136464   3.367   1.907   2.093 -3.3531  1.0119  1.4332
 8276SOL    HW236465   3.266   1.822   2.162  0.1490  0.9740  0.8225
 8277SOL     OW36466   1.672   1.456  17.244  0.3221 -0.1091  0.1741
 8277SOL    HW136467   1.699   1.406  17.322  1.9369 -0.4693 -0.6096
 8277SOL    HW236468   1.760   1.463  17.207 -0.2603 -0.9372 -1.3491
 8278SOL     OW36469   4.064   4.271   7.939 -0.4851  0.6011 -0.1855
 8278SOL    HW136470   4.031   4.207   7.877  0.0550  1.7514 -1.6582
 8278SOL    HW236471   4.150   4.232   7.955 -2.2098 -2.5297  1.3657
 8279SOL     OW36472   1.615   1.334   2.141 -0.5739 -0.8017  0.2294
 8279SOL    HW136473   1.615   1.421   2.182  1.6867 -0.8656  0.3796
 8279SOL    HW236474   1.621   1.348   2.046  0.4228 -1.7799  0.1431
 8280SOL     OW36475   3.034   4.282   2.570 -0.3573 -0.0416 -0.0492
 8280SOL    HW136476   2.966   4.259   2.633  0.2382 -0.6757  0.3571
 8280SOL    HW236477   3.052   4.194   2.537  0.8483 -0.0663  0.6841
 8281SOL     OW36478   1.900   2.268   8.258  0.1787 -0.3585 -0.4870
 8281SOL    HW136479   1.972   2.284   8.197  0.7881 -2.0133 -0.2080
 8281SOL    HW236480   1.821   2.249   8.207  0.7527 -1.7478 -0.8696
 8282SOL     OW36481   0.984   0.520  16.329 -0.4343 -0.5073  0.0068
 8282SOL    HW136482   0.963   0.584  16.261 -0.9715 -1.4261 -0.6951
 8282SOL    HW236483   1.057   0.474  16.288  0.7831 -0.7781  2.4609
 8283SOL     OW36484   1.340   2.955   6.038  0.5405 -0.5083 -0.1889
 8283SOL    HW136485   1.430   2.955   6.071  0.4320 -0.5140  0.1152
 8283SOL    HW236486   1.291   2.908   6.105  0.6708 -1.0982 -0.5127
 8284SOL     OW36487   1.704   1.420  11.749 -0.0410 -0.7513 -0.4089
 8284SOL    HW136488   1.681   1.509  11.775  0.3760 -0.4709 -1.0034
 8284SOL    HW236489   1.667   1.383  11.829 -0.2575 -0.0810 -0.2017
 8285SOL     OW36490   3.693   1.752  12.714 -0.4956  0.0462  0.2534
 8285SOL    HW136491   3.623   1.726  12.654  0.5297 -1.6986 -0.1790
 8285SOL    HW236492   3.699   1.676  12.771 -0.9446 -1.5873 -1.8924
 8286SOL     OW36493   3.168   2.594   9.227 -0.2256  0.1694  0.1098
 8286SOL    HW136494   3.201   2.571   9.314  1.7330  0.3393 -0.5870
 8286SOL    HW236495   3.203   2.521   9.177 -0.2558 -0.1082  0.5025
 8287SOL     OW36496   3.572   0.676   3.974 -0.4669  0.2185 -0.6140
 8287SOL    HW136497   3.587   0.582   3.968 -4.3085 -0.5247  1.7780
 8287SOL    HW236498   3.514   0.678   4.050 -0.9029  2.3036 -0.9929
 8288SOL     OW36499   0.875   4.406   6.627  0.0406 -0.0461 -0.2932
 8288SOL    HW136500   0.930   4.468   6.579 -1.5619  1.4761 -0.1658
 8288SOL    HW236501   0.935   4.331   6.628 -1.8850 -1.5877 -1.4424
 8289SOL     OW36502   4.477   0.967   6.129  0.2474  0.4673 -0.0296
 8289SOL    HW136503   4.474   1.033   6.199 -1.6542  0.4698 -0.1093
 8289SOL    HW236504   4.527   1.009   6.059  0.9294 -0.8845 -0.3366
 8290SOL     OW36505   1.014   0.354   1.087 -0.2241  0.2866 -0.3355
 8290SOL    HW136506   1.038   0.406   1.010 -2.1462 -0.3299 -1.3285
 8290SOL    HW236507   1.030   0.415   1.160 -2.6325  0.0688  0.3687
 8291SOL     OW36508   2.221   3.826   8.132  0.0281 -0.1866  0.0450
 8291SOL    HW136509   2.169   3.784   8.064 -0.0957 -1.7223  1.0804
 8291SOL    HW236510   2.162   3.880   8.185  0.7632  2.0635 -1.4458
 8292SOL     OW36511   1.192   0.736   8.050  0.3105  0.1097  0.0092
 8292SOL    HW136512   1.156   0.809   8.101  0.1045  0.4341 -0.6013
 8292SOL    HW236513   1.158   0.656   8.089 -0.0272  0.6359  0.7977
 8293SOL     OW36514   3.107   0.845  11.301 -0.4994  0.8105  0.0872
 8293SOL    HW136515   3.061   0.900  11.363 -0.4846  1.0661 -0.1300
 8293SOL    HW236516   3.142   0.780  11.362 -0.7112  0.1121 -0.5247
 8294SOL     OW36517   2.286   2.858   8.686 -0.6019 -0.0816 -0.2425
 8294SOL    HW136518   2.313   2.950   8.688 -0.2641 -0.1816 -0.2262
 8294SOL    HW236519   2.251   2.849   8.597  1.7466  1.1955 -1.2752
 8295SOL     OW36520   1.704   0.041   3.225 -0.2959  0.1427 -0.7814
 8295SOL    HW136521   1.666   4.697   3.193  0.2994 -1.3665  2.4119
 8295SOL    HW236522   1.741   0.077   3.144 -0.4153  1.3856 -0.2657
 8296SOL     OW36523   0.483   1.588   4.271  0.1679  0.1512  0.1524
 8296SOL    HW136524   0.478   1.613   4.363 -1.2472  0.3192  0.0192
 8296SOL    HW236525   0.399   1.555   4.240 -0.5570  1.4258  0.7193
 8297SOL     OW36526   2.239   0.336   8.102 -0.0280  0.2293 -0.0876
 8297SOL    HW136527   2.323   0.295   8.120 -0.3708 -1.5066 -2.5381
 8297SOL    HW236528   2.223   0.291   8.019  0.1586 -0.8319  0.4394
 8298SOL     OW36529   0.754   3.538  16.190 -0.7859 -0.2878  0.4415
 8298SOL    HW136530   0.805   3.476  16.242 -1.1478 -0.1362  0.9707
 8298SOL    HW236531   0.768   3.501  16.103 -2.3871 -1.8246  0.8443
 8299SOL     OW36532   3.673   3.702   4.002 -0.4408 -0.4663 -0.1439
 8299SOL    HW136533   3.697   3.633   3.941  1.6231 -1.4730  1.8014
 8299SOL    HW236534   3.649   3.645   4.075 -0.2175 -1.9622 -1.2434
 8300SOL     OW36535   0.995   4.116  12.282 -0.0246  0.4540  0.3424
 8300SOL    HW136536   0.919   4.172  12.301 -0.3945  1.0546 -2.8486
 8300SOL    HW236537   1.057   4.184  12.256 -0.9041  1.2017  0.1966
 8301SOL     OW36538   4.433   3.366   6.826 -0.2923 -0.6838  0.2690
 8301SOL    HW136539   4.490   3.442   6.836 -1.6813  0.5796 -1.3376
 8301SOL    HW236540   4.417   3.374   6.732 -0.1874  1.2541  0.4052
 8302SOL     OW36541   0.681   1.376   4.311  0.3540  0.2559 -0.1002
 8302SOL    HW136542   0.670   1.350   4.219  1.4638  0.8998 -0.4242
 8302SOL    HW236543   0.642   1.464   4.305  2.4169  1.0324 -2.2522
 8303SOL     OW36544   4.009   1.660  15.006  0.3710 -0.0495  0.0791
 8303SOL    HW136545   4.047   1.577  14.976 -3.3553 -2.0107  0.7402
 8303SOL    HW236546   3.916   1.637  15.006  0.7149 -1.4409  2.3768
 8304SOL     OW36547   4.281   3.531   1.300  0.3839 -0.4338  0.3139
 8304SOL    HW136548   4.208   3.591   1.283 -0.7893 -1.1679  2.8178
 8304SOL    HW236549   4.340   3.597   1.338 -0.1503  1.0620 -1.4206
 8305SOL     OW36550   3.663   3.231   5.877  0.1587  0.8678 -0.2721
 8305SOL    HW136551   3.708   3.162   5.828  1.8538  2.0848 -0.4487
 8305SOL    HW236552   3.683   3.205   5.967 -2.2249 -1.0142 -0.2909
 8306SOL     OW36553   4.125   3.843   2.359  0.4918 -0.0765 -0.1846
 8306SOL    HW136554   4.188   3.905   2.397 -0.3166  0.6222  0.0371
 8306SOL    HW236555   4.172   3.760   2.364 -0.3088 -0.5378 -0.4336
 8307SOL     OW36556   1.843   0.938   0.849 -0.0027 -0.6142 -0.5030
 8307SOL    HW136557   1.845   0.873   0.779 -1.1483 -1.0291 -0.1434
 8307SOL    HW236558   1.904   0.999   0.806  0.9886 -0.7917  0.6604
 8308SOL     OW36559   4.100   4.667  10.242  0.6983  0.1562  0.6475
 8308SOL    HW136560   4.132   4.612  10.171  2.5700  0.3661  1.3474
 8308SOL    HW236561   4.177   4.722  10.256  3.1205 -2.8953 -0.6488
 8309SOL     OW36562   1.162   4.577   3.308  0.2562 -0.2997 -0.0814
 8309SOL    HW136563   1.204   4.566   3.223 -0.8382 -0.9770 -0.5393
 8309SOL    HW236564   1.168   4.669   3.331 -2.1104 -0.2522  0.3523
 8310SOL     OW36565   0.628   0.756   0.259 -0.1418 -0.0991 -0.2147
 8310SOL    HW136566   0.699   0.694   0.274  0.7368  0.9729 -0.0135
 8310SOL    HW236567   0.554   0.695   0.256 -0.4788  0.4493 -3.3592
 8311SOL     OW36568   1.034   0.584   1.578 -0.0495 -0.6920 -0.4208
 8311SOL    HW136569   0.961   0.645   1.568  0.0118 -0.7449 -1.2189
 8311SOL    HW236570   1.005   0.514   1.637 -1.1136  2.0095  2.2721
 8312SOL     OW36571   1.091   4.478  13.196  0.4768 -0.0527 -0.2513
 8312SOL    HW136572   1.136   4.411  13.247  0.0113  1.6535  2.3598
 8312SOL    HW236573   1.127   4.461  13.109 -0.6403 -2.9940 -0.1592
 8313SOL     OW36574   1.530   0.007  13.459 -0.5619 -0.2698 -0.4096
 8313SOL    HW136575   1.467   4.717  13.393 -2.1519  0.8799  0.6084
 8313SOL    HW236576   1.592   0.035  13.392  0.0220 -2.6994 -0.8816
 8314SOL     OW36577   0.240   0.127  10.199 -0.0622  0.2754 -0.6132
 8314SOL    HW136578   0.253   0.216  10.166 -1.6362  1.0662  0.8611
 8314SOL    HW236579   0.307   0.078  10.153  0.2405 -0.1709  0.2985
 8315SOL     OW36580   2.727   4.292   3.773 -0.2393  0.3615 -0.0900
 8315SOL    HW136581   2.730   4.237   3.851 -0.1027  0.3443 -0.1079
 8315SOL    HW236582   2.717   4.383   3.799  0.6766  0.9189 -1.6678
 8316SOL     OW36583   4.681   2.587  10.158 -0.0957  0.1633  0.2986
 8316SOL    HW136584   0.003   2.515  10.172  0.7532  0.7020 -0.6239
 8316SOL    HW236585   4.738   2.659  10.185 -0.4046  0.6244 -0.2825
 8317SOL     OW36586   4.244   0.800  12.666  0.1513 -0.0301 -0.2722
 8317SOL    HW136587   4.167   0.760  12.624  0.3140 -1.0542  0.3959
 8317SOL    HW236588   4.315   0.746  12.631  0.2145  0.4630 -0.8972
 8318SOL     OW36589   2.016   2.809   8.006  0.1229  0.3569  0.2818
 8318SOL    HW136590   1.922   2.793   7.993  0.0600  3.5600 -3.2582
 8318SOL    HW236591   2.035   2.835   7.915  0.1679  0.3277  0.2826
 8319SOL     OW36592   2.734   3.669   5.480  0.6505  0.3480  0.3305
 8319SOL    HW136593   2.776   3.670   5.565  1.4617  0.4503 -0.0755
 8319SOL    HW236594   2.755   3.582   5.447 -0.0772  0.6942 -1.0559
 8320SOL     OW36595   0.220   1.802   6.743  0.0464  0.1755 -0.1402
 8320SOL    HW136596   0.213   1.884   6.695 -2.2273  0.4854  0.7083
 8320SOL    HW236597   0.225   1.823   6.836 -2.0017  3.3149 -0.7328
 8321SOL     OW36598   3.958   0.701   5.830  0.4208  0.2286  0.0839
 8321SOL    HW136599   3.865   0.683   5.816  0.6810  0.7431 -2.1817
 8321SOL    HW236600   3.962   0.680   5.924  2.1773 -1.3690 -0.3376
 8322SOL     OW36601   1.679   0.727   4.475 -0.4394 -0.3340  0.3695
 8322SOL    HW136602   1.639   0.650   4.435 -0.8726  0.1000 -0.0253
 8322SOL    HW236603   1.772   0.713   4.455  0.1389  2.9967  0.6671
 8323SOL     OW36604   0.154   4.103   8.652  0.2169  0.1416  0.8092
 8323SOL    HW136605   0.109   4.050   8.717 -0.9286 -1.4237 -1.2618
 8323SOL    HW236606   0.118   4.071   8.570  0.4028 -0.7967  1.1008
 8324SOL     OW36607   1.207   0.006   7.829  0.1794  0.2796 -0.7682
 8324SOL    HW136608   1.260   0.081   7.856  0.1233 -0.3584  1.1099
 8324SOL    HW236609   1.220   0.014   7.734  0.2527  0.1447 -0.7704
 8325SOL     OW36610   3.458   1.787   3.969 -0.1005 -0.1499  0.4339
 8325SOL    HW136611   3.445   1.774   3.875  1.3027 -2.1233  0.4973
 8325SOL    HW236612   3.427   1.705   4.008 -2.9395  1.2106  0.9879
 8326SOL     OW36613   3.912   3.355   8.737 -0.3513 -0.0027 -0.1809
 8326SOL    HW136614   3.922   3.448   8.717  2.2158  0.2672  2.2468
 8326SOL    HW236615   3.862   3.327   8.660 -1.4903 -2.4913  1.4714
 8327SOL     OW36616   4.110   0.331  11.729 -0.3227 -0.0015  0.1321
 8327SOL    HW136617   4.034   0.273  11.716 -0.9131  0.8904 -0.3687
 8327SOL    HW236618   4.155   0.317  11.645 -0.4963  0.4973 -0.0419
 8328SOL     OW36619   0.455   3.371   0.231  0.0896  0.0449  0.2771
 8328SOL    HW136620   0.362   3.389   0.247  0.1493 -0.5736  1.3161
 8328SOL    HW236621   0.486   3.298   0.285  1.5388  0.3250 -0.1721
 8329SOL     OW36622   4.378   2.252   5.832 -0.6524 -0.1186  0.2760
 8329SOL    HW136623   4.423   2.311   5.892  1.4885 -2.7144  1.2048
 8329SOL    HW236624   4.420   2.166   5.839  1.3534  0.8323 -0.0458
 8330SOL     OW36625   2.386   3.521   3.013  0.2171 -0.0649 -0.1748
 8330SOL    HW136626   2.394   3.615   2.997 -0.2982  0.1274  0.6467
 8330SOL    HW236627   2.323   3.492   2.947  0.7197 -0.7130 -0.3761
 8331SOL     OW36628   4.102   4.285   5.670  0.5641 -0.2528 -0.0892
 8331SOL    HW136629   4.113   4.377   5.696 -0.9503 -0.1693  0.2339
 8331SOL    HW236630   4.033   4.262   5.732  1.2157  1.8071  1.4293
 8332SOL     OW36631   3.055   3.473   3.572 -0.1271  0.1422  0.1831
 8332SOL    HW136632   3.039   3.417   3.497 -0.6371  0.3496  0.1325
 8332SOL    HW236633   3.076   3.553   3.524  1.6015 -0.8418 -0.6564
 8333SOL     OW36634   2.424   1.957   5.310 -0.3123  0.1816 -0.5551
 8333SOL    HW136635   2.335   1.985   5.333 -0.1155 -0.6228  1.1537
 8333SOL    HW236636   2.418   1.861   5.314  2.3748  0.0924  1.1871
 8334SOL     OW36637   3.041   1.363   4.247 -0.8484 -0.2003  0.0733
 8334SOL    HW136638   3.052   1.412   4.329  0.1502 -0.0187 -0.1706
 8334SOL    HW236639   2.997   1.280   4.265  2.8892 -2.4355 -1.0575
 8335SOL     OW36640   0.227   4.670   6.913 -0.0822  0.3451  0.2138
 8335SOL    HW136641   0.266   4.666   7.001 -0.0701 -0.9929  0.1457
 8335SOL    HW236642   0.296   4.715   6.864 -0.0841  0.7311  0.5644
 8336SOL     OW36643   3.973   2.286   8.081  0.0498  0.2837 -0.1982
 8336SOL    HW136644   3.888   2.287   8.037 -0.0058 -0.1517 -0.0953
 8336SOL    HW236645   3.949   2.326   8.165  0.2427  2.4173 -1.1561
 8337SOL     OW36646   2.952   3.373   8.002  0.3350  0.0129 -0.3365
 8337SOL    HW136647   3.006   3.323   8.063  1.2343  0.3268 -0.8678
 8337SOL    HW236648   2.926   3.459   8.033  4.0765  0.1084  2.5748
 8338SOL     OW36649   1.037   3.290  13.444 -0.1340  0.0002  0.7536
 8338SOL    HW136650   1.036   3.249  13.530  2.4511 -2.2724 -0.2673
 8338SOL    HW236651   0.985   3.224  13.396 -0.5064  1.0451 -0.2789
 8339SOL     OW36652   3.470   2.766  17.236  0.2111  0.2761  0.2456
 8339SOL    HW136653   3.468   2.685  17.184  0.5605 -0.3022  1.1292
 8339SOL    HW236654   3.437   2.828  17.171  1.3777  1.1035  0.4499
 8340SOL     OW36655   0.827   2.211   5.371 -0.4691  0.1360  0.3290
 8340SOL    HW136656   0.858   2.215   5.461 -1.6489  1.5921  0.6709
 8340SOL    HW236657   0.750   2.268   5.376 -1.6604 -1.3231 -1.2962
 8341SOL     OW36658   3.818   1.399  14.518 -0.2175 -0.1338  0.1852
 8341SOL    HW136659   3.729   1.400  14.482 -0.0097  0.7187 -0.3262
 8341SOL    HW236660   3.869   1.366  14.444  0.6682  0.6903  0.4207
 8342SOL     OW36661   1.701   1.454  12.317  0.3224  0.2755 -0.1036
 8342SOL    HW136662   1.624   1.398  12.307 -1.5376  2.7626  0.3286
 8342SOL    HW236663   1.715   1.437  12.410 -0.9779 -0.7023 -0.0849
 8343SOL     OW36664   1.360   2.389   1.708 -0.1391  0.2279  0.1372
 8343SOL    HW136665   1.315   2.310   1.679  0.8287 -0.6520  1.0282
 8343SOL    HW236666   1.388   2.341   1.786 -1.4091 -0.9857 -0.1555
 8344SOL     OW36667   0.051   2.856   2.652 -0.1393  0.0107 -0.6385
 8344SOL    HW136668   4.702   2.821   2.638  0.0247 -0.8574  0.5973
 8344SOL    HW236669   0.097   2.808   2.583 -2.1915 -0.9278 -1.3363
 8345SOL     OW36670   2.851   0.847   5.479  0.2894 -0.1541  0.1442
 8345SOL    HW136671   2.797   0.798   5.541 -0.1594  0.1104 -0.0386
 8345SOL    HW236672   2.937   0.821   5.515 -0.0597 -0.9797  0.3872
 8346SOL     OW36673   3.202   3.113   2.153 -0.0805  0.0972 -0.0843
 8346SOL    HW136674   3.280   3.107   2.208 -1.2238  1.3938  1.7007
 8346SOL    HW236675   3.141   3.141   2.222  1.3765  0.7788  0.9262
 8347SOL     OW36676   1.701   1.183   6.190  0.4724 -0.2316  0.3225
 8347SOL    HW136677   1.796   1.178   6.198  0.5096 -0.3495 -0.1626
 8347SOL    HW236678   1.680   1.258   6.246 -0.1828 -0.3905  0.2926
 8348SOL     OW36679   2.369   0.595   4.221 -0.8450  0.6748  0.0804
 8348SOL    HW136680   2.378   0.647   4.141  1.2024 -0.0210 -0.1633
 8348SOL    HW236681   2.392   0.505   4.199  0.2125  1.3350 -1.5542
 8349SOL     OW36682   4.601   1.729   5.763 -0.0219  0.2315 -0.4013
 8349SOL    HW136683   4.695   1.718   5.770  0.1365  3.3793  2.4449
 8349SOL    HW236684   4.583   1.698   5.674  0.0086  0.0395 -0.3393
 8350SOL     OW36685   3.530   1.630  10.317  0.9180 -0.5546 -0.2824
 8350SOL    HW136686   3.487   1.600  10.237 -1.0311 -0.5272  0.7650
 8350SOL    HW236687   3.558   1.542  10.344 -0.0272 -0.5992  0.5492
 8351SOL     OW36688   0.907   4.339   8.830 -0.8264  1.1252 -0.3834
 8351SOL    HW136689   0.906   4.256   8.782 -3.6246  0.5259  0.7567
 8351SOL    HW236690   0.933   4.405   8.766 -4.6195  2.7319 -0.2187
 8352SOL     OW36691   3.755   1.797   8.802 -0.2182  0.1555  0.2971
 8352SOL    HW136692   3.773   1.828   8.713  4.2562  1.1963  1.5145
 8352SOL    HW236693   3.811   1.857   8.853 -1.0730  2.0043 -0.9216
 8353SOL     OW36694   4.557   3.900  14.058 -0.3687 -0.1206  0.1889
 8353SOL    HW136695   4.575   3.851  13.978 -0.6075  0.8076 -0.4308
 8353SOL    HW236696   4.462   3.908  14.045 -0.9416 -1.5021  3.4882
 8354SOL     OW36697   0.969   3.346   2.759 -0.5792  0.1555  0.1567
 8354SOL    HW136698   0.911   3.277   2.791 -1.2392  0.6458  0.0142
 8354SOL    HW236699   0.955   3.411   2.828  0.3452 -0.1865  0.6753
 8355SOL     OW36700   4.259   0.425   3.026 -0.3829  0.8625 -0.3570
 8355SOL    HW136701   4.250   0.381   2.942  0.9193 -0.7777  0.3492
 8355SOL    HW236702   4.226   0.512   3.005  0.5300  1.2145 -0.3346
 8356SOL     OW36703   3.379   2.418   7.355  0.3121 -0.0669  0.2001
 8356SOL    HW136704   3.451   2.365   7.321 -0.0397  0.3674 -1.2262
 8356SOL    HW236705   3.311   2.354   7.377 -0.1327  0.3811  0.1260
 8357SOL     OW36706   0.900   0.046   1.987  0.0522  0.4470 -0.0374
 8357SOL    HW136707   0.983   0.020   1.948 -1.0901 -3.1259 -0.0994
 8357SOL    HW236708   0.851   0.092   1.920  0.0980 -0.3765 -0.6357
 8358SOL     OW36709   2.885   2.827  11.989 -0.1268  0.3284 -0.3085
 8358SOL    HW136710   2.850   2.863  11.907  0.8155  0.2052 -0.7731
 8358SOL    HW236711   2.819   2.762  12.012 -0.1223  1.0087  1.5986
 8359SOL     OW36712   3.030   3.406   7.511  0.0576  0.4770 -0.3021
 8359SOL    HW136713   2.978   3.445   7.581  0.5201 -1.8052  1.3266
 8359SOL    HW236714   3.058   3.484   7.464 -2.4012  2.6908  1.9169
 8360SOL     OW36715   2.898   2.034   7.178 -0.3072  0.1336 -0.2377
 8360SOL    HW136716   2.980   2.024   7.130 -0.6234 -1.7499 -0.3741
 8360SOL    HW236717   2.937   2.036   7.265 -0.8885  0.1362  0.0245
 8361SOL     OW36718   3.418   2.609  16.182 -0.0598 -0.4762  0.5199
 8361SOL    HW136719   3.467   2.631  16.102  0.5945 -0.7548  0.8431
 8361SOL    HW236720   3.426   2.514  16.187  0.9946 -0.3240  1.8562
 8362SOL     OW36721   1.739   1.715   6.601  0.0105 -0.3621 -0.0884
 8362SOL    HW136722   1.710   1.794   6.646 -2.1115 -0.4214 -1.3123
 8362SOL    HW236723   1.730   1.644   6.664 -3.1454  0.3902  0.3369
 8363SOL     OW36724   0.146   2.448   8.422  0.4039  0.2868 -0.0863
 8363SOL    HW136725   0.114   2.452   8.332  1.3768 -0.3389 -0.4682
 8363SOL    HW236726   0.088   2.510   8.467 -0.9009  0.9111 -2.6662
 8364SOL     OW36727   1.041   3.734   7.319 -0.1428 -0.1350  0.1439
 8364SOL    HW136728   1.026   3.815   7.270 -1.4118 -0.9794 -0.8613
 8364SOL    HW236729   1.009   3.755   7.407 -1.8384 -1.5892 -0.1195
 8365SOL     OW36730   1.898   4.173   8.106 -0.3632 -0.4512 -0.1740
 8365SOL    HW136731   1.876   4.265   8.095 -0.4017 -0.3769  0.5190
 8365SOL    HW236732   1.943   4.158   8.023  3.2157 -0.0867  1.6835
 8366SOL     OW36733   2.524   1.801   5.906 -0.0482 -0.0336 -0.3391
 8366SOL    HW136734   2.478   1.815   5.823  0.9364  0.1363 -0.8590
 8366SOL    HW236735   2.469   1.730   5.939 -0.1064 -0.7364 -1.9580
 8367SOL     OW36736   2.998   4.289   7.268 -0.1810  0.4376  0.0378
 8367SOL    HW136737   2.919   4.343   7.259  0.3951  1.5106  1.4010
 8367SOL    HW236738   2.949   4.215   7.304 -1.3486  1.5303  0.6960
 8368SOL     OW36739   2.016   2.673   8.252 -0.3213  0.0799  0.7160
 8368SOL    HW136740   1.934   2.624   8.253 -1.6454  2.3002  0.1289
 8368SOL    HW236741   2.019   2.700   8.160  1.4567 -0.2765  0.6730
 8369SOL     OW36742   1.646   2.501   7.384 -0.0619 -0.2699 -0.6503
 8369SOL    HW136743   1.739   2.511   7.407  0.1280 -0.9401 -1.1555
 8369SOL    HW236744   1.653   2.467   7.295 -2.8513  1.2632 -1.4522
 8370SOL     OW36745   1.682   3.743   1.684  0.0685  0.1106 -0.3049
 8370SOL    HW136746   1.590   3.754   1.660 -0.4205 -1.7845  0.6637
 8370SOL    HW236747   1.673   3.693   1.765  3.2908 -1.2113 -0.7701
 8371SOL     OW36748   3.926   3.694   7.352 -0.1880 -0.3695  0.3433
 8371SOL    HW136749   3.893   3.664   7.267  0.8100 -1.5147  0.3515
 8371SOL    HW236750   3.863   3.765   7.361 -0.8392 -1.0164  0.9778
 8372SOL     OW36751   1.437   4.237   3.801  0.1206  0.0792 -0.7940
 8372SOL    HW136752   1.463   4.165   3.743  1.2446 -0.8684  0.8562
 8372SOL    HW236753   1.510   4.297   3.789  0.4341 -0.1046  0.2099
 8373SOL     OW36754   3.170   4.520  12.223  0.1983 -0.4369  0.0638
 8373SOL    HW136755   3.200   4.431  12.243 -0.0054  0.1306  2.8734
 8373SOL    HW236756   3.076   4.518  12.237  0.1532  1.7311  0.1017
 8374SOL     OW36757   3.266   2.647   3.523 -0.2651  0.0498  0.1775
 8374SOL    HW136758   3.201   2.716   3.539 -0.3211 -0.4316  2.0060
 8374SOL    HW236759   3.214   2.567   3.512  0.3685  0.0174 -2.4639
 8375SOL     OW36760   1.437   4.398   4.231  0.7104 -0.6041  0.4202
 8375SOL    HW136761   1.378   4.335   4.189  1.2362  0.1332 -1.4033
 8375SOL    HW236762   1.498   4.348   4.285  1.8273 -0.4732 -0.7310
 8376SOL     OW36763   3.230   4.363  17.645 -0.7382  0.3950  0.1717
 8376SOL    HW136764   3.284   4.351  17.723 -1.8206  1.0650  1.0375
 8376SOL    HW236765   3.168   4.428  17.678 -0.9280 -0.6195  1.8248
 8377SOL     OW36766   1.013   0.967  16.385  0.5030 -0.0814  0.1386
 8377SOL    HW136767   1.044   1.044  16.432  0.2914  0.5424 -0.7483
 8377SOL    HW236768   0.932   0.950  16.432  0.7750 -0.0277  0.6298
 8378SOL     OW36769   2.981   2.922   2.439  0.2012 -0.2147 -0.2901
 8378SOL    HW136770   2.886   2.922   2.441  0.2564  1.4454  1.7390
 8378SOL    HW236771   2.996   2.828   2.429 -0.3217 -0.2164 -1.0850
 8379SOL     OW36772   1.580   1.822   2.071  0.1158  0.1635 -0.4276
 8379SOL    HW136773   1.651   1.765   2.099 -0.2817 -0.4457 -0.6454
 8379SOL    HW236774   1.523   1.759   2.026  1.3643  1.3246 -3.6668
 8380SOL     OW36775   0.745   0.320  15.832  0.6659 -0.1671 -0.1157
 8380SOL    HW136776   0.689   0.250  15.799 -1.6281 -0.3565  4.2995
 8380SOL    HW236777   0.812   0.278  15.885  2.3515  0.7358 -1.5168
 8381SOL     OW36778   2.932   0.501   9.523 -0.0117  0.4927 -0.3750
 8381SOL    HW136779   2.951   0.430   9.462 -1.4297  1.0696 -1.5016
 8381SOL    HW236780   2.957   0.581   9.476  0.2850  2.3792  3.0227
 8382SOL     OW36781   1.069   3.964   5.993  0.0135 -0.5709  0.2978
 8382SOL    HW136782   1.073   4.008   6.078 -1.0701 -0.5419  0.3299
 8382SOL    HW236783   0.975   3.975   5.979 -0.1946  1.4404  3.0638
 8383SOL     OW36784   4.601   3.376   7.182  0.1815 -0.2735  0.5069
 8383SOL    HW136785   4.656   3.454   7.182  0.4036 -0.4263 -0.4026
 8383SOL    HW236786   4.667   3.309   7.194 -1.2183 -1.8387 -0.4541
 8384SOL     OW36787   2.065   3.837   3.872  0.1722  0.2490  0.0332
 8384SOL    HW136788   2.096   3.776   3.938 -1.2348 -0.5825 -0.0883
 8384SOL    HW236789   2.002   3.896   3.915 -1.1952  0.2177 -1.9267
 8385SOL     OW36790   1.015   3.876  11.485  0.3250 -0.1912  0.1728
 8385SOL    HW136791   1.100   3.838  11.463 -0.9633 -1.0763 -3.3285
 8385SOL    HW236792   0.967   3.794  11.473 -2.9293  1.5145  1.2670
 8386SOL     OW36793   0.667   2.456   4.288  0.4785  0.1008 -0.0756
 8386SOL    HW136794   0.676   2.438   4.381  0.3762 -0.9775 -0.2722
 8386SOL    HW236795   0.700   2.545   4.280 -0.0004  0.2883  0.0169
 8387SOL     OW36796   3.033   0.854   9.584 -0.4817 -0.0488 -0.1542
 8387SOL    HW136797   2.971   0.898   9.643 -1.8081 -0.8361 -0.9472
 8387SOL    HW236798   3.103   0.835   9.647 -0.6973 -1.0244 -0.1992
 8388SOL     OW36799   4.265   4.506   7.633 -0.2586  0.1030  0.1730
 8388SOL    HW136800   4.238   4.486   7.722  2.1066  0.6026  1.0069
 8388SOL    HW236801   4.231   4.592   7.611 -0.0773 -0.1619 -1.1446
 8389SOL     OW36802   1.726   2.357  13.245  0.1174 -0.4267 -0.0131
 8389SOL    HW136803   1.732   2.263  13.257 -1.4247 -0.7571 -1.8598
 8389SOL    HW236804   1.785   2.387  13.314  0.6716  0.6752 -0.9521
 8390SOL     OW36805   0.087   1.198   8.432  0.6430 -0.2226 -0.2102
 8390SOL    HW136806   0.025   1.155   8.373  0.7538  0.7959 -1.0634
 8390SOL    HW236807   0.028   1.244   8.492  1.0404 -2.8654  2.2035
 8391SOL     OW36808   2.939   1.270   2.974 -0.7062 -0.4232  0.2088
 8391SOL    HW136809   2.881   1.251   3.047 -0.8089 -1.6810 -0.1948
 8391SOL    HW236810   2.925   1.196   2.914  2.2567  0.7649 -1.9479
 8392SOL     OW36811   4.338   1.289   7.977 -0.1602 -0.1453 -0.3870
 8392SOL    HW136812   4.277   1.323   7.912 -0.6241  1.9392  1.1432
 8392SOL    HW236813   4.385   1.369   8.002 -2.9413  1.8643 -1.6047
 8393SOL     OW36814   4.601   2.989  10.024  1.0860  0.5735 -0.1520
 8393SOL    HW136815   4.591   2.894  10.022 -0.0050  0.7282 -1.6539
 8393SOL    HW236816   4.651   3.004  10.104 -2.0955  0.2253  1.9435
 8394SOL     OW36817   0.324   2.139  15.049 -0.3372 -0.6157 -0.0125
 8394SOL    HW136818   0.230   2.140  15.062 -0.4239 -1.4088 -0.5883
 8394SOL    HW236819   0.334   2.054  15.007 -2.2964 -0.7329 -0.2361
 8395SOL     OW36820   1.090   4.114   5.744  0.3309  0.2619 -0.1812
 8395SOL    HW136821   1.009   4.162   5.764 -0.1693 -0.1739 -1.1966
 8395SOL    HW236822   1.099   4.064   5.825  1.3859 -1.7748 -1.5787
 8396SOL     OW36823   2.911   4.459   5.210  0.1332  0.0163  0.4167
 8396SOL    HW136824   2.986   4.479   5.155 -0.7513 -1.2747 -1.2381
 8396SOL    HW236825   2.827   4.468   5.166 -0.0171 -2.5755  0.2081
 8397SOL     OW36826   1.099   2.197   3.785 -0.4470 -0.9750 -0.1999
 8397SOL    HW136827   1.163   2.127   3.795  0.8488  0.0476 -1.3736
 8397SOL    HW236828   1.078   2.203   3.878 -0.4504 -1.9191 -0.1397
 8398SOL     OW36829   4.574   1.639   5.482  0.4778 -0.0284 -0.3331
 8398SOL    HW136830   4.510   1.666   5.416 -0.2837  2.6284  1.4800
 8398SOL    HW236831   4.654   1.659   5.434  0.1481  0.8853 -0.4929
 8399SOL     OW36832   3.631   4.623   7.311  0.0471  0.1034 -0.2712
 8399SOL    HW136833   3.694   4.651   7.245 -1.4216 -0.0975 -1.7615
 8399SOL    HW236834   3.632   4.527   7.316 -1.4754  0.0522 -1.0362
 8400SOL     OW36835   0.930   2.245   4.486 -0.3549 -0.1771  0.4705
 8400SOL    HW136836   0.879   2.209   4.413 -3.1402  1.5080  1.5996
 8400SOL    HW236837   0.899   2.194   4.561 -0.7318  0.2564  0.6096
 8401SOL     OW36838   2.433   0.215  16.740 -1.0955  0.2073  0.0794
 8401SOL    HW136839   2.484   0.271  16.798  0.2086 -2.0692  1.1301
 8401SOL    HW236840   2.495   0.184  16.672 -1.0511 -0.3733  0.3803
 8402SOL     OW36841   1.601   1.089   4.920  0.3318 -0.0140 -0.1514
 8402SOL    HW136842   1.525   1.046   4.959 -0.1476  0.9204 -0.0378
 8402SOL    HW236843   1.614   1.019   4.857  0.8517 -1.4295  1.5472
 8403SOL     OW36844   2.583   2.435   9.888 -0.3927  0.0461 -0.0467
 8403SOL    HW136845   2.505   2.430   9.942  1.7533 -0.5801  3.0104
 8403SOL    HW236846   2.644   2.463   9.957 -0.1864 -1.1410  0.2503
 8404SOL     OW36847   2.496   2.617   4.114 -0.2893  0.0966 -0.6611
 8404SOL    HW136848   2.423   2.582   4.063 -1.7842  1.7442  0.3381
 8404SOL    HW236849   2.476   2.578   4.199 -0.7040 -1.2571 -1.3926
 8405SOL     OW36850   2.170   4.690   4.705 -0.0375  0.0825  0.9265
 8405SOL    HW136851   2.234   4.713   4.773  2.0577  0.0943 -1.0557
 8405SOL    HW236852   2.205   4.734   4.628 -1.0391  0.1370  0.5060
 8406SOL     OW36853   2.665   3.245   3.711 -0.0771 -0.3708  0.0149
 8406SOL    HW136854   2.629   3.184   3.647 -1.8957  1.0443 -0.2937
 8406SOL    HW236855   2.679   3.318   3.652  0.6864 -0.1343  0.4847
 8407SOL     OW36856   3.781   3.096  15.390  0.5207  0.3018  0.1177
 8407SOL    HW136857   3.871   3.129  15.389  0.4850  0.4348  1.0763
 8407SOL    HW236858   3.728   3.169  15.421  1.2401  1.2647 -0.9236
 8408SOL     OW36859   1.035   1.556   9.615 -0.5431  0.0236  0.7101
 8408SOL    HW136860   1.124   1.551   9.580 -1.0346  2.5400 -0.8880
 8408SOL    HW236861   0.996   1.527   9.532 -0.0628 -1.5814  1.0341
 8409SOL     OW36862   1.962   0.011   8.471 -0.2629  0.4036 -0.7678
 8409SOL    HW136863   2.033   0.058   8.514  1.3674 -0.7552 -2.1930
 8409SOL    HW236864   1.951   4.680   8.536  4.4236  0.1721 -0.2276
 8410SOL     OW36865   2.787   1.005   2.261 -0.1387  0.2965  0.0245
 8410SOL    HW136866   2.843   0.946   2.312 -2.1694 -2.2238 -0.6404
 8410SOL    HW236867   2.704   0.994   2.309  1.7093 -1.2339  2.8796
 8411SOL     OW36868   3.355   4.136   9.115  0.0860 -0.4970  0.3045
 8411SOL    HW136869   3.388   4.190   9.187 -1.5013  1.1054 -0.1580
 8411SOL    HW236870   3.434   4.139   9.062  0.7504 -1.2008  1.2477
 8412SOL     OW36871   0.547   4.421   8.840  0.2834  0.1673 -0.1696
 8412SOL    HW136872   0.485   4.380   8.900  0.6759 -0.7395 -0.3752
 8412SOL    HW236873   0.552   4.370   8.759  1.2393  2.1818 -1.4020
 8413SOL     OW36874   4.416   3.640   4.409  0.3226 -0.2012  0.3188
 8413SOL    HW136875   4.392   3.696   4.483  2.2811  1.1127 -0.0401
 8413SOL    HW236876   4.491   3.691   4.377  0.7831 -0.0180  1.6922
 8414SOL     OW36877   0.949   2.450   5.120 -0.2439  0.1199  0.3358
 8414SOL    HW136878   0.874   2.402   5.086 -0.1105 -0.6727  1.1662
 8414SOL    HW236879   0.920   2.486   5.204  3.1688 -2.1591  2.5131
 8415SOL     OW36880   3.106   0.600   6.670 -0.3464 -0.5054 -0.3489
 8415SOL    HW136881   3.131   0.536   6.604 -1.4843 -1.7055  0.3841
 8415SOL    HW236882   3.185   0.613   6.723  0.1709 -1.1640 -0.9717
 8416SOL     OW36883   4.609   4.311  14.375  0.1057  0.4188 -0.1818
 8416SOL    HW136884   4.564   4.338  14.295 -2.4787 -1.3954  0.6684
 8416SOL    HW236885   4.650   4.393  14.402  0.7947 -0.7220  2.2211
 8417SOL     OW36886   2.272   4.459   0.790  0.4452 -0.1880  0.2504
 8417SOL    HW136887   2.366   4.464   0.771  0.2298  1.5916 -0.3442
 8417SOL    HW236888   2.253   4.365   0.793 -1.1820  0.1661  0.9154
 8418SOL     OW36889   1.349   2.631   2.730  0.0877 -0.1508 -0.1075
 8418SOL    HW136890   1.388   2.656   2.814  2.0375 -1.1863 -0.7112
 8418SOL    HW236891   1.321   2.719   2.707  0.4751  1.3546  5.1503
 8419SOL     OW36892   0.193   3.135  13.200  0.7003 -0.8053 -0.5057
 8419SOL    HW136893   0.277   3.136  13.247 -0.0041 -4.8808  0.8487
 8419SOL    HW236894   0.156   3.221  13.222  2.4797  0.3156 -1.8639
 8420SOL     OW36895   2.724   4.464   4.982  0.5317 -0.0678 -0.3436
 8420SOL    HW136896   2.698   4.545   4.939  0.5442  0.3754  0.5057
 8420SOL    HW236897   2.644   4.413   4.970 -0.4179  1.4156 -0.2067
 8421SOL     OW36898   0.254   3.496   4.806 -0.4745  0.2194  0.6721
 8421SOL    HW136899   0.170   3.540   4.821 -0.4355  1.4739 -2.6306
 8421SOL    HW236900   0.226   3.422   4.753  1.5088  0.4681 -0.7461
 8422SOL     OW36901   0.512   3.603   7.296  0.3036 -0.3530 -0.7501
 8422SOL    HW136902   0.597   3.571   7.327 -0.2568 -1.0241  0.1035
 8422SOL    HW236903   0.513   3.691   7.334 -1.7699 -1.5440  2.0846
 8423SOL     OW36904   3.094   0.348   6.580  0.1133 -0.1453  0.7634
 8423SOL    HW136905   3.023   0.398   6.621 -0.7813 -0.1609 -0.7664
 8423SOL    HW236906   3.124   0.286   6.646 -0.6118 -0.6213  0.6404
 8424SOL     OW36907   2.777   2.959  10.463 -0.2266 -0.0035 -0.1617
 8424SOL    HW136908   2.773   2.868  10.495 -1.2643 -0.0416 -0.4035
 8424SOL    HW236909   2.781   2.936  10.370 -2.3955 -0.9502 -0.0278
 8425SOL     OW36910   2.118   3.854   5.481  0.1427 -0.1093  0.0284
 8425SOL    HW136911   2.126   3.914   5.407  0.9388 -1.0855 -0.6695
 8425SOL    HW236912   2.026   3.831   5.489  0.2086 -0.8846 -1.4759
 8426SOL     OW36913   4.223   3.355   7.387  0.5749 -0.6777 -0.0238
 8426SOL    HW136914   4.221   3.372   7.293 -1.5190 -1.2961 -0.1009
 8426SOL    HW236915   4.200   3.439   7.428  0.8743 -1.1442  1.1048
 8427SOL     OW36916   1.439   3.962  12.958  1.1808 -0.3557  0.4452
 8427SOL    HW136917   1.487   4.031  12.911 -3.5269  1.4740 -1.7264
 8427SOL    HW236918   1.409   3.912  12.882  1.2541  0.0287  0.1620
 8428SOL     OW36919   0.364   1.555   6.761  0.3418 -0.1081  0.0176
 8428SOL    HW136920   0.329   1.640   6.733 -1.5621 -0.9900 -0.2896
 8428SOL    HW236921   0.449   1.584   6.794 -0.2633  1.2861  0.3412
 8429SOL     OW36922   3.016   0.566   5.417  0.0787 -0.0895  0.0641
 8429SOL    HW136923   2.994   0.579   5.510  0.4896 -0.1236  0.1682
 8429SOL    HW236924   3.016   0.655   5.381  0.0602 -0.5095 -0.9427
 8430SOL     OW36925   1.359   0.589   2.625  0.2377  0.3626  0.5292
 8430SOL    HW136926   1.330   0.575   2.715 -0.1175 -1.3295  0.1481
 8430SOL    HW236927   1.285   0.574   2.566 -0.4340  2.3140  0.8730
 8431SOL     OW36928   4.626   2.136   2.995  0.4193  0.5625  0.0183
 8431SOL    HW136929   4.645   2.220   2.953  1.1081  0.7296  0.6705
 8431SOL    HW236930   4.534   2.126   2.967  0.0764  0.0049  1.3561
 8432SOL     OW36931   4.306   4.138  10.608 -0.3686 -0.1192  0.0050
 8432SOL    HW136932   4.376   4.177  10.660 -1.0446 -2.7155  2.8739
 8432SOL    HW236933   4.331   4.046  10.616  1.2399  0.4666  1.5567
 8433SOL     OW36934   2.506   3.670   5.314  0.5077  0.6746  0.1352
 8433SOL    HW136935   2.594   3.652   5.346  1.0979  1.4176 -1.0702
 8433SOL    HW236936   2.497   3.757   5.353  0.5931  0.4629  0.6249
 8434SOL     OW36937   3.969   2.009  11.890 -0.2242  0.0153 -0.0702
 8434SOL    HW136938   4.026   2.086  11.884  1.1094 -0.9532  0.3132
 8434SOL    HW236939   4.004   1.950  11.823 -1.5275  0.1983 -0.9214
 8435SOL     OW36940   4.630   2.380   3.361 -0.6278 -0.3716  0.0293
 8435SOL    HW136941   4.632   2.287   3.339  1.3051 -0.8331  2.1741
 8435SOL    HW236942   4.567   2.414   3.297  1.9392  1.6716 -1.4167
 8436SOL     OW36943   1.193   3.382   6.782 -0.0655 -0.3719 -0.0268
 8436SOL    HW136944   1.108   3.398   6.740  0.0609 -0.3815 -0.2912
 8436SOL    HW236945   1.203   3.442   6.855 -0.8875 -0.0913 -0.1376
 8437SOL     OW36946   2.314   4.160   0.840 -0.1128 -0.4030 -0.1592
 8437SOL    HW136947   2.248   4.129   0.902 -1.1409 -0.5326 -1.2934
 8437SOL    HW236948   2.318   4.102   0.763 -0.5495 -0.6112 -0.0258
 8438SOL     OW36949   2.221   3.460   9.544 -0.7454 -0.8148  0.2101
 8438SOL    HW136950   2.144   3.517   9.537 -0.2118 -0.1949 -0.6509
 8438SOL    HW236951   2.257   3.490   9.628 -1.8838  0.2496  0.3223
 8439SOL     OW36952   1.046   1.166   6.750  0.0964 -0.1542  0.8030
 8439SOL    HW136953   0.971   1.119   6.788  0.0159 -2.7297 -2.5475
 8439SOL    HW236954   1.034   1.255   6.784  2.2614  1.6484 -3.1246
 8440SOL     OW36955   1.562   1.813  16.370  0.1788 -0.2156 -0.4597
 8440SOL    HW136956   1.500   1.839  16.438  0.2042 -3.1154  0.6784
 8440SOL    HW236957   1.626   1.756  16.412  1.5357  1.3100 -0.4774
 8441SOL     OW36958   2.657   1.344  12.604  0.0094 -0.2527 -0.6959
 8441SOL    HW136959   2.746   1.364  12.575 -0.7063  1.0563 -1.9623
 8441SOL    HW236960   2.600   1.380  12.536 -1.2487  0.3972  0.7000
 8442SOL     OW36961   4.592   3.823   8.866 -0.5625  0.0305  0.1917
 8442SOL    HW136962   4.586   3.918   8.854  0.1334  0.0941  0.3518
 8442SOL    HW236963   4.544   3.813   8.784  0.8080 -0.6306 -0.5317
 8443SOL     OW36964   3.583   1.307  12.760  0.1074 -0.0305  0.2214
 8443SOL    HW136965   3.638   1.257  12.821 -1.1822 -1.9900 -0.2379
 8443SOL    HW236966   3.653   1.365  12.729 -1.3982  0.9188 -1.3392
 8444SOL     OW36967   4.380   1.391  17.413  0.1487 -0.0925  0.2640
 8444SOL    HW136968   4.295   1.433  17.403  0.3242  0.3375  0.5732
 8444SOL    HW236969   4.437   1.466  17.431  1.6180 -1.0889 -0.2062
 8445SOL     OW36970   3.951   2.387   7.198 -0.4511 -0.0500 -0.1045
 8445SOL    HW136971   4.038   2.373   7.159  0.2035 -0.4743  1.5029
 8445SOL    HW236972   3.963   2.462   7.255  0.5710  0.2904 -0.7671
 8446SOL     OW36973   4.523   1.788  12.260  0.0006 -0.1155 -0.1705
 8446SOL    HW136974   4.566   1.873  12.248 -3.1957  1.6472  0.7486
 8446SOL    HW236975   4.435   1.813  12.291 -0.5788 -1.9766 -0.3085
 8447SOL     OW36976   2.199   2.722   5.646 -0.1372  0.0980  0.8749
 8447SOL    HW136977   2.281   2.672   5.651 -0.4784 -0.5572 -0.1175
 8447SOL    HW236978   2.138   2.664   5.691 -0.1650 -0.2846  0.3464
 8448SOL     OW36979   2.098   0.423   2.951 -0.0065 -0.1665  0.0653
 8448SOL    HW136980   2.035   0.469   3.007 -2.0864 -2.0024 -0.7790
 8448SOL    HW236981   2.041   0.419   2.874  0.3261  0.5514 -0.2155
 8449SOL     OW36982   4.654   4.165   5.208 -0.0755  0.0061  0.4529
 8449SOL    HW136983   4.644   4.129   5.120  0.4770  2.1236 -0.4684
 8449SOL    HW236984   4.673   4.090   5.265  0.3938  0.3282  0.7195
 8450SOL     OW36985   1.577   0.268   6.157  0.1591  1.6259  0.4118
 8450SOL    HW136986   1.603   0.360   6.156 -3.6165  2.6518 -1.4178
 8450SOL    HW236987   1.487   0.267   6.124  0.3544  1.8601 -0.1243
 8451SOL     OW36988   4.472   4.122   3.878  0.2219 -0.8100 -0.2553
 8451SOL    HW136989   4.412   4.057   3.914  0.0919  0.2853  1.5499
 8451SOL    HW236990   4.414   4.195   3.855 -0.5864 -1.4514 -0.2459
 8452SOL     OW36991   0.575   2.315   6.050 -0.2620 -0.1976 -0.2207
 8452SOL    HW136992   0.632   2.388   6.073  1.7124 -1.1965 -1.9451
 8452SOL    HW236993   0.617   2.240   6.091 -0.4948 -1.2567 -1.8969
 8453SOL     OW36994   1.255   4.476   9.307  0.1318  0.2236  0.2770
 8453SOL    HW136995   1.341   4.515   9.291 -0.1382  0.9810  0.6483
 8453SOL    HW236996   1.199   4.554   9.309 -1.1913 -0.6831 -1.6445
 8454SOL     OW36997   3.324   0.773   6.347 -0.3679  0.5097 -0.2624
 8454SOL    HW136998   3.329   0.757   6.253 -2.6788  1.2315 -0.4963
 8454SOL    HW236999   3.392   0.723   6.392  1.8646  1.3416 -2.6835
 8455SOL     OW37000   0.792   0.076   4.362 -0.5315  0.4229 -0.0115
 8455SOL    HW137001   0.847   0.096   4.438  1.4810 -1.3009 -1.0233
 8455SOL    HW237002   0.861   0.089   4.298  2.3543  0.9605  3.1868
 8456SOL     OW37003   0.998   1.536   6.653  0.0970  0.0292  0.7495
 8456SOL    HW137004   1.066   1.602   6.636  0.2307 -0.3541 -0.2022
 8456SOL    HW237005   0.925   1.573   6.602 -0.7840 -2.7035  0.0595
 8457SOL     OW37006   1.389   1.044  16.107 -0.1570  0.2931 -0.0484
 8457SOL    HW137007   1.338   0.972  16.144  0.4310  0.0849  0.3518
 8457SOL    HW237008   1.407   1.087  16.191 -0.6976 -1.1015  0.7737
 8458SOL     OW37009   2.833   3.634   7.963  0.3505  0.0609  0.4661
 8458SOL    HW137010   2.916   3.661   8.002 -1.0491  0.4274  3.2269
 8458SOL    HW237011   2.767   3.700   7.988  0.7632  1.1974 -1.4674
 8459SOL     OW37012   1.707   3.227   2.224  0.4634  0.3862  0.4967
 8459SOL    HW137013   1.723   3.146   2.175 -0.7031  0.0876  0.6197
 8459SOL    HW237014   1.648   3.274   2.165  2.3706  2.6110  0.3414
 8460SOL     OW37015   2.214   3.129   7.621  0.6215  0.2737  0.1555
 8460SOL    HW137016   2.261   3.099   7.543 -1.0945 -0.5639 -0.5672
 8460SOL    HW237017   2.280   3.177   7.670  0.1798  2.5113 -1.4714
 8461SOL     OW37018   1.208   3.515   7.252 -0.5584  0.3813  0.3545
 8461SOL    HW137019   1.161   3.591   7.286  0.3564  0.7760  0.7339
 8461SOL    HW237020   1.259   3.489   7.329  2.8182  2.1442 -1.2863
 8462SOL     OW37021   0.491   3.740  11.831  0.0938  0.4865 -0.0538
 8462SOL    HW137022   0.581   3.769  11.843  0.3116  1.0543 -3.1574
 8462SOL    HW237023   0.476   3.730  11.737  1.0401 -0.4954 -0.1024
 8463SOL     OW37024   2.626   3.127   5.686 -0.5667  0.3646  0.3665
 8463SOL    HW137025   2.606   3.208   5.639 -1.3134 -0.9258 -1.5307
 8463SOL    HW237026   2.707   3.113   5.638 -1.4454  1.0806 -1.3329
 8464SOL     OW37027   1.923   3.781   4.403  0.7098 -0.7180  0.0369
 8464SOL    HW137028   1.830   3.770   4.424  0.7620 -0.0912  0.6001
 8464SOL    HW237029   1.943   3.700   4.356  0.0924 -0.2673 -1.0013
 8465SOL     OW37030   3.949   3.121  11.430  0.9706  0.2281  0.1055
 8465SOL    HW137031   4.012   3.065  11.384  1.1573  2.5805 -2.5152
 8465SOL    HW237032   3.886   3.128  11.359  0.7629 -1.8856  0.0782
 8466SOL     OW37033   0.771   2.666   8.008  0.1572 -0.2389  0.1345
 8466SOL    HW137034   0.729   2.666   7.922  0.3325  1.1310  0.0427
 8466SOL    HW237035   0.793   2.573   8.010 -2.2800 -0.8861 -2.5496
 8467SOL     OW37036   0.131   2.340  15.450  0.6810  0.1742  0.0542
 8467SOL    HW137037   0.039   2.323  15.430  0.7759  0.5164 -0.7102
 8467SOL    HW237038   0.123   2.436  15.457 -1.0470  0.0461 -0.0661
 8468SOL     OW37039   1.206   1.577   5.514  0.1034  0.1777  0.3931
 8468SOL    HW137040   1.173   1.650   5.461 -0.2337 -1.5209 -1.7614
 8468SOL    HW237041   1.174   1.602   5.600  1.1274 -2.6159  1.5716
 8469SOL     OW37042   2.830   4.062   2.147 -0.0620 -0.4352 -0.5101
 8469SOL    HW137043   2.880   3.981   2.142 -1.0981 -1.1197  0.5251
 8469SOL    HW237044   2.834   4.085   2.240 -0.3812  0.3074 -0.6801
 8470SOL     OW37045   2.287   4.321   7.357  0.1364 -0.4832 -0.1610
 8470SOL    HW137046   2.326   4.392   7.306  2.7351  0.0240  2.5371
 8470SOL    HW237047   2.367   4.274   7.381 -1.5101 -3.6146 -0.8042
 8471SOL     OW37048   2.738   0.013   8.575 -0.2935 -0.2348 -0.2390
 8471SOL    HW137049   2.781   0.011   8.661  1.0421  0.5041 -0.8879
 8471SOL    HW237050   2.679   0.089   8.578  0.1021  0.0032  1.9456
 8472SOL     OW37051   2.052   4.241   8.647  0.4188 -0.1020 -0.2177
 8472SOL    HW137052   2.138   4.202   8.664  1.5630  2.4191 -0.2358
 8472SOL    HW237053   2.059   4.249   8.552 -1.9900 -0.6153 -0.4269
 8473SOL     OW37054   0.549   3.273   8.608 -0.2758  0.1062  0.2070
 8473SOL    HW137055   0.562   3.254   8.700  1.9671  1.7329  0.2336
 8473SOL    HW237056   0.631   3.320   8.596  0.0036 -0.8651 -1.7274
 8474SOL     OW37057   2.374   0.567   4.496  0.7828  0.1024 -0.0009
 8474SOL    HW137058   2.457   0.519   4.496  0.9661  0.4239  0.4003
 8474SOL    HW237059   2.347   0.547   4.406 -2.2708 -0.6383  1.0699
 8475SOL     OW37060   1.874   1.309   8.673 -0.5888  0.2667 -0.6858
 8475SOL    HW137061   1.903   1.218   8.679  3.0907  1.4906  0.3300
 8475SOL    HW237062   1.931   1.348   8.607  0.0644 -2.6745 -1.8258
 8476SOL     OW37063   0.895   1.707  17.641  0.2506 -0.1939  0.3334
 8476SOL    HW137064   0.853   1.793  17.632 -1.6930 -1.1824  0.0276
 8476SOL    HW237065   0.942   1.692  17.559  1.9972  0.8995  1.1415
 8477SOL     OW37066   0.310   3.346   1.630 -0.0432 -0.3331  0.2018
 8477SOL    HW137067   0.308   3.389   1.715 -0.8086  0.2406 -0.1109
 8477SOL    HW237068   0.230   3.295   1.624  1.4806 -2.5654 -1.2983
 8478SOL     OW37069   3.624   2.247   7.330  0.3618 -0.0064  0.1373
 8478SOL    HW137070   3.658   2.161   7.354 -0.8671 -0.5249 -0.0092
 8478SOL    HW237071   3.649   2.248   7.238 -1.2985 -0.7589 -0.3109
 8479SOL     OW37072   4.106   3.423  15.553 -0.0607 -0.4610  0.3564
 8479SOL    HW137073   4.182   3.479  15.570 -1.2173  1.2292  0.0429
 8479SOL    HW237074   4.076   3.408  15.643 -0.6356 -1.5018 -0.0093
 8480SOL     OW37075   2.087   0.016   6.995 -0.2600 -0.0025  0.0295
 8480SOL    HW137076   1.996   4.729   7.011 -0.7728  0.1600 -2.6859
 8480SOL    HW237077   2.114   4.675   6.950 -2.0273 -1.4177  1.4488
 8481SOL     OW37078   2.033   2.766   5.346 -0.0420 -0.3443 -0.2460
 8481SOL    HW137079   2.064   2.821   5.418 -2.0081  0.0464  0.2898
 8481SOL    HW237080   2.106   2.704   5.333 -0.3901 -0.2923 -2.4184
 8482SOL     OW37081   2.545   0.066  15.378  0.5682  0.1743  0.0558
 8482SOL    HW137082   2.496   0.145  15.402  0.6967  0.4534 -0.6289
 8482SOL    HW237083   2.539   0.077  15.284 -1.9792 -1.1009  0.0539
 8483SOL     OW37084   1.629   2.838   2.588 -0.4257  0.4942  1.0330
 8483SOL    HW137085   1.652   2.752   2.624  1.7721  0.6708  0.0181
 8483SOL    HW237086   1.644   2.821   2.495  1.4546  2.2404  1.0264
 8484SOL     OW37087   1.320   0.440   4.346 -0.7814  0.3421  0.0371
 8484SOL    HW137088   1.359   0.446   4.433  0.9925  1.5369 -0.8558
 8484SOL    HW237089   1.298   0.348   4.334 -1.5265  0.3160  1.5423
 8485SOL     OW37090   4.051   4.100  13.667  1.3099 -0.2701  0.4103
 8485SOL    HW137091   4.088   4.014  13.650  0.3811 -0.2716 -1.5776
 8485SOL    HW237092   4.004   4.121  13.586 -0.1015 -2.1393  0.7392
 8486SOL     OW37093   1.887   4.246   2.802 -0.1608  0.0360  0.4328
 8486SOL    HW137094   1.917   4.260   2.892  0.7309 -0.8558  0.2770
 8486SOL    HW237095   1.877   4.330   2.758 -1.9908 -0.4781 -0.1470
 8487SOL     OW37096   2.237   3.612  10.164  0.0901 -0.1937 -0.0887
 8487SOL    HW137097   2.172   3.592  10.096  0.9326  1.5647 -1.4088
 8487SOL    HW237098   2.246   3.524  10.201 -2.0332  0.4585  1.9938
 8488SOL     OW37099   0.615   0.721   7.394 -0.0988 -0.2719 -0.7040
 8488SOL    HW137100   0.682   0.709   7.463  1.6660  3.8060 -1.6709
 8488SOL    HW237101   0.555   0.654   7.425  0.1209  1.2561  3.0666
 8489SOL     OW37102   1.200   1.511   3.383  0.8651  0.4555 -0.4872
 8489SOL    HW137103   1.277   1.555   3.346  1.2907 -0.3010 -0.4995
 8489SOL    HW237104   1.155   1.576   3.438  1.2405 -0.2022  0.5735
 8490SOL     OW37105   3.817   0.909   6.590  0.1074  0.6655  1.1053
 8490SOL    HW137106   3.744   0.957   6.550  0.6750  0.1769 -0.5146
 8490SOL    HW237107   3.894   0.942   6.544 -0.8883  0.9049 -0.3733
 8491SOL     OW37108   0.564   0.226   0.022  0.5295  0.0649  0.0226
 8491SOL    HW137109   0.591   0.137   0.046  1.4961  0.3946  0.1672
 8491SOL    HW237110   0.606   0.242  17.690 -0.2488 -1.3806 -0.6332
 8492SOL     OW37111   3.136   4.710   6.003  0.1035  0.4351  0.3429
 8492SOL    HW137112   3.098   4.685   5.919  0.2297 -0.2260  0.4821
 8492SOL    HW237113   3.128   4.628   6.051  2.5565 -1.4847 -2.5283
 8493SOL     OW37114   2.565   3.660   6.078  0.0955 -0.3739 -0.0401
 8493SOL    HW137115   2.592   3.686   5.990 -0.7544  0.0444 -0.1789
 8493SOL    HW237116   2.578   3.747   6.116 -0.3531 -0.4075  0.1777
 8494SOL     OW37117   2.454   0.239   8.224 -0.1198  0.2637  0.5877
 8494SOL    HW137118   2.442   0.145   8.236  2.1001 -0.2738 -1.3840
 8494SOL    HW237119   2.520   0.258   8.290 -0.2252  0.1890  0.7144
 8495SOL     OW37120   4.283   3.627   5.062  0.1533 -0.4582 -0.2760
 8495SOL    HW137121   4.270   3.544   5.107 -1.8213 -1.4060 -2.6161
 8495SOL    HW237122   4.194   3.648   5.035  1.0930  0.7925 -2.4233
 8496SOL     OW37123   4.643   0.152   0.372  0.0645 -0.5014 -0.4752
 8496SOL    HW137124   4.622   0.085   0.307  0.9405 -1.0489 -0.1939
 8496SOL    HW237125   4.622   0.105   0.452 -0.6100 -1.4292 -1.1981
 8497SOL     OW37126   1.858   3.423   6.896  0.2001 -0.0046  0.3554
 8497SOL    HW137127   1.910   3.395   6.971 -0.0789  1.7074  1.1837
 8497SOL    HW237128   1.851   3.347   6.839 -2.1624  0.8295 -0.5042
 8498SOL     OW37129   3.450   0.894   9.015  0.3957  0.0259 -0.1095
 8498SOL    HW137130   3.410   0.930   8.935  2.7960  0.5027 -1.0833
 8498SOL    HW237131   3.532   0.851   8.991 -1.0917 -4.1981  2.4729
 8499SOL     OW37132   4.456   4.501   4.233 -0.3735  0.7265 -0.1068
 8499SOL    HW137133   4.427   4.546   4.154 -1.3047  1.5939  0.7326
 8499SOL    HW237134   4.544   4.484   4.200 -0.3477  0.6347  0.0066
 8500SOL     OW37135   2.063   0.294   6.171 -0.4923 -0.0290  0.5205
 8500SOL    HW137136   1.972   0.276   6.149 -1.2024  2.3198  1.5220
 8500SOL    HW237137   2.102   0.212   6.201 -3.3012 -1.1810  0.9840
 8501SOL     OW37138   2.390   2.858   7.520  0.4240 -0.3257 -0.6630
 8501SOL    HW137139   2.429   2.904   7.594  0.9594 -0.6802 -0.7299
 8501SOL    HW237140   2.355   2.782   7.568  1.3512 -0.0535  0.4540
 8502SOL     OW37141   0.489   1.903  11.654 -0.1540 -0.8555 -0.2455
 8502SOL    HW137142   0.454   1.870  11.571 -0.4759  0.9000 -0.8146
 8502SOL    HW237143   0.571   1.942  11.623 -0.0839  0.7585  2.0376
 8503SOL     OW37144   2.493   0.243  10.291  0.2020 -0.1904  0.5752
 8503SOL    HW137145   2.496   0.259  10.197  1.2816 -1.5169  0.3781
 8503SOL    HW237146   2.529   0.325  10.324  0.9217 -0.8449  1.4456
 8504SOL     OW37147   1.679   0.791  12.993  0.1964  0.1349  0.3652
 8504SOL    HW137148   1.746   0.731  12.962 -0.0529 -0.8662  1.7503
 8504SOL    HW237149   1.723   0.875  12.979 -0.8370  0.4184 -1.1573
 8505SOL     OW37150   1.521   2.561   5.540  0.1900 -0.1747 -0.3158
 8505SOL    HW137151   1.485   2.646   5.513  1.4926  0.8985  1.3694
 8505SOL    HW237152   1.611   2.573   5.510  0.2781 -2.6385 -1.0347
 8506SOL     OW37153   0.610   2.023  14.998  0.0135 -0.1293 -0.1417
 8506SOL    HW137154   0.543   2.015  15.066 -0.1046  0.3537 -0.2074
 8506SOL    HW237155   0.687   2.064  15.037 -0.0273 -1.5507  1.4626
 8507SOL     OW37156   0.527   3.282   5.418  0.6107  0.2331 -0.4170
 8507SOL    HW137157   0.478   3.201   5.419  0.3387  0.3505 -2.9154
 8507SOL    HW237158   0.484   3.335   5.351  0.0713 -1.0088 -1.0378
 8508SOL     OW37159   0.403   4.100   2.184  0.0479  0.7403  0.2724
 8508SOL    HW137160   0.474   4.148   2.226 -0.9882  0.3915  2.4507
 8508SOL    HW237161   0.412   4.018   2.232 -0.0413  1.5707  1.7000
 8509SOL     OW37162   2.908   1.865   4.046  0.3804  0.3451  0.1345
 8509SOL    HW137163   2.820   1.828   4.036  1.1448 -2.0379  1.8805
 8509SOL    HW237164   2.963   1.800   4.002  1.1035  0.0779  1.4261
 8510SOL     OW37165   3.145   1.561  17.010 -0.5979  0.2721  0.1451
 8510SOL    HW137166   3.100   1.516  17.081  1.8555 -0.9895  0.9256
 8510SOL    HW237167   3.185   1.486  16.967 -1.8824  0.6005 -1.6207
 8511SOL     OW37168   2.668   4.563   4.108 -0.2525  0.1643 -0.6218
 8511SOL    HW137169   2.613   4.540   4.183  0.3782  0.1574 -0.1653
 8511SOL    HW237170   2.713   4.481   4.088  0.6449  0.4821  0.1066
 8512SOL     OW37171   2.386   2.753   8.054 -0.2818  0.6341  0.0084
 8512SOL    HW137172   2.429   2.777   8.136 -4.0971  1.5980  1.7496
 8512SOL    HW237173   2.350   2.835   8.021  0.3792  0.8572 -0.1389
 8513SOL     OW37174   2.513   1.649   3.592 -0.1700  0.0053  0.1125
 8513SOL    HW137175   2.484   1.637   3.682 -0.8901  1.5986  0.0838
 8513SOL    HW237176   2.463   1.584   3.542  0.4044  0.6844 -1.3535
 8514SOL     OW37177   1.672   2.585   9.322  0.3198  0.3485  0.2525
 8514SOL    HW137178   1.740   2.522   9.296  0.6756  0.8024  0.0713
 8514SOL    HW237179   1.719   2.626   9.395  1.0824 -0.8557  0.4357
 8515SOL     OW37180   0.873   3.008   3.557  0.2460 -0.2155  0.5250
 8515SOL    HW137181   0.844   3.025   3.646  1.0257  0.9524  0.5493
 8515SOL    HW237182   0.962   3.042   3.554 -0.6431  2.1474  0.7194
 8516SOL     OW37183   1.068   2.573   5.990  0.9294 -0.7010 -0.0671
 8516SOL    HW137184   1.027   2.586   5.904  0.8482 -0.5833 -0.0116
 8516SOL    HW237185   1.035   2.490   6.023 -0.5781  0.3180  0.9872
 8517SOL     OW37186   3.567   4.085   8.283  0.2477  0.3408 -0.3969
 8517SOL    HW137187   3.503   4.070   8.353  0.2148 -0.9006 -0.6980
 8517SOL    HW237188   3.521   4.154   8.235  0.9859  0.3663 -1.0789
 8518SOL     OW37189   3.548   4.571   5.340 -0.8854 -0.3525  0.5098
 8518SOL    HW137190   3.642   4.561   5.324 -1.0037 -1.4899  0.5115
 8518SOL    HW237191   3.517   4.638   5.278 -0.2697 -1.4879 -1.0252
 8519SOL     OW37192   3.900   4.475   7.285  0.0639  0.1842 -0.4410
 8519SOL    HW137193   3.868   4.438   7.367 -0.0175 -1.1224 -1.0653
 8519SOL    HW237194   3.956   4.408   7.246  0.2050 -0.7410  1.3367
 8520SOL     OW37195   3.050   3.349   5.257 -0.3566 -0.2150 -0.1456
 8520SOL    HW137196   3.096   3.415   5.309  0.2574 -1.5122  0.9476
 8520SOL    HW237197   3.115   3.354   5.187  0.8795 -0.9782  0.9481
 8521SOL     OW37198   4.276   1.210   6.517 -0.7346  0.2507 -0.0158
 8521SOL    HW137199   4.283   1.239   6.608  1.5904 -0.9300  0.1844
 8521SOL    HW237200   4.222   1.278   6.477 -0.1496  1.4661  1.2407
 8522SOL     OW37201   4.430   4.260   5.355 -0.0901 -0.0025  0.2782
 8522SOL    HW137202   4.466   4.171   5.362 -1.1052 -0.4733 -0.4881
 8522SOL    HW237203   4.494   4.291   5.290  0.4175 -0.7362  0.4225
 8523SOL     OW37204   0.789   1.026   0.652  0.4591  0.1572  1.1763
 8523SOL    HW137205   0.841   1.065   0.582 -2.9483 -0.0605 -1.4820
 8523SOL    HW237206   0.767   0.946   0.605  0.4252  0.2762  0.9880
 8524SOL     OW37207   4.496   1.253   0.425  0.2271  0.0564 -0.0571
 8524SOL    HW137208   4.577   1.250   0.476  0.6262 -2.2514 -0.7953
 8524SOL    HW237209   4.513   1.179   0.366 -0.7073 -0.5631  0.4477
 8525SOL     OW37210   3.187   0.448  13.853 -0.3519 -0.0743  0.7473
 8525SOL    HW137211   3.215   0.473  13.765 -3.9877  0.3836 -0.2727
 8525SOL    HW237212   3.255   0.390  13.888 -1.5918 -1.8891  0.1337
 8526SOL     OW37213   4.661   4.550   0.721 -0.0466 -0.5992  0.3035
 8526SOL    HW137214   4.719   4.551   0.797  0.8064 -3.6698 -0.3092
 8526SOL    HW237215   4.667   4.638   0.683 -0.6923 -0.8340 -0.3321
 8527SOL     OW37216   0.400   1.293   2.660 -0.5394  0.1213 -0.0134
 8527SOL    HW137217   0.372   1.204   2.681  1.6320 -0.1814  1.6356
 8527SOL    HW237218   0.495   1.285   2.648 -0.6115 -0.0916 -0.4436
 8528SOL     OW37219   2.809   4.125   7.384 -0.5507 -0.3219  0.0572
 8528SOL    HW137220   2.739   4.189   7.390  1.3681  1.7103  0.6365
 8528SOL    HW237221   2.762   4.048   7.351 -2.5051 -0.2288  2.6225
 8529SOL     OW37222   3.751   2.582  16.073 -0.3795  0.2219  0.2199
 8529SOL    HW137223   3.837   2.608  16.040 -0.6717  0.9984  0.0467
 8529SOL    HW237224   3.707   2.667  16.077 -1.0107 -0.1331  0.7899
 8530SOL     OW37225   1.468   0.356   7.671  0.0873  0.4122  0.1135
 8530SOL    HW137226   1.421   0.272   7.667  1.8012 -0.6757  2.6397
 8530SOL    HW237227   1.428   0.425   7.723  0.1404  0.1893  0.4517
 8531SOL     OW37228   1.676   2.936   9.584 -0.5887  0.0802  0.2249
 8531SOL    HW137229   1.723   2.853   9.596  0.3855  0.8809  1.9682
 8531SOL    HW237230   1.689   2.979   9.668  0.5847 -0.7361  0.4669
 8532SOL     OW37231   4.509   2.071   5.364 -0.7509  0.1314  0.4048
 8532SOL    HW137232   4.557   2.154   5.368 -0.8903  0.2468 -0.4156
 8532SOL    HW237233   4.524   2.049   5.272  0.0923  0.9871  0.3397
 8533SOL     OW37234   4.338   0.082   2.465 -0.3955 -0.4576 -0.4841
 8533SOL    HW137235   4.432   0.070   2.453  0.2721  0.3741  3.8336
 8533SOL    HW237236   4.315   4.735   2.502  1.3299  0.1404  1.9812
 8534SOL     OW37237   2.002   2.594   9.819 -0.5620 -0.1344  0.0729
 8534SOL    HW137238   1.910   2.574   9.832 -0.9913  1.3242 -0.8070
 8534SOL    HW237239   2.038   2.506   9.830  2.4870  1.0328 -0.5681
 8535SOL     OW37240   0.736   2.423   4.588  0.2007  0.2723 -0.3854
 8535SOL    HW137241   0.830   2.410   4.574  0.4889  0.4630  1.4739
 8535SOL    HW237242   0.744   2.491   4.655  1.8008  0.7460 -1.0578
 8536SOL     OW37243   1.249   1.987   1.417  0.2970  0.1884  0.6030
 8536SOL    HW137244   1.321   2.031   1.371  1.2407 -0.9800  0.9689
 8536SOL    HW237245   1.241   1.911   1.360  1.2318 -0.0937  0.8510
 8537SOL     OW37246   2.199   1.665   6.588  0.1613 -0.2840 -0.6153
 8537SOL    HW137247   2.228   1.585   6.632 -1.4469 -0.3780  0.2603
 8537SOL    HW237248   2.258   1.731   6.624 -0.7092 -0.8738  1.8606
 8538SOL     OW37249   4.586   3.787   1.936  0.1450 -0.0277 -0.1026
 8538SOL    HW137250   4.569   3.696   1.912 -1.1947 -0.1588  1.3752
 8538SOL    HW237251   4.547   3.843   1.869  1.5134  0.5371 -0.4265
 8539SOL     OW37252   1.309   4.129   5.354 -0.3479  0.2447 -0.5652
 8539SOL    HW137253   1.303   4.063   5.423 -3.1381  0.4453 -0.6084
 8539SOL    HW237254   1.242   4.096   5.294  0.7724 -1.9299 -0.6221
 8540SOL     OW37255   4.513   0.605   5.825  0.6688 -0.7048  0.1433
 8540SOL    HW137256   4.576   0.654   5.878 -0.2782  0.5762  0.0782
 8540SOL    HW237257   4.468   0.659   5.760 -0.5660 -1.0063  0.7412
 8541SOL     OW37258   1.310   3.550   9.302 -0.1812 -0.7705 -0.6418
 8541SOL    HW137259   1.214   3.551   9.298 -0.2267 -0.6648  0.5279
 8541SOL    HW237260   1.320   3.481   9.368 -0.1763 -0.8221 -0.6963
 8542SOL     OW37261   2.123   1.009   3.002 -0.0039 -0.1147  0.2028
 8542SOL    HW137262   2.036   1.013   3.041 -0.3771 -1.4045 -0.4696
 8542SOL    HW237263   2.192   1.025   3.066 -0.6782 -0.4651  1.0103
 8543SOL     OW37264   1.491   2.593   8.042 -0.5517  0.6211 -0.0988
 8543SOL    HW137265   1.453   2.506   8.041  1.7128 -0.3869  0.9636
 8543SOL    HW237266   1.511   2.615   8.133 -0.8776  0.4843  0.0040
 8544SOL     OW37267   1.856   3.756   5.548  0.2879 -0.2219 -0.3020
 8544SOL    HW137268   1.789   3.789   5.487 -1.1852 -1.9155  0.3784
 8544SOL    HW237269   1.808   3.768   5.630 -1.1866 -1.1030 -1.0148
 8545SOL     OW37270   4.112   1.822  12.843  0.3935 -0.1287 -0.2688
 8545SOL    HW137271   4.179   1.884  12.872  1.7440 -0.1794 -3.3090
 8545SOL    HW237272   4.057   1.891  12.804  0.7019 -0.4634 -1.2974
 8546SOL     OW37273   2.384   4.250   9.134 -0.8054  0.3580  0.3120
 8546SOL    HW137274   2.409   4.263   9.043  1.0067  2.1750  1.0681
 8546SOL    HW237275   2.445   4.313   9.173  0.7740 -1.1336  0.2138
 8547SOL     OW37276   2.125   0.013  16.241  0.7323 -0.3852 -0.1307
 8547SOL    HW137277   2.112   0.100  16.280 -0.5271 -0.2310 -0.8800
 8547SOL    HW237278   2.199   0.034  16.184  1.9020 -1.1897  1.0964
 8548SOL     OW37279   2.380   1.976   8.216 -0.2667 -0.0819  0.1646
 8548SOL    HW137280   2.305   1.943   8.267 -0.1350  0.9994  1.0500
 8548SOL    HW237281   2.383   1.913   8.143  0.0723 -1.5262  1.4261
 8549SOL     OW37282   2.789   1.421   5.345  0.7096 -0.5022 -0.3207
 8549SOL    HW137283   2.788   1.517   5.349  0.3649 -0.5690  1.1530
 8549SOL    HW237284   2.865   1.410   5.401  1.2259 -2.5658 -1.4422
 8550SOL     OW37285   3.831   0.418   4.385 -0.3464  0.5486  0.2297
 8550SOL    HW137286   3.851   0.486   4.451 -1.0765 -1.0895  2.1302
 8550SOL    HW237287   3.738   0.432   4.369 -0.4812 -1.8791 -0.9501
 8551SOL     OW37288   0.487   1.780   2.699  0.2003  0.1744  0.7238
 8551SOL    HW137289   0.477   1.693   2.662 -0.2572  0.1465  0.9130
 8551SOL    HW237290   0.528   1.761   2.784  2.3360 -1.4766 -0.6743
 8552SOL     OW37291   3.374   0.271   8.497  1.2654 -0.0438 -0.0299
 8552SOL    HW137292   3.441   0.340   8.500  2.3272 -1.0399 -0.7747
 8552SOL    HW237293   3.425   0.195   8.524  3.5466  1.0461 -1.2829
 8553SOL     OW37294   1.498   1.102   4.379  0.2115 -0.0272  0.2442
 8553SOL    HW137295   1.470   1.052   4.302 -0.3724  1.7912 -0.7411
 8553SOL    HW237296   1.413   1.143   4.395  1.1356  1.6701  0.7936
 8554SOL     OW37297   0.491   3.644  13.996 -0.3549  0.2930  0.3740
 8554SOL    HW137298   0.411   3.594  14.017 -0.9919  1.0337 -0.2883
 8554SOL    HW237299   0.484   3.657  13.902 -0.4478 -3.1260 -0.0845
 8555SOL     OW37300   3.338   1.715  16.559  0.4138  0.1222  0.0596
 8555SOL    HW137301   3.281   1.765  16.501  2.0922  1.4731 -0.4294
 8555SOL    HW237302   3.290   1.637  16.586 -3.1916  1.6801 -1.8697
 8556SOL     OW37303   2.009   3.369   5.087  0.2498  0.0473  0.1160
 8556SOL    HW137304   1.916   3.389   5.074 -0.0232 -0.0992  1.8230
 8556SOL    HW237305   2.057   3.388   5.006  0.3046  2.9499  0.8252
 8557SOL     OW37306   0.792   2.653   5.568 -0.0529  0.0189  0.4128
 8557SOL    HW137307   0.858   2.718   5.591  1.4115 -1.1739 -0.4333
 8557SOL    HW237308   0.719   2.676   5.626 -0.5092 -2.1013  0.6669
 8558SOL     OW37309   1.587   3.182  11.529 -0.4575 -0.0599 -0.5659
 8558SOL    HW137310   1.618   3.238  11.458  2.7281  3.2253  3.3493
 8558SOL    HW237311   1.556   3.241  11.598  1.3625 -0.3237  0.4684
 8559SOL     OW37312   2.389   1.670   9.849  0.0709 -0.4918 -0.1318
 8559SOL    HW137313   2.357   1.658   9.939  2.6512 -0.7961  0.7657
 8559SOL    HW237314   2.319   1.729   9.823  1.5769  1.0017 -0.8030
 8560SOL     OW37315   1.335   1.279   2.354  0.2443 -0.1457  0.0469
 8560SOL    HW137316   1.272   1.343   2.387  0.6717 -0.0836  0.7572
 8560SOL    HW237317   1.294   1.192   2.356 -1.3642  0.5663 -2.7489
 8561SOL     OW37318   0.523   2.369   4.065 -0.4750 -0.4661  0.4962
 8561SOL    HW137319   0.547   2.441   4.124 -1.5663  0.0320  0.3290
 8561SOL    HW237320   0.608   2.368   4.022 -1.2685  0.3505 -1.0991
 8562SOL     OW37321   3.522   3.010   1.977  0.0700  0.1912  0.0498
 8562SOL    HW137322   3.547   2.939   2.037 -1.6441  0.1396  0.6896
 8562SOL    HW237323   3.450   2.969   1.929  0.9401  1.0605 -2.0101
 8563SOL     OW37324   2.940   0.054  13.185 -0.5710  0.4176  0.1421
 8563SOL    HW137325   2.921   0.134  13.233 -2.7460  0.5628 -0.9806
 8563SOL    HW237326   2.850   0.022  13.181 -0.9947  1.3797  2.1940
 8564SOL     OW37327   3.956   1.539  10.572  0.0721  0.1835 -0.2330
 8564SOL    HW137328   3.956   1.583  10.657 -1.9628  0.3475 -0.3232
 8564SOL    HW237329   4.049   1.553  10.551  0.3555  1.1396  1.6658
 8565SOL     OW37330   2.752   4.679   7.703  0.4123 -0.1777  0.7775
 8565SOL    HW137331   2.702   4.713   7.628  0.5700  0.5356  0.9898
 8565SOL    HW237332   2.741   0.021   7.754 -3.3555 -1.3041  1.6937
 8566SOL     OW37333   1.438   4.610   5.573  0.2641  0.6371  0.0577
 8566SOL    HW137334   1.461   4.574   5.658 -3.6009 -1.1886  0.3060
 8566SOL    HW237335   1.344   4.600   5.580  0.4111 -0.2385  0.6958
 8567SOL     OW37336   4.661   1.532   8.294  0.3518  0.6915 -0.0273
 8567SOL    HW137337   4.648   1.472   8.367 -1.5875 -0.4082 -1.2692
 8567SOL    HW237338   0.015   1.549   8.310  1.2040 -1.6839 -2.4857
 8568SOL     OW37339   2.092   3.785   2.222 -0.7318  0.1190  0.8498
 8568SOL    HW137340   1.998   3.794   2.206 -1.2320 -2.0497  2.6124
 8568SOL    HW237341   2.104   3.741   2.306 -1.3306 -1.0159  0.3284
 8569SOL     OW37342   0.121   3.126   8.660 -0.0198 -0.5634 -0.3742
 8569SOL    HW137343   0.111   3.184   8.584  1.9072 -0.0674 -0.2447
 8569SOL    HW237344   0.146   3.195   8.722 -0.9750 -1.1337  0.6490
 8570SOL     OW37345   1.200   3.771   8.564 -0.8542 -0.4272 -0.1648
 8570SOL    HW137346   1.127   3.716   8.594 -1.2245  1.7327  2.8195
 8570SOL    HW237347   1.271   3.737   8.619 -1.2561  0.1140  0.6763
 8571SOL     OW37348   0.478   3.764   5.517 -0.5500 -0.2234  0.1264
 8571SOL    HW137349   0.457   3.819   5.593  0.8729  1.1017 -0.4648
 8571SOL    HW237350   0.422   3.689   5.542  1.1629 -0.6674  2.6744
 8572SOL     OW37351   4.113   2.652   7.167 -0.3178 -0.0933  0.3668
 8572SOL    HW137352   4.105   2.740   7.129  1.0007 -0.0184  0.2729
 8572SOL    HW237353   4.169   2.660   7.244 -0.3321 -2.2348  0.5983
 8573SOL     OW37354   2.589   3.336   7.000 -0.4770  0.4305 -0.2063
 8573SOL    HW137355   2.653   3.380   6.944 -0.1835 -1.2377 -1.1737
 8573SOL    HW237356   2.561   3.273   6.934  2.7120  0.5902 -1.7130
 8574SOL     OW37357   2.726   0.808   6.769 -0.0883  0.1152  0.6466
 8574SOL    HW137358   2.768   0.853   6.842  0.5485  1.1125 -0.3347
 8574SOL    HW237359   2.796   0.812   6.704  0.8325 -0.0669  1.6434
 8575SOL     OW37360   0.951   2.108   7.979  0.4965  0.5779 -0.0879
 8575SOL    HW137361   1.043   2.082   7.979  0.4129  0.3162  3.8498
 8575SOL    HW237362   0.925   2.050   8.050  2.0440 -0.1125 -0.0894
 8576SOL     OW37363   0.148   4.388   9.315 -0.0533  0.3006  0.1968
 8576SOL    HW137364   0.125   4.471   9.355  0.2153  0.8204 -0.7130
 8576SOL    HW237365   0.112   4.392   9.226  2.7301 -0.3955 -0.9983
 8577SOL     OW37366   2.915   4.488  16.927  0.0280 -0.1470  0.3007
 8577SOL    HW137367   2.847   4.495  16.993  0.1515 -1.4488  0.5750
 8577SOL    HW237368   2.972   4.559  16.953  3.3986 -3.2589  1.4390
 8578SOL     OW37369   1.220   4.484   2.562 -0.4660  0.3862  0.3910
 8578SOL    HW137370   1.198   4.500   2.654  1.3932 -1.4275  1.1319
 8578SOL    HW237371   1.189   4.394   2.555 -0.8785  0.6341 -1.0055
 8579SOL     OW37372   1.892   0.906  10.216 -1.0809  0.0044 -0.1274
 8579SOL    HW137373   1.799   0.889  10.197 -1.4388 -0.9542  2.4696
 8579SOL    HW237374   1.882   0.934  10.307  0.4569  0.7036 -0.1788
 8580SOL     OW37375   2.473   2.939   9.682  0.1444 -0.3758 -0.5648
 8580SOL    HW137376   2.442   2.862   9.730 -2.3580  0.0179 -1.5137
 8580SOL    HW237377   2.565   2.931   9.659  0.9466  2.8419  1.5448
 8581SOL     OW37378   1.277   3.587   4.919  0.2825  0.3840  0.7603
 8581SOL    HW137379   1.243   3.531   4.989 -0.5767  1.2272  1.0145
 8581SOL    HW237380   1.296   3.660   4.978 -1.4600 -1.0648  3.0943
 8582SOL     OW37381   2.824   1.373   5.919  0.1485  0.3165 -0.3742
 8582SOL    HW137382   2.813   1.425   5.999  1.8460  1.6783 -1.0119
 8582SOL    HW237383   2.908   1.405   5.885  0.3453 -2.1276 -2.1409
 8583SOL     OW37384   1.998   4.736   5.457 -0.1173 -0.0276  0.2008
 8583SOL    HW137385   1.907   0.026   5.452 -0.4515 -0.7059  2.6903
 8583SOL    HW237386   2.041   0.044   5.528  1.5739  0.3531 -1.0779
 8584SOL     OW37387   1.250   2.171   1.614 -0.2239 -0.5490 -0.3259
 8584SOL    HW137388   1.282   2.117   1.541  2.0107  0.9272 -0.4345
 8584SOL    HW237389   1.165   2.129   1.626  0.0385 -1.4309 -1.4854
 8585SOL     OW37390   1.998   3.726   5.171  0.0612 -0.3348 -0.1016
 8585SOL    HW137391   2.091   3.703   5.171 -0.4141 -2.2780  2.4036
 8585SOL    HW237392   1.962   3.659   5.112  1.9927 -0.8398 -0.7091
 8586SOL     OW37393   3.616   0.226   4.635 -0.0435  0.5630 -0.0628
 8586SOL    HW137394   3.535   0.176   4.636  0.2404  0.1319  1.4584
 8586SOL    HW237395   3.666   0.199   4.558 -0.9953  0.8115 -0.7603
 8587SOL     OW37396   4.323   2.936   3.037 -0.1987 -0.0266  0.0679
 8587SOL    HW137397   4.402   2.888   3.013  0.6195  1.6376 -0.5611
 8587SOL    HW237398   4.256   2.871   3.016 -0.0248  0.2547 -1.3260
 8588SOL     OW37399   3.699   3.970   7.057  0.2535 -0.1129  0.0260
 8588SOL    HW137400   3.640   3.967   6.981 -0.2183  0.5865  0.3648
 8588SOL    HW237401   3.749   4.050   7.037 -0.0339  0.1978  0.5721
 8589SOL     OW37402   3.909   4.619   4.342 -0.4057 -0.4321 -0.3349
 8589SOL    HW137403   3.922   4.587   4.253  1.2163  0.2864 -0.3580
 8589SOL    HW237404   3.931   4.538   4.386 -0.8971 -0.8362 -0.8206
 8590SOL     OW37405   3.372   1.618   8.182  0.1193  0.3292  0.9049
 8590SOL    HW137406   3.414   1.639   8.265 -0.4757  0.9867  1.0393
 8590SOL    HW237407   3.408   1.676   8.115  0.9645 -1.8409 -0.5211
 8591SOL     OW37408   0.178   1.262   6.650 -0.3811 -0.0451 -0.2641
 8591SOL    HW137409   0.202   1.324   6.719  3.3728 -0.4424 -1.2319
 8591SOL    HW237410   0.083   1.273   6.654 -0.4787 -0.4586 -1.3670
 8592SOL     OW37411   2.836   4.533   6.228 -0.5817  0.1997 -0.0767
 8592SOL    HW137412   2.906   4.508   6.289 -2.1905 -0.9668  1.3013
 8592SOL    HW237413   2.846   4.627   6.238 -0.1502 -0.0010  1.4258
 8593SOL     OW37414   1.215   3.086  16.428 -0.0683 -0.2386 -0.1468
 8593SOL    HW137415   1.199   3.038  16.347  0.1095  2.1329 -1.5951
 8593SOL    HW237416   1.170   3.162  16.390  1.3401  0.2856 -0.7423
 8594SOL     OW37417   1.448   2.103   6.802  0.0263  0.0598 -0.2473
 8594SOL    HW137418   1.538   2.123   6.776  0.5001  0.6472  1.8737
 8594SOL    HW237419   1.441   2.011   6.774  1.2063 -0.6541  1.8184
 8595SOL     OW37420   1.574   3.348   1.964  0.0346 -0.0793  0.9021
 8595SOL    HW137421   1.547   3.417   1.904  2.2285 -0.2722 -0.3060
 8595SOL    HW237422   1.523   3.275   1.929 -1.3924  0.9512  0.8235
 8596SOL     OW37423   1.922   1.144  15.109  0.1517 -0.1953  0.0379
 8596SOL    HW137424   1.915   1.238  15.125  3.2861  0.0321  0.0458
 8596SOL    HW237425   1.944   1.143  15.016 -0.5221 -1.0024 -0.1171
 8597SOL     OW37426   0.189   2.325  17.661 -0.2222 -0.1999  0.2199
 8597SOL    HW137427   0.195   2.264  17.734 -0.8499 -0.6025 -0.0693
 8597SOL    HW237428   0.204   2.265  17.588  0.1593  0.3993 -0.1893
 8598SOL     OW37429   1.680   1.949   6.239  0.1008  0.5940 -0.1347
 8598SOL    HW137430   1.620   1.954   6.164  1.1997  0.4149 -1.0224
 8598SOL    HW237431   1.685   1.854   6.240  1.4425  0.6807  1.2499
 8599SOL     OW37432   4.348   1.165   7.531 -0.1233  0.1338  0.5064
 8599SOL    HW137433   4.351   1.160   7.626  3.2473 -0.4397  0.3551
 8599SOL    HW237434   4.438   1.196   7.518  0.3993 -2.0622 -1.1725
 8600SOL     OW37435   0.017   4.073  10.421  0.4480 -0.2347 -0.7880
 8600SOL    HW137436   0.030   3.979  10.406  0.1260 -0.7224  1.8385
 8600SOL    HW237437   4.666   4.074  10.388  0.5941  0.5132 -1.1630
 8601SOL     OW37438   2.700   1.750   6.333  0.3148 -0.1221 -0.6374
 8601SOL    HW137439   2.768   1.768   6.397 -1.9679 -1.8241  2.2703
 8601SOL    HW237440   2.684   1.843   6.316 -0.0771 -0.0217  0.2930
 8602SOL     OW37441   4.108   1.396   7.150 -0.3905 -0.5291  0.2247
 8602SOL    HW137442   4.038   1.460   7.133 -0.9729 -1.0409  0.7049
 8602SOL    HW237443   4.106   1.402   7.246 -2.3142 -0.0453  0.1579
 8603SOL     OW37444   0.527   1.066   6.458 -0.4167  0.1331  0.7157
 8603SOL    HW137445   0.507   1.034   6.546  0.3439 -0.7071  0.5849
 8603SOL    HW237446   0.612   1.104   6.478  0.1491  0.2744 -2.0023
 8604SOL     OW37447   3.259   0.408   6.970  0.1405  0.2813  0.4245
 8604SOL    HW137448   3.289   0.467   6.901  0.0477  0.9086  0.9227
 8604SOL    HW237449   3.317   0.337   6.941 -0.9321 -0.7527  0.8439
 8605SOL     OW37450   0.126   2.698  10.311 -0.1234 -0.1954  0.3833
 8605SOL    HW137451   0.207   2.648  10.325 -1.0840 -1.7292  0.4676
 8605SOL    HW237452   0.118   2.717  10.404 -0.5715 -1.4242  0.5998
 8606SOL     OW37453   2.624   3.748   1.467  0.2273  0.0405 -0.0728
 8606SOL    HW137454   2.542   3.769   1.423  1.0751  1.9891 -0.7104
 8606SOL    HW237455   2.605   3.805   1.542  0.2604  0.2193 -0.1990
 8607SOL     OW37456   1.833   4.481   7.519  0.6149  0.7199  0.0574
 8607SOL    HW137457   1.787   4.421   7.461 -1.4929  1.8463  0.5641
 8607SOL    HW237458   1.872   4.413   7.574  0.5002  0.4678 -0.1772
 8608SOL     OW37459   1.942   2.273  15.543 -0.1887 -0.5858  0.3698
 8608SOL    HW137460   1.873   2.336  15.563 -1.4810 -1.9923  0.2602
 8608SOL    HW237461   1.894   2.227  15.475  0.9558  1.2349 -1.7046
 8609SOL     OW37462   4.335   3.769   9.001 -0.2384 -0.6125  0.3084
 8609SOL    HW137463   4.387   3.774   9.082  0.2071  0.8114 -0.0775
 8609SOL    HW237464   4.406   3.773   8.937 -0.1163  1.4105  0.5940
 8610SOL     OW37465   0.158   4.549   1.594 -0.0482  0.0125  0.2461
 8610SOL    HW137466   0.226   4.596   1.643 -0.4689  0.9475 -0.0718
 8610SOL    HW237467   0.116   4.486   1.652  2.5394 -1.4500  0.5614
 8611SOL     OW37468   0.887   0.494   2.819  0.7889  0.3509 -0.0757
 8611SOL    HW137469   0.876   0.516   2.911 -1.9863  2.0658 -0.8367
 8611SOL    HW237470   0.981   0.514   2.816  0.9922 -0.5882 -0.0038
 8612SOL     OW37471   1.625   4.699   4.496 -0.2620 -0.1697 -0.4842
 8612SOL    HW137472   1.702   4.721   4.549 -2.8198  1.4125  2.5464
 8612SOL    HW237473   1.599   4.614   4.530  0.0817  0.2781  0.8886
 8613SOL     OW37474   4.456   2.533   3.162 -0.4553 -0.3322  0.7093
 8613SOL    HW137475   4.371   2.499   3.133 -0.0167 -0.2762 -0.6304
 8613SOL    HW237476   4.450   2.616   3.115  2.0340 -0.6895 -0.2447
 8614SOL     OW37477   1.169   2.392  16.092  0.0376  0.1867  0.1813
 8614SOL    HW137478   1.197   2.429  16.175 -0.6009 -2.6323  1.6535
 8614SOL    HW237479   1.109   2.461  16.065 -1.3389 -0.4189  1.7473
 8615SOL     OW37480   3.466   4.441   7.072  0.6385  0.4742  0.0614
 8615SOL    HW137481   3.537   4.404   7.020 -0.7049 -3.2462  0.8365
 8615SOL    HW237482   3.497   4.422   7.161 -3.1193  0.4927  1.3924
 8616SOL     OW37483   3.013   0.522   7.006  0.2476 -0.0737  0.7299
 8616SOL    HW137484   2.966   0.453   7.053  0.5327 -0.9735 -0.3158
 8616SOL    HW237485   3.094   0.472   6.995 -0.8348 -1.5146 -0.7319
 8617SOL     OW37486   3.849   4.467   1.034  0.3335  0.6715 -0.3458
 8617SOL    HW137487   3.830   4.487   0.942  1.5032 -1.4939 -1.0587
 8617SOL    HW237488   3.814   4.541   1.082  0.2697 -1.2530  2.5325
 8618SOL     OW37489   0.732   1.638   6.541  0.2233 -0.4265  0.3081
 8618SOL    HW137490   0.669   1.677   6.602 -1.3812  0.1956 -1.7327
 8618SOL    HW237491   0.681   1.573   6.493 -2.4868  2.8689 -1.3401
 8619SOL     OW37492   1.157   3.543   6.994  0.3284 -0.2095  0.5760
 8619SOL    HW137493   1.171   3.631   6.958  0.8615 -1.2864 -1.8150
 8619SOL    HW237494   1.202   3.546   7.079  2.5712  0.8674 -0.6477
 8620SOL     OW37495   3.793   0.806   3.320 -0.1606 -0.0626 -0.1547
 8620SOL    HW137496   3.735   0.877   3.347  2.4110  2.4698 -1.2472
 8620SOL    HW237497   3.799   0.831   3.228  0.9621  2.2959  0.5576
 8621SOL     OW37498   2.398   4.297   8.870 -0.6400  0.4137  0.3287
 8621SOL    HW137499   2.489   4.277   8.847 -0.5583  0.5283  0.5550
 8621SOL    HW237500   2.347   4.264   8.795  0.8257 -2.1524  0.4612
 8622SOL     OW37501   3.426   1.541  10.070 -0.2087  0.7971  0.6241
 8622SOL    HW137502   3.437   1.446  10.067  0.9939  0.9103  1.2495
 8622SOL    HW237503   3.335   1.535  10.042  0.6976 -2.8663 -1.5760
 8623SOL     OW37504   2.101   3.953   4.700 -0.4003  0.4747  0.1241
 8623SOL    HW137505   2.050   4.030   4.675 -0.8065 -0.2271 -1.1906
 8623SOL    HW237506   2.191   3.981   4.687 -0.7315  1.0511 -0.9164
 8624SOL     OW37507   0.863   3.044  14.773  0.3518 -0.6230 -0.1764
 8624SOL    HW137508   0.803   2.988  14.823  0.7984  0.0677  1.1270
 8624SOL    HW237509   0.827   3.132  14.782 -3.8294 -2.2367 -1.3374
 8625SOL     OW37510   3.469   4.445   2.209  0.0031  0.4691  0.1637
 8625SOL    HW137511   3.464   4.355   2.176  1.1628  0.0433  1.1679
 8625SOL    HW237512   3.563   4.463   2.198 -0.0934  0.6696 -0.3369
 8626SOL     OW37513   1.203   1.467   2.524  0.5087  0.0331  0.4252
 8626SOL    HW137514   1.167   1.546   2.484  0.7999 -0.0865 -0.0798
 8626SOL    HW237515   1.128   1.437   2.575  1.1963 -0.7371  0.9809
 8627SOL     OW37516   3.866   0.735   2.896  0.2434 -0.2123 -0.0613
 8627SOL    HW137517   3.869   0.646   2.931 -1.9238 -0.5407 -0.7029
 8627SOL    HW237518   3.821   0.722   2.812  0.0724 -1.3003  0.2049
 8628SOL     OW37519   3.665   1.212   3.714  0.6142 -0.2331  0.2056
 8628SOL    HW137520   3.755   1.201   3.684  0.0535 -1.6099 -1.0259
 8628SOL    HW237521   3.660   1.307   3.720  0.8848 -0.2766  1.2155
 8629SOL     OW37522   2.037   2.352  10.072 -0.0814  0.2283  0.4127
 8629SOL    HW137523   2.060   2.261  10.094  0.3910  0.2642  0.0608
 8629SOL    HW237524   1.974   2.332  10.003  0.9236  0.3442 -0.5420
 8630SOL     OW37525   2.377   2.140   8.729 -0.2390 -0.1076 -0.1524
 8630SOL    HW137526   2.420   2.226   8.730  2.7030 -1.6049  0.0705
 8630SOL    HW237527   2.322   2.146   8.651  0.5897  0.7343 -0.6712
 8631SOL     OW37528   0.450   4.034  12.490  0.1510 -0.3757 -0.3223
 8631SOL    HW137529   0.362   3.997  12.499 -0.7101  1.1975 -2.1309
 8631SOL    HW237530   0.504   3.980  12.547 -0.5189 -1.7324 -0.9612
 8632SOL     OW37531   4.211   4.307  10.892  0.1154 -0.0500  0.3202
 8632SOL    HW137532   4.279   4.352  10.842 -0.9259  1.9820  0.7512
 8632SOL    HW237533   4.168   4.273  10.814 -0.0272  0.1816  0.2983
 8633SOL     OW37534   0.450   4.235   7.727  0.1812 -0.2322  0.5108
 8633SOL    HW137535   0.420   4.169   7.665 -0.3119  0.3291  0.1541
 8633SOL    HW237536   0.523   4.189   7.770  2.1790  1.7941 -0.7039
 8634SOL     OW37537   1.109   1.327   9.269 -0.1625 -0.1319  0.1889
 8634SOL    HW137538   1.084   1.263   9.202  1.4222 -0.8500  0.3040
 8634SOL    HW237539   1.069   1.294   9.349 -1.1596 -1.1549 -0.7242
 8635SOL     OW37540   2.060   0.156  17.008 -0.5083  0.4999 -0.2128
 8635SOL    HW137541   2.120   0.140  16.936  0.2351 -1.0633  0.7626
 8635SOL    HW237542   1.981   0.161  16.954 -0.8361 -0.7857  0.1510
 8636SOL     OW37543   0.393   2.427  16.382  0.4094 -0.2383 -0.5533
 8636SOL    HW137544   0.354   2.445  16.467  0.7089  0.6556 -0.6054
 8636SOL    HW237545   0.317   2.395  16.334 -1.1762  0.5374  1.4526
 8637SOL     OW37546   4.182   2.726  15.612  0.2735  0.0687 -0.0817
 8637SOL    HW137547   4.231   2.690  15.538  2.0722  0.7871  0.7611
 8637SOL    HW237548   4.215   2.815  15.602  1.2340 -0.3002 -0.1664
 8638SOL     OW37549   1.180   1.970   4.124  0.6896 -0.5919 -0.5696
 8638SOL    HW137550   1.096   2.013   4.138  1.3208 -0.4138  2.7076
 8638SOL    HW237551   1.241   2.014   4.183 -1.4077 -0.0206  1.1666
 8639SOL     OW37552   0.476   0.621   6.668 -0.1640  0.0145  0.2791
 8639SOL    HW137553   0.409   0.557   6.645 -0.9736  0.5714  1.0830
 8639SOL    HW237554   0.433   0.703   6.643  1.3702  0.8695  0.4328
 8640SOL     OW37555   4.729   4.727  10.257 -0.3188 -0.2674  0.2634
 8640SOL    HW137556   0.004   4.702  10.349 -0.9754 -2.9899 -0.4002
 8640SOL    HW237557   0.067   0.044  10.242 -1.1923  0.7540 -0.3373
 8641SOL     OW37558   3.910   1.569   7.123  0.3087  0.7745 -0.3582
 8641SOL    HW137559   3.928   1.633   7.054  0.4009  1.0747 -0.0572
 8641SOL    HW237560   3.827   1.529   7.096  0.4421  1.2398 -1.4533
 8642SOL     OW37561   2.410   1.779   2.710 -0.2324 -0.7853  0.0457
 8642SOL    HW137562   2.358   1.830   2.772 -1.7453 -0.8207 -1.1881
 8642SOL    HW237563   2.499   1.814   2.717 -0.5330 -0.3263  1.6042
 8643SOL     OW37564   0.426   0.488   0.488  0.2637  0.6712  0.1492
 8643SOL    HW137565   0.512   0.474   0.528 -0.2970 -1.1296  0.7240
 8643SOL    HW237566   0.370   0.417   0.519 -1.5144  2.4749  1.0688
 8644SOL     OW37567   0.494   1.394   5.130 -0.0262 -0.3245  0.2382
 8644SOL    HW137568   0.445   1.378   5.210  0.1713  0.6459  0.5403
 8644SOL    HW237569   0.497   1.304   5.097 -0.9797  0.8658 -3.1438
 8645SOL     OW37570   4.399   1.321   7.184 -0.2268  0.6001  0.0639
 8645SOL    HW137571   4.383   1.245   7.128 -0.7691  0.7703 -0.0101
 8645SOL    HW237572   4.312   1.337   7.221  1.1683  2.2816  2.6044
 8646SOL     OW37573   1.041   0.504   1.319 -0.1198  0.3059 -0.2947
 8646SOL    HW137574   1.022   0.589   1.279 -0.9364 -0.5436 -1.7106
 8646SOL    HW237575   1.079   0.524   1.405 -0.7603 -0.1135  0.0877
 8647SOL     OW37576   4.175   1.360  11.436  0.1802  0.6723  0.4496
 8647SOL    HW137577   4.217   1.284  11.397  0.0180  0.2782  1.0353
 8647SOL    HW237578   4.090   1.357  11.393  0.6270  1.2133 -0.4833
 8648SOL     OW37579   3.937   1.784  11.169  0.2047 -0.0489 -0.1101
 8648SOL    HW137580   4.015   1.758  11.216 -0.2638 -0.9956  0.1534
 8648SOL    HW237581   3.909   1.697  11.138 -1.3586  0.5406 -0.3950
 8649SOL     OW37582   2.846   1.345   2.309 -0.3035 -0.1445  0.0634
 8649SOL    HW137583   2.859   1.278   2.377  0.5578  0.8813  0.9136
 8649SOL    HW237584   2.876   1.426   2.352 -0.6324 -1.5386  2.9284
 8650SOL     OW37585   3.670   1.472   1.355 -0.1684 -0.1344  0.4731
 8650SOL    HW137586   3.645   1.528   1.281 -0.3373 -2.7460 -1.4335
 8650SOL    HW237587   3.588   1.442   1.394 -0.5942 -1.0401 -1.1166
 8651SOL     OW37588   1.861   4.437   3.291  0.2955  0.1286 -0.1342
 8651SOL    HW137589   1.858   4.489   3.371 -0.9227 -1.9323  1.1550
 8651SOL    HW237590   1.800   4.477   3.229  1.3331  0.2054 -1.1088
 8652SOL     OW37591   1.910   2.672  14.571  0.5764  0.2943 -0.2131
 8652SOL    HW137592   1.831   2.624  14.545 -0.0907  0.2973  1.8103
 8652SOL    HW237593   1.960   2.600  14.609 -2.1135 -1.7433 -0.5086
 8653SOL     OW37594   1.979   0.699  13.532  0.9736  0.3603 -0.1418
 8653SOL    HW137595   2.066   0.675  13.501  0.4993 -0.7901 -0.5972
 8653SOL    HW237596   1.935   0.675  13.451 -0.7309  0.4692  0.7422
 8654SOL     OW37597   2.412   3.749   4.722 -0.2505 -0.1545 -0.5021
 8654SOL    HW137598   2.407   3.728   4.629 -0.0009 -0.6609 -0.4030
 8654SOL    HW237599   2.360   3.681   4.766  0.0989 -1.0810 -1.5239
 8655SOL     OW37600   2.085   1.483   8.562  0.5138  0.2260  0.1994
 8655SOL    HW137601   2.154   1.548   8.554  0.8113 -0.4798 -2.8641
 8655SOL    HW237602   2.023   1.530   8.618 -0.2266 -0.3093 -0.1647
 8656SOL     OW37603   4.307   2.634   2.561  0.0414 -0.1103 -0.1619
 8656SOL    HW137604   4.259   2.574   2.618 -0.1664  2.0149  1.8706
 8656SOL    HW237605   4.234   2.680   2.518  1.0313  0.8883 -0.7625
 8657SOL     OW37606   1.248   3.801   4.720 -0.6483  0.3257 -0.5893
 8657SOL    HW137607   1.343   3.809   4.720 -0.3638 -3.0386 -1.2343
 8657SOL    HW237608   1.242   3.731   4.786  0.1515 -0.8453 -1.7563
 8658SOL     OW37609   4.454   0.831   4.017 -0.4975 -0.2325 -0.5735
 8658SOL    HW137610   4.529   0.772   4.027  0.6046  1.4661  1.1635
 8658SOL    HW237611   4.484   0.877   3.940  0.5509 -1.5077 -0.9271
 8659SOL     OW37612   3.452   3.810   2.208 -0.2018  0.3294 -0.3557
 8659SOL    HW137613   3.427   3.770   2.124 -1.2485  0.4104 -0.0886
 8659SOL    HW237614   3.442   3.740   2.272  0.8327  1.5548  1.1457
 8660SOL     OW37615   1.932   4.494  14.563  0.6739 -0.1966  0.6407
 8660SOL    HW137616   1.982   4.574  14.546  3.4000 -2.2833 -1.1815
 8660SOL    HW237617   1.919   4.517  14.655  1.3362 -1.3559  1.0243
 8661SOL     OW37618   4.017   1.870   6.180 -0.9172 -0.7165  0.3789
 8661SOL    HW137619   3.951   1.812   6.140 -2.4063  1.1880  0.0851
 8661SOL    HW237620   4.009   1.949   6.128  0.2747 -0.6825  0.2692
 8662SOL     OW37621   0.040   4.193  11.198 -0.4748 -0.3220 -0.4875
 8662SOL    HW137622   0.003   4.265  11.249  1.7538 -1.1604  2.2902
 8662SOL    HW237623   0.134   4.211  11.203 -0.1784 -1.7639 -0.7944
 8663SOL     OW37624   2.276   1.300   9.272  0.5734  0.1062 -0.1790
 8663SOL    HW137625   2.248   1.291   9.363 -0.8697 -0.8972 -0.7276
 8663SOL    HW237626   2.270   1.391   9.245  0.7342  0.2546  0.2896
 8664SOL     OW37627   3.567   3.602   9.998 -0.0303  0.6889  0.2896
 8664SOL    HW137628   3.629   3.629   9.930 -1.4010  2.0357 -0.4218
 8664SOL    HW237629   3.542   3.686  10.036  0.6407  0.8839  0.3047
 8665SOL     OW37630   0.400   0.560  14.459  0.6456 -0.6410 -0.1920
 8665SOL    HW137631   0.394   0.588  14.550  0.3457  0.5934 -0.5896
 8665SOL    HW237632   0.458   0.486  14.476 -1.2164 -2.0421  0.0939
 8666SOL     OW37633   0.771   1.449  10.823 -0.5135  0.0787  0.0196
 8666SOL    HW137634   0.695   1.500  10.793 -0.1540  1.7114  1.8812
 8666SOL    HW237635   0.809   1.432  10.737 -0.6430  3.1732 -0.6706
 8667SOL     OW37636   3.104   0.445  12.905  0.0421  0.6420  0.5094
 8667SOL    HW137637   3.131   0.430  12.996 -0.1766 -0.6759  0.3571
 8667SOL    HW237638   3.090   0.539  12.902  1.0056  0.7958  0.8852
 8668SOL     OW37639   1.119   2.825  14.362  0.0626  0.6898 -0.2212
 8668SOL    HW137640   1.157   2.898  14.313  1.4407  0.5544  0.6419
 8668SOL    HW237641   1.203   2.793  14.393 -0.2924 -1.5153 -1.5592
 8669SOL     OW37642   3.808   0.798   0.828  0.0266  0.2334  0.3186
 8669SOL    HW137643   3.836   0.856   0.757 -2.5059  0.4109 -0.5170
 8669SOL    HW237644   3.884   0.741   0.818 -0.0980  0.2241 -0.6603
 8670SOL     OW37645   4.426   2.307   2.869 -0.2620 -0.4285  0.5483
 8670SOL    HW137646   4.466   2.394   2.864  0.3335 -0.4953  4.1375
 8670SOL    HW237647   4.458   2.262   2.791 -0.6581 -1.5113  1.0083
 8671SOL     OW37648   3.139   2.146  12.189  0.1342  0.2897 -0.0450
 8671SOL    HW137649   3.189   2.103  12.120  0.4940  2.3404 -1.0567
 8671SOL    HW237650   3.206   2.195  12.237 -1.0191 -0.4961  2.3829
 8672SOL     OW37651   1.690   2.227   3.670  0.4371  0.2204  0.6453
 8672SOL    HW137652   1.731   2.270   3.745  3.3443 -0.4452 -0.5752
 8672SOL    HW237653   1.766   2.221   3.613 -1.3270  1.3394 -1.8628
 8673SOL     OW37654   3.039   1.245  10.373 -0.4980 -0.6468 -0.2844
 8673SOL    HW137655   3.133   1.259  10.357 -0.9584  0.2565 -2.1342
 8673SOL    HW237656   3.042   1.151  10.391  1.0775 -0.5869 -0.1558
 8674SOL     OW37657   0.411   1.032   7.886  0.2850 -0.0207 -0.0164
 8674SOL    HW137658   0.376   1.114   7.850  1.1602  0.0551 -0.6923
 8674SOL    HW237659   0.485   1.014   7.828 -1.3722  0.0551 -2.1859
 8675SOL     OW37660   4.084   4.401   3.178  0.7716  0.5973  0.0482
 8675SOL    HW137661   4.097   4.315   3.218 -1.8855  0.0950 -0.1934
 8675SOL    HW237662   3.998   4.389   3.139  1.5453 -1.7412 -0.9164
 8676SOL     OW37663   0.129   0.344   5.113  0.3461 -0.2656  0.3491
 8676SOL    HW137664   0.137   0.295   5.032 -3.6292 -0.8988  0.3627
 8676SOL    HW237665   0.221   0.362   5.135  1.1793 -1.4619 -2.1841
 8677SOL     OW37666   4.492   0.191   8.578 -0.2607 -0.4783 -0.4929
 8677SOL    HW137667   4.408   0.216   8.541  0.2833 -0.1526 -1.4955
 8677SOL    HW237668   4.466   0.107   8.617  1.9756 -1.1149 -0.3522
 8678SOL     OW37669   3.937   2.725   4.917 -0.3618  0.2888 -0.2208
 8678SOL    HW137670   3.910   2.695   5.004 -0.5672 -0.7371 -0.6356
 8678SOL    HW237671   3.912   2.650   4.863  1.5353 -0.3100 -0.2704
 8679SOL     OW37672   3.572   2.930   7.266 -0.1110  0.1417 -0.4284
 8679SOL    HW137673   3.487   2.908   7.228  0.5268 -2.3944 -0.3640
 8679SOL    HW237674   3.562   2.898   7.355  0.5808  1.1551  0.0158
 8680SOL     OW37675   4.270   4.471   7.898  0.2765 -0.2444  0.0388
 8680SOL    HW137676   4.208   4.455   7.968 -1.5037 -0.4179 -1.5674
 8680SOL    HW237677   4.298   4.381   7.878  2.3829  0.1048  1.4374
 8681SOL     OW37678   3.855   3.636   5.730 -0.3214 -0.2322  0.1568
 8681SOL    HW137679   3.765   3.638   5.763 -0.8321  1.1989 -1.3081
 8681SOL    HW237680   3.848   3.660   5.637  1.2858  0.0257  0.1055
 8682SOL     OW37681   0.521   3.424  15.155  0.4294  0.3171  0.3144
 8682SOL    HW137682   0.564   3.341  15.133 -3.2592 -1.9191  1.4794
 8682SOL    HW237683   0.431   3.407  15.127  0.9423 -1.5554 -0.2052
 8683SOL     OW37684   1.838   1.223   1.870  0.1928 -0.5674  0.2110
 8683SOL    HW137685   1.777   1.275   1.818  0.9591 -0.2589 -0.3770
 8683SOL    HW237686   1.781   1.149   1.890  2.5251 -2.3620  0.2026
 8684SOL     OW37687   0.639   3.516   0.081  0.1778  0.1002 -0.3958
 8684SOL    HW137688   0.577   3.461   0.127 -0.0464 -0.1761 -1.0262
 8684SOL    HW237689   0.708   3.453   0.061 -0.0616  0.4118 -2.2857
 8685SOL     OW37690   0.087   1.320   5.782 -0.6390  0.1117  0.0353
 8685SOL    HW137691   0.077   1.307   5.877  0.6231 -0.4722  0.0930
 8685SOL    HW237692   0.178   1.350   5.773 -0.8174  0.7135  0.2051
 8686SOL     OW37693   3.882   1.440   4.555  0.3332 -0.0651  0.1482
 8686SOL    HW137694   3.815   1.476   4.496  0.8917  0.5703 -0.0910
 8686SOL    HW237695   3.822   1.400   4.619  0.9234  0.5794  1.1007
 8687SOL     OW37696   2.750   4.608   2.877  0.3005  0.0348  0.5775
 8687SOL    HW137697   2.676   4.577   2.825  0.1424 -1.8245  1.8710
 8687SOL    HW237698   2.788   4.532   2.921 -0.0992 -0.1371  0.6276
 8688SOL     OW37699   1.880   0.480  15.311  0.1339 -0.5045  0.1318
 8688SOL    HW137700   1.788   0.505  15.302  0.9335  1.5635 -2.5649
 8688SOL    HW237701   1.910   0.550  15.370 -2.0026 -0.0158  0.6160
 8689SOL     OW37702   1.657   4.401  14.534  0.5882 -0.3514 -0.3849
 8689SOL    HW137703   1.745   4.423  14.503  0.3098  0.0080 -0.9072
 8689SOL    HW237704   1.603   4.470  14.496 -0.6536 -1.2553 -0.2493
 8690SOL     OW37705   2.095   4.138   9.289 -0.1886  0.7176  0.1548
 8690SOL    HW137706   2.118   4.222   9.329  0.3054 -1.1173  3.7815
 8690SOL    HW237707   2.057   4.171   9.208 -0.9796  0.6409  0.4915
 8691SOL     OW37708   4.411   0.470   0.744 -0.1096  0.5697 -0.2998
 8691SOL    HW137709   4.477   0.538   0.730 -2.0381  2.3889 -0.4415
 8691SOL    HW237710   4.444   0.407   0.680 -3.9274 -1.5415 -0.1545
 8692SOL     OW37711   2.832   4.236   2.718 -0.2675  0.4237  0.5601
 8692SOL    HW137712   2.737   4.229   2.704 -0.5897  1.5727  2.1958
 8692SOL    HW237713   2.832   4.239   2.813 -1.3548  1.7250  0.5191
 8693SOL     OW37714   3.138   1.587   2.428  0.5320  0.0750 -0.3177
 8693SOL    HW137715   3.116   1.621   2.515  0.2026 -1.4686  0.2006
 8693SOL    HW237716   3.055   1.612   2.386  0.1281  0.4183  0.6770
 8694SOL     OW37717   3.960   2.843  10.595  0.0984  0.7798  0.2027
 8694SOL    HW137718   4.036   2.829  10.539 -1.3084  1.6846 -1.9472
 8694SOL    HW237719   3.893   2.827  10.529 -0.6221  0.7364  0.9442
 8695SOL     OW37720   3.515   0.673   8.781 -0.4951 -0.2428 -0.2285
 8695SOL    HW137721   3.511   0.733   8.706  0.3430  0.1529  0.0531
 8695SOL    HW237722   3.579   0.721   8.832  1.2985 -0.5984 -2.1507
 8696SOL     OW37723   0.350   3.914   0.255  0.5670  0.0351  0.0119
 8696SOL    HW137724   0.346   3.827   0.215  1.0210  0.4227 -0.8700
 8696SOL    HW237725   0.378   3.890   0.343 -0.6464 -3.2196 -0.4657
 8697SOL     OW37726   3.640   1.360  11.849 -0.5487 -0.4101  0.0893
 8697SOL    HW137727   3.720   1.335  11.894  0.0076 -1.7128 -1.6327
 8697SOL    HW237728   3.671   1.423  11.784  1.8073 -0.1800  1.4303
 8698SOL     OW37729   4.328   0.097   4.293  0.4369 -0.0905 -0.4115
 8698SOL    HW137730   4.356   0.090   4.202 -0.1208  1.8860 -0.7363
 8698SOL    HW237731   4.249   0.150   4.283  0.9842  0.7905 -0.0577
 8699SOL     OW37732   4.716   4.162   1.091 -0.3705  0.3539  0.2363
 8699SOL    HW137733   0.042   4.091   1.097 -1.2962 -0.5389 -0.3463
 8699SOL    HW237734   4.735   4.188   1.001 -0.0098  3.1672  1.1236
 8700SOL     OW37735   4.090   0.039   0.419  0.3702 -0.5345  0.4404
 8700SOL    HW137736   4.047   4.692   0.422 -2.1392  0.7643  1.9639
 8700SOL    HW237737   4.141   0.033   0.499 -1.0385 -0.8484  1.3159
 8701SOL     OW37738   0.449   1.968   4.633  0.4984 -0.3946  0.6621
 8701SOL    HW137739   0.503   2.047   4.634  1.0815 -0.7738 -0.7390
 8701SOL    HW237740   0.390   1.980   4.707 -0.2703  0.4683 -0.0781
 8702SOL     OW37741   1.123   3.352  16.359  0.4140 -0.4912  0.3631
 8702SOL    HW137742   1.034   3.345  16.326  0.1756  0.7159  0.7345
 8702SOL    HW237743   1.110   3.408  16.436 -0.8497 -0.0731 -0.1560
 8703SOL     OW37744   4.061   3.722   5.394 -0.0192  0.1645 -0.0270
 8703SOL    HW137745   3.967   3.704   5.405  0.2296 -0.0941  1.6617
 8703SOL    HW237746   4.099   3.634   5.401 -0.9565 -0.5574 -3.7304
 8704SOL     OW37747   2.135   2.528   1.806 -0.2629  0.1155  0.2105
 8704SOL    HW137748   2.113   2.620   1.799  2.4570  0.7582  0.1499
 8704SOL    HW237749   2.077   2.506   1.879  0.0261 -0.9841  0.1122
 8705SOL     OW37750   3.705   0.970  15.319  0.1446 -0.6560 -0.5897
 8705SOL    HW137751   3.784   0.991  15.368  0.6128 -1.7326 -0.8734
 8705SOL    HW237752   3.741   0.902  15.262 -0.3807 -1.0648 -0.4370
 8706SOL     OW37753   3.616   1.556  15.609  0.4164 -0.4206 -0.0994
 8706SOL    HW137754   3.650   1.470  15.583  2.6362  0.2523  0.6670
 8706SOL    HW237755   3.678   1.581  15.676  2.5002  0.1155 -2.2412
 8707SOL     OW37756   3.902   2.306   3.068  0.0956  0.3093  0.0813
 8707SOL    HW137757   3.885   2.251   2.991  1.5644  0.8597 -0.6471
 8707SOL    HW237758   3.962   2.367   3.024 -0.5166 -0.9007 -2.4375
 8708SOL     OW37759   4.389   4.571   3.962 -0.1412  0.2604 -0.4757
 8708SOL    HW137760   4.306   4.617   3.947 -0.7270 -1.1095 -1.4594
 8708SOL    HW237761   4.442   4.622   3.902  3.4499 -0.4496  2.1154
 8709SOL     OW37762   0.433   3.728   2.713 -0.1430 -0.6028  0.0753
 8709SOL    HW137763   0.417   3.793   2.645 -1.4216 -0.4227  0.5429
 8709SOL    HW237764   0.408   3.778   2.791 -2.1266  0.0767 -1.0076
 8710SOL     OW37765   1.215   2.867   8.966 -0.0998  0.2308 -0.3692
 8710SOL    HW137766   1.180   2.880   8.878 -0.4619 -0.4182 -0.3184
 8710SOL    HW237767   1.304   2.842   8.943 -0.7021 -0.7602 -1.6739
 8711SOL     OW37768   2.999   3.863   0.678  0.2497  0.4574 -0.2985
 8711SOL    HW137769   2.956   3.946   0.694 -1.6166 -0.4459 -0.6237
 8711SOL    HW237770   2.991   3.863   0.583  1.1104 -1.1811 -0.3732
 8712SOL     OW37771   0.967   1.015   4.728 -0.2990  0.0442  0.0694
 8712SOL    HW137772   0.931   0.939   4.774 -1.7017 -0.2338 -1.5012
 8712SOL    HW237773   1.046   0.975   4.691 -0.2900  0.4130 -0.3130
 8713SOL     OW37774   4.396   2.128  16.083 -0.1265 -0.0372 -0.1595
 8713SOL    HW137775   4.306   2.098  16.097  0.3460 -2.7962 -3.1026
 8713SOL    HW237776   4.436   2.103  16.167  1.1062 -1.8512 -1.2975
 8714SOL     OW37777   2.617   3.354   4.588  0.6954 -0.8827 -0.0377
 8714SOL    HW137778   2.532   3.371   4.548  0.3849  2.9127  2.2465
 8714SOL    HW237779   2.590   3.307   4.668 -2.4202  0.7616 -0.1137
 8715SOL     OW37780   1.110   0.586   0.939 -0.1507 -0.7455 -0.1134
 8715SOL    HW137781   1.055   0.660   0.916  0.7754  0.0117  0.1154
 8715SOL    HW237782   1.185   0.616   0.887  0.2672 -0.7703  0.4740
 8716SOL     OW37783   2.431   4.416   4.961  0.5960 -0.0672  0.3336
 8716SOL    HW137784   2.386   4.369   5.031 -0.8166  1.4969  0.4693
 8716SOL    HW237785   2.458   4.341   4.907  2.2609 -1.1443  2.6249
 8717SOL     OW37786   1.621   1.635   0.547  0.4139  0.6477 -0.0219
 8717SOL    HW137787   1.619   1.593   0.461 -2.2892 -0.0655  0.3769
 8717SOL    HW237788   1.705   1.680   0.542  1.1431 -0.7440 -0.2532
 8718SOL     OW37789   1.260   2.205  13.062  0.0213  0.7903 -0.4015
 8718SOL    HW137790   1.336   2.146  13.065 -2.0209 -1.8862 -0.7494
 8718SOL    HW237791   1.210   2.159  12.995 -1.9063  3.5346 -0.8567
 8719SOL     OW37792   2.303   2.387  14.541  0.6501 -0.2024  0.0935
 8719SOL    HW137793   2.269   2.310  14.495  1.2065  0.4029 -1.3359
 8719SOL    HW237794   2.359   2.341  14.604 -0.7674 -2.2856 -0.1625
 8720SOL     OW37795   1.279   1.586   3.913  0.4437  0.1387  0.4020
 8720SOL    HW137796   1.273   1.575   4.008  0.6894 -0.6780  0.3289
 8720SOL    HW237797   1.372   1.568   3.900  0.3335 -0.2424  0.1370
 8721SOL     OW37798   3.212   0.488   0.574  0.2357 -0.2652  0.3888
 8721SOL    HW137799   3.151   0.546   0.529  1.6882  1.3685  0.5315
 8721SOL    HW237800   3.204   0.532   0.659  2.5834  0.4407  0.2368
 8722SOL     OW37801   1.321   2.102  15.349  0.2066 -0.6383  0.3259
 8722SOL    HW137802   1.350   2.157  15.276 -0.8485  0.6485  0.8707
 8722SOL    HW237803   1.398   2.045  15.344  1.3414  0.9942 -0.7867
 8723SOL     OW37804   4.657   3.893   3.953  0.1910 -0.0693  0.6139
 8723SOL    HW137805   4.611   3.877   4.036  0.8241  0.0907  0.9968
 8723SOL    HW237806   4.625   3.980   3.929  0.0551  0.2765  2.0497
 8724SOL     OW37807   2.182   2.811   8.407 -0.3306  0.1316  0.2190
 8724SOL    HW137808   2.262   2.764   8.382 -0.7658  0.2116 -1.3426
 8724SOL    HW237809   2.110   2.764   8.365 -0.6326 -0.3854  1.3144
 8725SOL     OW37810   0.199   1.628   8.334  0.1198  0.2299 -0.0515
 8725SOL    HW137811   0.260   1.556   8.317  1.5746  2.4844 -4.3788
 8725SOL    HW237812   0.208   1.631   8.429 -1.6396  1.5234  0.0678
 8726SOL     OW37813   1.570   2.924   3.684 -0.1972 -0.3344  0.3116
 8726SOL    HW137814   1.484   2.894   3.652 -0.3459  0.5485 -0.1231
 8726SOL    HW237815   1.610   2.948   3.600  0.0450 -0.8197  0.2919
 8727SOL     OW37816   0.570   1.636   4.845  0.3523 -0.4863 -0.8411
 8727SOL    HW137817   0.620   1.586   4.910  1.2430  0.5811 -0.7116
 8727SOL    HW237818   0.528   1.692   4.910 -0.0444  1.5306 -2.8673
 8728SOL     OW37819   1.981   2.069   8.408 -0.4233  0.1178  0.4952
 8728SOL    HW137820   2.009   2.113   8.488 -1.7755  3.7196 -1.0003
 8728SOL    HW237821   1.956   2.142   8.350  1.8017 -0.4447 -1.1891
 8729SOL     OW37822   1.531   3.973   4.762 -0.3985 -0.0540 -0.3477
 8729SOL    HW137823   1.622   4.003   4.767  0.2951 -2.0496 -0.8586
 8729SOL    HW237824   1.525   3.960   4.667  0.0470 -2.6462 -0.0228
 8730SOL     OW37825   1.636   2.036  11.963 -0.1034 -0.4212 -0.4027
 8730SOL    HW137826   1.651   1.941  11.969 -2.2022 -0.7227 -0.0132
 8730SOL    HW237827   1.720   2.069  11.994 -1.1650  0.2468  1.7552
 8731SOL     OW37828   1.983   2.752   1.816  0.0919 -0.4444 -0.3395
 8731SOL    HW137829   2.045   2.824   1.800 -0.7910  0.2919 -0.4768
 8731SOL    HW237830   1.906   2.803   1.840  0.6784 -1.0070  2.7290
 8732SOL     OW37831   2.825   4.337   8.212 -0.7309  0.1473  0.3031
 8732SOL    HW137832   2.818   4.388   8.132 -0.8239 -2.2813 -1.2298
 8732SOL    HW237833   2.842   4.405   8.277 -0.4760  0.3981 -0.0277
 8733SOL     OW37834   4.192   2.072   3.569 -0.3246 -0.1696  0.0357
 8733SOL    HW137835   4.241   2.151   3.546  1.2179 -1.0835  0.2036
 8733SOL    HW237836   4.130   2.101   3.636 -0.5477  0.0951 -0.2860
 8734SOL     OW37837   4.578   3.118  12.989 -0.1049  0.3910  0.2960
 8734SOL    HW137838   4.553   3.138  13.079  0.8892  0.3984  0.5723
 8734SOL    HW237839   4.591   3.204  12.948  0.6304  0.2263  0.1730
 8735SOL     OW37840   2.764   2.633  10.564 -0.2527 -0.8126 -0.0600
 8735SOL    HW137841   2.706   2.569  10.606 -0.7312 -0.6557 -0.4793
 8735SOL    HW237842   2.788   2.685  10.640  3.0568  0.1213 -1.7328
 8736SOL     OW37843   0.023   2.403   1.675 -0.5486 -0.8863  0.0230
 8736SOL    HW137844   0.048   2.355   1.754 -1.6283 -0.5497  0.5717
 8736SOL    HW237845   0.091   2.470   1.663 -1.3531  0.1322  1.0365
 8737SOL     OW37846   2.685   2.756   8.817  0.2608  0.4088 -0.0867
 8737SOL    HW137847   2.620   2.688   8.801 -1.2875  0.8773  4.3176
 8737SOL    HW237848   2.709   2.777   8.727  1.1469 -1.9843 -0.4085
 8738SOL     OW37849   1.353   3.947   0.211 -0.3847 -0.3007 -0.2222
 8738SOL    HW137850   1.399   4.025   0.182 -0.6959 -0.5794 -1.4409
 8738SOL    HW237851   1.279   3.949   0.151 -0.6568  0.8297  0.1531
 8739SOL     OW37852   2.074   1.863   5.535  0.0005 -0.6484  0.3548
 8739SOL    HW137853   2.147   1.841   5.593  0.5958  0.9539  0.2148
 8739SOL    HW237854   2.105   1.916   5.461 -0.7604 -2.2241 -1.0835
 8740SOL     OW37855   2.444   2.689   3.079 -0.3561 -0.5572 -0.3299
 8740SOL    HW137856   2.483   2.747   3.015  1.1320  0.4302  1.4757
 8740SOL    HW237857   2.521   2.684   3.136 -0.8195  0.6077  0.4086
 8741SOL     OW37858   4.672   2.510   5.557  0.4952  0.1238  0.5181
 8741SOL    HW137859   0.002   2.447   5.579  0.0812 -0.6804 -0.5043
 8741SOL    HW237860   4.722   2.590   5.537  0.8273 -0.2434 -0.1028
 8742SOL     OW37861   3.909   3.808   2.835  0.8632 -0.2264 -0.3429
 8742SOL    HW137862   3.880   3.752   2.763  0.6499 -0.2093 -0.2718
 8742SOL    HW237863   4.000   3.825   2.812  0.6779  0.7277 -0.3847
 8743SOL     OW37864   1.434   3.705   7.688 -0.2602  0.4946  0.0630
 8743SOL    HW137865   1.432   3.692   7.782 -3.8562 -0.7626 -0.2184
 8743SOL    HW237866   1.524   3.732   7.666 -0.0020  0.2953  0.9051
 8744SOL     OW37867   3.736   4.526  12.156 -0.4134 -0.5477  0.4841
 8744SOL    HW137868   3.714   4.609  12.114  2.3570 -0.1857 -0.2793
 8744SOL    HW237869   3.659   4.470  12.152 -0.3142 -0.4821 -2.6347
 8745SOL     OW37870   0.640   0.414   6.724 -0.0306 -0.2393  0.5739
 8745SOL    HW137871   0.577   0.485   6.712 -1.5183 -1.6620 -0.0537
 8745SOL    HW237872   0.648   0.412   6.819  2.4014 -1.0622  0.3626
 8746SOL     OW37873   2.987   4.446   8.607 -0.1902 -0.3413  0.0648
 8746SOL    HW137874   3.070   4.494   8.603 -0.2217 -0.0189  3.5665
 8746SOL    HW237875   2.994   4.385   8.533 -1.8623 -0.4863  0.0406
 8747SOL     OW37876   2.404   0.773   7.615 -0.1019  0.7289  0.2015
 8747SOL    HW137877   2.325   0.824   7.596 -0.9633 -0.1431  1.4217
 8747SOL    HW237878   2.401   0.761   7.710 -0.4588  0.4405  0.1544
 8748SOL     OW37879   1.556   1.764  14.772  1.1815  0.0347  0.5962
 8748SOL    HW137880   1.491   1.730  14.710 -0.8749  1.6431  1.8610
 8748SOL    HW237881   1.636   1.720  14.745  1.5490  0.1712  1.4546
 8749SOL     OW37882   1.055   4.627   9.700 -0.3978 -0.1699 -0.1641
 8749SOL    HW137883   0.981   4.589   9.653  0.4531 -0.5042 -1.2328
 8749SOL    HW237884   1.089   4.545   9.737  3.3482  1.0455 -0.8741
 8750SOL     OW37885   3.650   2.852   8.582  0.0495  0.8011 -0.0177
 8750SOL    HW137886   3.603   2.840   8.500 -1.3634  0.8153  0.7994
 8750SOL    HW237887   3.701   2.929   8.556 -0.7184  1.2818 -0.1116
 8751SOL     OW37888   4.529   2.210   4.325 -0.3817 -0.3346 -0.0059
 8751SOL    HW137889   4.533   2.305   4.316  1.9774 -0.2645  1.7518
 8751SOL    HW237890   4.588   2.182   4.395 -0.8718 -0.0275  0.5348
 8752SOL     OW37891   1.375   0.982   0.626  0.0819  0.0080  0.0925
 8752SOL    HW137892   1.416   1.056   0.671 -2.0789  0.8203  0.7145
 8752SOL    HW237893   1.398   1.013   0.538  1.9870 -2.3647 -0.2577
 8753SOL     OW37894   1.658   2.229   2.920  0.0173 -0.2122 -0.8237
 8753SOL    HW137895   1.676   2.146   2.875 -0.6538 -0.4725 -0.6130
 8753SOL    HW237896   1.569   2.244   2.888  0.1292  0.7797 -0.6795
 8754SOL     OW37897   3.830   2.805   8.036  0.1274 -0.2062 -0.1076
 8754SOL    HW137898   3.836   2.797   8.132 -0.4879  2.6261  0.1511
 8754SOL    HW237899   3.885   2.881   8.021 -0.0013 -0.3443 -1.2527
 8755SOL     OW37900   2.419   1.506   8.702  0.5462 -0.0721 -0.3346
 8755SOL    HW137901   2.381   1.486   8.788  1.9710 -0.9374  0.0873
 8755SOL    HW237902   2.360   1.576   8.674  0.6074 -1.0174 -2.7906
 8756SOL     OW37903   2.935   0.716   3.225 -0.4349 -0.5439 -0.0300
 8756SOL    HW137904   3.018   0.706   3.272  0.1521  0.9996 -0.7487
 8756SOL    HW237905   2.930   0.811   3.225  0.3165 -0.5024 -0.3005
 8757SOL     OW37906   1.661   2.546  14.604  0.3778 -0.6810 -0.8838
 8757SOL    HW137907   1.581   2.572  14.650  0.4444  1.9925 -2.2303
 8757SOL    HW237908   1.640   2.470  14.551  0.7481 -0.5731 -1.1794
 8758SOL     OW37909   4.504   0.183  16.898  0.2962 -0.0269 -0.1494
 8758SOL    HW137910   4.477   0.123  16.968  1.8931 -1.9466 -1.1919
 8758SOL    HW237911   4.426   0.182  16.843 -0.4703  0.0864  0.9365
 8759SOL     OW37912   0.370   2.177   0.569  0.5440  0.2585  0.3546
 8759SOL    HW137913   0.422   2.103   0.600  1.9077  0.7557 -0.7284
 8759SOL    HW237914   0.402   2.238   0.636 -2.7995  1.2339  1.0469
 8760SOL     OW37915   4.646   4.016   7.858  0.7765 -0.0397  0.0826
 8760SOL    HW137916   4.673   4.107   7.869 -1.3907  0.5433  0.7784
 8760SOL    HW237917   4.705   3.966   7.802 -1.3130 -1.4734 -0.8635
 8761SOL     OW37918   0.511   1.979   9.374  0.7479  0.3283 -0.5885
 8761SOL    HW137919   0.444   1.980   9.306  2.3801 -1.1975 -2.2401
 8761SOL    HW237920   0.474   2.043   9.434 -0.0509 -0.2580 -0.4599
 8762SOL     OW37921   2.239   4.238   7.686 -0.1252  0.9202  0.2983
 8762SOL    HW137922   2.271   4.298   7.618 -0.9740  0.8820 -0.1346
 8762SOL    HW237923   2.294   4.259   7.761 -0.2256  1.2806  0.2717
 8763SOL     OW37924   2.980   2.954   2.857  0.1086  0.7292  0.2737
 8763SOL    HW137925   2.917   2.995   2.797  0.2166  2.0371  1.0599
 8763SOL    HW237926   3.051   3.018   2.853 -0.7608  1.8375  2.6167
 8764SOL     OW37927   3.414   1.564  13.307  0.2143 -0.4887 -0.0103
 8764SOL    HW137928   3.344   1.593  13.249 -0.4119  0.9624  1.4771
 8764SOL    HW237929   3.439   1.475  13.281 -0.2034  0.3425 -3.2420
 8765SOL     OW37930   3.664   3.257   3.187 -0.4053 -0.1975  0.6494
 8765SOL    HW137931   3.675   3.191   3.119  1.6735  1.0762 -0.2313
 8765SOL    HW237932   3.645   3.336   3.137 -1.3588  0.0128  1.3426
 8766SOL     OW37933   3.745   4.055   5.804  0.1429 -0.7193 -0.0367
 8766SOL    HW137934   3.761   3.994   5.732 -0.9230 -2.2515  1.0459
 8766SOL    HW237935   3.655   4.075   5.778  0.5949 -0.0428 -1.1290
 8767SOL     OW37936   0.205   0.081  15.272 -0.4617 -0.4962 -0.0529
 8767SOL    HW137937   0.144   0.131  15.326  0.9314  0.2535  0.8220
 8767SOL    HW237938   0.201   0.120  15.185 -0.8217  0.0881  0.2311
 8768SOL     OW37939   0.876   2.804  12.071  0.0974  0.0595  0.1585
 8768SOL    HW137940   0.923   2.724  12.047  1.5333  1.0627 -0.3697
 8768SOL    HW237941   0.936   2.832  12.140 -0.8604  0.2766  0.9026
 8769SOL     OW37942   1.518   0.849   9.105 -0.7332 -0.1778  0.2534
 8769SOL    HW137943   1.437   0.899   9.117  0.5723  2.0414 -0.1720
 8769SOL    HW237944   1.578   0.897   9.162 -0.1855 -0.2023 -0.3004
 8770SOL     OW37945   3.764   1.358   4.246 -0.4101 -0.0515 -0.3322
 8770SOL    HW137946   3.818   1.436   4.259 -0.8860  0.2967 -0.4051
 8770SOL    HW237947   3.829   1.289   4.237  1.8559  1.7845  1.8596
 8771SOL     OW37948   3.735   2.527   5.416 -0.5074 -0.4155  0.8524
 8771SOL    HW137949   3.737   2.432   5.430 -0.9884 -0.6169 -0.4399
 8771SOL    HW237950   3.656   2.532   5.363  0.5901  0.1891 -0.7201
 8772SOL     OW37951   0.991   4.344   5.392 -0.3359 -0.1189 -0.1086
 8772SOL    HW137952   0.895   4.353   5.399 -0.4230  0.0679 -1.7282
 8772SOL    HW237953   1.011   4.253   5.413  1.0965 -0.5074 -3.3122
 8773SOL     OW37954   3.787   3.582  14.808 -0.3317  0.2478 -0.2229
 8773SOL    HW137955   3.815   3.671  14.791 -2.7103  0.8196 -1.2220
 8773SOL    HW237956   3.860   3.545  14.858 -0.2207  0.2696 -0.3693
 8774SOL     OW37957   2.709   1.260   3.549  0.6134  0.8465  0.9098
 8774SOL    HW137958   2.704   1.323   3.477 -0.0578  0.1088  0.3109
 8774SOL    HW237959   2.720   1.315   3.627 -0.0602 -0.5277  1.9849
 8775SOL     OW37960   3.094   4.056   9.591  0.2243  0.2468  0.0631
 8775SOL    HW137961   3.143   4.065   9.673 -1.9654  1.0452  1.2738
 8775SOL    HW237962   3.158   4.090   9.528  0.2119  4.0099  2.0971
 8776SOL     OW37963   3.706   2.058  11.381  0.0752  0.1684 -0.6908
 8776SOL    HW137964   3.751   2.009  11.450 -1.1273 -2.8263 -2.0308
 8776SOL    HW237965   3.642   2.113  11.427 -0.1712  1.2204 -2.2854
 8777SOL     OW37966   3.497   1.592   6.675  0.2420  0.3062  0.0233
 8777SOL    HW137967   3.531   1.525   6.615  0.3028  0.6695 -0.3483
 8777SOL    HW237968   3.442   1.648   6.621 -1.1892 -1.2444 -0.1196
 8778SOL     OW37969   2.231   1.244   7.183  0.4669 -0.2479 -0.0221
 8778SOL    HW137970   2.139   1.240   7.207  0.1784  0.9099 -0.9409
 8778SOL    HW237971   2.273   1.229   7.268  0.8621  2.4754  0.2803
 8779SOL     OW37972   3.787   3.674   8.453 -0.2559 -0.6017 -0.0428
 8779SOL    HW137973   3.697   3.683   8.423 -0.5492 -3.4408 -0.0230
 8779SOL    HW237974   3.810   3.767   8.449  0.9698 -0.9392 -1.1216
 8780SOL     OW37975   0.980   3.971  10.201  0.2035 -0.3188 -0.6796
 8780SOL    HW137976   0.962   3.890  10.247  0.3279 -0.5472 -1.0331
 8780SOL    HW237977   0.902   3.980  10.146 -0.1791  0.0223 -0.0781
 8781SOL     OW37978   2.925   3.784   7.703 -0.2294 -0.3367  0.3657
 8781SOL    HW137979   2.993   3.833   7.748  0.0337 -0.5167  0.1612
 8781SOL    HW237980   2.848   3.810   7.755  1.5745  0.0085  2.8488
 8782SOL     OW37981   1.745   4.288   6.086  0.3801  0.2758 -0.2796
 8782SOL    HW137982   1.729   4.318   5.996  1.2861 -1.9496 -1.1612
 8782SOL    HW237983   1.819   4.346   6.105  0.4919 -1.0943  3.4625
 8783SOL     OW37984   2.744   4.035  11.386  0.3132 -0.2094  0.3552
 8783SOL    HW137985   2.702   4.118  11.364  1.1220 -0.3423 -1.7683
 8783SOL    HW237986   2.809   4.068  11.447 -2.2587  2.4098  1.6762
 8784SOL     OW37987   1.271   1.745   5.881  0.0532 -0.5239  0.0291
 8784SOL    HW137988   1.220   1.824   5.861  1.0645 -0.0295 -0.5753
 8784SOL    HW237989   1.361   1.770   5.859 -0.6963  0.8231 -1.5372
 8785SOL     OW37990   0.990   4.155   2.039  0.0496  0.1600  0.1638
 8785SOL    HW137991   1.062   4.114   2.086  0.1091  0.3640  0.2479
 8785SOL    HW237992   1.024   4.244   2.043  1.9487 -0.5805  0.3788
 8786SOL     OW37993   2.820   3.475   8.931 -0.0922  0.2326  0.4706
 8786SOL    HW137994   2.849   3.508   9.017  0.6236 -0.5219  0.5148
 8786SOL    HW237995   2.829   3.381   8.944  1.0144  0.2750 -0.0500
 8787SOL     OW37996   1.006   1.412   6.882  0.4862 -0.3715 -0.6681
 8787SOL    HW137997   0.920   1.442   6.913 -0.3769 -2.5210 -1.0009
 8787SOL    HW237998   1.003   1.467   6.804 -0.9594  0.7387  0.1807
 8788SOL     OW37999   0.698   0.501   3.216  0.7082 -0.1969 -0.1278
 8788SOL    HW138000   0.727   0.436   3.153  0.9088 -0.2170 -0.0143
 8788SOL    HW238001   0.781   0.517   3.261  0.6267  0.0715 -0.0736
 8789SOL     OW38002   2.776   4.601   8.358  0.2726  0.3087 -0.0353
 8789SOL    HW138003   2.751   4.656   8.432 -0.1703  2.2491 -1.6289
 8789SOL    HW238004   2.838   4.655   8.309  1.0878 -0.7860 -0.2171
 8790SOL     OW38005   2.634   0.382   1.938 -0.4782 -0.0393  0.0853
 8790SOL    HW138006   2.709   0.406   1.992 -0.2004 -0.0843 -0.2750
 8790SOL    HW238007   2.668   0.314   1.879 -0.1891 -2.1003  2.6281
 8791SOL     OW38008   0.162   0.142   9.469  0.4281 -0.3400  0.5517
 8791SOL    HW138009   0.118   0.070   9.425 -0.8896 -0.0157  1.3379
 8791SOL    HW238010   0.102   0.172   9.537 -0.7828  1.2252 -1.1987
 8792SOL     OW38011   1.397   1.816   9.495  0.5175  0.2265  0.3109
 8792SOL    HW138012   1.404   1.872   9.573  0.9595  1.5039 -0.6492
 8792SOL    HW238013   1.408   1.887   9.432 -2.6207 -1.4566 -2.1229
 8793SOL     OW38014   1.475   4.563  13.675 -0.4752 -0.1698  0.0407
 8793SOL    HW138015   1.502   4.637  13.619  0.5407  0.1821  0.9894
 8793SOL    HW238016   1.551   4.506  13.662 -0.0628  0.6875 -1.3661
 8794SOL     OW38017   1.899   3.755   9.588  0.0647  0.0468 -0.3005
 8794SOL    HW138018   1.889   3.661   9.570 -0.1596  0.1461 -0.6960
 8794SOL    HW238019   1.925   3.793   9.504 -2.0292 -0.1982 -1.0493
 8795SOL     OW38020   2.483   2.416   2.261 -0.5758 -0.1481 -0.2214
 8795SOL    HW138021   2.521   2.399   2.175 -1.2977  1.6073 -0.8955
 8795SOL    HW238022   2.468   2.326   2.289  1.4448 -0.3126  0.3450
 8796SOL     OW38023   2.162   2.460   1.528 -0.1159  0.0744  0.3222
 8796SOL    HW138024   2.137   2.487   1.617 -0.4316 -0.0241  0.2618
 8796SOL    HW238025   2.250   2.496   1.539 -0.2416  0.3114  0.5618
 8797SOL     OW38026   1.232   4.725   2.878 -0.1267  0.0638  0.1052
 8797SOL    HW138027   1.327   4.733   2.885 -0.1487  0.8747 -0.4914
 8797SOL    HW238028   1.225   0.045   2.802 -0.6762  1.9869  1.6332
 8798SOL     OW38029   2.535   3.039   3.084  0.4586  0.4301  0.7990
 8798SOL    HW138030   2.466   3.053   3.019  1.0178 -0.2712  0.0769
 8798SOL    HW238031   2.577   3.125   3.084  0.5261  0.3955 -0.7783
 8799SOL     OW38032   0.922   1.885  14.953  0.3534  0.8135  0.3479
 8799SOL    HW138033   1.013   1.859  14.967 -0.2152 -1.2609  0.3076
 8799SOL    HW238034   0.895   1.817  14.891  0.8458  0.5301  0.4425
 8800SOL     OW38035   3.676   4.467   6.361 -0.1794 -0.0866 -0.4362
 8800SOL    HW138036   3.654   4.469   6.267  0.7272  1.3130 -0.6191
 8800SOL    HW238037   3.594   4.450   6.408 -1.3301  0.0133 -2.3526
 8801SOL     OW38038   0.395   0.576   0.230 -0.0925  0.5372  0.2267
 8801SOL    HW138039   0.370   0.501   0.176 -1.0265  0.0256  1.3569
 8801SOL    HW238040   0.405   0.539   0.318 -1.1895 -1.1074 -0.3385
 8802SOL     OW38041   0.645   3.933  16.589 -0.3444  0.2693 -0.1153
 8802SOL    HW138042   0.555   3.924  16.619 -0.9824  0.6576 -1.9593
 8802SOL    HW238043   0.692   3.935  16.673 -0.7250  1.8948  0.0529
 8803SOL     OW38044   4.401   4.507   2.354  0.7224 -0.2169  0.2769
 8803SOL    HW138045   4.399   4.438   2.287 -0.1084 -1.6622  1.7844
 8803SOL    HW238046   4.368   4.588   2.316  0.3871  0.4048  1.8801
 8804SOL     OW38047   4.082   1.653   3.834  0.2017 -0.5218 -0.1769
 8804SOL    HW138048   4.039   1.639   3.919  0.6749 -2.6673 -0.2730
 8804SOL    HW238049   4.003   1.648   3.780  0.1360 -1.2857 -0.0206
 8805SOL     OW38050   2.155   1.738  14.207  0.5706 -0.7713  0.0757
 8805SOL    HW138051   2.142   1.644  14.222  0.8649 -0.1409  4.4477
 8805SOL    HW238052   2.251   1.736  14.214  0.7615  0.0809 -2.5537
 8806SOL     OW38053   3.748   3.933   4.383 -0.1359  0.2827  0.1969
 8806SOL    HW138054   3.780   3.904   4.298 -3.1084  0.2026 -0.8964
 8806SOL    HW238055   3.736   4.026   4.362 -2.1278 -0.0128  0.0557
 8807SOL     OW38056   3.164   4.512   7.319  0.0289  0.1335 -0.3260
 8807SOL    HW138057   3.180   4.417   7.318 -0.0278  0.1560 -2.6830
 8807SOL    HW238058   3.075   4.510   7.285 -0.5130  0.3703  1.0670
 8808SOL     OW38059   0.938   1.127   4.306  0.5776  0.6752 -0.1787
 8808SOL    HW138060   0.866   1.075   4.342  0.2172  0.3045 -1.4477
 8808SOL    HW238061   0.951   1.196   4.371  0.0238  0.5834  0.0305
 8809SOL     OW38062   4.119   2.069  12.229 -0.1736  0.4353  0.0736
 8809SOL    HW138063   4.154   1.981  12.244  0.2447  0.6244  0.1963
 8809SOL    HW238064   4.188   2.087  12.166 -1.2186 -0.7785 -1.4328
 8810SOL     OW38065   4.478   1.772   2.148 -0.0893  0.8396 -0.2320
 8810SOL    HW138066   4.425   1.846   2.119  0.1491  0.4012 -1.7871
 8810SOL    HW238067   4.437   1.763   2.234  0.8232  0.3451  0.1545
 8811SOL     OW38068   2.373   0.788   5.640 -0.0643  0.2252 -0.0186
 8811SOL    HW138069   2.401   0.779   5.549 -1.3998 -1.9597 -0.2030
 8811SOL    HW238070   2.281   0.815   5.631 -0.1143  0.0092 -0.1535
 8812SOL     OW38071   0.738   1.775   1.729 -0.2139 -0.1821 -0.3779
 8812SOL    HW138072   0.644   1.762   1.741  0.0839 -2.5483 -0.5045
 8812SOL    HW238073   0.743   1.868   1.752 -1.0129 -0.0389 -0.7808
 8813SOL     OW38074   1.212   1.147   7.214 -0.1340  0.1225 -0.9549
 8813SOL    HW138075   1.176   1.079   7.271  0.4155  1.1881  0.6698
 8813SOL    HW238076   1.300   1.115   7.191 -0.0400  0.3183 -0.8730
 8814SOL     OW38077   2.759   1.013   6.324 -0.1026 -0.3569 -0.5219
 8814SOL    HW138078   2.670   1.048   6.314 -0.7094 -0.8497  3.4383
 8814SOL    HW238079   2.750   0.918   6.318 -1.4560 -0.2741  0.3032
 8815SOL     OW38080   2.162   0.224   3.105 -0.0083  0.4641 -0.6665
 8815SOL    HW138081   2.162   0.298   3.044  0.0661  0.8136 -0.2461
 8815SOL    HW238082   2.162   0.260   3.194 -0.0957  1.1665 -0.9528
 8816SOL     OW38083   3.937   0.819   5.434  0.4390  0.4332 -0.1001
 8816SOL    HW138084   3.952   0.731   5.467  1.2734  0.7663  0.3989
 8816SOL    HW238085   3.846   0.807   5.406  0.5449 -0.2896 -0.1213
 8817SOL     OW38086   2.415   2.901  12.805 -0.4136 -0.2231  0.5981
 8817SOL    HW138087   2.342   2.900  12.866 -0.8226  0.9041  0.1327
 8817SOL    HW238088   2.388   2.950  12.727  2.8432  3.1727  1.5723
 8818SOL     OW38089   0.398   3.388   5.214 -0.0492  0.3427 -0.4638
 8818SOL    HW138090   0.428   3.410   5.126 -0.2080  0.1272 -0.5718
 8818SOL    HW238091   0.303   3.383   5.203 -0.0416  0.8470 -0.7985
 8819SOL     OW38092   1.907   2.155   1.665  0.7694 -0.2676  0.0010
 8819SOL    HW138093   1.986   2.208   1.677  1.4513 -1.5087  0.9949
 8819SOL    HW238094   1.935   2.067   1.688  1.4968 -0.6294 -2.3094
 8820SOL     OW38095   0.622   0.291   4.648 -0.0954  0.3175  0.2527
 8820SOL    HW138096   0.550   0.299   4.585  1.2631 -1.5248 -1.5615
 8820SOL    HW238097   0.655   0.380   4.657  1.3106 -0.1674 -0.0583
 8821SOL     OW38098   3.488   0.066   2.979  0.1559 -0.3400  0.3520
 8821SOL    HW138099   3.424   0.012   2.933 -0.2768  1.3716 -1.0597
 8821SOL    HW238100   3.571   0.045   2.935  0.0035  0.1933 -0.1939
 8822SOL     OW38101   4.520   4.119   3.077 -0.0725 -0.6911 -0.0569
 8822SOL    HW138102   4.474   4.063   3.140 -0.4124  1.1526  1.3556
 8822SOL    HW238103   4.497   4.098   2.987  1.1483  1.2703 -0.8301
 8823SOL     OW38104   3.564   4.347   7.312  0.0219 -0.1022 -0.2548
 8823SOL    HW138105   3.635   4.286   7.333 -0.0207  0.4201  1.3991
 8823SOL    HW238106   3.485   4.294   7.302 -1.0251  1.4922 -0.5880
 8824SOL     OW38107   2.201   0.600   8.779 -0.3997  0.1646 -0.3593
 8824SOL    HW138108   2.161   0.512   8.786  1.9800 -0.8174  0.8931
 8824SOL    HW238109   2.130   0.649   8.820 -0.1890  2.0980 -2.3504
 8825SOL     OW38110   3.389   2.154  10.146 -0.0263 -0.2293  0.6331
 8825SOL    HW138111   3.340   2.171  10.066  2.8385  1.5887 -0.7271
 8825SOL    HW238112   3.329   2.189  10.212  1.5371 -0.8792  2.3947
 8826SOL     OW38113   2.121   1.683   1.578 -0.2583  0.2079  0.2516
 8826SOL    HW138114   2.198   1.739   1.572 -1.0269  1.2584  0.2876
 8826SOL    HW238115   2.148   1.622   1.647 -1.1018  2.7253  2.7803
 8827SOL     OW38116   2.416   2.288   7.218 -0.2244 -0.6648 -0.0427
 8827SOL    HW138117   2.435   2.382   7.220 -2.8010 -0.1341  0.0356
 8827SOL    HW238118   2.502   2.261   7.188 -0.4328 -1.4019  0.0316
 8828SOL     OW38119   3.909   4.574   5.812  0.4091  0.0565  0.1181
 8828SOL    HW138120   3.951   4.636   5.871  3.6004 -1.8957 -0.1102
 8828SOL    HW238121   3.978   4.552   5.748  0.0115  1.1753 -0.7016
 8829SOL     OW38122   2.675   4.447   7.846 -0.1728  0.1479  0.3899
 8829SOL    HW138123   2.730   4.476   7.918 -2.3886  0.0862  2.1196
 8829SOL    HW238124   2.694   4.524   7.792 -0.5317  1.9534  2.8091
 8830SOL     OW38125   3.555   2.904   6.839 -0.0315  0.4270 -0.1528
 8830SOL    HW138126   3.634   2.911   6.892  1.6208 -1.5565 -2.3545
 8830SOL    HW238127   3.524   2.992   6.819 -0.0117  0.6051  0.5931
 8831SOL     OW38128   3.169   2.717   6.916 -0.5092  0.2503  0.1258
 8831SOL    HW138129   3.226   2.696   6.842 -2.3217 -2.4676 -0.4902
 8831SOL    HW238130   3.232   2.765   6.970 -1.6366  1.0974  0.6818
 8832SOL     OW38131   3.292   1.228  10.340  0.2533  0.5075  0.3022
 8832SOL    HW138132   3.311   1.172  10.264 -1.1433 -0.3290  0.5891
 8832SOL    HW238133   3.378   1.270  10.345  0.3600  0.1532  1.3075
 8833SOL     OW38134   4.545   4.064  11.440 -0.0442 -0.1002 -0.1566
 8833SOL    HW138135   4.568   4.068  11.347 -0.8335 -1.1417 -0.3931
 8833SOL    HW238136   4.626   4.094  11.481  0.3678 -0.2601 -0.8577
 8834SOL     OW38137   1.693   1.605  16.483 -0.3413  0.2814  0.0128
 8834SOL    HW138138   1.679   1.549  16.560 -0.9313  0.0492 -0.2610
 8834SOL    HW238139   1.784   1.591  16.458 -1.1594  0.4467 -3.0390
 8835SOL     OW38140   2.255   0.193   4.559 -0.1453  0.0810  0.2042
 8835SOL    HW138141   2.205   0.250   4.617  0.4138  0.2415  0.5269
 8835SOL    HW238142   2.334   0.242   4.537 -0.2160  1.0779  2.1222
 8836SOL     OW38143   2.374   4.178   4.821 -0.6459  0.2411 -0.5391
 8836SOL    HW138144   2.387   4.117   4.749  0.8507  0.1295 -0.1843
 8836SOL    HW238145   2.416   4.134   4.896 -0.8958  0.4842 -0.2539
 8837SOL     OW38146   0.715   2.698   0.241  0.2841  0.5309 -0.0274
 8837SOL    HW138147   0.775   2.637   0.199 -1.9251 -2.0327  0.5371
 8837SOL    HW238148   0.639   2.655   0.201  1.1274 -0.6583 -0.3593
 8838SOL     OW38149   0.522   0.861  14.885  0.0356 -0.8079  0.0776
 8838SOL    HW138150   0.470   0.789  14.849 -2.8767  1.9002 -1.1629
 8838SOL    HW238151   0.448   0.917  14.909  0.6043  0.5843 -1.4956
 8839SOL     OW38152   4.286   3.976   7.681 -0.0245  0.4176  0.2128
 8839SOL    HW138153   4.305   3.975   7.587 -0.5983  4.2257  0.0408
 8839SOL    HW238154   4.356   3.913   7.699  0.3591  0.6350 -0.4699
 8840SOL     OW38155   2.799   3.124   9.505 -0.0513 -0.0994  0.5619
 8840SOL    HW138156   2.816   3.036   9.469  1.3095  0.2140  0.4320
 8840SOL    HW238157   2.874   3.116   9.564  0.1206 -2.2418  0.0742
 8841SOL     OW38158   3.102   0.521  11.355  0.5247  0.3929  0.4634
 8841SOL    HW138159   3.159   0.564  11.419 -0.2404 -0.7138  1.8850
 8841SOL    HW238160   3.150   0.523  11.272  0.0852  2.9513  0.2662
 8842SOL     OW38161   3.611   1.031   7.465  0.0340  0.2956  0.0350
 8842SOL    HW138162   3.680   0.967   7.486 -1.3299 -0.6908  1.5734
 8842SOL    HW238163   3.536   0.978   7.438 -1.1032  1.0012  1.7739
 8843SOL     OW38164   2.158   1.226   8.442 -0.4553  0.4593  0.3382
 8843SOL    HW138165   2.208   1.235   8.361 -0.0914 -1.2062  0.3961
 8843SOL    HW238166   2.125   1.313   8.466  1.5362  1.1889  0.4374
 8844SOL     OW38167   3.175   0.728   7.785 -0.1504  0.5119 -0.0689
 8844SOL    HW138168   3.141   0.679   7.710 -0.3879 -1.4064  1.2906
 8844SOL    HW238169   3.218   0.787   7.723  0.6926  1.3650  1.3185
 8845SOL     OW38170   0.086   0.841   5.706  0.0041 -0.1855 -0.8823
 8845SOL    HW138171   0.097   0.889   5.624 -0.3002  0.4098 -0.5733
 8845SOL    HW238172   0.174   0.803   5.709  0.6388  1.4861  1.1346
 8846SOL     OW38173   2.891   2.947  16.040 -0.8933  0.0260 -0.7412
 8846SOL    HW138174   2.939   3.003  15.979  1.0173  0.3583  1.0485
 8846SOL    HW238175   2.812   2.937  15.987 -2.0537  0.8851  0.8100
 8847SOL     OW38176   1.051   0.348   8.063 -0.5282  0.2446  0.6671
 8847SOL    HW138177   1.063   0.275   8.123 -0.8477  0.4256  0.9534
 8847SOL    HW238178   0.963   0.367   8.094  0.8988  3.0353  3.0254
 8848SOL     OW38179   1.884   2.483   7.617 -0.3410 -0.3196 -0.7749
 8848SOL    HW138180   1.961   2.463   7.671  0.6747 -0.3321 -2.2256
 8848SOL    HW238181   1.928   2.515   7.538 -2.7133  0.0491 -1.9486
 8849SOL     OW38182   2.229   0.326  10.238 -0.0310  0.6944  0.0301
 8849SOL    HW138183   2.314   0.282  10.250 -0.7986 -0.7543  0.1695
 8849SOL    HW238184   2.259   0.416  10.232  1.0857  0.2305 -1.4622
 8850SOL     OW38185   0.954   2.974   7.753 -0.0515  0.5546 -0.1776
 8850SOL    HW138186   1.042   2.975   7.715  1.0813 -1.6858  2.4300
 8850SOL    HW238187   0.939   3.068   7.761  1.2429  0.7140  0.3256
 8851SOL     OW38188   2.101   2.455   3.026  0.4811 -0.1395  0.5890
 8851SOL    HW138189   2.016   2.419   3.048 -0.3383  0.7759 -1.0936
 8851SOL    HW238190   2.113   2.521   3.095 -0.2226  1.1386 -0.5096
 8852SOL     OW38191   1.528   2.063   3.838  0.1102 -0.4671  0.1161
 8852SOL    HW138192   1.596   2.063   3.906 -0.1640  1.7747  0.4089
 8852SOL    HW238193   1.571   2.124   3.778  0.2073  1.2297  1.9210
 8853SOL     OW38194   0.357   2.393   7.895  0.1177  0.2277 -0.2272
 8853SOL    HW138195   0.450   2.394   7.875  0.1427  0.4547 -0.1048
 8853SOL    HW238196   0.310   2.452   7.836  1.0955  1.1158 -0.1261
 8854SOL     OW38197   2.070   3.001   3.080 -0.4490 -0.9469 -0.1796
 8854SOL    HW138198   1.995   2.943   3.093 -1.5343  0.0577 -1.9746
 8854SOL    HW238199   2.121   2.949   3.018  1.3782  0.1651  0.4023
 8855SOL     OW38200   1.994   0.443   8.390 -0.0095  0.4239 -0.0824
 8855SOL    HW138201   2.012   0.441   8.296  1.7162  0.2137  0.2467
 8855SOL    HW238202   2.078   0.403   8.413  0.5132  0.9692 -1.0475
 8856SOL     OW38203   3.321   0.911   2.431 -0.7089 -0.5543  0.4144
 8856SOL    HW138204   3.354   0.914   2.341  0.5626  1.5292  0.9501
 8856SOL    HW238205   3.227   0.905   2.419 -0.4411  0.7340 -2.3395
 8857SOL     OW38206   2.625   1.341   8.176 -0.4306 -0.8521 -0.4930
 8857SOL    HW138207   2.616   1.362   8.083  0.7384 -1.0550 -0.6514
 8857SOL    HW238208   2.695   1.277   8.165  2.1937  1.8395  0.5489
 8858SOL     OW38209   1.833   0.538   5.948 -0.5394  0.1999  0.4153
 8858SOL    HW138210   1.767   0.599   5.916 -0.2816 -0.4814 -1.4483
 8858SOL    HW238211   1.787   0.454   5.940  0.8932 -0.4558 -0.9596
 8859SOL     OW38212   3.762   2.035  10.725 -0.2713 -0.6084 -0.5633
 8859SOL    HW138213   3.715   1.991  10.796 -0.0945 -1.8127 -1.1973
 8859SOL    HW238214   3.852   2.008  10.739  0.3365  2.4349  1.2428
 8860SOL     OW38215   3.003   2.970   3.550 -0.1200  0.6507 -0.1666
 8860SOL    HW138216   2.946   3.013   3.487  0.2736  0.8011 -0.4213
 8860SOL    HW238217   3.073   2.961   3.486 -0.2215  1.7391 -0.4229
 8861SOL     OW38218   2.216   4.667   2.040 -0.1607 -0.3920  0.0608
 8861SOL    HW138219   2.177   4.581   2.055  0.2008 -0.0793  2.7935
 8861SOL    HW238220   2.243   4.692   2.128  1.6683  1.2049 -0.9229
 8862SOL     OW38221   2.934   0.916   8.512 -0.2704 -0.7429 -0.0328
 8862SOL    HW138222   2.931   0.955   8.600 -0.7640  0.2404 -0.4833
 8862SOL    HW238223   2.840   0.914   8.495  0.0405  1.6124 -2.0343
 8863SOL     OW38224   1.634   1.244   6.454 -0.3342  0.8482  0.9151
 8863SOL    HW138225   1.617   1.154   6.428  2.6741  0.2612  0.9313
 8863SOL    HW238226   1.559   1.290   6.416  0.7273  2.4954  0.8058
 8864SOL     OW38227   3.934   4.416   2.368 -0.5778  0.2733 -0.0406
 8864SOL    HW138228   3.906   4.499   2.407  1.9092  1.7107 -1.3861
 8864SOL    HW238229   4.000   4.436   2.302  0.2792 -0.5296  0.5736
 8865SOL     OW38230   1.910   0.288   9.546 -0.0262  0.4964 -0.2645
 8865SOL    HW138231   1.887   0.357   9.608  2.0327  1.1927 -0.2859
 8865SOL    HW238232   1.977   0.318   9.484 -0.1362 -0.3252 -0.7944
 8866SOL     OW38233   0.274   0.445   7.546  0.4507 -0.4012  0.0049
 8866SOL    HW138234   0.317   0.471   7.627  1.0295  0.8842 -0.7146
 8866SOL    HW238235   0.224   0.368   7.575 -0.0373  0.5681  1.6981
 8867SOL     OW38236   1.719   3.760  14.947  0.3714 -0.2580  0.9368
 8867SOL    HW138237   1.656   3.760  15.020  0.6920 -0.3146  1.2139
 8867SOL    HW238238   1.719   3.854  14.931 -3.2138 -0.1090  1.6215
 8868SOL     OW38239   2.494   3.136   8.989 -0.2269 -0.3272 -0.3038
 8868SOL    HW138240   2.463   3.065   9.046  0.9873  0.9882  2.0042
 8868SOL    HW238241   2.585   3.145   9.019 -0.4855 -1.5014  0.8444
 8869SOL     OW38242   3.868   0.507   7.729 -0.1320 -0.0837  0.2847
 8869SOL    HW138243   3.802   0.533   7.664 -0.8915 -0.4415  0.9107
 8869SOL    HW238244   3.951   0.521   7.683  0.1027 -0.2034  0.6798
 8870SOL     OW38245   1.639   4.282   6.856 -0.2678 -0.1383  0.1946
 8870SOL    HW138246   1.665   4.342   6.926 -1.9318  1.7383 -0.8231
 8870SOL    HW238247   1.552   4.256   6.885 -0.5814  1.2370  0.4993
 8871SOL     OW38248   2.203   3.725   7.167  0.3065 -0.0427  0.5364
 8871SOL    HW138249   2.131   3.666   7.190  0.6519 -0.2058  1.1860
 8871SOL    HW238250   2.256   3.669   7.109  1.5303  1.4526  0.2052
 8872SOL     OW38251   3.049   1.154  14.977 -0.2288 -0.2181 -0.1689
 8872SOL    HW138252   2.960   1.177  14.950 -1.1194 -1.3415  1.8047
 8872SOL    HW238253   3.045   1.162  15.072  1.0462 -0.1364 -0.1172
 8873SOL     OW38254   3.011   1.233   9.596 -0.5107 -0.0857 -0.4109
 8873SOL    HW138255   2.960   1.314   9.597 -1.0182 -0.4808  3.1411
 8873SOL    HW238256   2.953   1.174   9.548 -1.2732  0.0414  0.3560
 8874SOL     OW38257   1.753   0.600  11.293 -0.2018  0.0201 -0.3535
 8874SOL    HW138258   1.699   0.554  11.357  0.2327  0.9798  0.6855
 8874SOL    HW238259   1.832   0.631  11.338 -0.6717  0.7894 -0.0665
 8875SOL     OW38260   1.185   2.481  13.460  0.0593  0.4306  0.1931
 8875SOL    HW138261   1.097   2.452  13.484 -0.1521  2.2839  1.6522
 8875SOL    HW238262   1.189   2.474  13.364 -1.1117  1.8483  0.0492
 8876SOL     OW38263   0.696   4.319   5.429  0.2496  0.3995 -0.3655
 8876SOL    HW138264   0.671   4.246   5.373 -1.4545  0.4227  0.3724
 8876SOL    HW238265   0.605   4.343   5.446  0.2098  0.1952 -0.2977
 8877SOL     OW38266   3.232   4.550   4.596 -0.2525 -0.3879 -0.1279
 8877SOL    HW138267   3.146   4.592   4.589  0.4958  0.6513 -3.1370
 8877SOL    HW238268   3.231   4.543   4.691  0.4975  0.0350 -0.0893
 8878SOL     OW38269   0.604   4.083  10.824  0.0287 -0.4802  0.4918
 8878SOL    HW138270   0.520   4.103  10.865 -1.6157 -2.9270 -1.6935
 8878SOL    HW238271   0.655   4.063  10.903 -0.7143  0.6293  1.2533
 8879SOL     OW38272   1.064   0.026  15.000  0.0599  0.8340  0.0326
 8879SOL    HW138273   1.042   0.117  15.019  0.7863  1.1382 -0.6105
 8879SOL    HW238274   1.099   4.726  15.081 -0.6252  0.8389  0.3324
 8880SOL     OW38275   1.325   0.536  11.847  0.0131 -0.3031  0.9691
 8880SOL    HW138276   1.309   0.628  11.827  1.7832 -0.2153 -0.1352
 8880SOL    HW238277   1.237   0.500  11.843 -0.6907  1.4890  0.3717
 8881SOL     OW38278   1.038   3.607   9.298 -0.1753  0.6177  0.2677
 8881SOL    HW138279   0.950   3.603   9.260  0.4052  2.2325 -1.2585
 8881SOL    HW238280   1.009   3.584   9.386  0.7949  1.6063  0.8520
 8882SOL     OW38281   4.624   0.010   6.184 -0.1593  0.9169  0.0394
 8882SOL    HW138282   4.693   4.703   6.137 -0.0355  2.9111 -1.6759
 8882SOL    HW238283   4.650   0.007   6.276  0.2879 -0.5118 -0.1246
 8883SOL     OW38284   4.155   4.213   3.380  0.1424  0.4510  0.0733
 8883SOL    HW138285   4.243   4.182   3.359  0.1740  1.9343 -2.0573
 8883SOL    HW238286   4.183   4.302   3.404 -1.2622  0.9395 -0.0486
 8884SOL     OW38287   2.644   0.892   7.074 -0.5570 -0.3526 -0.2028
 8884SOL    HW138288   2.639   0.968   7.017 -0.7934  1.3413  2.0622
 8884SOL    HW238289   2.737   0.877   7.093 -0.3968  0.4559 -0.3467
 8885SOL     OW38290   4.476   3.540  11.342 -0.0626  0.2030  0.5069
 8885SOL    HW138291   4.410   3.526  11.411  0.2119 -1.8583  0.3403
 8885SOL    HW238292   4.450   3.623  11.303  0.8624 -0.3250 -1.1874
 8886SOL     OW38293   1.455   0.462   0.646  0.1230 -0.0074 -0.3191
 8886SOL    HW138294   1.507   0.538   0.673 -0.1912  0.6982 -1.6960
 8886SOL    HW238295   1.401   0.507   0.581  0.8958  0.6898 -0.4798
 8887SOL     OW38296   1.099   1.549   5.803 -0.5696  0.1359 -0.1202
 8887SOL    HW138297   1.070   1.490   5.873  1.5848 -1.1254 -0.3007
 8887SOL    HW238298   1.165   1.601   5.850 -1.6545  1.8926 -0.5068
 8888SOL     OW38299   3.086   3.357   3.128  0.3145 -0.2158  0.1035
 8888SOL    HW138300   3.177   3.349   3.101  0.2155 -3.2367  0.6761
 8888SOL    HW238301   3.095   3.437   3.180  2.3919 -0.6308  0.3692
 8889SOL     OW38302   3.567   3.737   1.811  0.3442 -0.0180  0.1839
 8889SOL    HW138303   3.591   3.817   1.765  1.5804 -1.2253 -1.2242
 8889SOL    HW238304   3.627   3.738   1.886 -2.1667  1.2545  2.2158
 8890SOL     OW38305   0.488   1.242   9.432  0.2819  0.6521 -0.1084
 8890SOL    HW138306   0.416   1.203   9.481  0.7651  0.3257  0.3436
 8890SOL    HW238307   0.440   1.310   9.385 -2.2095 -0.0789  1.3797
 8891SOL     OW38308   4.433   1.226   8.465 -0.0318  0.1365 -0.3126
 8891SOL    HW138309   4.390   1.312   8.459 -0.8467 -0.3058 -0.8664
 8891SOL    HW238310   4.513   1.244   8.513 -0.1375 -1.0725  0.3260
 8892SOL     OW38311   1.987   2.802   3.314  0.2529  0.0704 -0.2215
 8892SOL    HW138312   1.904   2.777   3.273  0.8197 -1.6907 -0.2900
 8892SOL    HW238313   2.045   2.741   3.269 -0.2932 -0.7585  0.2009
 8893SOL     OW38314   0.290   3.977   1.782  0.0899  0.0579  0.1373
 8893SOL    HW138315   0.265   4.022   1.701 -0.5925 -1.3733 -0.4469
 8893SOL    HW238316   0.351   4.045   1.810 -1.7389  1.6152  0.3340
 8894SOL     OW38317   2.068   3.102   6.585  0.0420  0.1277  0.4898
 8894SOL    HW138318   2.034   3.059   6.506  1.3497 -1.4645  0.7848
 8894SOL    HW238319   2.145   3.136   6.540  0.1014 -1.0357 -0.3171
 8895SOL     OW38320   0.407   2.599   8.076  0.1575 -0.0217  0.3262
 8895SOL    HW138321   0.351   2.525   8.054  0.8389 -1.1230  2.2817
 8895SOL    HW238322   0.493   2.559   8.065 -0.2498 -1.7233  3.3824
 8896SOL     OW38323   2.480   1.225   0.642 -0.2490  0.1175  0.5897
 8896SOL    HW138324   2.427   1.246   0.719  0.8972  0.4311  1.2934
 8896SOL    HW238325   2.414   1.215   0.574  1.3228  1.2471 -1.1166
 8897SOL     OW38326   2.830   3.664   5.723 -0.5988  1.1911  0.2709
 8897SOL    HW138327   2.894   3.598   5.750 -0.1640  1.1588 -0.8798
 8897SOL    HW238328   2.874   3.749   5.718  0.1666  0.8363  1.0415
 8898SOL     OW38329   2.761   3.241   1.910  0.0171 -0.4312  1.0052
 8898SOL    HW138330   2.848   3.274   1.888  1.5073 -6.0992 -1.7560
 8898SOL    HW238331   2.772   3.245   2.006  0.2543  0.2631  0.9464
 8899SOL     OW38332   1.568   1.846   1.266  0.7631 -0.0463  0.3428
 8899SOL    HW138333   1.488   1.884   1.229  0.4748 -0.2645  0.7346
 8899SOL    HW238334   1.610   1.825   1.183  0.5331  1.0577 -0.0436
 8900SOL     OW38335   2.972   0.520  14.057  0.2364 -0.4981  0.4689
 8900SOL    HW138336   2.894   0.469  14.080 -0.0929 -0.2919 -0.1886
 8900SOL    HW238337   3.013   0.468  13.987 -2.3984 -2.1895  0.1598
 8901SOL     OW38338   3.604   2.549  10.609 -0.0055 -0.7961  0.1449
 8901SOL    HW138339   3.511   2.528  10.609 -0.4445  1.1432 -0.7833
 8901SOL    HW238340   3.650   2.470  10.637 -0.8445 -1.3393 -0.0168
 8902SOL     OW38341   3.360   0.265  16.181  0.1596  0.1919 -0.5708
 8902SOL    HW138342   3.420   0.199  16.146 -0.3011 -0.8064  0.4795
 8902SOL    HW238343   3.277   0.238  16.141  0.2073  1.2904 -1.3868
 8903SOL     OW38344   0.031   1.437   1.562 -0.1642  0.6046 -0.2338
 8903SOL    HW138345   0.055   1.368   1.624  1.9776  0.4856 -1.1839
 8903SOL    HW238346   4.675   1.433   1.546 -0.4576  1.1393  1.4239
 8904SOL     OW38347   0.611   0.335  10.104 -0.3020  0.0253 -0.9480
 8904SOL    HW138348   0.550   0.342  10.178  0.8286 -0.6208  0.0531
 8904SOL    HW238349   0.656   0.253  10.121  0.1155  0.4204 -0.1490
 8905SOL     OW38350   3.247   2.632   4.069  0.1689 -0.7682 -0.5360
 8905SOL    HW138351   3.207   2.558   4.024 -2.8555  0.5310 -0.0672
 8905SOL    HW238352   3.176   2.697   4.076 -0.2693 -1.3316  0.4089
 8906SOL     OW38353   4.689   0.159   4.216 -0.3952 -0.7878  0.1489
 8906SOL    HW138354   0.016   0.226   4.234  0.7881 -0.8686 -3.8790
 8906SOL    HW238355   4.684   0.125   4.305 -1.5574 -3.1086 -0.7890
 8907SOL     OW38356   2.941   4.077   7.639  0.3053  0.0428  0.2515
 8907SOL    HW138357   2.893   4.050   7.561 -0.6483  0.1847  0.7986
 8907SOL    HW238358   2.870   4.116   7.690 -1.0784  0.6264 -2.1456
 8908SOL     OW38359   4.513   0.924   1.733  0.3873 -0.1508 -0.1060
 8908SOL    HW138360   4.581   0.957   1.791  0.3213  1.6073 -1.0236
 8908SOL    HW238361   4.447   0.992   1.746  2.7840  1.7298  2.0789
 8909SOL     OW38362   1.547   0.550  16.159  0.4779 -0.0256 -1.0827
 8909SOL    HW138363   1.620   0.612  16.155  1.5807 -1.2206  0.7326
 8909SOL    HW238364   1.479   0.597  16.110 -1.6382  0.0731  1.9284
 8910SOL     OW38365   4.041   3.889   8.635 -0.0423 -0.0356  0.0875
 8910SOL    HW138366   4.101   3.899   8.709 -1.9161 -0.4085  1.6472
 8910SOL    HW238367   3.974   3.952   8.663  0.5168  0.1240  1.0665
 8911SOL     OW38368   0.290   0.692   3.289  0.2491 -0.1990  0.1869
 8911SOL    HW138369   0.230   0.668   3.218  1.0561  0.4506 -0.7125
 8911SOL    HW238370   0.294   0.615   3.346 -0.2905 -0.6960 -0.4351
 8912SOL     OW38371   3.321   2.915  13.142  0.0007 -0.4190 -0.4219
 8912SOL    HW138372   3.372   2.846  13.184  3.5286  1.6613 -1.3425
 8912SOL    HW238373   3.302   2.958  13.225  1.0742  0.6512 -0.7335
 8913SOL     OW38374   3.214   1.210  14.315 -0.2802  0.2651  0.0042
 8913SOL    HW138375   3.248   1.258  14.391 -0.9247  1.2557 -0.3344
 8913SOL    HW238376   3.172   1.131  14.350 -0.7169  0.9381  0.9926
 8914SOL     OW38377   2.271   1.041   7.977 -0.4281 -0.6038  0.1092
 8914SOL    HW138378   2.299   1.030   7.886 -0.1903 -0.3471  0.1523
 8914SOL    HW238379   2.327   0.979   8.025  0.8708  0.6490  0.2121
 8915SOL     OW38380   1.066   1.682  11.452  0.6275 -0.4812 -0.3171
 8915SOL    HW138381   1.151   1.660  11.492  1.0853 -1.1675 -1.6589
 8915SOL    HW238382   1.017   1.682  11.534 -0.3709 -1.2448 -0.9206
 8916SOL     OW38383   2.121   4.503   6.904  0.4766 -0.0220 -0.2841
 8916SOL    HW138384   2.047   4.452   6.872 -1.0252  1.7729  0.3272
 8916SOL    HW238385   2.174   4.439   6.951  1.5766  1.8347  1.0308
 8917SOL     OW38386   3.193   0.850   9.131  0.2592  0.4200  0.2433
 8917SOL    HW138387   3.286   0.870   9.137  0.9649 -3.0431  0.8522
 8917SOL    HW238388   3.149   0.921   9.178 -0.3665  0.1344  0.0821
 8918SOL     OW38389   1.585   0.861   8.377  0.1845  0.4314 -0.0432
 8918SOL    HW138390   1.532   0.785   8.351  0.5080  0.3577 -0.4735
 8918SOL    HW238391   1.571   0.912   8.298 -1.2540  0.5959  0.3173
 8919SOL     OW38392   1.683   2.863   4.212 -0.0517  0.9147  0.2168
 8919SOL    HW138393   1.659   2.893   4.124  0.3330  1.3198  0.2497
 8919SOL    HW238394   1.663   2.770   4.212  1.8504  0.5015 -1.1389
 8920SOL     OW38395   1.281   1.371  15.666 -0.1133 -0.3388 -0.2717
 8920SOL    HW138396   1.289   1.305  15.734 -1.6916  0.1140  0.3633
 8920SOL    HW238397   1.345   1.333  15.606  2.1818  0.8515  1.4160
 8921SOL     OW38398   3.910   1.818   8.506 -0.1649  0.0895  0.0854
 8921SOL    HW138399   3.916   1.760   8.430  3.7162  1.7190 -0.8559
 8921SOL    HW238400   3.836   1.874   8.486 -1.0832 -1.2344 -0.1964
 8922SOL     OW38401   3.828   2.827  15.680  0.1466 -0.2566 -0.2234
 8922SOL    HW138402   3.898   2.889  15.701 -0.8273  0.2166  1.6615
 8922SOL    HW238403   3.766   2.856  15.747  0.2607 -0.3658 -0.0694
 8923SOL     OW38404   0.692   3.916   9.418  0.4082  0.1746 -0.1519
 8923SOL    HW138405   0.768   3.876   9.462 -0.3652 -0.3093  0.7557
 8923SOL    HW238406   0.721   3.904   9.328  0.6640  1.8428 -0.2921
 8924SOL     OW38407   2.052   1.258   2.168 -0.0647 -0.1947 -0.1088
 8924SOL    HW138408   2.112   1.282   2.238 -1.9161  1.3102  0.9645
 8924SOL    HW238409   1.967   1.269   2.211 -1.4495 -1.2006 -2.5774
 8925SOL     OW38410   3.039   2.058   9.819  0.1246  0.2969 -0.1455
 8925SOL    HW138411   2.953   2.053   9.776 -0.0625  0.1725  0.2390
 8925SOL    HW238412   3.022   2.137   9.872  1.2811  1.3640 -1.3633
 8926SOL     OW38413   3.906   0.022  11.809  0.2483 -0.1227  0.5670
 8926SOL    HW138414   3.990   4.721  11.831  0.5827  0.5840  0.5963
 8926SOL    HW238415   3.871   0.024  11.897 -1.5812 -0.0030 -0.1724
 8927SOL     OW38416   3.948   0.696   6.359  0.1654 -0.0128  0.1407
 8927SOL    HW138417   3.985   0.726   6.442  1.6532 -2.5455  0.4045
 8927SOL    HW238418   3.946   0.602   6.380  2.3800 -0.3542 -1.1287
 8928SOL     OW38419   2.139   3.261   5.638 -0.3056 -0.2523 -0.1758
 8928SOL    HW138420   2.088   3.334   5.603  2.1134  0.5219 -2.1091
 8928SOL    HW238421   2.128   3.277   5.732 -1.0864 -0.2491 -0.2742
 8929SOL     OW38422   3.618   1.692  11.253  0.4852  0.3585 -0.1195
 8929SOL    HW138423   3.683   1.718  11.187  1.6172 -0.2928  0.7424
 8929SOL    HW238424   3.653   1.736  11.331  0.0786  0.4505  0.0144
 8930SOL     OW38425   3.059   0.804   6.379  0.6087 -0.9159 -0.2318
 8930SOL    HW138426   3.034   0.721   6.337 -0.6460 -1.0108  0.6990
 8930SOL    HW238427   3.154   0.793   6.381  0.7106 -0.4709 -2.5714
 8931SOL     OW38428   0.735   4.698  11.171 -0.2332  0.5506  0.1929
 8931SOL    HW138429   0.713   4.645  11.094  3.8961 -1.7873  0.5761
 8931SOL    HW238430   0.742   0.043  11.127 -0.2793 -0.0702 -0.9909
 8932SOL     OW38431   1.042   2.770   2.053  0.0662 -0.1715 -0.5652
 8932SOL    HW138432   0.980   2.717   2.103  0.0753 -0.0789 -0.4560
 8932SOL    HW238433   1.109   2.703   2.039  1.7873  0.9790  2.1813
 8933SOL     OW38434   3.858   1.860   3.882 -0.0225 -0.0974 -0.6647
 8933SOL    HW138435   3.887   1.815   3.803  0.2517 -1.4364  0.1883
 8933SOL    HW238436   3.808   1.935   3.851  0.9554 -0.1187 -2.2922
 8934SOL     OW38437   1.219   1.261  14.260  0.3165  0.0272  0.3423
 8934SOL    HW138438   1.287   1.261  14.327 -0.0587 -2.6587  0.7228
 8934SOL    HW238439   1.231   1.353  14.238  0.1653  0.1850  0.9221
 8935SOL     OW38440   3.971   1.242   9.546 -0.2775  0.3434  0.2916
 8935SOL    HW138441   3.954   1.319   9.600 -1.7482  0.3121 -0.1053
 8935SOL    HW238442   4.065   1.231   9.558 -0.4796 -0.9580  0.6571
 8936SOL     OW38443   2.080   1.240   7.553 -0.1747 -0.1188 -0.5331
 8936SOL    HW138444   2.076   1.336   7.556  0.1302 -0.0827 -1.2699
 8936SOL    HW238445   2.050   1.231   7.463  0.8685  1.3332 -1.0365
 8937SOL     OW38446   3.368   0.444   5.059 -0.1911 -0.2389 -0.0958
 8937SOL    HW138447   3.361   0.377   4.991 -0.8229 -2.6308  2.3359
 8937SOL    HW238448   3.286   0.428   5.105 -0.4880 -0.2702 -0.6314
 8938SOL     OW38449   0.087   0.531  16.367  0.5090  0.3915  0.7877
 8938SOL    HW138450   0.025   0.487  16.426 -0.0976  0.0141 -0.1345
 8938SOL    HW238451   0.163   0.546  16.422  0.8805 -1.2409  0.7326
 8939SOL     OW38452   3.532   1.157   2.141 -0.0972  0.3730  0.1912
 8939SOL    HW138453   3.597   1.118   2.200 -1.3633 -3.4544 -0.9414
 8939SOL    HW238454   3.483   1.212   2.203  0.0329 -1.5689  2.0281
 8940SOL     OW38455   2.118   2.639  10.451 -0.3721  0.0384 -0.6118
 8940SOL    HW138456   2.203   2.684  10.454 -0.9344  1.1537 -1.2266
 8940SOL    HW238457   2.116   2.588  10.370 -1.6111 -0.7485 -0.0696
 8941SOL     OW38458   3.291   4.606   7.546  0.7410  0.1982  0.6898
 8941SOL    HW138459   3.355   4.664   7.505 -0.2309  1.7166  1.3214
 8941SOL    HW238460   3.249   4.567   7.469  2.2351 -1.2423  0.5960
 8942SOL     OW38461   0.165   2.448  14.481  0.2444  0.8245  0.0099
 8942SOL    HW138462   0.256   2.422  14.497  0.4542  1.0117 -0.8666
 8942SOL    HW238463   0.155   2.462  14.387 -0.5387  0.5166  0.0427
 8943SOL     OW38464   4.407   1.606   7.355 -0.1923 -0.1157 -0.1055
 8943SOL    HW138465   4.375   1.652   7.277 -0.6407  1.5221  1.0592
 8943SOL    HW238466   4.355   1.525   7.359  1.8231 -1.5351 -2.3701
 8944SOL     OW38467   3.299   3.170   8.479 -0.3588  0.0096  0.5027
 8944SOL    HW138468   3.346   3.148   8.399 -0.6477  3.1929 -0.5511
 8944SOL    HW238469   3.354   3.128   8.545  1.6075  0.8900 -0.5814
 8945SOL     OW38470   2.777   2.841   8.570 -0.4497  0.0984  0.3382
 8945SOL    HW138471   2.691   2.862   8.534 -0.6241 -0.6824  0.3024
 8945SOL    HW238472   2.828   2.800   8.501 -0.0195 -1.6600  1.6915
 8946SOL     OW38473   4.477   0.886   0.759 -0.0759 -0.1256 -0.3641
 8946SOL    HW138474   4.503   0.933   0.839  0.3151 -1.2283  0.1634
 8946SOL    HW238475   4.560   0.872   0.714 -0.3268 -1.9297 -0.2641
 8947SOL     OW38476   2.744   0.027  12.596  0.2235 -0.3251  0.0458
 8947SOL    HW138477   2.805   0.095  12.622 -0.5123 -1.3102  4.3259
 8947SOL    HW238478   2.787   4.686  12.626  0.1832 -0.2757  0.2354
 8948SOL     OW38479   2.578   4.018   9.258  0.5124  0.7351 -0.0540
 8948SOL    HW138480   2.618   4.010   9.345 -0.3324  1.7539  0.4305
 8948SOL    HW238481   2.635   4.081   9.214 -0.3613  1.7336  0.2468
 8949SOL     OW38482   4.286   1.829   3.051 -0.9543  0.1933  0.4211
 8949SOL    HW138483   4.313   1.816   2.960 -0.0366 -2.5383  1.0842
 8949SOL    HW238484   4.220   1.759   3.058 -1.1367  0.2666 -0.4801
 8950SOL     OW38485   4.195   2.340  15.757  0.0353 -0.5493  0.4943
 8950SOL    HW138486   4.123   2.314  15.813 -0.9002 -3.2160 -1.9480
 8950SOL    HW238487   4.144   2.352  15.676  0.7535 -1.3383 -0.0728
 8951SOL     OW38488   1.508   2.038   7.944  0.3530 -0.2303 -0.1407
 8951SOL    HW138489   1.572   2.065   7.879 -1.1726  2.0255 -0.7010
 8951SOL    HW238490   1.538   1.948   7.958 -0.5992 -0.4191  0.6531
 8952SOL     OW38491   0.280   3.011   6.423 -0.8869 -0.2018  0.3091
 8952SOL    HW138492   0.353   3.054   6.466 -0.8661 -1.1961  1.2737
 8952SOL    HW238493   0.209   3.012   6.487 -0.6828 -0.5410  0.5407
 8953SOL     OW38494   1.399   3.664   8.732 -0.1056  0.3698 -0.4259
 8953SOL    HW138495   1.320   3.674   8.785  0.2590  0.6445  0.0661
 8953SOL    HW238496   1.461   3.677   8.804 -0.3499 -0.0986 -0.1319
 8954SOL     OW38497   0.185   4.364   2.736  0.3688 -0.6410 -0.3251
 8954SOL    HW138498   0.189   4.273   2.706 -0.6058 -1.6178  2.4877
 8954SOL    HW238499   0.246   4.404   2.673  1.0305 -0.9462  0.1172
 8955SOL     OW38500   3.527   2.928   6.077 -0.0276 -0.3377  0.1887
 8955SOL    HW138501   3.496   2.863   6.014 -1.3595  0.2608  0.2278
 8955SOL    HW238502   3.594   2.877   6.122  0.3384 -0.4193 -0.4573
 8956SOL     OW38503   3.926   2.443  12.373  0.3773  0.1730 -0.3489
 8956SOL    HW138504   3.879   2.490  12.442  1.5920 -0.6325  1.0238
 8956SOL    HW238505   3.997   2.413  12.429  0.2831  1.0026  0.2228
 8957SOL     OW38506   3.497   2.561   1.456 -0.3502 -0.2767 -0.2372
 8957SOL    HW138507   3.441   2.549   1.533  0.8454 -0.5116  0.5889
 8957SOL    HW238508   3.430   2.563   1.387 -0.3074  0.6644 -0.2559
 8958SOL     OW38509   2.392   2.651   1.571 -0.3606 -0.1505 -0.1358
 8958SOL    HW138510   2.398   2.744   1.592 -1.6951  0.2877 -1.7532
 8958SOL    HW238511   2.421   2.649   1.480  0.7640  0.1003  0.2070
 8959SOL     OW38512   1.616   0.078  12.097  0.4918  0.0996 -0.1776
 8959SOL    HW138513   1.639   4.731  12.135 -0.1052  0.3457  0.7373
 8959SOL    HW238514   1.660   0.063  12.013  0.1059  2.3467 -0.7563
 8960SOL     OW38515   3.285   2.837   0.331 -0.5517  0.3099  0.2808
 8960SOL    HW138516   3.341   2.857   0.257 -0.8778 -1.0122 -0.3168
 8960SOL    HW238517   3.232   2.917   0.331  1.0635  1.3699 -0.9562
 8961SOL     OW38518   4.513   4.467   6.456  0.7934  0.2986  0.0806
 8961SOL    HW138519   4.532   4.546   6.505 -0.1023  0.3209  0.3894
 8961SOL    HW238520   4.559   4.490   6.375 -0.3179 -1.3404 -1.0137
 8962SOL     OW38521   3.077   1.825  11.078 -0.1728 -0.2719  0.2254
 8962SOL    HW138522   3.129   1.780  11.011 -0.6550 -0.7243  0.1593
 8962SOL    HW238523   3.109   1.916  11.074  0.4708 -0.4593  1.0242
 8963SOL     OW38524   0.158   1.840   7.023 -0.1817 -0.0693  0.2203
 8963SOL    HW138525   0.112   1.894   7.087 -2.6206 -0.8899 -0.8460
 8963SOL    HW238526   0.095   1.768   7.021  0.1464 -0.3638  0.5609
 8964SOL     OW38527   2.914   2.306   9.933  0.7240 -0.5577  0.3976
 8964SOL    HW138528   2.829   2.298   9.890  1.5500 -1.2970 -1.1253
 8964SOL    HW238529   2.908   2.401   9.944  0.4201 -0.4195 -0.8665
 8965SOL     OW38530   0.929   3.174   8.882 -0.4038 -0.2429  0.7369
 8965SOL    HW138531   0.927   3.149   8.790  3.1670  0.8939  0.3375
 8965SOL    HW238532   1.001   3.119   8.913  0.3495  0.1022 -0.3576
 8966SOL     OW38533   4.461   2.519   5.724  0.5013  0.4227 -0.5951
 8966SOL    HW138534   4.526   2.505   5.655 -0.0697 -0.6751 -0.9025
 8966SOL    HW238535   4.509   2.477   5.795  0.0632  0.9118 -0.0121
 8967SOL     OW38536   3.655   1.514   6.079  0.1812 -0.1089  0.7012
 8967SOL    HW138537   3.606   1.484   6.002 -1.7454  1.2101  1.4065
 8967SOL    HW238538   3.728   1.453   6.090 -0.9252 -1.7507 -1.0143
 8968SOL     OW38539   2.137   2.759   7.133 -0.0405 -0.8784 -0.4238
 8968SOL    HW138540   2.090   2.683   7.098  0.3575 -0.5591 -1.6306
 8968SOL    HW238541   2.215   2.706   7.149  0.5579 -0.2661 -1.3438
 8969SOL     OW38542   1.360   2.063   8.764  0.1737  0.3257  0.2149
 8969SOL    HW138543   1.269   2.072   8.794  0.0306  3.1789 -1.1210
 8969SOL    HW238544   1.355   2.019   8.679 -1.6430  2.1311 -0.6209
 8970SOL     OW38545   2.926   0.258  17.080  0.5690 -0.4085 -0.4062
 8970SOL    HW138546   2.976   0.276  17.001 -1.0956 -1.7157 -1.7561
 8970SOL    HW238547   2.887   0.345  17.095 -0.0382 -0.9544  1.2662
 8971SOL     OW38548   3.938   2.343   6.875 -0.2133  0.0523 -0.2709
 8971SOL    HW138549   3.995   2.298   6.938  0.0723  0.0009 -0.5679
 8971SOL    HW238550   3.893   2.265   6.841 -0.1232  1.3083 -3.2038
 8972SOL     OW38551   1.827   3.149  16.058  0.1223  0.5510 -0.6458
 8972SOL    HW138552   1.862   3.194  15.982  2.4354  1.3474  0.8647
 8972SOL    HW238553   1.904   3.110  16.101 -0.0676  0.4202 -0.4218
 8973SOL     OW38554   2.396   1.554   3.152  0.4262  0.1353  0.1116
 8973SOL    HW138555   2.320   1.577   3.206 -0.2229 -3.4901  0.7817
 8973SOL    HW238556   2.375   1.554   3.058 -1.0403  0.5434  0.4342
 8974SOL     OW38557   0.510   0.856   1.772 -0.1519 -0.6890  0.3587
 8974SOL    HW138558   0.433   0.850   1.716  1.4403 -1.2850 -1.7735
 8974SOL    HW238559   0.489   0.787   1.835 -0.5423  0.7431  1.8140
 8975SOL     OW38560   3.027   3.243   3.375  0.3391 -0.4424  0.4948
 8975SOL    HW138561   3.027   3.285   3.289 -0.2703 -0.3362  0.5436
 8975SOL    HW238562   2.965   3.175   3.348 -0.8202  0.8519 -0.0615
 8976SOL     OW38563   2.015   4.498   2.449 -0.1749  0.5968  0.1007
 8976SOL    HW138564   2.026   4.567   2.384  0.5772  0.4370  0.0623
 8976SOL    HW238565   2.106   4.469   2.454 -0.6062 -0.9798 -0.9383
 8977SOL     OW38566   3.346   4.154   5.089  0.1244 -0.4472 -0.2718
 8977SOL    HW138567   3.425   4.190   5.129 -0.5136  0.2430  0.3602
 8977SOL    HW238568   3.386   4.090   5.030  1.0690 -1.1509  1.1542
 8978SOL     OW38569   3.141   4.719   0.506 -0.0038  0.4157 -0.0782
 8978SOL    HW138570   3.055   0.016   0.528  0.3950  1.1462  0.2890
 8978SOL    HW238571   3.198   0.052   0.533 -0.0708 -0.3083  1.9494
 8979SOL     OW38572   2.057   0.270  11.650 -0.1891 -0.5562  0.0383
 8979SOL    HW138573   2.037   0.332  11.720 -2.3044 -1.6170  0.3714
 8979SOL    HW238574   2.116   0.209  11.693  2.8255  1.0865 -1.8109
 8980SOL     OW38575   4.643   3.922   2.156  0.6432 -0.5360  0.1906
 8980SOL    HW138576   4.719   3.973   2.127 -0.0472  0.1012 -0.5080
 8980SOL    HW238577   4.621   3.872   2.077  0.8067  0.7199 -0.6490
 8981SOL     OW38578   4.098   1.624   2.978  0.2587 -0.6565  0.0003
 8981SOL    HW138579   4.030   1.685   2.949  0.3537 -0.4357  0.2442
 8981SOL    HW238580   4.044   1.545   2.975  1.7641 -1.6608 -1.0789
 8982SOL     OW38581   4.319   2.977   3.575  0.9843 -0.6745 -0.4504
 8982SOL    HW138582   4.238   2.995   3.527 -0.0030  1.5063  2.0104
 8982SOL    HW238583   4.342   2.895   3.533 -0.0867 -0.5940 -1.1949
 8983SOL     OW38584   1.065   4.504   2.846  0.2997  0.0075  0.0857
 8983SOL    HW138585   1.094   4.581   2.894  0.9947  0.4314 -1.0058
 8983SOL    HW238586   1.140   4.445   2.856 -1.4000 -1.9912  1.1590
 8984SOL     OW38587   0.851   0.686   3.051 -0.2455  0.2729  0.3220
 8984SOL    HW138588   0.814   0.713   3.136  0.2669 -1.0426  0.9568
 8984SOL    HW238589   0.913   0.759   3.043  0.4196 -0.3761 -0.4519
 8985SOL     OW38590   2.280   0.808   6.942 -0.6918  0.1407  0.4098
 8985SOL    HW138591   2.293   0.897   6.975 -0.1419 -0.9045  2.9607
 8985SOL    HW238592   2.335   0.812   6.863  0.8070  0.7556  1.4765
 8986SOL     OW38593   4.446   3.029   4.717 -0.4609 -0.2173  0.2899
 8986SOL    HW138594   4.455   2.934   4.726  0.1945 -0.3278 -1.4641
 8986SOL    HW238595   4.512   3.050   4.783 -1.3580  2.4593  0.3412
 8987SOL     OW38596   1.852   0.909   1.679  0.1104 -0.0281 -0.0539
 8987SOL    HW138597   1.828   0.996   1.647 -0.6595 -1.0095 -2.1494
 8987SOL    HW238598   1.782   0.851   1.649 -2.1302  2.5996  0.0286
 8988SOL     OW38599   4.438   0.677   8.134  0.1797 -0.5335  0.1755
 8988SOL    HW138600   4.362   0.728   8.161 -0.4258 -0.5323 -1.5056
 8988SOL    HW238601   4.504   0.743   8.112  0.5049 -0.4903  1.2667
 8989SOL     OW38602   3.863   3.002  12.313 -0.3051 -0.0378  0.3429
 8989SOL    HW138603   3.890   3.019  12.403 -0.1248 -0.4922  0.3760
 8989SOL    HW238604   3.936   2.946  12.286  0.5891  0.9884  0.6685
 8990SOL     OW38605   4.467   1.216  17.600  0.1506  0.1538 -0.3208
 8990SOL    HW138606   4.409   1.271  17.548  0.6266  1.2756  0.3271
 8990SOL    HW238607   4.402   1.167  17.650  0.8922 -0.6636 -0.1667
 8991SOL     OW38608   2.589   4.437   4.363  0.3381 -0.3377 -0.1054
 8991SOL    HW138609   2.579   4.411   4.454 -1.6992  2.5645  0.4890
 8991SOL    HW238610   2.512   4.405   4.317 -0.1517  0.1874  0.3429
 8992SOL     OW38611   1.397   0.245   8.582 -0.4622  1.0688  0.6439
 8992SOL    HW138612   1.419   0.163   8.628 -1.6646 -0.4641 -1.5206
 8992SOL    HW238613   1.447   0.253   8.501  0.0498  0.0538  0.8519
 8993SOL     OW38614   3.253   3.860   5.060 -0.3057  0.2830 -0.3534
 8993SOL    HW138615   3.336   3.869   5.014  1.2129  0.9349  2.4910
 8993SOL    HW238616   3.282   3.829   5.146  0.4107  0.5498 -0.5030
 8994SOL     OW38617   0.409   2.255   0.317 -0.2344  0.3501 -0.2916
 8994SOL    HW138618   0.346   2.202   0.267  1.3620  1.2517 -3.3061
 8994SOL    HW238619   0.429   2.208   0.397  0.2805 -0.9834 -1.1958
 8995SOL     OW38620   1.919   1.319   6.976  0.3595 -0.3817  0.5300
 8995SOL    HW138621   1.828   1.291   6.965 -0.4908  3.2269 -1.6655
 8995SOL    HW238622   1.953   1.230   6.968  0.1733 -0.3829 -0.2442
 8996SOL     OW38623   4.046   3.023   7.614 -0.1183  1.1207 -0.5005
 8996SOL    HW138624   3.956   3.002   7.638  0.0904  0.1506 -0.5461
 8996SOL    HW238625   4.032   3.113   7.583  0.7301  0.9022 -1.5265
 8997SOL     OW38626   2.016   1.410   5.142 -0.4021 -0.1566  0.0363
 8997SOL    HW138627   2.010   1.423   5.237 -1.0570  0.1668 -0.0517
 8997SOL    HW238628   1.951   1.340   5.140 -2.5025  1.8253 -0.1944
 8998SOL     OW38629   3.575   3.329  11.336 -0.1712 -0.5194 -0.4552
 8998SOL    HW138630   3.516   3.346  11.409  1.9925  3.1301  0.4821
 8998SOL    HW238631   3.624   3.412  11.333 -1.0298  0.0020  0.1464
 8999SOL     OW38632   2.578   0.980   2.406  0.0083 -0.4122 -0.0567
 8999SOL    HW138633   2.528   0.921   2.463  1.0680 -1.2669 -0.0140
 8999SOL    HW238634   2.514   1.011   2.342  1.2833  0.6000 -0.8336
 9000SOL     OW38635   0.709   2.865   8.208 -0.4540  0.2579  0.8554
 9000SOL    HW138636   0.633   2.831   8.256 -2.3135  2.4124 -0.5439
 9000SOL    HW238637   0.734   2.796   8.147 -0.2011  1.0822  0.0106
 9001SOL     OW38638   2.928   2.388  16.544 -0.8707  0.0603  0.1803
 9001SOL    HW138639   2.914   2.297  16.572  0.7997  0.1611  1.3790
 9001SOL    HW238640   2.838   2.418  16.530 -0.3470  0.6796 -1.7347
 9002SOL     OW38641   2.032   0.763   5.022 -0.2442  0.5627  0.1960
 9002SOL    HW138642   1.982   0.807   4.953  1.3387 -0.6041 -1.6968
 9002SOL    HW238643   2.120   0.798   5.010  0.1225 -1.3832 -2.7650
 9003SOL     OW38644   0.253   4.380   1.133 -0.5569  0.7118  0.3508
 9003SOL    HW138645   0.290   4.318   1.070 -0.8856  1.7381 -0.8538
 9003SOL    HW238646   0.265   4.329   1.213 -0.3928  0.8323  0.4031
 9004SOL     OW38647   1.837   4.440   8.030  0.0298 -0.0104 -0.6276
 9004SOL    HW138648   1.802   4.488   8.106  1.1741  2.9667 -1.9998
 9004SOL    HW238649   1.781   4.467   7.957  1.0469  2.0064 -0.6605
 9005SOL     OW38650   2.312   3.829   7.437  0.3962  0.3447 -0.2461
 9005SOL    HW138651   2.241   3.765   7.439  1.1606 -0.4361  1.8689
 9005SOL    HW238652   2.380   3.773   7.397 -2.4058 -3.1863 -0.0419
 9006SOL     OW38653   0.897   2.238   7.351 -0.3139 -0.5397  0.2129
 9006SOL    HW138654   0.815   2.265   7.394 -0.6500 -0.4174 -0.4911
 9006SOL    HW238655   0.934   2.171   7.408  0.3043  1.3307  2.0030
 9007SOL     OW38656   0.290   2.286   9.031 -0.9008 -0.1206 -0.4006
 9007SOL    HW138657   0.236   2.363   9.049 -1.9671 -0.9997  0.1752
 9007SOL    HW238658   0.378   2.304   9.062 -1.2250  1.7242 -0.5556
 9008SOL     OW38659   1.555   0.255  11.650 -0.1702 -1.2792 -0.4530
 9008SOL    HW138660   1.576   0.333  11.700 -2.2800 -0.5952 -0.6390
 9008SOL    HW238661   1.638   0.233  11.607 -0.5060 -1.0066 -1.2254
 9009SOL     OW38662   1.118   0.324   6.729  0.0835 -0.0130  0.1264
 9009SOL    HW138663   1.099   0.333   6.635  1.3823  1.5580  0.0126
 9009SOL    HW238664   1.140   0.232   6.743  1.1762  0.1751 -0.3335
 9010SOL     OW38665   0.398   1.451   2.451 -0.2069  0.2046  0.1934
 9010SOL    HW138666   0.400   1.406   2.535 -1.9533 -3.8865 -1.9725
 9010SOL    HW238667   0.311   1.492   2.454  0.3308  1.5526 -2.1668
 9011SOL     OW38668   2.394   4.564   8.870  0.1726 -0.1067 -0.3121
 9011SOL    HW138669   2.354   4.602   8.948  4.2731  0.4182  1.4823
 9011SOL    HW238670   2.379   4.471   8.890  0.5471 -0.4625 -1.6690
 9012SOL     OW38671   3.148   3.972   5.515  0.4685  0.3894 -0.5266
 9012SOL    HW138672   3.180   4.009   5.433  0.2276 -0.3643 -0.9555
 9012SOL    HW238673   3.093   3.905   5.476  1.5974 -0.7241 -0.2044
 9013SOL     OW38674   4.285   2.880  13.017  0.4255 -0.2649 -0.0737
 9013SOL    HW138675   4.362   2.936  13.022 -0.6251  1.2197 -0.4084
 9013SOL    HW238676   4.315   2.797  13.053  1.3274  1.3249  2.8765
 9014SOL     OW38677   3.037   4.348  12.470 -0.1472 -0.1751 -0.1522
 9014SOL    HW138678   3.078   4.296  12.401 -1.5589 -1.8388  0.2563
 9014SOL    HW238679   2.990   4.409  12.413 -0.5600 -0.3210  0.0314
 9015SOL     OW38680   0.321   0.174   7.329  0.3214  0.3104 -0.1932
 9015SOL    HW138681   0.367   0.255   7.306  1.3611 -0.0117  0.7331
 9015SOL    HW238682   0.321   0.176   7.425  1.4386 -0.5324 -0.1753
 9016SOL     OW38683   2.936   3.080  11.698 -0.0801  0.2614  0.1474
 9016SOL    HW138684   2.851   3.116  11.724 -0.4648 -0.1722 -0.4986
 9016SOL    HW238685   2.923   2.986  11.690 -0.2589  0.5501 -2.9806
 9017SOL     OW38686   0.476   0.304   1.625  0.2677  0.1752 -0.5377
 9017SOL    HW138687   0.538   0.331   1.557 -0.2847  1.3252 -0.5936
 9017SOL    HW238688   0.520   0.309   1.710  1.6380  2.9203 -1.3888
 9018SOL     OW38689   2.690   2.698   6.606  0.1249  0.4942 -0.4010
 9018SOL    HW138690   2.658   2.765   6.546 -2.0090  2.1209  2.5297
 9018SOL    HW238691   2.610   2.665   6.647 -0.1033  1.9155  0.2884
 9019SOL     OW38692   2.710   1.035   5.098  0.3095 -0.0207  0.6269
 9019SOL    HW138693   2.747   1.094   5.032  0.6924  0.6576  1.4530
 9019SOL    HW238694   2.773   0.963   5.103  1.5977  1.1189  0.9490
 9020SOL     OW38695   4.217   2.550   0.719  0.0865 -0.2034 -0.7227
 9020SOL    HW138696   4.274   2.616   0.759 -1.6556  1.2977 -0.7190
 9020SOL    HW238697   4.152   2.529   0.786  0.9554 -1.8681 -0.4060
 9021SOL     OW38698   1.863   4.098   8.792 -0.5998 -0.4154 -0.2906
 9021SOL    HW138699   1.910   4.157   8.733 -1.1733  1.4616  1.1326
 9021SOL    HW238700   1.901   4.123   8.876  0.4007 -1.4800 -0.4179
 9022SOL     OW38701   3.308   3.046   3.645 -0.6325  0.0974  0.2635
 9022SOL    HW138702   3.352   3.009   3.569  1.9063 -1.4565  2.4704
 9022SOL    HW238703   3.369   3.119   3.660  0.2333 -0.4942 -0.4034
 9023SOL     OW38704   3.542   3.472   4.137 -0.0428  0.1644  0.4198
 9023SOL    HW138705   3.500   3.410   4.197  1.7800 -1.5797 -0.0735
 9023SOL    HW238706   3.479   3.468   4.064  1.1152 -0.6124 -0.5472
 9024SOL     OW38707   3.237   1.483  14.552  0.5718  0.3337  0.0628
 9024SOL    HW138708   3.216   1.530  14.472  1.8530  0.4026 -0.2331
 9024SOL    HW238709   3.167   1.517  14.607  1.1674  1.7872 -0.0825
 9025SOL     OW38710   3.227   4.661   8.288 -0.4712 -0.0045  0.6089
 9025SOL    HW138711   3.305   4.607   8.300  0.0307  1.1046  2.3551
 9025SOL    HW238712   3.207   4.666   8.194 -1.3400 -0.8924  0.7461
 9026SOL     OW38713   1.523   2.666   8.292 -0.1946 -0.6533 -0.0025
 9026SOL    HW138714   1.542   2.747   8.340 -1.8360  0.1197 -0.6674
 9026SOL    HW238715   1.447   2.636   8.342 -2.2888  2.0856 -1.5634
 9027SOL     OW38716   0.281   2.312   4.283 -0.1563 -0.1565 -0.0153
 9027SOL    HW138717   0.257   2.235   4.233  1.1274 -1.3457  1.2069
 9027SOL    HW238718   0.282   2.371   4.207  0.8176 -0.9319 -0.5911
 9028SOL     OW38719   0.042   3.621   2.644 -0.1907  0.1166 -0.4443
 9028SOL    HW138720   0.070   3.586   2.729 -1.6814 -1.7142 -0.6957
 9028SOL    HW238721   0.125   3.628   2.597  0.3084  0.1633  0.4374
 9029SOL     OW38722   3.262   3.413   2.460 -0.8145  0.4437  0.0447
 9029SOL    HW138723   3.210   3.333   2.445 -0.6955  0.3819 -0.0359
 9029SOL    HW238724   3.326   3.390   2.393 -1.2615 -5.0646  1.4293
 9030SOL     OW38725   4.329   0.628   0.225  0.2925 -0.6383  0.2494
 9030SOL    HW138726   4.285   0.543   0.226 -1.7574  0.4447  1.5647
 9030SOL    HW238727   4.265   0.687   0.265  0.0213 -0.1161 -0.9676
 9031SOL     OW38728   0.054   3.965   8.424 -0.4209 -0.0265  0.1036
 9031SOL    HW138729   0.035   3.935   8.335 -1.5030 -1.9210  0.9667
 9031SOL    HW238730   0.107   3.894   8.460  1.9991  0.9839 -1.4677
 9032SOL     OW38731   3.143   2.154   5.666  0.4336 -0.3803 -0.8282
 9032SOL    HW138732   3.053   2.128   5.686  0.1936  1.1623  0.0278
 9032SOL    HW238733   3.128   2.201   5.584 -1.0414  1.1397  0.3154
 9033SOL     OW38734   2.118   1.105  17.484 -0.5452 -0.7246 -0.3280
 9033SOL    HW138735   2.058   1.044  17.442 -1.0949 -1.4322  1.5075
 9033SOL    HW238736   2.196   1.053  17.503 -0.2751  0.3636  1.5161
 9034SOL     OW38737   0.785   2.086   1.527  0.2220  0.5836  0.1850
 9034SOL    HW138738   0.736   2.155   1.481 -0.2827 -0.5284 -0.9129
 9034SOL    HW238739   0.778   2.005   1.477 -0.2959  2.2098 -2.3709
 9035SOL     OW38740   1.383   3.662   5.369 -0.2079 -0.4667  0.2544
 9035SOL    HW138741   1.347   3.610   5.441  1.9727  0.2205  1.8351
 9035SOL    HW238742   1.477   3.646   5.368 -0.3030 -0.9316 -0.7270
 9036SOL     OW38743   3.231   2.177   1.610 -0.3132  0.0044 -0.1904
 9036SOL    HW138744   3.203   2.086   1.598 -0.8784  0.1606 -0.0311
 9036SOL    HW238745   3.151   2.223   1.637  1.1579  2.4630 -0.0309
 9037SOL     OW38746   3.781   3.307   2.368 -0.0930 -0.0018  0.5654
 9037SOL    HW138747   3.791   3.354   2.451 -0.3593 -1.2763  1.3178
 9037SOL    HW238748   3.867   3.264   2.369 -0.3312 -0.5360 -1.3959
 9038SOL     OW38749   1.188   2.723   7.445 -0.1117  1.0428 -0.3603
 9038SOL    HW138750   1.163   2.658   7.380  2.9023 -0.8777  0.3770
 9038SOL    HW238751   1.283   2.711   7.447 -0.4163 -1.7657 -4.0543
 9039SOL     OW38752   2.247   1.480   1.754  0.2916 -0.5742  0.3599
 9039SOL    HW138753   2.221   1.446   1.840 -0.3391  1.4320  0.9812
 9039SOL    HW238754   2.311   1.547   1.781  1.1329  0.1624 -3.5401
 9040SOL     OW38755   0.215   1.608   6.298  0.4522  0.6303 -0.7434
 9040SOL    HW138756   0.250   1.530   6.339 -1.2340  0.9360  1.3052
 9040SOL    HW238757   0.170   1.651   6.371  0.5136  0.2653 -0.4899
 9041SOL     OW38758   2.932   2.455   5.644 -0.3640  0.8319  0.2351
 9041SOL    HW138759   2.933   2.429   5.552 -1.0020  0.1220  0.4342
 9041SOL    HW238760   3.027   2.460   5.652 -0.3330 -0.7087  0.6588
 9042SOL     OW38761   1.360   0.371  12.750 -0.1392  0.2823 -0.9523
 9042SOL    HW138762   1.331   0.441  12.810  0.2736 -0.7521  0.4566
 9042SOL    HW238763   1.450   0.399  12.738  1.1609 -2.6871  1.8497
 9043SOL     OW38764   0.824   3.860   2.033 -0.1632 -0.2802 -0.0346
 9043SOL    HW138765   0.822   3.769   2.062 -0.2402 -0.4803 -0.6640
 9043SOL    HW238766   0.867   3.904   2.106 -0.6662 -0.2721  0.2526
 9044SOL     OW38767   1.121   3.549  16.568  0.3765 -0.6315  0.6850
 9044SOL    HW138768   1.148   3.641  16.577 -1.3195 -0.2387  1.8366
 9044SOL    HW238769   1.029   3.565  16.591  0.0995 -1.3555  0.0590
 9045SOL     OW38770   4.663   1.718   1.946  0.2905 -0.3842  0.2916
 9045SOL    HW138771   4.593   1.712   2.011 -0.3313  1.3464 -0.2314
 9045SOL    HW238772   4.715   1.777   1.999  0.1605  1.2908 -1.4765
 9046SOL     OW38773   0.940   1.309  14.512  0.5279 -0.2626  0.1498
 9046SOL    HW138774   1.031   1.299  14.484  0.7068  0.0742  0.6035
 9046SOL    HW238775   0.892   1.305  14.429  1.9344 -0.4078 -0.6529
 9047SOL     OW38776   2.704   2.293   2.067  0.4712  0.1463  0.1968
 9047SOL    HW138777   2.660   2.211   2.044 -0.1066  0.5927 -0.2826
 9047SOL    HW238778   2.793   2.273   2.038  0.8704  1.7395  0.3312
 9048SOL     OW38779   2.720   1.328   4.499  0.7818 -0.0107  0.7191
 9048SOL    HW138780   2.685   1.297   4.583  1.8707  2.2006  1.9936
 9048SOL    HW238781   2.702   1.422   4.495 -0.6024 -0.3890 -1.7014
 9049SOL     OW38782   1.755   0.244   6.716 -0.4942  0.1964  0.0287
 9049SOL    HW138783   1.728   0.293   6.793 -1.0741 -0.1061  0.0163
 9049SOL    HW238784   1.740   0.308   6.647  2.6215 -0.2744 -1.0937
 9050SOL     OW38785   1.941   0.890   6.511 -0.1133  0.2011  0.0179
 9050SOL    HW138786   2.004   0.935   6.568 -2.7883  0.2848  2.9575
 9050SOL    HW238787   1.970   0.901   6.421 -0.0051 -0.5626 -0.0407
 9051SOL     OW38788   0.993   1.194   9.482 -0.2638 -0.4218  0.3671
 9051SOL    HW138789   1.037   1.152   9.556 -1.6637 -1.8905  0.3766
 9051SOL    HW238790   0.903   1.209   9.511 -0.6840  0.3266 -1.3457
 9052SOL     OW38791   3.706   4.691   0.378  0.0226 -0.1756  0.2320
 9052SOL    HW138792   3.656   4.665   0.455 -0.5427  0.5358  0.1060
 9052SOL    HW238793   3.785   4.642   0.399  0.5898 -0.2918 -2.1755
 9053SOL     OW38794   2.283   4.461   5.303 -0.0100 -0.0903  0.1063
 9053SOL    HW138795   2.243   4.547   5.306 -0.9191 -0.4464 -2.0939
 9053SOL    HW238796   2.370   4.475   5.340 -0.3708  0.6374  0.6611
 9054SOL     OW38797   3.014   0.629  14.531 -0.2539  1.0161 -0.5437
 9054SOL    HW138798   3.081   0.632  14.463  0.0319  2.0377 -0.2042
 9054SOL    HW238799   3.056   0.595  14.610 -2.2059  0.7542  0.3933
 9055SOL     OW38800   2.369   2.834   0.319 -0.1517  0.3181 -0.1770
 9055SOL    HW138801   2.360   2.744   0.287 -0.7934  0.7723 -1.3015
 9055SOL    HW238802   2.281   2.870   0.307  0.0888  1.0013  0.0915
 9056SOL     OW38803   4.425   4.534  10.388 -0.3512  0.1188  0.3579
 9056SOL    HW138804   4.510   4.572  10.365 -1.4872  1.3416 -1.7626
 9056SOL    HW238805   4.455   4.527  10.479  0.9132 -0.9468 -0.1437
 9057SOL     OW38806   4.294   4.543   3.079 -0.0791  0.2858  0.1913
 9057SOL    HW138807   4.220   4.510   3.129  0.2472 -2.4797 -1.1063
 9057SOL    HW238808   4.245   4.575   3.004  2.1144 -1.0009 -1.8123
 9058SOL     OW38809   3.611   0.667  12.320  0.1508 -0.3861 -0.3027
 9058SOL    HW138810   3.671   0.735  12.288  0.1639 -0.1378  0.2425
 9058SOL    HW238811   3.666   0.590  12.310 -1.3389 -1.4228 -0.4082
 9059SOL     OW38812   2.677   4.720   4.820 -0.3275  0.0595  0.2572
 9059SOL    HW138813   2.652   4.702   4.729  0.9699 -2.4669  0.3881
 9059SOL    HW238814   2.640   0.068   4.837 -1.3044 -0.2792 -0.1393
 9060SOL     OW38815   4.396   0.396   7.772 -0.6651 -0.1754  0.6280
 9060SOL    HW138816   4.478   0.431   7.806  0.8455 -2.0416 -1.0491
 9060SOL    HW238817   4.390   0.321   7.832  0.6375  0.9105  2.1060
 9061SOL     OW38818   3.671   2.119   3.476  0.0661  0.1156 -0.0792
 9061SOL    HW138819   3.585   2.134   3.435 -0.7274 -2.0471  0.7972
 9061SOL    HW238820   3.651   2.025   3.480  1.2508 -0.2578 -2.7444
 9062SOL     OW38821   0.945   4.377   9.091 -0.7148 -0.0347  0.3305
 9062SOL    HW138822   0.955   4.349   9.000  0.4949  0.7930  0.2070
 9062SOL    HW238823   0.851   4.364   9.103 -0.7559 -0.8994 -0.9515
 9063SOL     OW38824   2.071   4.160   6.131 -0.2097  0.1482  0.4051
 9063SOL    HW138825   2.022   4.224   6.079  0.8138  0.9382  0.4071
 9063SOL    HW238826   2.045   4.168   6.223 -0.2560 -1.5690  0.5292
 9064SOL     OW38827   1.907   1.680   8.702  0.3645 -0.0236  0.1161
 9064SOL    HW138828   1.827   1.665   8.751  0.8897 -0.7068  0.7795
 9064SOL    HW238829   1.958   1.746   8.749  1.3053 -0.2576 -0.5514
 9065SOL     OW38830   4.636   3.074   2.886 -0.3138 -0.2663  0.1665
 9065SOL    HW138831   4.638   3.143   2.820 -0.1725  0.4458  0.9163
 9065SOL    HW238832   4.672   3.122   2.961 -3.3999  2.2113  0.0341
 9066SOL     OW38833   3.554   3.534   5.553 -0.2753 -0.2688 -0.0771
 9066SOL    HW138834   3.545   3.523   5.648  0.1018 -0.3113 -0.0458
 9066SOL    HW238835   3.486   3.475   5.520  0.4452 -1.9325  1.4332
 9067SOL     OW38836   0.545   1.683  14.540  0.2120 -0.5515  0.5987
 9067SOL    HW138837   0.603   1.607  14.543 -1.6780 -2.0385  0.1231
 9067SOL    HW238838   0.550   1.706  14.632 -0.6135 -0.2694  0.5814
 9068SOL     OW38839   0.345   4.637   4.446 -0.4056  0.7227  0.4548
 9068SOL    HW138840   0.419   4.677   4.401 -0.2670  1.9229  1.7665
 9068SOL    HW238841   0.314   4.593   4.367  1.0095 -1.2280  0.9739
 9069SOL     OW38842   3.283   1.515   1.050  0.0090 -0.0866 -0.3409
 9069SOL    HW138843   3.297   1.422   1.028 -2.4167 -0.6955  0.7777
 9069SOL    HW238844   3.336   1.566   0.988  1.2093  0.0628  0.7917
 9070SOL     OW38845   1.830   1.478   6.754 -0.5310 -0.3185  0.3318
 9070SOL    HW138846   1.889   1.440   6.819  0.7845 -0.6161 -1.0335
 9070SOL    HW238847   1.888   1.490   6.680 -1.3168 -3.5311 -0.8303
 9071SOL     OW38848   2.271   3.888   1.165  0.3120  0.1749  0.6135
 9071SOL    HW138849   2.221   3.965   1.139  0.5554  0.4225  0.8833
 9071SOL    HW238850   2.269   3.852   1.076  0.2463  3.0473 -0.5757
 9072SOL     OW38851   4.074   0.153   2.005 -0.4680 -0.3331 -0.2887
 9072SOL    HW138852   4.159   0.193   1.989 -0.6271  0.2350  0.3044
 9072SOL    HW238853   4.037   0.202   2.078 -1.1397  0.4506 -1.1456
 9073SOL     OW38854   2.045   2.794   7.698 -0.0870 -0.5407  0.2220
 9073SOL    HW138855   2.118   2.736   7.676  1.3104  1.3967 -0.2085
 9073SOL    HW238856   2.027   2.841   7.616  0.8187  1.2605  1.0754
 9074SOL     OW38857   2.907   1.071  10.924 -0.0689  0.3169 -0.1589
 9074SOL    HW138858   2.871   1.151  10.885 -0.5860  0.1254 -0.0764
 9074SOL    HW238859   2.847   1.062  10.998  4.0394 -0.4480  3.1179
 9075SOL     OW38860   3.569   2.805   2.141  0.1366  0.0323 -0.2453
 9075SOL    HW138861   3.661   2.802   2.166  0.1644 -0.8045 -0.4597
 9075SOL    HW238862   3.576   2.721   2.096 -0.6239  0.0177 -0.3439
 9076SOL     OW38863   4.191   3.754   5.694  0.1939 -0.1851  0.0957
 9076SOL    HW138864   4.129   3.736   5.624  0.6686  0.3469 -0.4643
 9076SOL    HW238865   4.271   3.767   5.643 -0.6262 -1.2408 -1.4522
 9077SOL     OW38866   0.700   3.180   6.171  0.1790 -0.3278  0.0468
 9077SOL    HW138867   0.730   3.100   6.213  0.7724 -1.0949 -1.8385
 9077SOL    HW238868   0.604   3.173   6.169  0.0946  1.1300 -1.1966
 9078SOL     OW38869   3.705   2.117   8.820  1.0928 -0.1961  0.7477
 9078SOL    HW138870   3.723   2.076   8.735 -1.5446 -0.6366  0.3883
 9078SOL    HW238871   3.650   2.051   8.864 -2.1221  0.2325 -2.6671
 9079SOL     OW38872   1.674   1.040   1.957 -0.0805 -0.0641 -0.4443
 9079SOL    HW138873   1.685   1.053   2.051 -0.5897 -0.5952 -0.3169
 9079SOL    HW238874   1.683   0.945   1.954 -1.6957 -0.1770 -1.7161
 9080SOL     OW38875   2.009   1.872   8.859  0.0194  0.2309  0.1176
 9080SOL    HW138876   2.006   1.966   8.876 -0.8076 -0.0696  1.6034
 9080SOL    HW238877   2.075   1.847   8.923 -0.3214 -0.7949  0.0841
 9081SOL     OW38878   3.088   1.536   5.669  0.6126  0.1511 -0.0215
 9081SOL    HW138879   3.171   1.584   5.665  0.5986  0.0961 -1.0414
 9081SOL    HW238880   3.029   1.603   5.635 -0.0154 -0.7000 -0.6061
 9082SOL     OW38881   0.930   4.603   2.620 -0.5466 -0.2089  0.7675
 9082SOL    HW138882   0.913   4.662   2.693 -1.1202  0.9121 -0.2817
 9082SOL    HW238883   0.980   4.533   2.662  0.7677 -0.8295 -1.8032
 9083SOL     OW38884   2.058   3.717   7.962 -0.2741 -0.5548  0.0984
 9083SOL    HW138885   2.136   3.690   7.913 -1.3397 -0.6686 -1.5382
 9083SOL    HW238886   2.020   3.787   7.909  0.3952 -0.2943 -0.0336
 9084SOL     OW38887   4.570   3.510  16.986 -0.0319 -0.1993 -0.2385
 9084SOL    HW138888   4.598   3.598  17.012  1.4917 -0.6807 -0.2537
 9084SOL    HW238889   4.597   3.465  17.066  2.3965  0.1134 -0.8528
 9085SOL     OW38890   1.347   3.194  12.881  0.3548  0.1555  0.4012
 9085SOL    HW138891   1.357   3.255  12.954  1.8568  1.3549 -0.8035
 9085SOL    HW238892   1.254   3.194  12.861  0.6834 -0.9223 -1.1124
 9086SOL     OW38893   3.005   2.701  17.748  0.0783  0.2412  0.0166
 9086SOL    HW138894   3.029   2.788   0.028 -0.6946 -0.3318  2.1070
 9086SOL    HW238895   2.953   2.717  17.669 -2.3329  0.1470  1.5882
 9087SOL     OW38896   0.528   1.925   2.247 -0.2148  0.0776 -0.2013
 9087SOL    HW138897   0.608   1.952   2.201  0.3221 -1.7650 -0.3623
 9087SOL    HW238898   0.554   1.957   2.333 -2.2220  1.5167 -0.1372
 9088SOL     OW38899   4.511   3.059   7.334 -0.2802  0.3246  0.0049
 9088SOL    HW138900   4.502   3.141   7.383 -1.8138 -0.3573  0.8454
 9088SOL    HW238901   4.444   3.002   7.372 -1.7916  2.1853  0.1319
 9089SOL     OW38902   2.344   2.379  10.024 -0.2262  0.3290 -0.4250
 9089SOL    HW138903   2.250   2.397  10.018  0.0287  1.3871 -1.2093
 9089SOL    HW238904   2.332   2.315  10.094 -0.3794  0.6168 -0.1873
 9090SOL     OW38905   3.309   1.600   4.695  0.2073  0.1743 -0.4432
 9090SOL    HW138906   3.256   1.520   4.683  1.7061 -0.5358 -2.2846
 9090SOL    HW238907   3.263   1.674   4.655 -1.0779  0.8850  2.3390
 9091SOL     OW38908   3.690   1.192   8.379  0.8600 -0.1155  0.4609
 9091SOL    HW138909   3.639   1.111   8.382 -1.4123  1.3908  2.4032
 9091SOL    HW238910   3.719   1.207   8.469  0.7416 -0.3732  0.5405
 9092SOL     OW38911   0.147   0.913  12.573  0.1015 -0.2718  1.0016
 9092SOL    HW138912   0.148   0.988  12.513  1.7338 -1.4138 -0.3817
 9092SOL    HW238913   0.056   0.885  12.562  0.4156 -0.8227 -0.1288
 9093SOL     OW38914   1.862   3.936  12.456 -0.2913 -0.3947  0.1861
 9093SOL    HW138915   1.883   4.014  12.406 -0.0900 -0.2686  0.4636
 9093SOL    HW238916   1.806   3.884  12.399 -2.4495 -0.6176  2.4815
 9094SOL     OW38917   1.861   0.955   5.921 -0.1400 -0.6584  0.1243
 9094SOL    HW138918   1.839   1.007   5.843  0.3619  0.7255  0.9131
 9094SOL    HW238919   1.956   0.960   5.920 -0.0439 -1.9030  2.9836
 9095SOL     OW38920   0.991   4.344   4.783  0.4025  0.1512  0.4920
 9095SOL    HW138921   1.041   4.273   4.823  2.4431  1.1912 -0.2028
 9095SOL    HW238922   0.942   4.296   4.716 -0.9686 -0.2347  1.7770
 9096SOL     OW38923   2.189   0.890   3.893 -0.0492 -0.3542 -0.1509
 9096SOL    HW138924   2.151   0.975   3.917  1.5682 -0.2720  2.0730
 9096SOL    HW238925   2.210   0.891   3.800 -0.3053 -3.5790 -0.2357
 9097SOL     OW38926   4.188   1.056  15.348 -0.4810  0.0868  0.1169
 9097SOL    HW138927   4.221   0.971  15.321 -1.0404  1.0520 -3.5671
 9097SOL    HW238928   4.265   1.112  15.335 -0.2322 -0.3506 -0.3056
 9098SOL     OW38929   1.626   1.445  12.605 -0.0654 -0.6238  0.1016
 9098SOL    HW138930   1.669   1.361  12.617 -1.7265 -1.3414  1.1083
 9098SOL    HW238931   1.658   1.496  12.680  0.6928  2.2688 -2.1767
 9099SOL     OW38932   2.528   0.905   3.599 -0.4299 -0.6429  0.4263
 9099SOL    HW138933   2.603   0.964   3.594 -0.8741 -0.4608 -3.9087
 9099SOL    HW238934   2.570   0.820   3.607 -0.4047 -0.6664  0.0481
 9100SOL     OW38935   1.097   2.884   8.718  0.4846 -0.3325  0.0846
 9100SOL    HW138936   1.053   2.958   8.676  1.0554 -0.9000 -1.5001
 9100SOL    HW238937   1.164   2.869   8.652  1.0514  0.6620  0.4367
 9101SOL     OW38938   1.067   1.853   3.715 -0.3136  0.2879 -0.1984
 9101SOL    HW138939   1.151   1.895   3.735 -0.5240  0.1014  1.0272
 9101SOL    HW238940   1.036   1.819   3.799 -1.9556  1.0503 -0.4927
 9102SOL     OW38941   1.529   2.334   4.078 -0.0944  0.4955 -0.4762
 9102SOL    HW138942   1.614   2.323   4.036  0.3892 -2.3734  1.2376
 9102SOL    HW238943   1.473   2.337   4.000  1.0439  0.7809 -1.2708
 9103SOL     OW38944   2.072   0.271   7.178 -0.4785  0.0823  0.6090
 9103SOL    HW138945   2.048   0.342   7.118 -1.1187  1.9377  3.0244
 9103SOL    HW238946   2.043   0.195   7.129 -0.0144  0.1151  0.2873
 9104SOL     OW38947   1.575   4.074   6.673  0.0400 -0.3444 -0.4017
 9104SOL    HW138948   1.596   4.011   6.741  0.5974  1.7426  1.3645
 9104SOL    HW238949   1.583   4.154   6.725  0.4270 -0.9038  0.3856
 9105SOL     OW38950   1.376   0.515   5.779  0.1688 -0.0700  0.5251
 9105SOL    HW138951   1.355   0.578   5.711  0.2833 -0.0529  0.5059
 9105SOL    HW238952   1.388   0.431   5.735 -0.4401 -0.5572  1.2794
 9106SOL     OW38953   3.817   3.537   3.407 -0.0388 -0.1386  0.3630
 9106SOL    HW138954   3.758   3.503   3.339 -3.5351  1.9250  2.3529
 9106SOL    HW238955   3.900   3.494   3.387  0.1485  0.6905 -0.6596
 9107SOL     OW38956   4.417   3.832   0.194 -0.1784 -0.6991 -0.0646
 9107SOL    HW138957   4.393   3.884   0.116 -0.5504  0.5488  0.8835
 9107SOL    HW238958   4.353   3.761   0.188  0.4596 -1.4377  2.1430
 9108SOL     OW38959   1.862   0.113   3.010  0.0842  0.4372  0.1798
 9108SOL    HW138960   1.889   0.023   3.027 -2.2079 -0.1291  0.7430
 9108SOL    HW238961   1.931   0.157   3.060 -1.2139  2.0989  0.5302
 9109SOL     OW38962   0.676   3.831   1.707  0.1094 -0.2295 -0.9875
 9109SOL    HW138963   0.644   3.834   1.797 -0.9866 -1.5529 -1.3220
 9109SOL    HW238964   0.733   3.755   1.720  1.6429  1.4076  1.7114
 9110SOL     OW38965   0.617   2.123   7.302 -0.2089  0.4569  0.5318
 9110SOL    HW138966   0.634   2.187   7.371  0.2356  0.0946  0.7619
 9110SOL    HW238967   0.651   2.038   7.330 -0.2800 -0.2373 -1.5071
 9111SOL     OW38968   0.293   1.135   8.589 -0.0421 -0.4546 -0.2359
 9111SOL    HW138969   0.221   1.177   8.542  0.2214 -0.5274 -0.7094
 9111SOL    HW238970   0.348   1.206   8.621 -1.8788  1.0063 -0.3291
 9112SOL     OW38971   1.510   1.383   4.196  0.4511  0.1361  0.1692
 9112SOL    HW138972   1.551   1.464   4.227 -1.8166  1.5100 -0.4401
 9112SOL    HW238973   1.432   1.383   4.252  0.2319  2.0946 -0.1429
 9113SOL     OW38974   0.890   0.285   0.119 -0.0096  0.1937 -0.1091
 9113SOL    HW138975   0.937   0.244   0.192  1.3952  2.7658  0.4584
 9113SOL    HW238976   0.805   0.290   0.163 -0.4316  0.5276 -0.9502
 9114SOL     OW38977   4.395   2.382   6.380  0.4365 -0.1128  0.1727
 9114SOL    HW138978   4.411   2.291   6.405 -0.4542  0.0212  1.2291
 9114SOL    HW238979   4.470   2.405   6.325 -0.0099 -1.6005 -1.0548
 9115SOL     OW38980   4.462   1.507   8.115  0.3962 -0.2221 -0.1226
 9115SOL    HW138981   4.539   1.518   8.172 -0.1966 -2.1707  1.0385
 9115SOL    HW238982   4.394   1.565   8.149 -0.8750 -0.9598 -1.4211
 9116SOL     OW38983   0.860   0.275   3.972 -0.6919 -0.6299  0.1424
 9116SOL    HW138984   0.865   0.301   3.880  0.2313  1.1457  0.7049
 9116SOL    HW238985   0.766   0.290   3.986 -0.7989 -0.8490 -0.3252
 9117SOL     OW38986   1.878   3.414  11.618  0.1411 -0.1854 -0.0002
 9117SOL    HW138987   1.957   3.463  11.639 -0.1442  0.5982 -0.7606
 9117SOL    HW238988   1.878   3.349  11.688  1.0952 -2.0951 -1.7631
 9118SOL     OW38989   1.431   2.286   2.834 -0.6077  0.4103 -0.6136
 9118SOL    HW138990   1.367   2.278   2.763 -0.4887  0.2864 -0.7071
 9118SOL    HW238991   1.374   2.310   2.907  0.7617  0.5452  0.3917
 9119SOL     OW38992   1.187   3.737  11.285 -0.0992 -0.9702  0.2068
 9119SOL    HW138993   1.154   3.736  11.196 -1.5363  1.5437  0.7157
 9119SOL    HW238994   1.154   3.653  11.318 -0.3085 -1.5478 -1.4789
 9120SOL     OW38995   1.137   2.170   6.016 -0.0406  0.6655  0.0340
 9120SOL    HW138996   1.209   2.173   6.078 -0.3990  0.7204  0.4508
 9120SOL    HW238997   1.081   2.244   6.040 -1.9212 -0.2151 -1.6774
 9121SOL     OW38998   3.746   0.585   0.998 -0.4645  0.0659 -0.5605
 9121SOL    HW138999   3.786   0.644   1.063 -0.5931 -0.7004  0.2178
 9121SOL    HW239000   3.768   0.628   0.916  1.2492 -0.3848 -0.3401
 9122SOL     OW39001   4.468   1.888   7.741 -0.0669  0.0112  0.6382
 9122SOL    HW139002   4.449   1.805   7.698  1.9972  0.7097 -1.6084
 9122SOL    HW239003   4.387   1.901   7.791 -1.2085 -0.6110 -1.0686
 9123SOL     OW39004   4.590   3.112   3.907 -0.0725 -0.0083 -0.0502
 9123SOL    HW139005   4.624   3.109   3.996  4.7326  2.5457 -1.7779
 9123SOL    HW239006   4.500   3.146   3.902 -0.8491 -2.1163 -0.2417
 9124SOL     OW39007   4.348   3.947  14.749 -0.4786 -0.8868  0.0415
 9124SOL    HW139008   4.415   3.952  14.817  0.0037  0.8892 -0.5546
 9124SOL    HW239009   4.390   3.999  14.680  1.4735 -1.4781  0.7660
 9125SOL     OW39010   0.992   4.283   5.067 -0.5144 -0.3780 -0.2708
 9125SOL    HW139011   0.902   4.301   5.042 -0.1668 -0.0377 -1.2518
 9125SOL    HW239012   0.988   4.319   5.156  0.7993 -1.1139  0.0866
 9126SOL     OW39013   0.022   2.443   6.960  0.0068  0.5100  0.5791
 9126SOL    HW139014   0.024   2.437   6.865  0.5913  1.2539  0.5443
 9126SOL    HW239015   0.109   2.475   6.983  1.2237 -1.9367 -0.6539
 9127SOL     OW39016   2.571   1.092   1.892 -0.4054  0.1970  0.4278
 9127SOL    HW139017   2.556   1.035   1.816 -2.2915 -0.4025  1.2550
 9127SOL    HW239018   2.664   1.072   1.905 -0.2016 -0.3841 -1.8517
 9128SOL     OW39019   0.930   3.445   8.133  0.3115  0.4717 -0.2640
 9128SOL    HW139020   0.992   3.378   8.104 -0.1552  0.3685 -1.0074
 9128SOL    HW239021   0.866   3.378   8.158  1.5418  0.0671  1.8280
 9129SOL     OW39022   4.638   4.106   6.054  0.0850  0.2789  0.2715
 9129SOL    HW139023   4.613   4.014   6.046  0.2410  0.2445  0.1562
 9129SOL    HW239024   4.548   4.139   6.058 -0.0523  0.0115 -0.4634
 9130SOL     OW39025   4.630   3.972   5.004  0.1203  0.1255  0.7514
 9130SOL    HW139026   4.549   3.923   5.012  0.8309 -1.3341 -0.9025
 9130SOL    HW239027   4.622   4.010   4.916 -0.6520 -2.4661 -0.2747
 9131SOL     OW39028   3.790   0.978   0.368  0.4882  0.4240 -0.4417
 9131SOL    HW139029   3.860   1.010   0.311 -2.3934 -1.4087 -4.9680
 9131SOL    HW239030   3.728   1.051   0.367 -0.7677 -0.6936 -3.2520
 9132SOL     OW39031   0.191   0.861   0.109 -0.2918  0.5403  0.0262
 9132SOL    HW139032   0.273   0.871   0.061  1.3404  0.4047  2.7213
 9132SOL    HW239033   0.168   0.769   0.095  1.3299 -0.0600  1.2075
 9133SOL     OW39034   3.625   1.645  14.314  0.1634 -0.4250 -0.4142
 9133SOL    HW139035   3.622   1.566  14.368 -2.9398  0.3459  0.5085
 9133SOL    HW239036   3.717   1.656  14.288  0.1859 -1.1805 -0.6494
 9134SOL     OW39037   4.239   1.301   4.713 -0.1450 -0.7547 -0.3357
 9134SOL    HW139038   4.244   1.226   4.773  0.2355 -1.1590 -0.8697
 9134SOL    HW239039   4.218   1.263   4.627  1.8053  0.3197 -1.2703
 9135SOL     OW39040   0.102   2.744   2.144  0.0719 -0.3913  0.2720
 9135SOL    HW139041   0.146   2.799   2.208  0.1890  1.3838 -1.3506
 9135SOL    HW239042   0.151   2.775   2.067 -3.0796 -0.6307 -1.8371
 9136SOL     OW39043   0.755   0.926   3.995 -0.2414 -0.0163 -0.4772
 9136SOL    HW139044   0.790   0.839   3.976  2.2302  1.0334 -0.7777
 9136SOL    HW239045   0.752   0.921   4.091 -0.1476 -1.1931 -0.5379
 9137SOL     OW39046   3.044   3.085   5.307 -0.2231 -0.4412 -0.1418
 9137SOL    HW139047   3.037   3.180   5.292 -1.2711 -0.5048 -0.0305
 9137SOL    HW239048   3.066   3.066   5.216 -0.4962 -0.6705 -0.1552
 9138SOL     OW39049   0.236   4.595   0.600  0.3780 -0.4544 -0.4057
 9138SOL    HW139050   0.294   4.604   0.524  0.4655 -0.4818 -0.3417
 9138SOL    HW239051   0.182   4.518   0.581  3.1639 -2.9894  1.9455
 9139SOL     OW39052   2.916   3.661  14.109 -0.0541 -0.3076 -0.3521
 9139SOL    HW139053   2.833   3.614  14.124 -0.3959  0.5528  0.4825
 9139SOL    HW239054   2.915   3.682  14.016 -0.8397  0.3158 -0.2056
 9140SOL     OW39055   3.074   3.698  12.495 -0.2003 -0.1113 -0.4366
 9140SOL    HW139056   3.117   3.712  12.580  0.0676 -0.6531 -0.4845
 9140SOL    HW239057   3.133   3.636  12.452 -0.2865 -1.3322  1.1811
 9141SOL     OW39058   2.901   2.630   9.027  0.1418  0.6714 -0.5590
 9141SOL    HW139059   2.856   2.664   8.950  1.4764 -1.0501 -2.0973
 9141SOL    HW239060   2.956   2.703   9.057  0.5046  0.1899 -0.0617
 9142SOL     OW39061   1.483   4.195  12.837 -0.4404  0.0047 -0.1480
 9142SOL    HW139062   1.418   4.265  12.837 -2.1350 -1.5460 -0.1249
 9142SOL    HW239063   1.558   4.238  12.797  0.3108 -1.0203  0.1462
 9143SOL     OW39064   2.535   1.789  11.348 -0.0665 -0.0279 -0.1281
 9143SOL    HW139065   2.559   1.742  11.427  1.6565  0.1353 -0.5502
 9143SOL    HW239066   2.441   1.787  11.364 -0.0894 -1.3150 -0.4912
 9144SOL     OW39067   2.421   1.413   2.431 -0.6445  0.4041 -0.2227
 9144SOL    HW139068   2.343   1.377   2.473  0.7787 -2.9704 -0.5084
 9144SOL    HW239069   2.409   1.388   2.340 -0.1023  0.3104 -0.2646
 9145SOL     OW39070   0.952   1.183   7.117  0.5917 -0.4635 -0.5287
 9145SOL    HW139071   0.966   1.267   7.072  0.8085  0.9767  2.2484
 9145SOL    HW239072   1.043   1.156   7.128  0.6130 -1.1155 -2.2983
 9146SOL     OW39073   1.820   1.779   9.922 -0.6801 -0.1420  0.0817
 9146SOL    HW139074   1.738   1.768   9.971 -1.0828  2.9172  0.0548
 9146SOL    HW239075   1.881   1.749   9.990 -1.5983  1.0959  1.4603
 9147SOL     OW39076   3.132   3.645  13.337  0.0667 -0.4303  0.3897
 9147SOL    HW139077   3.172   3.711  13.393  0.6245 -0.4106 -0.0359
 9147SOL    HW239078   3.089   3.597  13.408  0.7881  1.3455  2.0073
 9148SOL     OW39079   1.159   1.268  15.262  0.0690 -0.2418  0.4430
 9148SOL    HW139080   1.199   1.353  15.278 -3.7656  1.2780  2.1324
 9148SOL    HW239081   1.179   1.257  15.169  0.2219 -2.1302  0.6987
 9149SOL     OW39082   0.260   3.030   7.404  0.2110 -0.2978 -0.7195
 9149SOL    HW139083   0.174   3.001   7.434  0.1083  0.4568 -0.2831
 9149SOL    HW239084   0.302   3.050   7.488 -1.4926  1.0296 -0.1620
 9150SOL     OW39085   1.757   1.745   2.510  0.2159 -0.2932  0.1684
 9150SOL    HW139086   1.813   1.686   2.459  1.7560  0.5723  0.8582
 9150SOL    HW239087   1.785   1.833   2.485 -3.0125  0.4475 -0.9303
 9151SOL     OW39088   1.676   1.314   3.032 -0.1164 -0.1862  0.2185
 9151SOL    HW139089   1.620   1.237   3.042 -2.0724  1.3286  0.9052
 9151SOL    HW239090   1.745   1.289   2.971 -1.6032  0.0449 -1.5292
 9152SOL     OW39091   1.198   3.683   7.991 -0.1059 -0.0092 -0.0400
 9152SOL    HW139092   1.264   3.747   7.960  0.7718 -0.5015  0.8220
 9152SOL    HW239093   1.246   3.600   7.989  1.5192  0.8938  1.0539
 9153SOL     OW39094   2.015   2.625   6.308 -0.1086  0.3083  0.5876
 9153SOL    HW139095   1.995   2.532   6.316  0.4960  0.0743 -0.6017
 9153SOL    HW239096   1.972   2.654   6.389  0.8344  0.8012  0.9146
 9154SOL     OW39097   4.215   1.430   6.879 -0.3191  0.7228  0.2288
 9154SOL    HW139098   4.251   1.518   6.889  1.4904 -0.0850  0.7671
 9154SOL    HW239099   4.195   1.413   6.971 -0.1929  0.5992  0.2337
 9155SOL     OW39100   3.441   2.764  12.286 -0.2352  0.4577  0.7605
 9155SOL    HW139101   3.422   2.677  12.323 -1.3674  0.3216 -0.1356
 9155SOL    HW239102   3.536   2.759  12.285 -0.3607 -1.6008 -2.0769
 9156SOL     OW39103   3.854   3.838  17.195  0.0676 -0.4138 -0.8153
 9156SOL    HW139104   3.780   3.897  17.204  0.5024  0.3193 -2.0148
 9156SOL    HW239105   3.825   3.754  17.229 -1.9083  1.0217  1.0091
 9157SOL     OW39106   2.281   4.694   9.080  0.4719  0.6770  0.5727
 9157SOL    HW139107   2.323   0.039   9.094  1.2776  0.2903  0.4388
 9157SOL    HW239108   2.274   4.666   9.171 -3.0735  1.2113  0.4915
 9158SOL     OW39109   3.631   4.327   2.568  0.1950 -0.0281  0.7320
 9158SOL    HW139110   3.678   4.391   2.513  0.2540 -0.9942 -0.3309
 9158SOL    HW239111   3.678   4.250   2.536 -2.6532 -2.0446  1.4797
 9159SOL     OW39112   1.863   3.560   9.072 -0.3663 -0.1816 -0.4246
 9159SOL    HW139113   1.842   3.481   9.023  0.1927  1.4319 -3.2971
 9159SOL    HW239114   1.883   3.524   9.158 -1.6492  0.8304  0.2826
 9160SOL     OW39115   1.529   3.719   4.121 -0.0586 -0.2878 -0.2973
 9160SOL    HW139116   1.550   3.629   4.144  1.5511  0.2283  0.2664
 9160SOL    HW239117   1.435   3.718   4.136 -0.4260  1.9283 -2.3783
 9161SOL     OW39118   4.382   1.552   2.860 -0.3990 -1.0905  0.6782
 9161SOL    HW139119   4.301   1.546   2.910 -1.6199  0.0730 -1.1602
 9161SOL    HW239120   4.439   1.516   2.928  2.4333 -1.0975 -1.6710
 9162SOL     OW39121   1.858   2.359   6.086  0.2360  0.1846 -0.2452
 9162SOL    HW139122   1.870   2.290   6.150  1.3988 -0.7085 -1.4094
 9162SOL    HW239123   1.910   2.316   6.018  0.7185 -0.4624  0.5444
 9163SOL     OW39124   2.390   1.956  11.554 -0.4543  0.2262 -0.1726
 9163SOL    HW139125   2.416   1.912  11.635 -0.4825 -2.5355 -1.6983
 9163SOL    HW239126   2.477   1.992  11.539 -0.3537  0.2244  0.3852
 9164SOL     OW39127   2.030   0.577  12.365  0.8471  1.1964  0.4328
 9164SOL    HW139128   2.062   0.494  12.329 -0.2459  0.3699  1.3551
 9164SOL    HW239129   1.938   0.575  12.338  0.6792 -3.2584  1.2758
 9165SOL     OW39130   0.715   1.775  10.471 -0.1783 -0.0715  0.7724
 9165SOL    HW139131   0.807   1.753  10.487  0.0788 -0.6249 -1.4042
 9165SOL    HW239132   0.723   1.848  10.410 -0.9265  0.2955  1.1175
 9166SOL     OW39133   3.078   0.383   8.877 -0.0626  0.0845 -0.0343
 9166SOL    HW139134   3.132   0.457   8.847  2.0208 -1.6874 -0.6123
 9166SOL    HW239135   3.081   0.340   8.792 -0.8252  0.4127 -0.2326
 9167SOL     OW39136   1.994   2.088   3.984 -0.2936  0.1651  0.0893
 9167SOL    HW139137   2.016   2.024   3.916  0.6537 -1.0310  1.5200
 9167SOL    HW239138   2.013   2.041   4.065 -0.1916 -1.7094 -1.0390
 9168SOL     OW39139   4.512   0.263   1.664  0.5996 -0.9801  0.1659
 9168SOL    HW139140   4.480   0.177   1.687 -0.2678 -1.4783 -2.8521
 9168SOL    HW239141   4.547   0.255   1.575  3.3382  0.3660  1.1095
 9169SOL     OW39142   1.496   2.552   3.760  0.0602  0.8118 -0.1621
 9169SOL    HW139143   1.512   2.586   3.672 -0.4014  1.2737 -0.0666
 9169SOL    HW239144   1.436   2.479   3.744  0.0271  0.3795  1.9902
 9170SOL     OW39145   2.829   3.541   4.652 -0.3577  0.3597  0.2807
 9170SOL    HW139146   2.896   3.473   4.660 -0.7710  0.0750  1.3058
 9170SOL    HW239147   2.755   3.490   4.618  2.0416 -1.7087 -1.8900
 9171SOL     OW39148   4.382   0.572   3.851  0.0853  0.2925 -0.1328
 9171SOL    HW139149   4.302   0.590   3.901  0.3086  0.4364  0.1740
 9171SOL    HW239150   4.352   0.550   3.763 -0.7970  0.8414  0.0314
 9172SOL     OW39151   1.337   3.211   1.910 -0.0310 -0.1697  0.4871
 9172SOL    HW139152   1.256   3.165   1.887 -0.2995  0.0891  0.9117
 9172SOL    HW239153   1.310   3.227   2.000  2.0327 -2.8484  1.5752
 9173SOL     OW39154   3.687   4.397   4.427  0.0371 -0.3099  0.1350
 9173SOL    HW139155   3.652   4.463   4.367  1.7438 -1.0620 -1.6895
 9173SOL    HW239156   3.754   4.349   4.380  1.3578 -0.5757  2.3000
 9174SOL     OW39157   4.090   1.738  10.155 -0.1545  0.0564  0.2863
 9174SOL    HW139158   4.151   1.686  10.102  0.4510  0.6875  0.3665
 9174SOL    HW239159   4.136   1.822  10.153 -0.6229  0.2329 -2.4523
 9175SOL     OW39160   0.784   1.918  16.724 -0.7798  0.7736  0.0447
 9175SOL    HW139161   0.711   1.980  16.719 -1.4245  0.0339  0.2656
 9175SOL    HW239162   0.827   1.958  16.800  1.2566  0.8467 -1.1402
 9176SOL     OW39163   4.665   1.140   8.691 -0.3140  0.7724 -0.2964
 9176SOL    HW139164   0.011   1.096   8.679  0.1667  1.0863  2.0289
 9176SOL    HW239165   4.660   1.147   8.786 -1.7733 -0.5693 -0.2694
 9177SOL     OW39166   3.940   3.124  15.683  0.3917  0.4374 -0.2671
 9177SOL    HW139167   3.986   3.167  15.611  0.2194  0.2143 -0.5107
 9177SOL    HW239168   3.947   3.189  15.753 -1.3858 -0.1157  0.4492
 9178SOL     OW39169   0.865   0.114  15.391  0.6886  0.0747 -0.7219
 9178SOL    HW139170   0.814   0.070  15.459  1.4998  1.9061  1.0939
 9178SOL    HW239171   0.858   0.208  15.411  0.6755 -0.0856  0.0044
 9179SOL     OW39172   3.959   2.211   0.709  0.1567 -0.1112 -0.0875
 9179SOL    HW139173   3.997   2.185   0.624  0.1247 -0.0739 -0.1134
 9179SOL    HW239174   3.959   2.304   0.688  1.0616 -0.2976 -0.9219
 9180SOL     OW39175   0.397   0.410   5.257 -0.2376 -0.0051  0.1826
 9180SOL    HW139176   0.361   0.381   5.340  3.2087 -0.1628  1.6239
 9180SOL    HW239177   0.417   0.330   5.210  1.1420 -0.3062  1.2879
 9181SOL     OW39178   3.956   3.514  16.321  0.1932 -0.4639  0.4120
 9181SOL    HW139179   4.024   3.580  16.307  0.0008  0.0211  1.8219
 9181SOL    HW239180   3.874   3.558  16.302  0.3917  0.3820  1.5517
 9182SOL     OW39181   3.591   0.409   1.352 -0.3805  0.2263  0.8984
 9182SOL    HW139182   3.633   0.493   1.333 -0.8645  0.1353 -0.5550
 9182SOL    HW239183   3.502   0.433   1.326  0.2471  0.5890 -0.9385
 9183SOL     OW39184   0.724   0.946   6.144  0.1394 -0.2738 -0.3330
 9183SOL    HW139185   0.719   1.035   6.179  2.6330 -0.2911  0.0337
 9183SOL    HW239186   0.793   0.961   6.079  1.4109 -2.7383  0.4535
 9184SOL     OW39187   0.804   3.622   9.185  0.3894 -0.1329  0.3605
 9184SOL    HW139188   0.725   3.568   9.187  2.1702 -2.7335 -0.0932
 9184SOL    HW239189   0.774   3.701   9.139  3.0669 -0.7757 -2.4746
 9185SOL     OW39190   1.109   1.051   1.861 -0.0579  0.0127 -0.0283
 9185SOL    HW139191   1.132   0.988   1.793  1.6263  1.0970 -0.4435
 9185SOL    HW239192   1.019   1.073   1.837 -1.0400 -1.0556  2.5878
 9186SOL     OW39193   4.492   0.826   7.838 -0.2844  0.6979 -0.0898
 9186SOL    HW139194   4.456   0.912   7.857  1.6219  1.3372  0.6048
 9186SOL    HW239195   4.414   0.772   7.849 -0.4720  0.9863 -0.0122
 9187SOL     OW39196   0.825   1.244   8.181 -0.1508  0.0439 -0.1179
 9187SOL    HW139197   0.869   1.306   8.239 -1.7581 -1.2313  2.5030
 9187SOL    HW239198   0.769   1.296   8.123  0.3981 -0.1325 -0.8096
 9188SOL     OW39199   1.999   0.381  11.920 -0.0321 -0.0720 -0.1138
 9188SOL    HW139200   1.981   0.294  11.956  2.6665 -0.0179  1.3910
 9188SOL    HW239201   1.960   0.440  11.985  1.0112  2.7251 -2.0198
 9189SOL     OW39202   2.802   0.960   3.762 -0.7881 -0.4014  0.0561
 9189SOL    HW139203   2.879   0.909   3.786 -1.0998 -0.3320  1.1824
 9189SOL    HW239204   2.825   1.037   3.815 -2.5943 -0.2992  0.6735
 9190SOL     OW39205   2.510   1.791   0.572  0.1556  0.4233 -0.1439
 9190SOL    HW139206   2.486   1.878   0.604  2.1520  0.3457  1.5286
 9190SOL    HW239207   2.457   1.731   0.626  0.2883 -1.4353 -2.1042
 9191SOL     OW39208   4.620   2.908   6.272  0.4463 -0.2190  0.2098
 9191SOL    HW139209   4.621   2.964   6.194  1.6610 -0.7930 -0.1865
 9191SOL    HW239210   4.584   2.827   6.236  0.0840  0.3610 -0.7234
 9192SOL     OW39211   2.727   0.802  16.256  0.2805 -0.4353  0.4212
 9192SOL    HW139212   2.697   0.800  16.165  1.1029 -0.0033  0.1421
 9192SOL    HW239213   2.819   0.775  16.253  0.1433 -1.0078  1.3383
 9193SOL     OW39214   4.738   4.323  16.506  0.6810 -0.3294  0.5699
 9193SOL    HW139215   0.066   4.392  16.512  2.0245 -1.7925  2.3373
 9193SOL    HW239216   0.055   4.246  16.518  0.8162  0.0917  2.6461
 9194SOL     OW39217   0.247   4.738  13.983  0.0071  0.8651 -0.8326
 9194SOL    HW139218   0.216   0.056  13.912 -1.0083  0.0939 -1.0140
 9194SOL    HW239219   0.330   0.041  14.003  0.5948 -0.1967 -1.0402
 9195SOL     OW39220   3.143   1.387   3.625 -0.6380  0.3478 -0.3896
 9195SOL    HW139221   3.059   1.432   3.630  0.0572  1.7289 -1.3183
 9195SOL    HW239222   3.116   1.303   3.663  0.6264  0.2097  0.1793
 9196SOL     OW39223   0.682   4.117   0.120  0.0187  0.4148 -0.4719
 9196SOL    HW139224   0.743   4.179   0.079  0.6861 -1.3290 -2.0742
 9196SOL    HW239225   0.754   4.056   0.137 -0.2541  0.1495 -0.2785
 9197SOL     OW39226   2.913   0.054   8.994  0.2106  0.5505 -0.3638
 9197SOL    HW139227   2.996   0.047   9.040  1.4105 -0.3409 -2.6711
 9197SOL    HW239228   2.925   0.010   8.909  4.1649 -1.0950  1.0444
 9198SOL     OW39229   3.539   0.102  15.999 -0.1068  0.3651 -0.2633
 9198SOL    HW139230   3.469   0.040  15.978  0.9280 -1.2228  1.0100
 9198SOL    HW239231   3.616   0.049  15.977  0.9699  1.3705  1.1218
 9199SOL     OW39232   1.954   3.867   7.609 -0.1565  0.0728 -0.1500
 9199SOL    HW139233   2.013   3.792   7.621  1.3860  1.4952  1.0328
 9199SOL    HW239234   2.021   3.923   7.569 -0.8511 -0.0807 -1.5217
 9200SOL     OW39235   2.959   3.024   4.248 -0.0836  0.4140 -0.3549
 9200SOL    HW139236   2.995   3.036   4.336 -1.9354  0.7384  0.3646
 9200SOL    HW239237   2.865   3.037   4.262  0.1661 -0.8270  2.4209
 9201SOL     OW39238   3.845   2.288   8.627 -0.2711  0.2202 -0.1106
 9201SOL    HW139239   3.859   2.382   8.642 -2.7440  0.3140  1.6212
 9201SOL    HW239240   3.875   2.255   8.712 -1.4693 -2.0479 -0.5845
 9202SOL     OW39241   0.630   0.784   8.585  0.3091  0.6574 -0.4179
 9202SOL    HW139242   0.651   0.819   8.498  0.7098  2.4204  0.3911
 9202SOL    HW239243   0.630   0.689   8.576  2.6435  0.7671 -1.3916
 9203SOL     OW39244   3.537   0.445   7.506  0.5526 -0.1516 -0.1879
 9203SOL    HW139245   3.481   0.519   7.483 -1.0030 -2.9121 -5.1834
 9203SOL    HW239246   3.526   0.435   7.601 -0.2575  1.3629 -0.1287
 9204SOL     OW39247   1.921   1.388   3.930  0.0381  0.1167 -0.5859
 9204SOL    HW139248   1.850   1.398   3.867  0.6254  3.1189 -0.7575
 9204SOL    HW239249   1.913   1.469   3.980  2.8133 -0.2913  0.5011
 9205SOL     OW39250   1.128   0.938   9.410 -0.4949  0.0203  0.5135
 9205SOL    HW139251   1.040   0.974   9.420 -1.5090 -2.4320  0.4285
 9205SOL    HW239252   1.103   0.846   9.402  0.5060 -0.1343 -0.7084
 9206SOL     OW39253   2.378   2.651  10.108  1.0158  0.1672  0.0753
 9206SOL    HW139254   2.443   2.657  10.178 -0.5738 -1.3938  1.7186
 9206SOL    HW239255   2.357   2.558  10.120 -0.6331  0.4761 -0.4330
 9207SOL     OW39256   3.903   3.766   7.755  0.0606  0.4448 -0.0151
 9207SOL    HW139257   3.870   3.699   7.695 -0.3113  2.0326 -1.5834
 9207SOL    HW239258   3.857   3.847   7.730  0.9238  0.6723 -0.8280
 9208SOL     OW39259   1.018   2.105   7.574  0.1664 -0.0421  0.5450
 9208SOL    HW139260   1.053   2.194   7.577  3.0415 -1.1257 -1.2330
 9208SOL    HW239261   1.065   2.076   7.652 -0.0919 -0.7339  0.4383
 9209SOL     OW39262   1.243   1.169   4.448 -0.6097 -0.1025 -0.7333
 9209SOL    HW139263   1.193   1.096   4.411 -0.4676 -1.5482  1.8826
 9209SOL    HW239264   1.172   1.211   4.497  1.0001  1.7333  0.0357
 9210SOL     OW39265   4.679   0.052  14.171 -0.2247  0.7720  0.2059
 9210SOL    HW139266   4.717   0.131  14.210 -1.3388  2.5920 -2.4272
 9210SOL    HW239267   0.006   4.721  14.178  0.1347  1.0846 -0.0511
 9211SOL     OW39268   2.799   4.538   8.805  0.0267  0.0856 -0.0360
 9211SOL    HW139269   2.742   4.464   8.783  1.8805 -1.8980  1.7418
 9211SOL    HW239270   2.876   4.523   8.750  1.3639  0.2170  1.7975
 9212SOL     OW39271   3.419   2.682   2.859 -0.0857 -0.2753 -0.2535
 9212SOL    HW139272   3.409   2.772   2.892  0.1078 -0.0548 -0.7906
 9212SOL    HW239273   3.506   2.682   2.819  1.3853 -2.1160  2.8985
 9213SOL     OW39274   0.997   3.338   3.656 -0.4138  0.4579  0.2798
 9213SOL    HW139275   0.960   3.424   3.635 -0.5468 -0.5462 -3.7351
 9213SOL    HW239276   1.002   3.334   3.751  1.8218  1.1647  0.2033
 9214SOL     OW39277   1.263   4.351   8.518  0.2765  0.2387 -0.3368
 9214SOL    HW139278   1.349   4.311   8.522 -0.0883 -0.2190  2.4165
 9214SOL    HW239279   1.201   4.286   8.552 -1.5484  1.9661 -0.3243
 9215SOL     OW39280   2.593   4.392   6.891  0.2511  0.1709  0.4964
 9215SOL    HW139281   2.548   4.307   6.887  0.6416  0.0171 -0.6657
 9215SOL    HW239282   2.674   4.364   6.849  1.6187  2.6906  1.4589
 9216SOL     OW39283   1.300   3.380  13.089  0.4404  0.7499  0.0282
 9216SOL    HW139284   1.315   3.365  13.183 -0.7394  2.6325  0.5103
 9216SOL    HW239285   1.206   3.391  13.100  0.6600  3.5537 -0.9413
 9217SOL     OW39286   1.066   3.788   4.345  0.0758  0.3031  0.7753
 9217SOL    HW139287   1.016   3.792   4.426 -0.2360  1.7479  0.5094
 9217SOL    HW239288   1.014   3.732   4.287 -1.3117  0.9992  1.3503
 9218SOL     OW39289   0.458   4.051  10.040 -0.2267  0.4743  0.3759
 9218SOL    HW139290   0.427   4.097  10.118 -0.8956  0.7704 -0.0644
 9218SOL    HW239291   0.471   4.126   9.983  2.6847  1.0791  1.8315
 9219SOL     OW39292   1.657   4.288   4.977  0.6202 -0.2372 -0.2111
 9219SOL    HW139293   1.600   4.297   5.054  0.9515  0.0295  0.0059
 9219SOL    HW239294   1.741   4.310   5.018 -0.2924 -1.1285  2.1168
 9220SOL     OW39295   2.780   1.185  14.855 -0.4782 -0.2167 -0.2938
 9220SOL    HW139296   2.715   1.122  14.885 -1.9230  1.1335 -0.5822
 9220SOL    HW239297   2.726   1.265  14.856 -2.5299 -1.6229 -0.0827
 9221SOL     OW39298   3.031   0.295  17.540 -0.0440  0.0139 -0.0229
 9221SOL    HW139299   3.082   0.376  17.530 -2.0306  0.9088 -3.0163
 9221SOL    HW239300   3.015   0.276  17.447  0.2830 -0.1800 -0.0400
 9222SOL     OW39301   2.018   0.036   3.703 -0.0583  0.3071 -0.1784
 9222SOL    HW139302   2.106   0.015   3.673 -1.1095 -3.8509 -0.4091
 9222SOL    HW239303   2.019   0.115   3.650 -2.4131  0.5565  0.1523
 9223SOL     OW39304   0.888   1.876   3.337  0.3058 -0.1148  0.7915
 9223SOL    HW139305   0.905   1.897   3.245  0.9036  1.2282  1.2063
 9223SOL    HW239306   0.838   1.796   3.326  1.2200 -0.8314  1.8522
 9224SOL     OW39307   3.692   0.484  16.263 -0.0634  0.0380 -0.2738
 9224SOL    HW139308   3.651   0.566  16.235 -0.9308  0.0993  1.1740
 9224SOL    HW239309   3.681   0.429  16.185  0.6313  1.7021 -1.5563
 9225SOL     OW39310   4.500   2.926   2.184  0.5421  0.0770  0.3282
 9225SOL    HW139311   4.532   2.835   2.177  1.0016  0.3552 -1.2384
 9225SOL    HW239312   4.563   2.955   2.250  0.2219  0.3303  0.5198
 9226SOL     OW39313   1.870   2.978   6.383 -0.1535 -0.7597  0.4625
 9226SOL    HW139314   1.949   2.996   6.332 -1.2465  0.4233 -0.8031
 9226SOL    HW239315   1.863   2.882   6.381  0.2209 -0.8153  2.1592
 9227SOL     OW39316   2.747   1.396   1.612  0.5336 -0.0141 -0.2050
 9227SOL    HW139317   2.696   1.413   1.692  1.2933 -0.9078  0.4711
 9227SOL    HW239318   2.698   1.443   1.544  0.0390  0.9464  0.8036
 9228SOL     OW39319   0.775   0.047   8.144  0.0378  0.2599  0.0444
 9228SOL    HW139320   0.800   0.041   8.052 -1.7769 -1.5025 -0.3461
 9228SOL    HW239321   0.808   4.706   8.187 -0.5313  0.2746  0.5114
 9229SOL     OW39322   0.409   1.563   1.574  0.3909 -0.1594 -0.0387
 9229SOL    HW139323   0.323   1.604   1.576 -0.1533 -1.4819  2.8043
 9229SOL    HW239324   0.452   1.602   1.649  0.2460  3.2080 -1.7074
 9230SOL     OW39325   2.101   0.307   8.825 -0.0416 -0.2074 -0.3396
 9230SOL    HW139326   2.129   0.240   8.763 -1.3168 -0.1245 -1.0091
 9230SOL    HW239327   2.105   0.264   8.910 -2.1936  1.7982  0.7749
 9231SOL     OW39328   3.037   3.569  13.587 -0.5217 -0.4590 -0.6791
 9231SOL    HW139329   3.062   3.487  13.629  2.3726  0.2567 -1.0070
 9231SOL    HW239330   2.979   3.601  13.657 -0.7936  1.0196 -1.5842
 9232SOL     OW39331   2.541   1.224   9.309 -0.1616 -0.2915  0.2434
 9232SOL    HW139332   2.527   1.136   9.344  1.6992 -0.1945  1.2666
 9232SOL    HW239333   2.451   1.244   9.284  0.1534  0.8431  0.0141
 9233SOL     OW39334   4.075   0.026  14.963 -0.6068  0.7245  0.0489
 9233SOL    HW139335   4.068   4.677  14.926  2.0761  0.0501  1.1574
 9233SOL    HW239336   3.990   0.068  14.948 -1.9427 -1.7527  0.5850
 9234SOL     OW39337   0.451   2.675   6.562  0.1942  0.4722 -0.1053
 9234SOL    HW139338   0.357   2.690   6.571  0.2993  0.9584  0.1850
 9234SOL    HW239339   0.482   2.724   6.639 -0.4343  0.5638  0.0900
 9235SOL     OW39340   0.925   1.585   2.876  0.3698  0.2494 -0.1871
 9235SOL    HW139341   0.855   1.643   2.907  0.5791  1.6183 -2.2906
 9235SOL    HW239342   0.884   1.558   2.794 -1.3497  1.1018  0.3884
 9236SOL     OW39343   0.396   3.686   0.124  0.0833 -0.0171 -0.2272
 9236SOL    HW139344   0.482   3.643   0.122  1.2853  2.2398  3.4875
 9236SOL    HW239345   0.339   3.629   0.072  1.7539 -2.4628  0.6026
 9237SOL     OW39346   3.646   2.077   7.969  0.3402 -0.0181  0.0222
 9237SOL    HW139347   3.596   2.087   7.888  0.0334  0.6439  0.2891
 9237SOL    HW239348   3.666   2.169   7.987  1.7854 -0.5011  0.8379
 9238SOL     OW39349   2.036   0.884   1.886  0.2835 -0.4572  0.2830
 9238SOL    HW139350   1.967   0.874   1.820 -0.4822 -0.8121  1.1348
 9238SOL    HW239351   1.993   0.923   1.962  0.7793 -0.6336  0.6535
 9239SOL     OW39352   1.469   3.281   8.642 -0.9357 -0.2259 -0.5068
 9239SOL    HW139353   1.476   3.278   8.738 -1.0994  0.7760 -0.4651
 9239SOL    HW239354   1.560   3.301   8.619 -0.7519  0.4911  0.8014
 9240SOL     OW39355   1.214   0.972  12.215  0.1951 -0.1784 -0.3838
 9240SOL    HW139356   1.158   0.953  12.291 -0.0469 -0.4780 -0.6371
 9240SOL    HW239357   1.175   0.914  12.150 -0.2066  0.0412 -0.3396
 9241SOL     OW39358   1.082   4.068   6.231  0.1698 -0.1453 -0.2176
 9241SOL    HW139359   1.142   4.139   6.206 -0.0372  0.5482  1.2270
 9241SOL    HW239360   1.061   4.104   6.317 -2.5469  0.2093 -1.0142
 9242SOL     OW39361   0.426   3.079   2.113 -0.3188 -0.5505  0.2806
 9242SOL    HW139362   0.375   3.158   2.093  0.4794 -0.4499 -1.4009
 9242SOL    HW239363   0.464   3.098   2.199  1.7411 -0.8883 -0.5527
 9243SOL     OW39364   4.429   2.671   5.424  0.3632  0.0931 -0.8515
 9243SOL    HW139365   4.409   2.578   5.422 -0.8284  0.3487 -0.9460
 9243SOL    HW239366   4.472   2.674   5.509 -2.7087 -0.4977  0.7251
 9244SOL     OW39367   0.974   2.958   2.839 -0.0498 -0.2974  0.2864
 9244SOL    HW139368   0.976   2.933   2.931 -0.4819  1.3293  0.7468
 9244SOL    HW239369   0.902   3.019   2.852  0.8799  0.4246  2.0878
 9245SOL     OW39370   2.631   0.188  16.477  0.0670  0.7120 -0.8108
 9245SOL    HW139371   2.694   0.151  16.415  1.0735 -0.2631  0.7952
 9245SOL    HW239372   2.549   0.186  16.427  1.5428  1.0238 -3.2455
 9246SOL     OW39373   0.510   1.236   5.424  0.4764  0.3576 -0.2352
 9246SOL    HW139374   0.573   1.303   5.398  1.5830 -1.3705 -2.0632
 9246SOL    HW239375   0.574   1.185   5.472 -1.0303  0.2731  1.6866
 9247SOL     OW39376   3.121   0.758   3.412 -0.2363  0.2419 -0.1858
 9247SOL    HW139377   3.210   0.749   3.447  0.0350 -0.3107 -1.0188
 9247SOL    HW239378   3.131   0.852   3.394 -3.6638  0.7640  0.6518
 9248SOL     OW39379   1.200   2.268   6.807 -0.0017 -0.1778 -0.1166
 9248SOL    HW139380   1.248   2.330   6.752 -0.3393 -1.0645 -1.4072
 9248SOL    HW239381   1.273   2.236   6.860  0.1301  0.2796 -0.0201
 9249SOL     OW39382   3.427   2.912   0.115  0.4697  0.1709  0.4899
 9249SOL    HW139383   3.497   2.908   0.049  0.9239 -1.0865  1.0576
 9249SOL    HW239384   3.363   2.971   0.075 -0.7682 -0.6554  1.2539
 9250SOL     OW39385   4.422   3.657   3.847 -0.4985  0.5684 -0.5411
 9250SOL    HW139386   4.459   3.572   3.823 -0.7023  0.4598 -0.4644
 9250SOL    HW239387   4.402   3.686   3.758 -1.2242  3.5421  0.5969
 9251SOL     OW39388   3.504   0.626   6.525  0.0558 -0.4529 -0.1218
 9251SOL    HW139389   3.505   0.531   6.533  0.4289 -0.4604 -0.2536
 9251SOL    HW239390   3.596   0.635   6.550  0.3670  0.3084 -1.5345
 9252SOL     OW39391   3.379   1.380   6.008  0.2908 -0.6378  0.0808
 9252SOL    HW139392   3.331   1.328   6.073 -0.5095  0.7921  0.6605
 9252SOL    HW239393   3.327   1.461   6.006 -0.6219 -1.2273 -0.0998
 9253SOL     OW39394   0.393   0.519  17.478  0.2391 -0.1767 -0.3217
 9253SOL    HW139395   0.458   0.579  17.516 -0.5792  0.9988 -0.7740
 9253SOL    HW239396   0.417   0.510  17.386  0.1012  0.4921 -0.4241
 9254SOL     OW39397   1.334   4.295   6.028  0.2919  0.1566 -0.7629
 9254SOL    HW139398   1.313   4.324   6.116  0.2509 -0.3237 -0.6164
 9254SOL    HW239399   1.383   4.216   6.052 -1.6390 -1.5267 -2.3978
 9255SOL     OW39400   1.554   3.509   4.889 -0.1899 -0.1514  0.0379
 9255SOL    HW139401   1.461   3.529   4.878 -0.8851 -2.5382  1.5478
 9255SOL    HW239402   1.576   3.591   4.932  0.7795 -0.7794  0.7388
 9256SOL     OW39403   4.509   1.895   1.790  0.1700 -0.4537  0.7098
 9256SOL    HW139404   4.436   1.838   1.814  0.5446 -1.4556 -0.5324
 9256SOL    HW239405   4.574   1.854   1.848  1.8446  1.3319  0.1069
 9257SOL     OW39406   4.135   3.536   0.653 -0.1372  0.2608  0.4441
 9257SOL    HW139407   4.182   3.530   0.570 -1.5642 -1.4701 -0.2318
 9257SOL    HW239408   4.131   3.628   0.678  0.3021  0.6113 -0.7982
 9258SOL     OW39409   3.790   3.053   8.473 -0.6168  0.1321  0.0062
 9258SOL    HW139410   3.761   3.130   8.522  2.4809  0.0486  1.9320
 9258SOL    HW239411   3.759   3.079   8.387  2.7675  2.6938 -0.4150
 9259SOL     OW39412   4.729   4.474  16.907 -0.2949 -0.1126  0.1873
 9259SOL    HW139413   0.012   4.489  16.815  2.4792  0.2039  0.8742
 9259SOL    HW239414   0.030   4.551  16.949 -1.3013  0.5751 -0.1137
 9260SOL     OW39415   4.567   3.493   9.243  0.2930  0.1940  0.2549
 9260SOL    HW139416   4.627   3.419   9.248  1.0192  0.7702  0.1755
 9260SOL    HW239417   4.556   3.495   9.147 -3.1906  2.0433  0.7013
 9261SOL     OW39418   1.589   2.518   5.182 -0.5225 -0.1726 -0.0850
 9261SOL    HW139419   1.642   2.594   5.205 -2.0410 -0.0663  2.9393
 9261SOL    HW239420   1.502   2.542   5.213 -0.4074 -2.2663  1.8609
 9262SOL     OW39421   1.057   3.473   1.979 -0.2492 -0.7134  0.0995
 9262SOL    HW139422   1.082   3.535   2.047 -3.2265  0.0040  0.5447
 9262SOL    HW239423   1.115   3.504   1.910 -0.8148 -1.4540 -0.7006
 9263SOL     OW39424   1.071   0.892  15.130  0.4199  1.2584  0.3385
 9263SOL    HW139425   1.023   0.821  15.087 -1.0073  0.7491  2.7920
 9263SOL    HW239426   1.017   0.928  15.199  1.3421  2.0312  0.6572
 9264SOL     OW39427   3.375   0.567   6.771  0.3890 -0.1536 -0.2584
 9264SOL    HW139428   3.462   0.579   6.809 -0.3379  0.0583  1.3342
 9264SOL    HW239429   3.399   0.555   6.679  0.6506 -1.1789 -0.0459
 9265SOL     OW39430   0.117   0.677   7.861  0.4263  0.8752 -0.1050
 9265SOL    HW139431   0.158   0.738   7.922  1.1170 -0.0153  0.3124
 9265SOL    HW239432   0.189   0.634   7.816  2.0489  1.0140  2.4357
 9266SOL     OW39433   0.906   1.764   5.838 -0.3975 -0.0184 -0.0826
 9266SOL    HW139434   0.982   1.718   5.801 -0.0084  0.7615 -0.2595
 9266SOL    HW239435   0.874   1.701   5.903 -0.2676 -1.7640 -1.7174
 9267SOL     OW39436   0.813   0.253   6.490  0.1004  0.4662  0.2076
 9267SOL    HW139437   0.755   0.322   6.522  0.5086 -0.6691  3.3957
 9267SOL    HW239438   0.880   0.301   6.441  2.8254 -2.3549  1.1303
 9268SOL     OW39439   2.280   1.069   8.651 -0.3275 -0.2074  0.4257
 9268SOL    HW139440   2.252   0.980   8.631  1.6921 -1.3175  2.5175
 9268SOL    HW239441   2.217   1.114   8.595  1.0610  0.8134 -0.3112
 9269SOL     OW39442   3.493   1.338   5.753  0.0056 -0.4213  0.3663
 9269SOL    HW139443   3.458   1.350   5.842  0.5279 -0.5227  0.5842
 9269SOL    HW239444   3.418   1.288   5.721  0.3572  0.4338 -1.7577
 9270SOL     OW39445   0.122   3.289   4.671 -0.0782 -0.1607  0.7773
 9270SOL    HW139446   0.150   3.197   4.670  1.5414  0.3379 -0.3779
 9270SOL    HW239447   0.027   3.282   4.673 -0.2456  2.0881  0.5383
 9271SOL     OW39448   3.752   0.543   3.266  0.3369 -0.2363  0.5852
 9271SOL    HW139449   3.837   0.513   3.299  0.3707 -1.0430 -0.2306
 9271SOL    HW239450   3.743   0.635   3.291 -1.2993  0.4460 -2.4710
 9272SOL     OW39451   2.985   2.106   3.834 -0.0871  0.2303 -0.3648
 9272SOL    HW139452   2.890   2.100   3.821 -0.1621 -0.5847  0.5873
 9272SOL    HW239453   2.995   2.070   3.922 -1.5042 -1.7962 -1.0366
 9273SOL     OW39454   3.565   3.708   6.542  0.9067 -0.4590 -0.1376
 9273SOL    HW139455   3.621   3.783   6.563  1.5952 -0.2712 -2.6735
 9273SOL    HW239456   3.514   3.701   6.622 -0.8485  1.1503 -1.1342
 9274SOL     OW39457   2.517   0.072  10.510  0.1305 -0.2337  0.0335
 9274SOL    HW139458   2.423   0.066  10.525  0.0148 -0.6490 -0.8651
 9274SOL    HW239459   2.497   0.110  10.424 -1.8990 -0.8378  0.2276
 9275SOL     OW39460   1.131   1.952  15.485  0.9622 -0.0529  0.0268
 9275SOL    HW139461   1.124   1.900  15.405  0.5812  1.8479 -1.1804
 9275SOL    HW239462   1.186   2.020  15.447 -0.7362  1.5499  0.4365
 9276SOL     OW39463   1.945   4.585  16.137  0.5923  0.5317  0.7310
 9276SOL    HW139464   1.877   4.652  16.138  0.9081  0.8856 -0.6662
 9276SOL    HW239465   2.016   4.641  16.165  0.8896  0.6235 -0.1973
 9277SOL     OW39466   2.130   3.399   2.930 -0.2731  0.2560 -0.0139
 9277SOL    HW139467   2.105   3.476   2.877 -0.6418  0.8109  0.9575
 9277SOL    HW239468   2.123   3.326   2.869 -1.1462 -1.0901  1.7271
 9278SOL     OW39469   2.541   4.021   4.275  0.2344 -0.5989 -0.3430
 9278SOL    HW139470   2.511   4.089   4.216  1.2294  0.1554  0.0230
 9278SOL    HW239471   2.629   4.054   4.294 -0.1662 -0.1289  0.6893
 9279SOL     OW39472   1.726   0.960  11.186 -0.3548 -0.1579 -0.4095
 9279SOL    HW139473   1.818   0.938  11.203 -0.9953 -0.1577  3.1192
 9279SOL    HW239474   1.687   0.882  11.148 -0.2839 -0.8829  1.0048
 9280SOL     OW39475   3.477   1.091   4.667 -0.1522  0.3280 -0.7051
 9280SOL    HW139476   3.399   1.134   4.703  0.5137  0.6555  0.3545
 9280SOL    HW239477   3.488   1.022   4.732 -3.5352  1.0716  0.6675
 9281SOL     OW39478   2.095   3.329   5.893  0.6976 -0.3287  0.4975
 9281SOL    HW139479   2.159   3.393   5.924  0.5379 -0.1293  0.4173
 9281SOL    HW239480   2.019   3.374   5.931  0.6209  0.6576 -0.8095
 9282SOL     OW39481   4.660   0.364   6.252 -0.1466  1.0503  0.7895
 9282SOL    HW139482   4.720   0.360   6.178 -0.8567 -0.3114  0.3095
 9282SOL    HW239483   4.590   0.316   6.209  1.2160 -1.5303  1.4365
 9283SOL     OW39484   1.780   2.249   3.969  0.2388  0.0604  0.2723
 9283SOL    HW139485   1.826   2.324   4.007  1.3878  0.1767 -1.3454
 9283SOL    HW239486   1.846   2.179   3.970  1.0658  0.8366  0.4685
 9284SOL     OW39487   3.493   4.345  13.312  0.0103  0.2571  0.2299
 9284SOL    HW139488   3.426   4.294  13.356 -1.0992 -0.7718 -2.6437
 9284SOL    HW239489   3.457   4.361  13.225 -2.5938  1.4199  1.5151
 9285SOL     OW39490   1.703   3.999   9.236 -0.1217 -0.6270  0.2171
 9285SOL    HW139491   1.664   3.967   9.317 -3.3859  0.8438 -0.7750
 9285SOL    HW239492   1.630   4.045   9.195 -0.4416 -1.0393  0.3310
 9286SOL     OW39493   3.839   1.627  15.283  0.1779  0.3913  0.5954
 9286SOL    HW139494   3.812   1.703  15.335  1.5252  1.6224 -0.4908
 9286SOL    HW239495   3.934   1.638  15.288 -0.1026  2.3575  1.5123
 9287SOL     OW39496   1.504   3.387  15.312  0.0414  0.5207  0.0317
 9287SOL    HW139497   1.582   3.424  15.270  0.9702  0.3588  1.6048
 9287SOL    HW239498   1.490   3.450  15.382 -0.0293  0.1592  0.3432
 9288SOL     OW39499   2.298   0.928   1.994  0.2081  0.1662 -0.6610
 9288SOL    HW139500   2.343   0.969   1.920  2.0483  0.8130  0.8052
 9288SOL    HW239501   2.217   0.905   1.949 -0.3953 -0.8312  0.9259
 9289SOL     OW39502   2.382   3.355   3.256 -0.5192  0.1498 -0.2828
 9289SOL    HW139503   2.296   3.317   3.243 -0.4488 -0.1352  0.0919
 9289SOL    HW239504   2.380   3.423   3.188 -2.2877 -1.4213 -1.7785
 9290SOL     OW39505   4.655   0.822   5.011 -0.6048  0.0101 -0.6590
 9290SOL    HW139506   4.600   0.836   5.088 -0.2182  2.2567 -0.7682
 9290SOL    HW239507   4.671   0.728   5.015 -0.1542  0.0874 -0.5968
 9291SOL     OW39508   4.695   2.481   8.201 -0.3297  0.0258  0.4205
 9291SOL    HW139509   4.625   2.429   8.242  0.7260 -1.0959  0.7887
 9291SOL    HW239510   4.683   2.450   8.112 -2.3273  0.6817  0.4471
 9292SOL     OW39511   4.426   2.524   9.070 -0.3255 -0.9315  0.0575
 9292SOL    HW139512   4.487   2.529   9.143 -0.4191 -0.5989  0.1090
 9292SOL    HW239513   4.478   2.548   8.993 -0.6212  0.6254  0.3445
 9293SOL     OW39514   2.099   3.228   9.135  0.6430  0.1459  0.1087
 9293SOL    HW139515   2.066   3.172   9.064 -0.6202 -0.1882  0.9719
 9293SOL    HW239516   2.129   3.163   9.199 -1.0876  0.0249  0.7936
 9294SOL     OW39517   3.480   2.660   2.370 -0.1146  0.3805 -0.0355
 9294SOL    HW139518   3.491   2.723   2.299  2.4761  0.6117  0.5710
 9294SOL    HW239519   3.389   2.636   2.355 -0.3589  0.7424  0.8622
 9295SOL     OW39520   0.937   3.895   6.641  0.3627  0.6728  0.0278
 9295SOL    HW139521   0.864   3.906   6.701  1.2199 -2.5038  1.6738
 9295SOL    HW239522   0.985   3.827   6.688 -0.8769 -0.8906 -0.9700
 9296SOL     OW39523   0.967   0.483   3.329 -0.2767 -0.4170  0.3292
 9296SOL    HW139524   1.042   0.459   3.275 -1.9977 -3.1669 -0.8435
 9296SOL    HW239525   0.997   0.452   3.414  3.1634  1.0575 -0.3658
 9297SOL     OW39526   0.347   3.121   3.622  0.3938 -0.4099  0.3027
 9297SOL    HW139527   0.410   3.071   3.674  1.3147  0.7407  0.2850
 9297SOL    HW239528   0.342   3.204   3.670  0.4463 -0.0686 -0.2861
 9298SOL     OW39529   3.466   0.533   2.102 -0.1943 -0.1395  0.0601
 9298SOL    HW139530   3.481   0.577   2.186 -1.9078  0.1841  0.1824
 9298SOL    HW239531   3.419   0.596   2.048  0.4628 -0.4719 -0.8864
 9299SOL     OW39532   4.587   0.399   2.085 -0.8463  0.2232 -0.3912
 9299SOL    HW139533   4.636   0.480   2.102 -1.6347  0.0220  2.8343
 9299SOL    HW239534   4.568   0.391   2.179  1.3007 -1.3158 -0.0620
 9300SOL     OW39535   4.299   2.721   5.828 -0.4216 -0.1281 -0.4747
 9300SOL    HW139536   4.339   2.641   5.794 -0.3572 -1.2325  2.1983
 9300SOL    HW239537   4.285   2.702   5.920 -1.2109 -0.2922 -0.6279
 9301SOL     OW39538   0.737   4.473  15.722  0.2005 -0.4563  0.0761
 9301SOL    HW139539   0.809   4.424  15.682  1.4860 -0.0833  1.9473
 9301SOL    HW239540   0.668   4.414  15.692 -1.9105  1.9990  0.1292
 9302SOL     OW39541   2.289   4.107   8.677  0.1994 -0.4373  0.8431
 9302SOL    HW139542   2.288   4.034   8.739 -2.5705  0.1676  1.5034
 9302SOL    HW239543   2.299   4.065   8.592 -1.2510 -1.9955  1.4362
 9303SOL     OW39544   4.483   3.404   4.179  0.0725 -0.2771 -0.3562
 9303SOL    HW139545   4.411   3.415   4.241 -0.0325 -0.4401 -0.4493
 9303SOL    HW239546   4.562   3.408   4.234  0.4819 -3.2247 -0.6873
 9304SOL     OW39547   2.516   0.830   0.715 -0.6021  0.5985 -0.0261
 9304SOL    HW139548   2.503   0.853   0.807  0.7662  0.8866  0.0991
 9304SOL    HW239549   2.425   0.810   0.692  0.1597 -1.4445 -1.2716
 9305SOL     OW39550   3.931   3.626   8.722  0.0897 -0.3300 -0.1931
 9305SOL    HW139551   3.984   3.621   8.801  1.3003 -0.7436 -1.0280
 9305SOL    HW239552   3.959   3.711   8.687 -0.6561 -0.4212 -1.0098
 9306SOL     OW39553   2.334   4.590  12.922 -0.3322  0.1113 -0.5486
 9306SOL    HW139554   2.344   4.527  12.993  1.2390 -2.2448 -2.8982
 9306SOL    HW239555   2.284   4.542  12.856 -0.0336 -0.2590 -0.4988
 9307SOL     OW39556   3.420   3.010   5.808  0.1283  0.7901  0.3927
 9307SOL    HW139557   3.512   2.993   5.786  0.3618  2.2381  0.2281
 9307SOL    HW239558   3.420   3.078   5.876 -1.9882 -0.3421  1.5278
 9308SOL     OW39559   0.195   2.313   6.498 -0.8486  0.1831  0.3971
 9308SOL    HW139560   0.290   2.299   6.501 -0.5247  2.6362  0.9392
 9308SOL    HW239561   0.176   2.354   6.582  0.8729 -0.2951  1.0200
 9309SOL     OW39562   3.953   0.928   7.767  0.4704  0.3326 -0.0177
 9309SOL    HW139563   3.981   0.974   7.688  0.6071  0.6328  0.2037
 9309SOL    HW239564   4.022   0.955   7.828 -1.0920  3.0007  0.5661
 9310SOL     OW39565   3.737   3.237   9.825  0.1970  0.3468  0.2129
 9310SOL    HW139566   3.813   3.179   9.837 -0.6674 -0.5853  1.1812
 9310SOL    HW239567   3.695   3.240   9.911 -2.6056 -0.3965 -1.1212
 9311SOL     OW39568   1.482   1.131   6.789 -0.4373 -0.1172 -0.1092
 9311SOL    HW139569   1.563   1.145   6.837 -0.3978 -0.9795  0.0803
 9311SOL    HW239570   1.445   1.218   6.802  1.7843  0.5129  1.8941
 9312SOL     OW39571   2.118   3.739   4.121  0.3535 -0.0722  0.1990
 9312SOL    HW139572   2.105   3.652   4.159 -1.2205 -0.4374 -1.2072
 9312SOL    HW239573   2.121   3.787   4.204 -0.2733 -0.8057  0.6490
 9313SOL     OW39574   4.013   1.275   6.397  0.6586  0.3384 -0.2467
 9313SOL    HW139575   4.032   1.197   6.450 -1.8834 -0.1442 -0.0681
 9313SOL    HW239576   3.926   1.253   6.364  0.4600  1.3927 -0.4262
 9314SOL     OW39577   2.343   2.876   5.861  0.5038  0.6735  0.4546
 9314SOL    HW139578   2.293   2.881   5.779  0.9311 -1.8327  0.0220
 9314SOL    HW239579   2.284   2.921   5.922 -1.1815  0.0315 -0.6922
 9315SOL     OW39580   0.324   0.739   5.646 -0.2141  0.0146  0.6964
 9315SOL    HW139581   0.379   0.661   5.633 -0.1791  0.2556 -0.6552
 9315SOL    HW239582   0.349   0.782   5.564 -0.7137  1.3389  1.2447
 9316SOL     OW39583   4.333   3.692   6.544 -0.1415  0.4746 -1.0635
 9316SOL    HW139584   4.299   3.768   6.496 -0.4729  0.4082 -0.9343
 9316SOL    HW239585   4.302   3.617   6.494 -1.2754 -0.2826  0.7527
 9317SOL     OW39586   3.549   1.293   2.774  0.4960 -0.8947 -0.1820
 9317SOL    HW139587   3.587   1.258   2.694  2.0843 -0.8222  0.5445
 9317SOL    HW239588   3.479   1.231   2.797  0.3058 -0.8014 -0.5126
 9318SOL     OW39589   3.288   0.494  16.293 -0.5138 -0.6397  0.1371
 9318SOL    HW139590   3.325   0.422  16.242  0.3249 -0.2603  0.2014
 9318SOL    HW239591   3.268   0.460  16.380 -0.3366 -0.4966  0.2355
 9319SOL     OW39592   3.566   4.610   4.820 -0.4893  0.3408 -0.1249
 9319SOL    HW139593   3.604   4.534   4.775  0.0208  0.6799 -0.2672
 9319SOL    HW239594   3.544   4.574   4.906  0.7347  0.8450  0.3961
 9320SOL     OW39595   0.051   0.433   4.033 -0.1910  0.3417  0.0912
 9320SOL    HW139596   0.038   0.425   4.128 -1.7166  2.0054  0.0218
 9320SOL    HW239597   0.002   0.510   4.005  1.8007  1.5954  0.0083
 9321SOL     OW39598   0.313   2.928   6.017  0.3746  0.1095 -0.1392
 9321SOL    HW139599   0.262   2.880   6.082  1.3165  1.0692  1.3167
 9321SOL    HW239600   0.391   2.872   6.010  1.2517  1.2209  0.7744
 9322SOL     OW39601   0.089   0.776   2.760 -0.5228 -0.5121 -0.3229
 9322SOL    HW139602   0.149   0.712   2.722  0.0046 -0.3461  0.2314
 9322SOL    HW239603   0.003   0.748   2.728  0.5885 -1.8433 -2.1314
 9323SOL     OW39604   3.554   1.164  15.038 -0.7009  0.1346  0.0168
 9323SOL    HW139605   3.546   1.071  15.016 -0.5187  0.6468 -2.2353
 9323SOL    HW239606   3.467   1.175  15.076 -0.9258  1.2571 -0.8162
 9324SOL     OW39607   4.639   2.315  17.003 -0.4207 -0.0940  0.1246
 9324SOL    HW139608   4.689   2.362  16.936  2.6490 -0.3904  2.2479
 9324SOL    HW239609   4.569   2.377  17.024 -0.5018 -0.4960  1.0505
 9325SOL     OW39610   0.438   2.598  13.501  0.0159 -0.2324 -0.3508
 9325SOL    HW139611   0.506   2.611  13.435  0.0365  1.4699  0.0051
 9325SOL    HW239612   0.487   2.556  13.572  0.4047  3.2748  1.4260
 9326SOL     OW39613   0.533   1.839  14.781 -0.3573  0.7978  0.0732
 9326SOL    HW139614   0.473   1.823  14.854 -0.3392 -0.8089 -0.2557
 9326SOL    HW239615   0.594   1.897  14.826  0.4739 -0.9795  1.2583
 9327SOL     OW39616   0.252   1.921  17.089 -0.9657  0.0222 -0.4754
 9327SOL    HW139617   0.188   1.916  17.018 -1.9798  1.3052  0.3562
 9327SOL    HW239618   0.202   1.891  17.165 -0.5003  0.8522  0.1613
 9328SOL     OW39619   1.790   4.566   2.053 -0.5294 -0.6387  0.6012
 9328SOL    HW139620   1.720   4.631   2.049 -0.1297 -0.3552 -2.0163
 9328SOL    HW239621   1.788   4.541   1.960  1.7231 -0.2935  0.4678
 9329SOL     OW39622   1.529   1.097   3.046 -0.3056 -0.4750  0.0194
 9329SOL    HW139623   1.537   1.003   3.029 -0.6267 -0.4802 -0.1108
 9329SOL    HW239624   1.449   1.098   3.099 -1.1032 -1.3825 -1.1487
 9330SOL     OW39625   3.589   4.213  15.985  0.2976 -0.3721  0.7206
 9330SOL    HW139626   3.522   4.175  15.928  0.5298 -0.0725  0.2415
 9330SOL    HW239627   3.635   4.265  15.919 -0.4850 -0.5306  0.0424
 9331SOL     OW39628   4.261   3.240   5.519 -0.5666 -0.5761 -0.1580
 9331SOL    HW139629   4.291   3.213   5.606 -0.7950 -1.8379 -0.4585
 9331SOL    HW239630   4.220   3.158   5.489  2.0539 -1.3092 -1.6954
 9332SOL     OW39631   3.333   4.247   6.643  0.0857  0.0228  0.2085
 9332SOL    HW139632   3.406   4.204   6.687 -1.1407 -2.5465 -0.2540
 9332SOL    HW239633   3.306   4.183   6.577 -2.1003  0.6429  0.4991
 9333SOL     OW39634   1.833   1.694  14.227  0.3908 -0.9300 -0.4448
 9333SOL    HW139635   1.773   1.677  14.155 -1.6386  1.5450  0.6443
 9333SOL    HW239636   1.858   1.604  14.248  0.5946 -0.6816  0.3620
 9334SOL     OW39637   1.599   1.786   8.062  0.4687  0.2443 -0.9229
 9334SOL    HW139638   1.613   1.716   7.998 -0.5697 -0.7094 -0.1043
 9334SOL    HW239639   1.686   1.824   8.062 -0.2427  1.9113 -2.7544
 9335SOL     OW39640   3.053   0.692   9.378 -0.0472 -0.4279  0.3116
 9335SOL    HW139641   3.045   0.755   9.449 -0.1703  1.8962 -1.7716
 9335SOL    HW239642   3.148   0.691   9.368  0.0169  2.1301  0.7657
 9336SOL     OW39643   3.144   3.167   7.002 -0.0400 -0.6402  0.2524
 9336SOL    HW139644   3.054   3.157   7.032 -0.3827  1.0817 -0.1610
 9336SOL    HW239645   3.196   3.118   7.065  0.3247 -0.5647  0.0104
 9337SOL     OW39646   2.675   1.015   9.138  0.9565  0.3279 -0.0840
 9337SOL    HW139647   2.607   1.006   9.072 -0.0619  1.7049  0.7811
 9337SOL    HW239648   2.698   1.108   9.132  1.1425  0.4379  2.0219
 9338SOL     OW39649   1.876   3.484   6.015  0.0559 -0.3597 -0.4081
 9338SOL    HW139650   1.850   3.574   6.037  0.0364 -0.9869  2.1857
 9338SOL    HW239651   1.790   3.444   6.004 -0.0983 -0.2763  0.4983
 9339SOL     OW39652   4.676   2.265   5.443 -0.4072  0.2463 -0.1260
 9339SOL    HW139653   4.672   2.219   5.527 -3.6382  0.1667 -0.3300
 9339SOL    HW239654   4.668   2.358   5.465 -0.2339  0.3663 -0.5630
 9340SOL     OW39655   3.857   0.374   0.903 -0.1371  0.5363  0.3865
 9340SOL    HW139656   3.796   0.437   0.941 -1.3956 -1.1544  1.1673
 9340SOL    HW239657   3.921   0.436   0.871  2.2570 -3.0791 -1.8343
 9341SOL     OW39658   4.636   3.823   3.430  0.1136  0.3655  0.1292
 9341SOL    HW139659   4.727   3.805   3.405  0.0517  0.9652 -0.5195
 9341SOL    HW239660   4.651   3.873   3.510 -1.3927 -1.1671  1.3628
 9342SOL     OW39661   0.659   2.463   3.591 -0.2006 -0.0270 -0.0935
 9342SOL    HW139662   0.739   2.465   3.643  0.9516  0.8199 -1.8677
 9342SOL    HW239663   0.622   2.547   3.617  0.0656  0.0617 -0.0030
 9343SOL     OW39664   3.637   1.265   7.251  0.5481 -0.3611 -0.0373
 9343SOL    HW139665   3.591   1.182   7.263  1.3695 -0.7175  0.7131
 9343SOL    HW239666   3.636   1.279   7.156 -0.0087  0.1069  0.0390
 9344SOL     OW39667   1.428   2.735   7.764  0.1025 -0.8937  0.1995
 9344SOL    HW139668   1.450   2.681   7.840 -0.0936  0.0031  0.9001
 9344SOL    HW239669   1.445   2.674   7.692 -2.8743  0.1013 -1.3225
 9345SOL     OW39670   3.921   1.577   6.477  0.1324  0.3831 -0.0140
 9345SOL    HW139671   3.916   1.488   6.441 -0.4078  1.0791 -1.6513
 9345SOL    HW239672   3.960   1.559   6.562 -0.6678  1.3388  0.5649
 9346SOL     OW39673   4.175   2.001   1.683  0.4580  0.2918  0.4474
 9346SOL    HW139674   4.102   2.062   1.689  1.9486  2.1531 -0.0782
 9346SOL    HW239675   4.245   2.061   1.657  1.6267 -0.0610  2.8152
 9347SOL     OW39676   3.721   1.807   4.701  0.1068 -0.1140  0.1594
 9347SOL    HW139677   3.738   1.897   4.674  0.0171  0.0281  0.5841
 9347SOL    HW239678   3.804   1.772   4.732 -0.5690 -1.3816  0.5541
 9348SOL     OW39679   0.962   2.744   3.428  0.2088 -0.3221 -0.1576
 9348SOL    HW139680   0.967   2.754   3.333 -0.7461 -0.8071 -0.2587
 9348SOL    HW239681   0.941   2.834   3.454  0.2864  0.2716 -2.1441
 9349SOL     OW39682   1.039   2.964   4.066  0.0322  0.2300 -0.4049
 9349SOL    HW139683   1.081   2.912   4.135  1.7647  2.1893  0.0183
 9349SOL    HW239684   1.109   2.991   4.007  0.1153  1.4438  0.2543
 9350SOL     OW39685   2.797   1.251   4.949 -0.6408  0.3230  0.0141
 9350SOL    HW139686   2.873   1.260   4.891 -2.0855  3.3116 -1.4135
 9350SOL    HW239687   2.846   1.267   5.029 -0.5463  2.3089 -0.4299
 9351SOL     OW39688   4.243   2.236   5.590 -0.2260  0.3252 -0.2082
 9351SOL    HW139689   4.281   2.242   5.677  1.0428  1.3855 -0.8345
 9351SOL    HW239690   4.173   2.301   5.598 -1.9143 -1.5642  0.3532
 9352SOL     OW39691   1.604   3.242  13.023 -0.5077  0.2779  0.2760
 9352SOL    HW139692   1.671   3.223  12.958 -1.2133 -0.3985 -0.2425
 9352SOL    HW239693   1.539   3.175  13.003 -1.7223  1.2399  0.9652
 9353SOL     OW39694   3.632   2.617   9.590 -0.5615  0.4043  0.4937
 9353SOL    HW139695   3.711   2.603   9.643  0.9576  0.0925 -1.8394
 9353SOL    HW239696   3.564   2.600   9.655 -1.3112  2.4001  0.2258
 9354SOL     OW39697   0.863   4.429   4.455  0.2416 -1.0959  0.0675
 9354SOL    HW139698   0.857   4.359   4.520 -1.2931 -1.2389 -0.2344
 9354SOL    HW239699   0.773   4.459   4.440  1.7716  2.5108 -1.9879
 9355SOL     OW39700   4.469   0.277   4.452 -0.1484 -0.1420  0.1218
 9355SOL    HW139701   4.429   0.237   4.374  1.8629 -0.3725 -0.7736
 9355SOL    HW239702   4.546   0.224   4.470  0.9629  0.2342 -3.5750
 9356SOL     OW39703   3.142   2.465   5.025 -0.0748 -0.4252 -0.0523
 9356SOL    HW139704   3.059   2.419   5.033 -0.3094  0.0194  0.0583
 9356SOL    HW239705   3.178   2.447   4.938  1.7480 -1.6711  0.9611
 9357SOL     OW39706   0.558   2.791   4.734  0.2937  0.3227  0.0990
 9357SOL    HW139707   0.601   2.707   4.750 -2.8156 -1.2731  0.0041
 9357SOL    HW239708   0.472   2.768   4.697  1.2260 -1.1302 -1.1714
 9358SOL     OW39709   4.190   1.347   1.704  0.2932  0.3235 -0.1152
 9358SOL    HW139710   4.134   1.394   1.766 -0.1428 -1.9187  1.1643
 9358SOL    HW239711   4.225   1.413   1.644 -2.0733  0.1985 -1.5954
 9359SOL     OW39712   2.483   2.367   2.680  0.0857 -0.2104  0.5089
 9359SOL    HW139713   2.547   2.410   2.622 -1.2072  0.4937 -0.3818
 9359SOL    HW239714   2.406   2.422   2.677 -0.3353 -0.8289  0.0062
 9360SOL     OW39715   1.264   1.280   5.603  0.0625 -0.5626  0.5599
 9360SOL    HW139716   1.264   1.186   5.622 -0.5997 -0.6772  0.0100
 9360SOL    HW239717   1.274   1.314   5.692  1.5658  3.2910 -1.0557
 9361SOL     OW39718   3.551   3.971   8.852 -0.1567  0.2935  0.1906
 9361SOL    HW139719   3.589   3.956   8.939 -0.2077 -0.7462  0.0310
 9361SOL    HW239720   3.509   3.889   8.826 -0.3046  0.7222 -0.9518
 9362SOL     OW39721   2.367   2.749  10.407  0.1149  0.3017  0.8309
 9362SOL    HW139722   2.452   2.711  10.384 -1.7368 -2.1868 -1.8315
 9362SOL    HW239723   2.389   2.840  10.427  0.1034  0.7947 -1.4153
 9363SOL     OW39724   0.685   2.910   4.475  0.3546  0.7497  0.4526
 9363SOL    HW139725   0.703   2.965   4.551 -0.9971  0.2152  1.1602
 9363SOL    HW239726   0.767   2.864   4.460 -0.6354 -0.3887 -1.5667
 9364SOL     OW39727   3.634   3.974   9.092 -0.7320  0.9240  0.3103
 9364SOL    HW139728   3.678   4.031   9.156  0.6768  1.4033 -1.0679
 9364SOL    HW239729   3.619   3.898   9.147  0.9060 -0.7963 -1.6425
 9365SOL     OW39730   3.667   4.618   3.953 -0.1429 -0.4898 -0.4278
 9365SOL    HW139731   3.656   4.523   3.959  1.0498 -0.5077  1.5586
 9365SOL    HW239732   3.756   4.616   3.918  0.0688 -1.1547  0.1399
 9366SOL     OW39733   1.059   2.599   0.483 -0.3126 -0.1840 -0.0614
 9366SOL    HW139734   1.015   2.517   0.502  2.4392 -1.6492 -0.0680
 9366SOL    HW239735   0.990   2.666   0.491 -1.3793 -1.3108  0.2062
 9367SOL     OW39736   2.566   0.008   3.033  0.4403 -0.1895 -0.0148
 9367SOL    HW139737   2.573   0.102   3.051  0.3612 -0.0941 -0.4849
 9367SOL    HW239738   2.640   4.719   2.979  0.2596 -2.3127  0.8230
 9368SOL     OW39739   0.536   2.301  12.880 -0.2277 -0.3978  0.4636
 9368SOL    HW139740   0.553   2.339  12.966  0.1787  0.2334  0.1013
 9368SOL    HW239741   0.516   2.385  12.840 -0.0467 -0.5382  0.0803
 9369SOL     OW39742   4.537   3.723   6.232  0.1731 -0.0341 -0.1428
 9369SOL    HW139743   4.513   3.646   6.181  1.4549 -0.6930  0.2568
 9369SOL    HW239744   4.580   3.781   6.169  0.1315  0.0174 -0.1238
 9370SOL     OW39745   2.614   4.330   6.074  0.8331  0.3593  0.1990
 9370SOL    HW139746   2.532   4.289   6.046 -0.4317  2.2553  1.1214
 9370SOL    HW239747   2.610   4.328   6.169 -0.7418  0.5257  0.1433
 9371SOL     OW39748   0.910   0.374   8.418  0.3641 -0.1943 -0.0550
 9371SOL    HW139749   0.975   0.443   8.432  0.4819  0.2051 -2.5557
 9371SOL    HW239750   0.944   0.311   8.482 -2.0986  0.5617  1.9591
 9372SOL     OW39751   0.406   0.687   4.958 -0.0655  0.9067  0.0370
 9372SOL    HW139752   0.313   0.697   4.937 -0.0227  3.2718  1.0284
 9372SOL    HW239753   0.451   0.758   4.913  0.4422 -1.0630 -2.5771
 9373SOL     OW39754   1.605   2.282   8.137  0.5476 -0.3231  0.4967
 9373SOL    HW139755   1.578   2.228   8.062 -2.9962  1.1236  0.7113
 9373SOL    HW239756   1.516   2.304   8.164 -0.3045 -0.6787 -1.9408
 9374SOL     OW39757   3.324   2.530  10.014 -0.0858  0.6391 -0.1148
 9374SOL    HW139758   3.265   2.465   9.977 -1.2943  1.5282  0.2735
 9374SOL    HW239759   3.320   2.509  10.107  1.6640 -0.8252 -0.3666
 9375SOL     OW39760   1.286   0.580  12.928  0.4847 -0.5249 -0.4408
 9375SOL    HW139761   1.341   0.543  12.997 -0.7005 -2.2070 -0.4018
 9375SOL    HW239762   1.321   0.669  12.935 -0.8783  0.1770 -2.5498
 9376SOL     OW39763   1.767   1.744   3.220 -0.0648  0.0645 -0.1482
 9376SOL    HW139764   1.743   1.687   3.147  0.8125 -1.2387  0.6000
 9376SOL    HW239765   1.699   1.810   3.232  0.5003  0.7845 -0.8408
 9377SOL     OW39766   2.968   0.710   8.079  0.5228  0.2429  0.3287
 9377SOL    HW139767   2.982   0.640   8.143  3.0971 -0.1825 -0.6905
 9377SOL    HW239768   3.007   0.665   8.005  0.4643  0.7529 -0.0141
 9378SOL     OW39769   1.008   2.582  16.029  0.0014  0.3838  0.1615
 9378SOL    HW139770   0.913   2.587  16.017 -0.1366 -1.1120  0.5823
 9378SOL    HW239771   1.042   2.657  15.980 -1.9853  0.0939 -1.6538
 9379SOL     OW39772   2.332   2.948   2.599  0.7142 -0.6789  0.5056
 9379SOL    HW139773   2.306   2.980   2.512  2.4986 -0.5342  0.0064
 9379SOL    HW239774   2.305   2.858   2.585 -3.5620  0.8277 -0.7633
 9380SOL     OW39775   1.514   1.864   5.468  0.1630 -0.3111  0.1853
 9380SOL    HW139776   1.442   1.896   5.414  1.2742 -1.1412 -1.7831
 9380SOL    HW239777   1.550   1.948   5.496 -0.7363  0.7054 -1.6992
 9381SOL     OW39778   4.246   1.074  12.581  0.0756 -0.3400 -0.4717
 9381SOL    HW139779   4.341   1.080  12.589 -0.0752  1.1278  0.1940
 9381SOL    HW239780   4.241   0.982  12.607  3.6248 -0.6496 -0.9163
 9382SOL     OW39781   4.472   3.856   6.719 -0.0846  0.5441 -0.2738
 9382SOL    HW139782   4.420   3.795   6.667  3.8918 -2.7240 -0.4143
 9382SOL    HW239783   4.533   3.888   6.653  1.0343  0.7369  0.8363
 9383SOL     OW39784   4.605   3.989   6.524 -0.7912 -0.3342  0.3739
 9383SOL    HW139785   4.653   3.924   6.472 -1.3157 -0.2122 -0.2616
 9383SOL    HW239786   4.655   4.070   6.518 -1.0764  0.1357  4.2814
 9384SOL     OW39787   3.532   1.362   4.927  0.0814 -0.4999 -0.1035
 9384SOL    HW139788   3.536   1.450   4.889  0.6133 -1.2570 -1.8101
 9384SOL    HW239789   3.568   1.395   5.009 -0.6708  1.7070 -0.6741
 9385SOL     OW39790   3.443   4.410  15.659  0.0352 -0.0401 -0.2070
 9385SOL    HW139791   3.467   4.340  15.597 -0.0212  0.9482 -1.3426
 9385SOL    HW239792   3.432   4.480  15.595  0.1438  0.9436  0.8606
 9386SOL     OW39793   4.286   3.154   8.932  1.1699  0.3667  0.6917
 9386SOL    HW139794   4.303   3.137   8.839  0.9162  0.7652  0.5684
 9386SOL    HW239795   4.347   3.223   8.960  2.5209 -0.5317  0.0100
 9387SOL     OW39796   3.886   4.101   8.733 -0.0207 -0.2454 -0.0724
 9387SOL    HW139797   3.803   4.147   8.742  0.8784  1.6101 -1.2770
 9387SOL    HW239798   3.903   4.109   8.640 -0.7096  2.0534  0.0115
 9388SOL     OW39799   2.323   4.683   9.653  0.0738  0.3446  0.5699
 9388SOL    HW139800   2.312   4.611   9.715 -2.3256 -0.8690 -1.2570
 9388SOL    HW239801   2.239   4.728   9.650 -0.0108  0.0669 -0.9943
 9389SOL     OW39802   1.128   1.689  14.963 -0.5419 -0.1895 -0.3382
 9389SOL    HW139803   1.215   1.650  14.970 -0.6857 -0.3049  0.7902
 9389SOL    HW239804   1.074   1.612  14.980 -0.1729 -1.2170 -3.8530
 9390SOL     OW39805   3.581   2.875  10.654 -0.4823 -0.5332 -0.9821
 9390SOL    HW139806   3.623   2.790  10.641  0.9929  0.3412 -1.9375
 9390SOL    HW239807   3.523   2.875  10.579  1.3683  0.7175 -2.4185
 9391SOL     OW39808   3.151   4.013   7.823 -0.0190  0.2462 -0.7457
 9391SOL    HW139809   3.085   4.046   7.763 -3.0445 -1.1370  1.8442
 9391SOL    HW239810   3.166   4.090   7.878  0.8249  0.2090 -0.9159
 9392SOL     OW39811   3.441   3.421  16.386 -0.4308 -0.0925  1.0288
 9392SOL    HW139812   3.384   3.495  16.404  0.6364  0.4001  2.3563
 9392SOL    HW239813   3.395   3.364  16.448 -3.1721  0.4153 -0.5296
 9393SOL     OW39814   0.965   2.435  10.144 -0.4698 -0.3425  0.1786
 9393SOL    HW139815   0.926   2.434  10.057 -1.3123 -0.5116  0.5603
 9393SOL    HW239816   0.891   2.450  10.203  1.1257  0.7662  1.9311
 9394SOL     OW39817   0.902   3.643  11.439 -0.1613  0.4032  0.2470
 9394SOL    HW139818   0.944   3.570  11.394  1.3586  0.6418  1.3022
 9394SOL    HW239819   0.812   3.618  11.417 -0.0411  0.7386 -0.6433
 9395SOL     OW39820   3.139   0.854   8.830  0.4747  0.3793 -0.3744
 9395SOL    HW139821   3.191   0.929   8.857 -1.7011  1.0703  1.9407
 9395SOL    HW239822   3.066   0.857   8.892  0.3502 -1.9960 -0.3949
 9396SOL     OW39823   4.477   3.760   7.721  0.4632  0.4165 -0.0549
 9396SOL    HW139824   4.530   3.796   7.792 -0.2093  1.7889 -0.2528
 9396SOL    HW239825   4.423   3.696   7.766 -0.6593  1.2160 -0.2621
 9397SOL     OW39826   2.344   0.900  12.754  0.5388 -0.1626  0.2149
 9397SOL    HW139827   2.295   0.838  12.701  1.0435 -0.6679  0.3450
 9397SOL    HW239828   2.275   0.936  12.809  2.0697  2.4278  0.4756
 9398SOL     OW39829   4.452   3.793   8.623  0.4288  0.0609 -0.0968
 9398SOL    HW139830   4.447   3.882   8.587 -0.5547  0.9838  2.3294
 9398SOL    HW239831   4.368   3.755   8.597  1.0810 -1.2066 -0.3465
 9399SOL     OW39832   1.171   3.988  15.708 -0.3157  0.1738 -0.0800
 9399SOL    HW139833   1.192   4.074  15.674  1.3169 -0.0968  0.2716
 9399SOL    HW239834   1.254   3.946  15.686  0.3036 -0.1591  2.8367
 9400SOL     OW39835   3.538   3.386   7.880  0.1192 -0.1061  0.0632
 9400SOL    HW139836   3.615   3.360   7.830  1.6976 -0.3717  2.6224
 9400SOL    HW239837   3.586   3.431   7.950 -1.9846  0.0167  1.4575
 9401SOL     OW39838   1.116   0.247   9.278  0.4734  0.2759 -0.2506
 9401SOL    HW139839   1.075   0.267   9.363  0.6639 -2.5144  0.4822
 9401SOL    HW239840   1.194   0.301   9.286 -0.2774  1.7357 -2.8176
 9402SOL     OW39841   4.575   1.489   2.187 -0.0434  0.2521  0.2653
 9402SOL    HW139842   4.630   1.548   2.238 -0.5500  1.6132 -0.7606
 9402SOL    HW239843   4.521   1.558   2.147  0.6063  1.7206  1.9215
 9403SOL     OW39844   0.191   3.718   1.266 -0.3899  0.0481  0.1143
 9403SOL    HW139845   0.099   3.702   1.289  0.5979 -1.6904  2.8377
 9403SOL    HW239846   0.244   3.661   1.321 -0.5787 -0.3441 -0.1063
 9404SOL     OW39847   1.416   4.256  15.708  0.2186  0.2011 -0.3533
 9404SOL    HW139848   1.390   4.292  15.624 -1.0378 -1.7370 -0.7886
 9404SOL    HW239849   1.508   4.241  15.687  0.1009 -2.8205  1.2279
 9405SOL     OW39850   0.774   4.329   7.368 -0.3648  0.3463  0.2238
 9405SOL    HW139851   0.729   4.250   7.399  0.7906 -0.2434  0.3751
 9405SOL    HW239852   0.732   4.389   7.430  1.2193 -0.0073  1.6285
 9406SOL     OW39853   3.225   1.977   6.990  0.0410 -0.6526  0.4090
 9406SOL    HW139854   3.282   1.908   6.957  1.0556  0.1930  0.3782
 9406SOL    HW239855   3.268   2.018   7.065  2.1397 -2.0098 -0.0437
 9407SOL     OW39856   4.266   0.297   6.790  0.0151 -0.4788  0.0884
 9407SOL    HW139857   4.197   0.319   6.852 -0.9090 -0.9418 -0.7961
 9407SOL    HW239858   4.235   0.344   6.713 -1.2847 -1.7937 -0.1759
 9408SOL     OW39859   4.495   1.818   6.003  0.4366  0.2776 -0.4530
 9408SOL    HW139860   4.549   1.777   5.935 -0.4597  0.1478 -1.0857
 9408SOL    HW239861   4.477   1.737   6.051 -1.4725 -0.7038 -2.8220
 9409SOL     OW39862   2.654   3.287   3.197 -0.3837 -0.1275  0.0122
 9409SOL    HW139863   2.719   3.356   3.194  1.3348 -1.7719 -0.8930
 9409SOL    HW239864   2.581   3.322   3.248 -0.6870 -0.4062 -0.2218
 9410SOL     OW39865   2.311   1.413   0.959 -0.6355 -0.1305 -0.4099
 9410SOL    HW139866   2.216   1.423   0.966 -0.4957  1.8004 -1.1708
 9410SOL    HW239867   2.329   1.320   0.950 -1.7513 -0.2570 -1.3134
 9411SOL     OW39868   3.172   1.053  10.749  0.2323 -0.3383 -0.0633
 9411SOL    HW139869   3.127   0.990  10.693  0.8626  0.7044 -1.7685
 9411SOL    HW239870   3.104   1.096  10.800  0.3805 -0.4265  0.2067
 9412SOL     OW39871   2.815   0.421   6.846  0.1534 -0.0020  0.5618
 9412SOL    HW139872   2.746   0.464   6.896  0.1368 -1.5652  1.8910
 9412SOL    HW239873   2.884   0.485   6.864  0.7681 -0.5897  0.3048
 9413SOL     OW39874   1.107   0.484   0.078 -0.3646 -0.0371 -0.3157
 9413SOL    HW139875   1.019   0.473   0.114  0.8323 -0.2368  2.5765
 9413SOL    HW239876   1.098   0.462  17.738 -2.6550 -0.6067  0.0546
 9414SOL     OW39877   2.604   4.473   2.406 -0.3618  0.0495  0.4083
 9414SOL    HW139878   2.685   4.465   2.355  0.3022  1.1108  1.3080
 9414SOL    HW239879   2.545   4.433   2.341 -2.7791  2.1442  1.3427
 9415SOL     OW39880   4.655   3.430   3.940 -0.4115  0.0947  0.3338
 9415SOL    HW139881   4.616   3.392   4.019  0.2932  0.1331  0.6987
 9415SOL    HW239882   4.583   3.416   3.880  0.0336 -3.3157  0.6303
 9416SOL     OW39883   4.167   4.701   5.967 -0.1265 -0.4735  0.3350
 9416SOL    HW139884   4.136   4.690   6.057 -1.0070  0.5260  0.1565
 9416SOL    HW239885   4.248   4.651   5.964  0.3528  0.3426 -0.2401
 9417SOL     OW39886   3.700   1.500   9.589 -0.0410  0.0017 -0.2196
 9417SOL    HW139887   3.636   1.461   9.647  0.7955 -0.2017  0.5682
 9417SOL    HW239888   3.788   1.487   9.625  0.0192  1.9402  0.3316
 9418SOL     OW39889   2.210   4.594   0.392 -0.0958  0.2923  0.0188
 9418SOL    HW139890   2.283   4.638   0.350 -1.0466 -0.0413 -1.9786
 9418SOL    HW239891   2.235   4.502   0.389 -0.2791  0.2606 -0.5317
 9419SOL     OW39892   1.483   3.030   7.715 -0.0849 -0.0583 -0.5829
 9419SOL    HW139893   1.567   3.070   7.737 -0.0933 -0.9090  0.9881
 9419SOL    HW239894   1.509   2.941   7.691 -2.1093 -0.6424 -0.5858
 9420SOL     OW39895   3.546   2.190   5.899  0.0496  0.3129 -0.0566
 9420SOL    HW139896   3.564   2.267   5.953 -0.7390  0.1059  0.5057
 9420SOL    HW239897   3.545   2.117   5.961 -0.9075  1.5036  1.3356
 9421SOL     OW39898   4.233   2.331   8.239  0.5050 -0.3980 -0.6933
 9421SOL    HW139899   4.195   2.369   8.318 -0.3067  0.9030 -1.7095
 9421SOL    HW239900   4.229   2.404   8.178  2.6823  1.4008  1.3026
 9422SOL     OW39901   0.209   0.296   2.164  0.9971 -0.3650  0.1154
 9422SOL    HW139902   0.130   0.247   2.187  0.2278  0.9316  0.2645
 9422SOL    HW239903   0.237   0.320   2.253  0.3741  0.4835  0.0861
 9423SOL     OW39904   4.390   4.370   3.771  0.4812 -0.4484 -0.3759
 9423SOL    HW139905   4.344   4.420   3.704 -2.2973 -1.6889  0.5817
 9423SOL    HW239906   4.376   4.426   3.848 -0.3773  1.1405 -1.6848
 9424SOL     OW39907   4.151   2.703   4.051  0.1323 -0.3401 -0.2682
 9424SOL    HW139908   4.185   2.617   4.077  0.4209 -0.5606 -1.3589
 9424SOL    HW239909   4.131   2.697   3.958 -1.7212 -2.2972  0.2684
 9425SOL     OW39910   0.867   3.055   5.607 -0.2535  0.1312 -0.0178
 9425SOL    HW139911   0.910   3.090   5.685 -3.8093  2.0601  1.0878
 9425SOL    HW239912   0.874   3.127   5.544 -0.0660  0.3567  0.2577
 9426SOL     OW39913   2.969   4.617   4.579  0.2830  0.3382 -0.4017
 9426SOL    HW139914   2.954   4.586   4.668  2.5189 -0.4863 -0.3160
 9426SOL    HW239915   2.926   4.546   4.530  2.0336 -1.3416  0.5231
 9427SOL     OW39916   3.915   4.639   8.512  0.3893 -0.2486  0.0157
 9427SOL    HW139917   3.879   4.645   8.423 -0.5093  1.3636  0.4810
 9427SOL    HW239918   3.917   4.544   8.521 -1.0024 -0.2466  0.3057
 9428SOL     OW39919   2.908   2.761  14.915  0.1197 -0.2032 -0.5522
 9428SOL    HW139920   3.002   2.778  14.910  0.0969  0.5375  1.3871
 9428SOL    HW239921   2.862   2.845  14.906 -2.5317 -1.5770  0.1929
 9429SOL     OW39922   1.422   4.639   6.863 -0.3612 -0.3252  0.2758
 9429SOL    HW139923   1.428   4.643   6.958 -0.4914  0.1832  0.2642
 9429SOL    HW239924   1.510   4.674   6.848  0.2938 -1.2679  1.9751
 9430SOL     OW39925   1.270   3.117  10.588  0.0071 -0.3819  0.1124
 9430SOL    HW139926   1.213   3.177  10.636  0.0787 -0.5316  0.3886
 9430SOL    HW239927   1.279   3.054  10.661 -1.4632  1.3805  1.8219
 9431SOL     OW39928   3.427   0.861   3.276 -0.0068 -0.4580 -0.0779
 9431SOL    HW139929   3.360   0.913   3.320  0.2116 -1.4000  1.3673
 9431SOL    HW239930   3.432   0.781   3.329 -0.3859  0.1770  0.9242
 9432SOL     OW39931   4.503   2.965  10.590 -0.4791  0.1807 -0.5836
 9432SOL    HW139932   4.537   3.050  10.618 -1.2016  1.5045 -3.7855
 9432SOL    HW239933   4.410   2.987  10.594 -0.5777  0.0125 -2.1625
 9433SOL     OW39934   3.662   0.336  16.035 -0.7283 -0.0497  0.5171
 9433SOL    HW139935   3.665   0.368  15.945  1.8264  2.2117  1.4185
 9433SOL    HW239936   3.610   0.257  16.021 -3.2105  1.7579 -0.5994
 9434SOL     OW39937   0.964   1.086  14.278 -0.3195  0.1465  0.5975
 9434SOL    HW139938   0.934   1.002  14.313  1.6027 -0.0167  1.8529
 9434SOL    HW239939   0.894   1.104  14.215 -0.5565  0.5326  0.9706
 9435SOL     OW39940   2.828   1.510  11.585  0.3132 -0.3324  0.0785
 9435SOL    HW139941   2.763   1.443  11.605  0.2368 -0.8408 -1.8542
 9435SOL    HW239942   2.853   1.532  11.674 -0.3976 -0.0839  0.2166
 9436SOL     OW39943   3.125   4.234   6.343  0.2387  0.1056 -0.2364
 9436SOL    HW139944   3.175   4.167   6.390 -1.7925 -0.1514  1.5680
 9436SOL    HW239945   3.169   4.222   6.259 -1.3690 -0.9161 -0.9272
 9437SOL     OW39946   2.482   0.155   3.824 -0.0707 -0.5092 -0.3994
 9437SOL    HW139947   2.522   0.221   3.880 -1.3724  1.3736 -1.6508
 9437SOL    HW239948   2.432   0.101   3.885  0.6349  1.0175  1.5171
 9438SOL     OW39949   2.554   1.238   1.111  0.2319 -0.1708 -0.4640
 9438SOL    HW139950   2.483   1.239   1.047  2.0251 -1.6175 -2.5197
 9438SOL    HW239951   2.520   1.280   1.190 -0.5939 -0.6192 -0.5885
 9439SOL     OW39952   1.050   1.440  17.439 -0.6512  0.5015 -0.4635
 9439SOL    HW139953   1.025   1.532  17.432 -0.7440  0.5018 -0.0886
 9439SOL    HW239954   0.968   1.408  17.477  1.1339 -2.9053  0.5220
 9440SOL     OW39955   3.665   4.726   8.791  0.0930  0.6712  0.9281
 9440SOL    HW139956   3.626   4.675   8.720 -0.0513  0.7626  0.9417
 9440SOL    HW239957   3.731   0.035   8.741 -0.1835  1.4345  1.2933
 9441SOL     OW39958   2.972   1.624   8.068 -0.0043  0.2524  0.7350
 9441SOL    HW139959   3.033   1.663   8.005 -1.4969 -1.5409 -1.8308
 9441SOL    HW239960   2.898   1.602   8.012  0.7351  1.8218 -0.8622
 9442SOL     OW39961   1.294   0.385   4.656 -0.0581 -0.3299  0.6099
 9442SOL    HW139962   1.376   0.337   4.670  1.0194  1.0400 -0.9762
 9442SOL    HW239963   1.236   0.361   4.728  1.3425 -0.1166  1.8185
 9443SOL     OW39964   0.509   0.473   6.347  0.4274 -0.1210 -0.3836
 9443SOL    HW139965   0.484   0.440   6.434  1.2655 -1.3285 -0.6075
 9443SOL    HW239966   0.594   0.509   6.372 -0.5350 -0.4210  3.3408
 9444SOL     OW39967   4.440   0.646  12.539  0.3941 -0.3088  0.5912
 9444SOL    HW139968   4.521   0.698  12.536  0.4460 -0.4663 -0.4926
 9444SOL    HW239969   4.475   0.557  12.546  0.7664 -0.2523 -0.6144
 9445SOL     OW39970   2.330   0.246   7.536 -0.9443  0.1722 -0.0280
 9445SOL    HW139971   2.369   0.333   7.531  0.6953 -0.5385  0.5675
 9445SOL    HW239972   2.239   0.271   7.518 -0.5240  1.1027 -0.8453
 9446SOL     OW39973   3.392   2.980  17.032  0.2297  0.9419 -0.1290
 9446SOL    HW139974   3.422   3.027  16.954 -1.1054  0.1716 -1.1047
 9446SOL    HW239975   3.298   2.996  17.026  0.1786  0.6340 -0.1605
 9447SOL     OW39976   3.332   3.617   6.720  0.5099 -0.4837 -0.0119
 9447SOL    HW139977   3.353   3.531   6.757 -0.1140 -0.5350  0.2102
 9447SOL    HW239978   3.243   3.624   6.754  1.0393  0.9242  1.0789
 9448SOL     OW39979   3.618   3.499   9.313 -0.5409 -0.1171  0.4749
 9448SOL    HW139980   3.637   3.409   9.284 -0.9257  0.4848 -1.6238
 9448SOL    HW239981   3.624   3.480   9.407  1.1510 -0.9239  0.2115
 9449SOL     OW39982   1.052   1.409   9.825 -0.3853  0.3379 -0.5137
 9449SOL    HW139983   1.145   1.420   9.841 -0.5419  1.2078 -0.2103
 9449SOL    HW239984   1.044   1.467   9.749  0.2935  0.3839 -0.5467
 9450SOL     OW39985   1.219   2.441   4.703  0.2599  0.2108 -0.3766
 9450SOL    HW139986   1.255   2.367   4.752  1.6952  0.3565 -1.2091
 9450SOL    HW239987   1.151   2.477   4.759 -0.3588 -1.2042 -0.2085
 9451SOL     OW39988   0.416   0.110   2.950 -0.0007  0.6752 -0.3654
 9451SOL    HW139989   0.440   0.052   3.022 -0.6627  0.3019 -0.4525
 9451SOL    HW239990   0.470   0.077   2.878  0.8574  0.0390  0.5682
 9452SOL     OW39991   1.729   1.450   4.866 -0.3454  0.0847 -0.2131
 9452SOL    HW139992   1.800   1.418   4.923  0.0936 -1.4291 -1.5965
 9452SOL    HW239993   1.646   1.442   4.913  0.9430 -0.7005  1.9552
 9453SOL     OW39994   0.695   4.586  10.356 -0.1301  0.4138 -0.0181
 9453SOL    HW139995   0.752   4.566  10.282  0.9595 -1.3479  1.3011
 9453SOL    HW239996   0.744   4.654  10.403 -1.8861  1.5421  0.1650
 9454SOL     OW39997   3.103   1.247   8.566 -0.7760  0.0604 -0.0288
 9454SOL    HW139998   3.045   1.323   8.562  0.0409  0.8537  3.5472
 9454SOL    HW239999   3.052   1.183   8.614 -1.9977  1.6820  0.8586
 9455SOL     OW40000   2.670   0.265   4.846 -0.0880 -0.3473 -0.6587
 9455SOL    HW140001   2.755   0.263   4.803 -0.2597 -0.9624 -0.9617
 9455SOL    HW240002   2.642   0.350   4.812  0.8240 -0.3669 -1.4517
 9456SOL     OW40003   2.319   2.361   6.703  0.9390  0.0895  0.1132
 9456SOL    HW140004   2.333   2.412   6.624 -0.7393  2.0601  1.0860
 9456SOL    HW240005   2.389   2.397   6.758 -1.1077  0.3471  2.5605
 9457SOL     OW40006   0.639   1.145   4.132  0.2468 -0.3038 -0.4078
 9457SOL    HW140007   0.675   1.133   4.220  1.6906  1.6363 -0.7247
 9457SOL    HW240008   0.563   1.088   4.131  1.1028 -1.4323 -1.3700
 9458SOL     OW40009   2.894   4.161   7.016  0.4347 -0.1238 -0.3204
 9458SOL    HW140010   2.861   4.073   7.031  1.6416 -0.3461  1.0713
 9458SOL    HW240011   2.970   4.170   7.073  0.4358  1.9786 -0.6626
 9459SOL     OW40012   3.018   2.230   6.985 -0.1442 -0.3759 -0.1983
 9459SOL    HW140013   3.108   2.204   6.967  0.4028  1.2649  0.0795
 9459SOL    HW240014   2.964   2.157   6.957  0.7616 -1.5547  1.1200
 9460SOL     OW40015   2.016   3.207   7.887  0.5647 -0.1345 -0.4172
 9460SOL    HW140016   2.070   3.269   7.936 -1.0599  2.4689 -1.9317
 9460SOL    HW240017   1.975   3.165   7.963 -1.9114  2.0530 -0.5501
 9461SOL     OW40018   3.164   0.165   6.761  0.0383  0.0259  0.3803
 9461SOL    HW140019   3.096   0.148   6.827 -0.7673 -1.9857 -0.9787
 9461SOL    HW240020   3.247   0.162   6.810  1.0777  0.4215 -1.3598
 9462SOL     OW40021   0.716   4.030   3.302  0.1517 -0.0295  0.0437
 9462SOL    HW140022   0.781   4.026   3.373 -1.3520 -2.2276  1.3017
 9462SOL    HW240023   0.681   4.118   3.310  0.3014 -0.2279  2.9707
 9463SOL     OW40024   1.989   2.311  13.703  0.0120  0.3662  0.4294
 9463SOL    HW140025   1.999   2.357  13.786 -0.1557  0.4680  0.3935
 9463SOL    HW240026   2.065   2.339  13.653 -1.4181  1.2815 -1.2294
 9464SOL     OW40027   1.675   4.443   5.842 -0.1674 -0.4882 -0.5445
 9464SOL    HW140028   1.740   4.437   5.773 -0.6838 -1.4768 -0.9366
 9464SOL    HW240029   1.590   4.415   5.808 -0.1108 -0.6545 -0.5474
 9465SOL     OW40030   1.229   4.296   5.582 -0.9035  0.3027  0.4320
 9465SOL    HW140031   1.184   4.232   5.637 -0.3520 -0.3987  0.0557
 9465SOL    HW240032   1.226   4.259   5.494 -0.9442  0.3718  0.4038
 9466SOL     OW40033   1.537   2.117   5.167 -0.2920  0.5997 -0.3224
 9466SOL    HW140034   1.521   2.029   5.132 -0.4180 -0.4798  2.4336
 9466SOL    HW240035   1.444   2.136   5.179 -0.3061  0.8456 -0.8114
 9467SOL     OW40036   1.125   0.425  17.285 -0.5805  0.2960 -0.1972
 9467SOL    HW140037   1.173   0.438  17.203  0.3590 -2.0264 -0.0249
 9467SOL    HW240038   1.072   0.361  17.237 -0.7862  0.7130 -0.5166
 9468SOL     OW40039   2.782   3.277   4.981 -0.5761  0.8972  0.2698
 9468SOL    HW140040   2.734   3.341   5.033 -1.2082 -0.9981  2.0148
 9468SOL    HW240041   2.862   3.323   4.955 -2.5073  2.6316 -2.5800
 9469SOL     OW40042   2.875   0.200  12.853  0.2691  0.0783 -0.1145
 9469SOL    HW140043   2.866   0.232  12.943 -0.3087  2.0079 -0.8585
 9469SOL    HW240044   2.967   0.177  12.846  0.5568  1.2000 -0.0637
 9470SOL     OW40045   0.122   0.967   5.466  0.2554  0.3388 -0.3731
 9470SOL    HW140046   0.131   0.914   5.387 -3.7706 -0.0794 -0.5492
 9470SOL    HW240047   0.180   1.037   5.436  0.3420 -0.2521 -1.5797
 9471SOL     OW40048   0.302   4.253   9.524 -0.2258  0.8725  0.3481
 9471SOL    HW140049   0.297   4.347   9.544 -3.7392  0.9662 -0.8336
 9471SOL    HW240050   0.225   4.250   9.466  1.0559 -0.4927 -1.2791
 9472SOL     OW40051   2.728   1.377   3.838  0.2251 -0.5635  0.5057
 9472SOL    HW140052   2.810   1.425   3.832  0.8343 -1.4927  1.4805
 9472SOL    HW240053   2.761   1.293   3.872  2.7686  0.1098 -0.3000
 9473SOL     OW40054   2.228   4.658   9.348 -0.8793 -0.0660  0.7566
 9473SOL    HW140055   2.137   4.688   9.343 -0.8147  0.1851  1.1029
 9473SOL    HW240056   2.246   4.670   9.441  0.6188  0.6082  0.3759
 9474SOL     OW40057   1.156   0.793  15.883 -0.1847 -0.1597 -0.1383
 9474SOL    HW140058   1.096   0.843  15.939 -0.2396  0.2357 -0.5521
 9474SOL    HW240059   1.104   0.715  15.862  2.1562 -1.3834 -1.3097
 9475SOL     OW40060   2.047   2.303   8.013  0.3067  0.5418  0.1910
 9475SOL    HW140061   2.133   2.302   8.055  0.8221 -0.0057 -0.8669
 9475SOL    HW240062   2.050   2.370   7.945  1.6726  0.5029  0.2139
 9476SOL     OW40063   2.785   1.194   7.720  0.2189 -0.2987  0.2947
 9476SOL    HW140064   2.846   1.132   7.760  0.5230  0.3278  0.8046
 9476SOL    HW240065   2.820   1.180   7.632  0.9850 -1.0713  0.7159
 9477SOL     OW40066   3.055   0.375   6.033 -0.2130 -0.1306  0.0766
 9477SOL    HW140067   3.140   0.331   6.038 -1.0319 -1.6247  1.2173
 9477SOL    HW240068   3.004   0.320   5.973  1.6508 -0.3379 -1.3119
 9478SOL     OW40069   4.613   3.386  10.171 -0.1433 -0.2980 -0.0133
 9478SOL    HW140070   4.543   3.321  10.168 -0.0865 -0.3220 -0.9937
 9478SOL    HW240071   4.675   3.340  10.115  2.1175  0.9391  1.4887
 9479SOL     OW40072   1.261   3.263   5.209  0.4226 -0.2664 -0.1034
 9479SOL    HW140073   1.306   3.250   5.126 -0.6847 -1.1543 -0.5675
 9479SOL    HW240074   1.211   3.345   5.199  3.3249  1.3421 -1.5651
 9480SOL     OW40075   3.692   2.869   9.479 -0.1212  0.2534 -0.6088
 9480SOL    HW140076   3.678   2.779   9.510  1.0018  0.0193 -0.7797
 9480SOL    HW240077   3.615   2.902   9.526 -1.0688 -1.5051 -0.9132
 9481SOL     OW40078   1.234   3.788   3.197 -0.5349 -0.4841  0.3203
 9481SOL    HW140079   1.178   3.776   3.274 -0.7357  1.2198  0.4381
 9481SOL    HW240080   1.215   3.708   3.147 -1.9249 -0.4137  0.7331
 9482SOL     OW40081   1.755   3.483   5.699  0.3522  0.5363  0.0460
 9482SOL    HW140082   1.778   3.532   5.778 -0.4921 -1.9315  1.8207
 9482SOL    HW240083   1.674   3.521   5.667 -0.6540 -3.2241 -1.8896
 9483SOL     OW40084   0.200   1.625   6.037 -0.0463  0.1149 -0.0567
 9483SOL    HW140085   0.203   1.599   6.129  1.9939  1.3515  0.2155
 9483SOL    HW240086   0.249   1.551   6.001 -2.5530 -2.6646  2.1729
 9484SOL     OW40087   0.259   0.348  14.785 -0.0098 -0.0414 -0.5796
 9484SOL    HW140088   0.315   0.306  14.720  1.3445 -0.4906  0.8756
 9484SOL    HW240089   0.179   0.353  14.733 -0.3354 -0.2754 -0.0950
 9485SOL     OW40090   2.281   2.362   0.774  0.0152  0.4713  0.3862
 9485SOL    HW140091   2.220   2.407   0.834 -2.2342 -0.3686 -1.2654
 9485SOL    HW240092   2.363   2.389   0.815 -1.2592  3.7903  0.7651
 9486SOL     OW40093   1.990   1.554   3.011 -0.8888  0.2954  0.2009
 9486SOL    HW140094   1.898   1.574   3.028 -1.2554 -0.0573 -1.3811
 9486SOL    HW240095   1.976   1.480   2.952 -1.0662  1.6969 -1.5170
 9487SOL     OW40096   3.270   1.774  10.884  0.6025 -0.1594  0.4369
 9487SOL    HW140097   3.302   1.726  10.961  1.6743  0.3475  0.3050
 9487SOL    HW240098   3.241   1.694  10.840  0.2861 -0.3921  1.0553
 9488SOL     OW40099   0.854   1.698  16.503 -0.1456 -0.2614 -0.1790
 9488SOL    HW140100   0.839   1.604  16.504  1.2353 -0.5102 -2.9065
 9488SOL    HW240101   0.949   1.701  16.499  0.0164 -0.3612  3.9736
 9489SOL     OW40102   2.505   4.235  16.445  0.5093 -0.3520 -0.4316
 9489SOL    HW140103   2.456   4.186  16.511  1.3534 -0.1784  0.3275
 9489SOL    HW240104   2.596   4.228  16.475 -0.7353 -0.1397  3.4178
 9490SOL     OW40105   3.954   4.298   5.384  0.2072 -0.3123  0.7648
 9490SOL    HW140106   4.007   4.287   5.463  0.6089 -1.7457  0.2903
 9490SOL    HW240107   4.021   4.300   5.316  0.3785  2.4175  1.0240
 9491SOL     OW40108   0.537   3.451   2.496  0.3407  0.2335  0.4950
 9491SOL    HW140109   0.553   3.545   2.484 -0.4571  0.3251  0.1890
 9491SOL    HW240110   0.587   3.436   2.577 -1.5085  0.9456  1.7682
 9492SOL     OW40111   3.220   3.334   2.001  0.3475 -0.1017  0.2398
 9492SOL    HW140112   3.215   3.256   2.056 -1.2072  1.9991  3.0825
 9492SOL    HW240113   3.314   3.353   2.002  0.2837  0.3106 -1.0980
 9493SOL     OW40114   1.940   0.800  10.738 -0.1021  0.7877  0.3839
 9493SOL    HW140115   2.028   0.827  10.765  0.6434  0.2510 -1.5257
 9493SOL    HW240116   1.952   0.752  10.657  0.3832  1.1906  0.2102
 9494SOL     OW40117   4.405   1.890   8.328  0.2061  0.6628 -0.0036
 9494SOL    HW140118   4.357   1.971   8.309 -0.9893  0.4493  2.1306
 9494SOL    HW240119   4.436   1.907   8.417 -0.9470  0.0219  0.5146
 9495SOL     OW40120   4.568   2.483   4.328  0.1653  0.0883  0.6278
 9495SOL    HW140121   4.562   2.524   4.241  0.3158  1.5689  1.3151
 9495SOL    HW240122   4.662   2.488   4.344  0.5244  0.9080 -1.6161
 9496SOL     OW40123   2.111   3.643  11.147  0.1139 -0.4930  0.0927
 9496SOL    HW140124   2.085   3.580  11.215 -0.6286 -1.3296 -0.9773
 9496SOL    HW240125   2.162   3.711  11.191 -0.8092  0.8129 -0.8558
 9497SOL     OW40126   4.161   2.920   7.072 -0.4882  0.2962 -0.5053
 9497SOL    HW140127   4.134   2.965   7.152 -2.1282 -1.8558  0.1617
 9497SOL    HW240128   4.210   2.993   7.033 -1.0222  0.6481 -0.5279
 9498SOL     OW40129   3.575   2.805   7.969  0.2521 -0.2995 -0.3772
 9498SOL    HW140130   3.658   2.803   8.015 -0.0542  0.5165  0.2117
 9498SOL    HW240131   3.566   2.898   7.946 -0.1916 -0.0299  0.8785
 9499SOL     OW40132   1.821   4.346   9.080 -0.3441 -0.0068 -0.2206
 9499SOL    HW140133   1.898   4.391   9.115 -0.0178 -0.9685  0.3009
 9499SOL    HW240134   1.846   4.263   9.039 -3.1027  0.3520 -2.6731
 9500SOL     OW40135   1.168   3.650   2.149  0.2757 -0.4612 -0.1099
 9500SOL    HW140136   1.100   3.714   2.169  0.3587 -0.3205 -0.2783
 9500SOL    HW240137   1.213   3.656   2.233  0.7776  1.0740 -0.4835
 9501SOL     OW40138   3.382   0.244   1.130 -0.0669  0.2391 -0.3918
 9501SOL    HW140139   3.423   0.321   1.090 -0.5882  1.0630  0.6750
 9501SOL    HW240140   3.360   0.196   1.050 -0.8604  0.6502 -0.4195
 9502SOL     OW40141   2.311   3.872   9.387 -0.4674  0.4138  0.1402
 9502SOL    HW140142   2.310   3.859   9.482  2.0891 -1.2177 -0.0593
 9502SOL    HW240143   2.249   3.804   9.362  0.1416  0.2367 -0.8895
 9503SOL     OW40144   0.402   1.518  17.325  0.7040 -0.4198  0.4064
 9503SOL    HW140145   0.401   1.444  17.264  5.3496 -0.1385 -0.0228
 9503SOL    HW240146   0.442   1.573  17.258 -0.2049  1.1350  1.1587
 9504SOL     OW40147   2.522   1.277   5.549  0.1492 -0.2133 -0.3113
 9504SOL    HW140148   2.568   1.266   5.466 -1.5115  0.9491 -1.3832
 9504SOL    HW240149   2.523   1.187   5.580  1.6890 -0.1843 -0.2899
 9505SOL     OW40150   0.289   1.942   4.845 -0.6150 -0.2632 -0.1326
 9505SOL    HW140151   0.199   1.943   4.814  0.0835 -1.9987 -2.2521
 9505SOL    HW240152   0.313   1.850   4.844  0.7808  0.0895  0.9030
 9506SOL     OW40153   4.007   3.364  15.811 -0.1114 -0.3925  0.2150
 9506SOL    HW140154   3.943   3.429  15.838 -1.4815 -1.6018 -0.1027
 9506SOL    HW240155   4.045   3.351  15.898 -1.5216  1.2070  1.0540
 9507SOL     OW40156   4.151   1.675   0.272  0.1445 -0.1612  0.4611
 9507SOL    HW140157   4.221   1.695   0.333 -0.0258  0.1984  0.5406
 9507SOL    HW240158   4.135   1.768   0.255 -0.6684 -0.3694  0.0850
 9508SOL     OW40159   4.468   3.248   7.743  0.0272  0.0371 -0.2502
 9508SOL    HW140160   4.411   3.325   7.736 -0.6211 -0.4015  0.2221
 9508SOL    HW240161   4.461   3.205   7.658  0.5664  0.2968 -0.4264
 9509SOL     OW40162   0.247   1.753   2.499 -1.1332  0.4348 -0.8914
 9509SOL    HW140163   0.207   1.840   2.507 -0.1958  0.8530 -0.6672
 9509SOL    HW240164   0.292   1.750   2.583  0.6440 -0.4480 -1.8724
 9510SOL     OW40165   1.263   2.062   8.012 -0.4317 -0.0904  0.5977
 9510SOL    HW140166   1.357   2.063   7.995 -0.4040 -0.6002  0.7234
 9510SOL    HW240167   1.259   2.013   8.095 -2.5877 -0.0832  0.4936
 9511SOL     OW40168   2.654   3.565   4.066  0.2077 -0.6358  0.1712
 9511SOL    HW140169   2.684   3.550   3.977 -0.3932 -2.1648  0.2204
 9511SOL    HW240170   2.637   3.478   4.102 -0.4026 -1.1943 -1.4840
 9512SOL     OW40171   2.069   1.163   3.899 -0.6351  0.3158  0.2816
 9512SOL    HW140172   2.007   1.107   3.945 -1.5422  1.6625  0.6815
 9512SOL    HW240173   2.015   1.240   3.884 -0.8693  0.3689  1.4187
 9513SOL     OW40174   1.382   3.365  13.360  0.0586  0.1224 -0.1462
 9513SOL    HW140175   1.346   3.380  13.448  2.5709 -0.5466  1.0097
 9513SOL    HW240176   1.415   3.275  13.367  1.6060  0.5449 -1.8411
 9514SOL     OW40177   2.813   2.021  11.932 -0.2517  0.1187 -0.2759
 9514SOL    HW140178   2.879   2.087  11.912  0.5733 -0.9844 -1.2232
 9514SOL    HW240179   2.748   2.072  11.981  0.4853 -1.0467  1.9087
 9515SOL     OW40180   2.051   1.881   7.571 -0.1318  0.5457 -0.2077
 9515SOL    HW140181   2.097   1.797   7.570 -2.5772 -0.8088  1.5569
 9515SOL    HW240182   2.000   1.886   7.491 -0.9109  1.4163  0.3410
 9516SOL     OW40183   2.881   2.102  11.298 -0.4230  0.3311 -0.6953
 9516SOL    HW140184   2.816   2.100  11.367  0.8080 -1.2712  0.4329
 9516SOL    HW240185   2.888   2.007  11.285 -0.2137  0.6631 -3.0231
 9517SOL     OW40186   2.590   1.129   6.949  0.0808  0.1081 -0.5196
 9517SOL    HW140187   2.600   1.208   7.003 -0.9956  0.2628 -0.5450
 9517SOL    HW240188   2.665   1.138   6.890  0.3668 -0.9602 -0.3073
 9518SOL     OW40189   0.193   3.977   3.822 -0.4166  0.5950  0.1151
 9518SOL    HW140190   0.286   3.963   3.840 -0.1902  2.3517  0.3326
 9518SOL    HW240191   0.152   3.898   3.856  2.1785 -1.9855 -2.7019
 9519SOL     OW40192   0.690   1.402  15.929 -0.1768  0.0736  0.4517
 9519SOL    HW140193   0.643   1.413  15.846 -0.8677 -1.9809  0.5760
 9519SOL    HW240194   0.660   1.479  15.978 -1.4234 -0.4916  0.5881
 9520SOL     OW40195   1.836   2.406  14.375  0.2268 -0.0991 -0.3821
 9520SOL    HW140196   1.878   2.386  14.459  0.0054 -0.9341 -0.4685
 9520SOL    HW240197   1.747   2.377  14.394  0.0490  1.1137  0.5861
 9521SOL     OW40198   0.763   1.017   3.409  0.1601 -0.0528 -0.5708
 9521SOL    HW140199   0.708   1.079   3.362  2.0301  2.7637  0.9993
 9521SOL    HW240200   0.770   1.053   3.497 -0.3529 -0.7099 -0.2638
 9522SOL     OW40201   1.270   1.087   5.199  0.6773  0.2765 -0.0839
 9522SOL    HW140202   1.322   1.158   5.237  1.9605 -0.5407 -0.2871
 9522SOL    HW240203   1.205   1.080   5.269  0.8693 -0.4577  0.0235
 9523SOL     OW40204   0.272   1.116   2.371  0.3071 -0.2119 -0.2990
 9523SOL    HW140205   0.229   1.041   2.411  0.6667 -1.0380 -1.4408
 9523SOL    HW240206   0.212   1.189   2.387 -1.2565 -1.4155 -0.6034
 9524SOL     OW40207   3.555   1.327  10.364 -0.3939 -0.2273 -0.0178
 9524SOL    HW140208   3.618   1.331  10.436 -1.1917 -0.6527  0.6932
 9524SOL    HW240209   3.613   1.303  10.292  0.7525  0.6176  0.6149
 9525SOL     OW40210   2.011   1.421   3.275 -0.0936 -0.7420  0.5674
 9525SOL    HW140211   2.008   1.503   3.324  3.9522  0.7314 -1.6732
 9525SOL    HW240212   2.051   1.448   3.192  1.6034  2.4452  2.4424
 9526SOL     OW40213   1.118   3.160   6.279  0.3346 -0.3954 -0.0142
 9526SOL    HW140214   1.075   3.233   6.236 -0.1154 -1.4922 -1.4217
 9526SOL    HW240215   1.208   3.191   6.274 -0.6220  2.4536  0.7159
 9527SOL     OW40216   1.258   4.201   6.774  0.0588 -0.4614 -0.1727
 9527SOL    HW140217   1.170   4.165   6.769 -0.1787 -0.1226  1.4962
 9527SOL    HW240218   1.273   4.200   6.868  0.9737 -1.3436 -0.3243
 9528SOL     OW40219   4.400   1.536  10.663 -0.5297  0.2388  0.4254
 9528SOL    HW140220   4.386   1.576  10.577 -0.2077 -0.0013  0.2584
 9528SOL    HW240221   4.353   1.453  10.656 -0.2406  0.1345 -0.2513
 9529SOL     OW40222   2.955   3.641   1.808  0.3840 -0.1339  0.4305
 9529SOL    HW140223   3.021   3.710   1.806  2.2432 -1.9246 -0.0279
 9529SOL    HW240224   2.897   3.678   1.742 -1.2175  0.5745  2.2452
 9530SOL     OW40225   1.590   3.061   7.168 -0.4894 -0.0428  0.3791
 9530SOL    HW140226   1.531   3.137   7.160  0.1919  0.7373  2.8221
 9530SOL    HW240227   1.524   2.998   7.196 -0.7385  0.5774  1.1924
 9531SOL     OW40228   0.889   3.498   7.335  0.2310 -0.2662  0.3688
 9531SOL    HW140229   0.834   3.515   7.412  0.9611  1.8063  0.4144
 9531SOL    HW240230   0.954   3.568   7.336  0.3341 -0.3284 -2.2733
 9532SOL     OW40231   4.641   4.310   7.850 -0.3432  0.1227  0.1118
 9532SOL    HW140232   4.644   4.365   7.772  2.4616  0.3099  0.3499
 9532SOL    HW240233   4.583   4.367   7.899  1.3694  1.3584  0.6844
 9533SOL     OW40234   0.518   4.735   3.180 -0.4384 -0.2709 -0.0544
 9533SOL    HW140235   0.476   4.669   3.236  0.3193  1.1352  2.1808
 9533SOL    HW240236   0.577   0.032   3.246 -1.1066  1.6115 -0.4693
 9534SOL     OW40237   4.608   2.372   4.658 -0.1461 -0.1104 -0.5861
 9534SOL    HW140238   4.565   2.426   4.592  1.8637 -0.8303 -2.4597
 9534SOL    HW240239   4.643   2.296   4.612  2.2103  0.2709  0.5279
 9535SOL     OW40240   3.648   2.374   0.604 -0.3767 -0.4495  0.0112
 9535SOL    HW140241   3.741   2.383   0.627  0.0430  2.9084 -3.0273
 9535SOL    HW240242   3.610   2.458   0.630  0.2616  0.1091 -0.8557
 9536SOL     OW40243   3.678   3.642  10.816 -0.1910  0.7878  0.0411
 9536SOL    HW140244   3.585   3.663  10.806  0.0779  0.4115 -3.4406
 9536SOL    HW240245   3.671   3.550  10.841  1.2668  0.5869 -0.2669
 9537SOL     OW40246   0.627   0.470  13.927  0.2185  0.2040 -0.1161
 9537SOL    HW140247   0.602   0.491  14.017  0.3419 -0.2614  0.0249
 9537SOL    HW240248   0.722   0.474  13.938  0.3988 -0.6417 -1.3491
 9538SOL     OW40249   0.479   3.638  12.491  0.3196 -0.0078 -0.3720
 9538SOL    HW140250   0.516   3.593  12.567 -0.4587  0.9051  0.5584
 9538SOL    HW240251   0.545   3.706  12.479  0.9534 -0.3289  1.2238
 9539SOL     OW40252   1.859   1.258   3.626  0.5033 -0.6227 -0.3370
 9539SOL    HW140253   1.781   1.227   3.673 -1.3351  2.0231 -1.6028
 9539SOL    HW240254   1.834   1.350   3.613  1.6465 -0.2530  0.0323
 9540SOL     OW40255   2.394   0.062   5.158 -0.1873 -0.0707  0.2414
 9540SOL    HW140256   2.312   0.026   5.193 -0.5880 -1.9282 -2.5510
 9540SOL    HW240257   2.397   0.142   5.210 -3.8917  0.3756 -0.2341
 9541SOL     OW40258   3.568   0.353   8.247 -0.5813  0.4244  0.9395
 9541SOL    HW140259   3.563   0.354   8.152 -0.9013  0.3411  0.9567
 9541SOL    HW240260   3.510   0.426   8.269  0.1915  1.3573 -0.1261
 9542SOL     OW40261   4.705   0.706   3.675 -0.4164  0.1056 -0.4710
 9542SOL    HW140262   4.658   0.647   3.616 -1.1683  0.5523 -0.3181
 9542SOL    HW240263   4.712   0.789   3.626  2.2730  1.2602  1.8755
 9543SOL     OW40264   3.314   2.068   8.080  0.2382 -0.3299  0.1763
 9543SOL    HW140265   3.365   2.142   8.112  1.2577 -0.6547 -0.6931
 9543SOL    HW240266   3.244   2.070   8.146  0.9606  0.7375  0.9085
 9544SOL     OW40267   1.083   2.422   7.831 -0.2525 -0.5645 -0.9529
 9544SOL    HW140268   1.164   2.375   7.809  0.0736 -0.2950 -0.3200
 9544SOL    HW240269   1.106   2.508   7.866 -1.5477 -1.1614  1.3452
 9545SOL     OW40270   2.742   3.329   9.832 -0.2660 -0.2124 -0.3924
 9545SOL    HW140271   2.717   3.421   9.843  1.1006  0.2703 -1.3494
 9545SOL    HW240272   2.818   3.342   9.776 -0.0245  1.7370  0.3706
 9546SOL     OW40273   1.445   4.093   9.687 -0.0098 -0.1188 -0.8074
 9546SOL    HW140274   1.509   4.025   9.708  0.7898  1.2787  1.2776
 9546SOL    HW240275   1.450   4.097   9.591 -0.4440 -0.0892 -0.8292
 9547SOL     OW40276   3.506   3.264   7.203 -0.6635 -0.4174 -0.4399
 9547SOL    HW140277   3.470   3.314   7.129  0.6809  0.8002 -0.2795
 9547SOL    HW240278   3.562   3.205   7.153 -0.0696  0.2623 -0.5871
 9548SOL     OW40279   1.908   0.891   4.818  0.1195  0.1187 -0.5174
 9548SOL    HW140280   1.822   0.895   4.777 -0.7315 -0.8765  1.1545
 9548SOL    HW240281   1.913   0.974   4.865 -1.4082 -0.2459  0.2669
 9549SOL     OW40282   4.031   1.656   5.752  1.0880 -0.1834  0.2430
 9549SOL    HW140283   4.030   1.605   5.833 -0.4006  0.5597  0.6966
 9549SOL    HW240284   4.107   1.714   5.759 -0.1959  1.4359  0.9912
 9550SOL     OW40285   0.059   1.034   0.273 -0.4640  0.1067  0.2418
 9550SOL    HW140286   0.103   1.014   0.190  0.7429  0.9731  0.6743
 9550SOL    HW240287   0.095   0.961   0.324  0.3059 -0.7913 -1.5625
 9551SOL     OW40288   1.726   3.770  14.046  0.2748 -0.0036  1.0324
 9551SOL    HW140289   1.712   3.789  13.953 -0.8994 -1.5290  0.9103
 9551SOL    HW240290   1.676   3.839  14.090 -1.7799 -0.6626 -0.2529
 9552SOL     OW40291   1.590   4.680   8.581  0.1262  0.3313 -0.3799
 9552SOL    HW140292   1.509   4.670   8.631  0.7721  1.0007  0.8093
 9552SOL    HW240293   1.628   4.593   8.595 -3.0374 -0.6944  1.8069
 9553SOL     OW40294   1.396   3.842  10.911 -0.1546 -0.1694  0.1256
 9553SOL    HW140295   1.303   3.848  10.931  0.1432  0.2155  1.4129
 9553SOL    HW240296   1.411   3.925  10.866 -0.9444 -1.0875 -1.8043
 9554SOL     OW40297   0.921   4.015   7.251 -0.1412 -0.4038  0.2362
 9554SOL    HW140298   0.975   4.092   7.233 -1.7259  1.0506  1.6253
 9554SOL    HW240299   0.855   4.042   7.315 -0.5714 -0.4591 -0.1877
 9555SOL     OW40300   2.844   4.420   3.027 -0.0964  0.0288 -0.0162
 9555SOL    HW140301   2.876   4.474   3.100  1.9043 -1.8510  0.5205
 9555SOL    HW240302   2.799   4.343   3.062  0.3230 -0.5216 -0.6830
 9556SOL     OW40303   1.767   3.070   2.614 -0.0390  0.0987 -0.3371
 9556SOL    HW140304   1.718   3.095   2.692  0.5923  1.9001 -0.5137
 9556SOL    HW240305   1.727   2.988   2.585 -3.0231  0.5509  2.5435
 9557SOL     OW40306   0.979   2.714   2.592  0.1371  0.1743  0.3823
 9557SOL    HW140307   1.008   2.796   2.631  0.8752  0.9030 -1.7257
 9557SOL    HW240308   0.901   2.744   2.545  0.4561 -1.7854 -1.4177
 9558SOL     OW40309   4.586   1.924   8.092 -0.2097 -0.6027  0.2881
 9558SOL    HW140310   4.664   1.869   8.103  0.6000  0.9637  2.4336
 9558SOL    HW240311   4.532   1.879   8.157 -0.5788 -3.0306 -1.7135
 9559SOL     OW40312   1.180   4.137  12.996 -0.0343  0.4847  0.2088
 9559SOL    HW140313   1.253   4.134  12.934 -0.3926 -2.2053 -0.0553
 9559SOL    HW240314   1.149   4.228  12.993  0.1162  0.5446  0.6045
 9560SOL     OW40315   0.972   0.943  16.102  0.1945 -0.4051  0.5958
 9560SOL    HW140316   0.981   1.038  16.111  0.8772 -0.5286  1.2930
 9560SOL    HW240317   0.966   0.926  16.196  2.6465 -0.1313  0.8023
 9561SOL     OW40318   0.401   2.764   2.324  0.5709  0.3240  0.2269
 9561SOL    HW140319   0.437   2.786   2.411  1.9524  0.6045 -0.4098
 9561SOL    HW240320   0.457   2.690   2.301  3.3474  2.7812 -0.9281
 9562SOL     OW40321   1.509   1.628   7.413 -0.8747 -0.1467  0.0098
 9562SOL    HW140322   1.542   1.709   7.451  0.0302 -0.5829  0.1603
 9562SOL    HW240323   1.420   1.654   7.388 -2.2981 -3.4019  1.7574
 9563SOL     OW40324   3.569   2.694   3.181  0.3821 -0.0632  0.4124
 9563SOL    HW140325   3.568   2.735   3.267 -0.7886 -1.6660  1.1456
 9563SOL    HW240326   3.475   2.686   3.163  0.1695  2.5458  0.2430
 9564SOL     OW40327   0.724   3.045   9.016  0.0130  0.4106  0.1139
 9564SOL    HW140328   0.705   2.964   8.968  0.9191  0.8992 -1.0921
 9564SOL    HW240329   0.798   3.074   8.962 -0.2827 -1.0058 -1.0674
 9565SOL     OW40330   1.797   1.680   8.945 -0.0094 -0.2063 -0.0517
 9565SOL    HW140331   1.891   1.660   8.946  0.0967  0.2261 -1.7568
 9565SOL    HW240332   1.777   1.767   8.979 -0.5980 -0.5710  0.5282
 9566SOL     OW40333   3.979   1.486   9.678 -0.1221  0.0330  0.9417
 9566SOL    HW140334   3.980   1.461   9.770  1.3253 -0.6290  0.7436
 9566SOL    HW240335   4.059   1.538   9.670 -2.2540  3.7261  3.5665
 9567SOL     OW40336   1.133   2.620   8.235 -0.3870 -0.3954 -0.3295
 9567SOL    HW140337   1.190   2.545   8.220 -1.0289 -1.5204  2.8874
 9567SOL    HW240338   1.090   2.630   8.151 -0.3048  2.4450 -0.0413
 9568SOL     OW40339   3.706   4.176  13.180 -0.0045  0.3565 -0.1409
 9568SOL    HW140340   3.680   4.174  13.088 -0.8845  1.6325  0.0810
 9568SOL    HW240341   3.637   4.233  13.213 -1.4575 -1.8914  0.6392
 9569SOL     OW40342   4.398   0.235   5.175 -0.3160 -0.1326  0.6534
 9569SOL    HW140343   4.452   0.303   5.134 -1.1337  0.6692  0.8927
 9569SOL    HW240344   4.418   0.260   5.266  1.7497 -0.5387  0.3019
   4.73870   4.73870  17.75274
