Membrane in water
40344
    1TMC1    C1    1   2.605   1.600  11.679 -0.1796 -0.5967  0.5484
    1TMC1    C2    2   2.717   1.676  11.657  0.2527 -0.3736 -0.4845
    1TMC1    C3    3   2.751   1.774  11.750 -0.0221 -0.4486  0.2255
    1TMC1    C4    4   2.534   1.614  11.795  0.3260  1.2175 -0.4878
    1TMC1    C5    5   2.567   1.714  11.884 -0.4015  0.2968  0.4249
    1TMC1    C6    6   2.680   1.793  11.861 -0.0417  0.6950  0.0082
    1TMC1     C    7   2.559   1.495  11.588  0.6049 -0.2269  0.2664
    1TMC1     O    8   2.462   1.425  11.621  0.4026 -0.2788  0.4733
    1TMC1     H    9   2.791   1.638  11.587  0.8367 -2.1047  1.0734
    1TMC1    H1   10   2.455   1.540  11.808  0.8684  0.7984  0.4025
    1TMC1    H2   11   2.710   1.856  11.943  0.3857 -0.3013  0.6182
    1TMC1    C7   12   2.531   1.684  12.019  0.2997 -0.3806  0.2033
    1TMC1    C8   13   2.875   1.842  11.739  0.7000  1.0157  0.0516
    1TMC1    O1   14   2.601   1.717  12.115  0.0552  0.4702 -0.1721
    1TMC1    O2   15   2.917   1.923  11.822  0.1708 -0.2756 -0.2187
    1TMC1    O3   16   2.405   1.626  12.016 -0.0124  0.0021 -0.3691
    1TMC1    H3   17   2.353   1.630  11.932  1.8768  4.2012 -1.3577
    1TMC1    O5   18   2.883   1.850  11.604  0.1698  0.5072 -0.8990
    1TMC1    H5   19   2.851   1.774  11.552  0.7577  0.3843 -1.0778
    2MPD2     C   20   2.623   1.230  11.151 -0.4961 -0.3820 -0.3977
    2MPD2    C1   21   2.558   1.202  11.267  0.0390  0.6372  0.2095
    2MPD2    C2   22   2.550   1.293  11.372  0.8801 -0.1301  0.6291
    2MPD2    C3   23   2.608   1.419  11.357 -0.5310 -0.1572  0.5234
    2MPD2    C4   24   2.673   1.442  11.237 -0.2595  0.3997  0.8254
    2MPD2    C5   25   2.682   1.347  11.137 -0.4289 -0.0608  0.3288
    2MPD2     H   26   2.487   1.274  11.458  0.0946  1.5125  0.4262
    2MPD2    H1   27   2.706   1.543  11.219  3.1451 -0.3169  2.9613
    2MPD2    H2   28   2.624   1.160  11.069 -0.6450  0.1032 -0.8111
    2MPD2    H3   29   2.720   1.378  11.040  0.0962 -0.3818  0.4325
    2MPD2     N   30   2.610   1.513  11.461 -0.1565 -0.8470 -0.1351
    2MPD2    H5   31   2.666   1.596  11.444  0.2319 -1.0582  0.1162
    2MPD2    N1   32   2.489   1.089  11.307 -0.0990 -0.3812  0.0344
    2MPD2    H7   33   2.456   1.084  11.403  1.6189  2.0215  0.7465
    3TMC1    C1   34   2.805   2.056  10.705 -0.6890  0.9560  0.2995
    3TMC1    C2   35   2.889   2.004  10.602 -0.3010  0.3761  0.1096
    3TMC1    C3   36   3.024   1.987  10.620 -0.7505  0.0758 -0.1416
    3TMC1    C4   37   2.862   2.089  10.824  0.6215  0.3152  0.9328
    3TMC1    C5   38   2.996   2.077  10.837 -0.5131 -0.2214  0.0463
    3TMC1    C6   39   3.078   2.036  10.740 -0.5401 -0.3379 -0.0377
    3TMC1     C   40   2.663   2.052  10.695  0.1065  0.7649  0.0526
    3TMC1     O   41   2.601   1.957  10.648 -0.2199  0.3389  0.1572
    3TMC1     H   42   2.844   1.982  10.506 -1.2629 -0.8275  0.8429
    3TMC1    H1   43   2.799   2.129  10.903 -1.0844 -1.3622  0.4195
    3TMC1    H2   44   3.185   2.043  10.755 -0.5076 -1.7613  0.4332
    3TMC1    C7   45   3.052   2.076  10.970 -0.4664 -0.2201 -0.2823
    3TMC1    C8   46   3.111   1.978  10.504  0.4012 -0.1439 -0.3822
    3TMC1    O1   47   2.999   2.125  11.070  0.3465  0.3415  0.1162
    3TMC1    O2   48   3.093   2.036  10.393  0.0416 -0.4712  0.0822
    3TMC1    O3   49   3.124   1.964  10.976 -0.3184 -0.7793 -0.2160
    3TMC1    H3   50   3.159   1.931  10.891  0.3491  0.1643 -0.3066
    3TMC1    O5   51   3.231   1.939  10.558  0.5821  0.9574  0.3237
    3TMC1    H5   52   3.224   1.900  10.648 -0.1967  0.0448 -0.1289
    4MPD2     C   53   2.217   2.265  10.837  0.0595  0.7781  0.2321
    4MPD2    C1   54   2.318   2.362  10.825 -0.0031  0.5285 -0.6370
    4MPD2    C2   55   2.442   2.327  10.790  0.3663  0.4777  0.6790
    4MPD2    C3   56   2.478   2.197  10.773 -0.1956 -0.1963 -0.2941
    4MPD2    C4   57   2.387   2.103  10.787  0.2750 -0.1037  1.0797
    4MPD2    C5   58   2.256   2.131  10.817  0.4924  0.3512 -0.1304
    4MPD2     H   59   2.514   2.408  10.783  0.1263  0.7406  1.2073
    4MPD2    H1   60   2.421   2.000  10.778 -2.9118 -1.2698  2.5994
    4MPD2    H2   61   2.111   2.281  10.854 -0.0747  1.5438 -1.2957
    4MPD2    H3   62   2.187   2.049  10.834  0.2510  0.0127 -2.6789
    4MPD2     N   63   2.613   2.171  10.744  0.5618  0.0027 -0.5535
    4MPD2    H5   64   2.683   2.242  10.760 -1.7520  2.1756 -0.0940
    4MPD2    N1   65   2.288   2.500  10.833  0.5270 -0.9702 -0.3158
    4MPD2    H7   66   2.364   2.565  10.818 -1.2409  1.0254 -0.6238
    5TCq1    O1   67   4.132   3.474  11.687 -0.0317 -0.0302 -0.1383
    5TCq1    C1   68   4.036   3.485  11.780 -0.6441  0.1101  0.1271
    5TCq1    O2   69   4.057   3.474  11.901 -0.0163 -0.6867  0.2486
    5TCq1    C2   70   3.933   3.575  11.726  0.4444 -0.2616 -0.5857
    5TCq1    C3   71   3.867   3.655  11.807 -0.3164 -0.4427 -0.3536
    5TCq1    C4   72   3.773   3.741  11.767 -0.5653  0.0669 -0.4675
    5TCq1    C5   73   3.727   3.740  11.634  0.1102 -0.2884 -0.6773
    5TCq1    C6   74   3.789   3.644  11.558  0.6971  0.4633 -0.1179
    5TCq1    C7   75   3.891   3.555  11.603  0.3760  0.2379  1.1560
    5TCq1    C8   76   3.746   3.616  11.426  0.2734 -0.1295  0.2193
    5TCq1    O4   77   3.811   3.538  11.354 -0.0408  0.2594 -0.4456
    5TCq1    C9   78   3.702   3.826  11.859  0.5418 -1.0100  0.6811
    5TCq1    O5   79   3.746   3.834  11.978 -0.0823  0.3030  0.3514
    5TCq1    O6   80   3.581   3.838  11.832 -0.0180 -0.0549 -0.1375
    5TCq1    H1   81   4.108   3.510  11.599  2.5366  0.9677 -0.4418
    5TCq1    H2   82   3.889   3.661  11.913 -1.2630 -2.0102 -0.0739
    5TCq1    H3   83   3.638   3.798  11.611 -1.1032 -1.9587 -0.2156
    5TCq1    H4   84   3.924   3.466  11.551 -0.3335  0.3251  0.5534
    6MPD2     C   85   3.485   3.811  11.254  0.1785 -0.1200 -0.1228
    6MPD2    C1   86   3.581   3.715  11.262  0.3770 -0.0057 -0.2659
    6MPD2    C2   87   3.611   3.640  11.148  0.4863 -0.0689  0.0093
    6MPD2    C3   88   3.555   3.675  11.029 -0.9984 -0.0134  0.6313
    6MPD2    C4   89   3.457   3.772  11.033  0.3029  0.1305 -0.4773
    6MPD2    C5   90   3.426   3.838  11.140  0.4543  0.5490  0.2215
    6MPD2     H   91   3.693   3.569  11.149 -1.0236 -1.8302 -2.8346
    6MPD2    H1   92   3.395   3.789  10.945 -0.3894 -1.2288 -0.2464
    6MPD2    H2   93   3.449   3.868  11.339 -0.8810 -2.2733  0.8717
    6MPD2    H3   94   3.343   3.908  11.134  0.0084 -0.0708 -0.7257
    6MPD2     N   95   3.580   3.595  10.913  0.4872  0.2885 -0.3903
    6MPD2    H5   96   3.653   3.524  10.919  1.2992  1.0138 -1.8702
    6MPD2    N1   97   3.634   3.696  11.392 -0.9252 -0.0090  0.1212
    6MPD2    H7   98   3.593   3.752  11.467 -1.7041 -1.3971  0.7328
    7TCq1    O1   99   0.125   3.032  13.964  0.1532  0.3222 -0.2404
    7TCq1    C1  100   0.155   3.137  13.880  0.0831 -0.1967  0.6704
    7TCq1    O2  101   0.082   3.235  13.872 -0.0635  0.0301 -0.0832
    7TCq1    C2  102   0.216   3.080  13.765 -0.2470  0.0956 -0.1099
    7TCq1    C3  103   0.176   3.137  13.644 -0.6672  0.6069  0.4644
    7TCq1    C4  104   0.233   3.086  13.530  0.5211  0.4813  0.4062
    7TCq1    C5  105   0.343   3.004  13.532  0.1517 -0.9664  0.0981
    7TCq1    C6  106   0.387   2.970  13.659 -0.2120  0.3153 -0.2144
    7TCq1    C7  107   0.327   3.006  13.779 -1.0996 -0.1744 -0.3912
    7TCq1    C8  108   0.494   2.870  13.670  0.4972 -0.2738 -0.4210
    7TCq1    O4  109   0.487   2.799  13.769  0.5089 -0.2000 -0.6146
    7TCq1    C9  110   0.175   3.115  13.402 -0.6332 -0.1988  0.4511
    7TCq1    O5  111   0.244   3.090  13.301 -0.2936  0.1254  0.2381
    7TCq1    O6  112   0.069   3.186  13.394 -0.0693  0.6882 -0.6782
    7TCq1    H1  113   0.190   2.959  13.964 -0.8547 -0.5629  1.3597
    7TCq1    H2  114   0.085   3.196  13.640 -0.2794  1.2055  0.4185
    7TCq1    H3  115   0.370   2.959  13.438  0.8945 -0.2879 -0.0175
    7TCq1    H4  116   0.388   2.987  13.867 -1.3433  0.8394 -0.0093
    8MPD2     C  117   0.780   2.519  13.430  0.4392 -0.5722 -0.5215
    8MPD2    C1  118   0.729   2.516  13.561 -0.1070  0.0028 -0.9036
    8MPD2    C2  119   0.660   2.633  13.606 -0.3412 -0.3326 -0.0676
    8MPD2    C3  120   0.647   2.748  13.521  0.5267 -0.4828 -0.0734
    8MPD2    C4  121   0.704   2.745  13.393 -0.8604  0.0435  0.2002
    8MPD2    C5  122   0.775   2.637  13.353  0.8402  0.6851 -0.4038
    8MPD2     H  123   0.609   2.628  13.701 -0.3412 -1.3321 -0.1221
    8MPD2    H1  124   0.689   2.825  13.322 -1.6471 -1.1288 -0.9393
    8MPD2    H2  125   0.834   2.438  13.382  2.2771 -0.8363  2.0000
    8MPD2    H3  126   0.825   2.625  13.257 -0.4049  4.1209 -1.4717
    8MPD2     N  127   0.570   2.857  13.556  0.2023 -0.1322  0.4879
    8MPD2    H5  128   0.541   2.930  13.491 -0.9487  1.0418  2.3321
    8MPD2    N1  129   0.743   2.403  13.646  0.2004  0.0480 -0.7058
    8MPD2    H7  130   0.803   2.330  13.609  1.2601  0.6383 -0.1274
    9TMC1    C1  131   2.165   2.257  12.437  0.4342 -0.3487 -0.4365
    9TMC1    C2  132   2.028   2.268  12.440  0.1798  0.0380 -0.3083
    9TMC1    C3  133   1.966   2.388  12.432  0.0884  0.1892  0.3149
    9TMC1    C4  134   2.241   2.366  12.409  0.0376  0.0569 -0.1157
    9TMC1    C5  135   2.180   2.487  12.385  0.2017 -0.0351  0.6731
    9TMC1    C6  136   2.048   2.498  12.402  0.3951 -0.4290  0.4305
    9TMC1     C  137   2.231   2.129  12.455 -0.4488 -0.2352 -0.2527
    9TMC1     O  138   2.177   2.025  12.423 -0.1144 -0.5921 -0.2661
    9TMC1     H  139   1.966   2.180  12.456  0.7496  0.0246  1.8744
    9TMC1    H1  140   2.346   2.345  12.393  0.1528 -0.4803  1.3546
    9TMC1    H2  141   1.999   2.591  12.377  2.1210  0.2840 -0.2995
    9TMC1    C7  142   2.259   2.603  12.414 -0.1055  0.0247 -0.3305
    9TMC1    C8  143   1.830   2.405  12.467 -0.3902 -0.0860 -0.2847
    9TMC1    O1  144   2.214   2.716  12.436 -0.0192  0.2433 -0.6108
    9TMC1    O2  145   1.771   2.506  12.436 -0.1366 -0.2410  0.2066
    9TMC1    O3  146   2.392   2.594  12.391  0.3658 -0.2620  0.8896
    9TMC1    H3  147   2.426   2.505  12.365  0.5054  1.0035 -3.2646
    9TMC1    O5  148   1.790   2.338  12.572  0.1242  0.4400 -0.4866
    9TMC1    H5  149   1.843   2.262  12.602 -1.2174 -0.9448 -1.6599
   10MPD2     C  150   2.542   2.074  12.659 -0.5642  0.0890  0.5223
   10MPD2    C1  151   2.432   2.039  12.579  0.2267 -0.0569 -0.7506
   10MPD2    C2  152   2.423   1.907  12.536 -0.7755  0.1332  0.0698
   10MPD2    C3  153   2.523   1.817  12.582  0.0787  0.8517 -0.3914
   10MPD2    C4  154   2.630   1.861  12.653  0.3661 -0.0439 -0.0564
   10MPD2    C5  155   2.639   1.990  12.697  0.0499 -0.6651  0.0224
   10MPD2     H  156   2.341   1.882  12.470 -0.7212 -1.4320  0.5824
   10MPD2    H1  157   2.712   1.792  12.675  1.0853  0.8284 -0.0014
   10MPD2    H2  158   2.553   2.173  12.703  1.4748  0.0099  0.1889
   10MPD2    H3  159   2.723   2.015  12.761  1.3697 -0.9392 -1.5886
   10MPD2     N  160   2.522   1.684  12.538 -0.0453  0.2729 -0.5070
   10MPD2    H5  161   2.606   1.631  12.559  0.0437  1.5676  2.4000
   10MPD2    N1  162   2.339   2.143  12.535 -0.7566 -0.2358  0.2469
   10MPD2    H7  163   2.360   2.235  12.574  0.6069 -1.2558  1.9407
   11TCq1    O1  164   3.830   2.435  13.222 -0.0266  0.2775 -0.7807
   11TCq1    C1  165   3.732   2.457  13.310 -0.2028  0.1164 -0.2140
   11TCq1    O2  166   3.659   2.555  13.319 -0.4138 -0.0546  0.1688
   11TCq1    C2  167   3.736   2.357  13.417  0.1486  0.0665  0.1299
   11TCq1    C3  168   3.843   2.293  13.464  0.0974  0.0129 -0.1056
   11TCq1    C4  169   3.829   2.186  13.550 -0.5805 -0.0622  0.6364
   11TCq1    C5  170   3.705   2.152  13.602 -0.1596 -0.6595 -0.0460
   11TCq1    C6  171   3.595   2.228  13.562  0.3178 -0.8110  0.1642
   11TCq1    C7  172   3.612   2.336  13.478  0.3806 -0.7897  0.1000
   11TCq1    C8  173   3.462   2.196  13.606  0.6214  0.8499 -0.0692
   11TCq1    O4  174   3.373   2.283  13.598  0.6234  0.1411 -0.1554
   11TCq1    C9  175   3.939   2.098  13.574 -0.7496  0.3562  0.4386
   11TCq1    O5  176   3.907   1.979  13.601  0.0781 -0.4800  0.3879
   11TCq1    O6  177   4.054   2.142  13.540 -0.5521  0.0777  0.0328
   11TCq1    H1  178   3.853   2.341  13.236 -3.3283 -0.3353  0.3684
   11TCq1    H2  179   3.937   2.313  13.413  0.4582  1.8805  1.2673
   11TCq1    H3  180   3.696   2.062  13.661 -1.7298 -1.0116 -0.8274
   11TCq1    H4  181   3.527   2.400  13.459  0.4514 -0.8396 -0.3862
   12MPD2     C  182   3.246   2.105  13.771  0.8886 -0.0949  0.0319
   12MPD2    C1  183   3.328   2.020  13.705  0.6180 -0.9747  0.1479
   12MPD2    C2  184   3.288   1.886  13.711 -0.6294  0.3553  0.1411
   12MPD2    C3  185   3.164   1.844  13.760  0.1910 -0.5550 -0.3822
   12MPD2    C4  186   3.074   1.931  13.815  0.0668 -0.1442  0.8079
   12MPD2    C5  187   3.120   2.065  13.823 -0.4064 -0.3187  0.4368
   12MPD2     H  188   3.355   1.812  13.669 -1.7306 -0.6063  0.0857
   12MPD2    H1  189   2.977   1.915  13.860 -0.2320  0.0868  0.2449
   12MPD2    H2  190   3.279   2.207  13.790  1.4821 -0.6165  1.8506
   12MPD2    H3  191   3.066   2.138  13.881 -0.4533 -0.1781  0.2169
   12MPD2     N  192   3.124   1.709  13.761  0.2354 -0.1539  0.3546
   12MPD2    H5  193   3.026   1.704  13.790 -0.2190  2.4401 -0.7672
   12MPD2    N1  194   3.448   2.065  13.643  0.0473  0.2172 -0.4477
   12MPD2    H7  195   3.523   2.001  13.617 -0.0297  0.1791 -0.5745
   13TCq1    O1  196   2.996   1.313  10.517 -0.1621  0.7995 -0.5719
   13TCq1    C1  197   2.887   1.388  10.529  0.0438 -0.1206 -0.5845
   13TCq1    O2  198   2.773   1.369  10.498  0.0298  0.6775  0.0309
   13TCq1    C2  199   2.927   1.489  10.633 -0.3407  0.1065  0.3498
   13TCq1    C3  200   3.060   1.529  10.659  0.2342 -0.2785 -0.1222
   13TCq1    C4  201   3.088   1.626  10.749 -0.2146 -1.0488 -0.1272
   13TCq1    C5  202   2.986   1.697  10.807  0.1391  0.4543  0.6007
   13TCq1    C6  203   2.857   1.658  10.776 -0.4779  0.0509 -1.0133
   13TCq1    C7  204   2.823   1.563  10.683 -0.5100  0.6978  0.3184
   13TCq1    C8  205   2.756   1.735  10.847  0.0441 -0.2170  0.8052
   13TCq1    O4  206   2.799   1.824  10.918 -0.0378 -0.1946 -0.2357
   13TCq1    C9  207   3.220   1.680  10.768 -0.6039 -0.2280  0.1833
   13TCq1    O5  208   3.318   1.600  10.774  0.2272 -0.3924  0.0831
   13TCq1    O6  209   3.233   1.808  10.790  0.5380 -0.5591 -0.0208
   13TCq1    H1  210   3.078   1.359  10.545  1.9523 -2.6804 -1.0660
   13TCq1    H2  211   3.145   1.487  10.607  3.0582  2.3533  2.3571
   13TCq1    H3  212   3.016   1.762  10.888  0.0583 -0.6603  1.5242
   13TCq1    H4  213   2.724   1.540  10.645 -1.0095  0.0722  2.0229
   14MPD2     C  214   2.395   1.648  10.897 -0.4834 -0.1577 -0.1951
   14MPD2    C1  215   2.515   1.718  10.910 -0.6233 -0.0784  0.0065
   14MPD2    C2  216   2.504   1.835  10.989 -0.3027  0.5181 -0.3115
   14MPD2    C3  217   2.389   1.868  11.057  0.2056 -0.7865 -0.3709
   14MPD2    C4  218   2.272   1.789  11.038  0.1177  0.2670 -0.0896
   14MPD2    C5  219   2.275   1.678  10.963 -0.3519 -0.7800 -0.5259
   14MPD2     H  220   2.593   1.897  10.995 -0.2854  0.6281 -1.8226
   14MPD2    H1  221   2.177   1.815  11.082  0.4067 -1.0917  1.3228
   14MPD2    H2  222   2.391   1.552  10.846  0.5889  0.6523 -1.8003
   14MPD2    H3  223   2.189   1.611  10.963  0.0231 -1.2667  0.4415
   14MPD2     N  224   2.393   1.989  11.140 -0.1640  0.2164  0.6778
   14MPD2    H5  225   2.483   2.034  11.141 -1.0624  1.9926  0.8545
   14MPD2    N1  226   2.633   1.671  10.845 -0.4939 -0.1144  0.8374
   14MPD2    H7  227   2.618   1.595  10.778  2.5598 -1.6680  1.9236
   15TCq1    O1  228   1.392   1.290   1.935 -0.2322 -0.1088 -0.1705
   15TCq1    C1  229   1.334   1.232   1.826 -0.3377 -0.0482  0.6421
   15TCq1    O2  230   1.399   1.208   1.723  0.0776  0.7263 -0.0498
   15TCq1    C2  231   1.188   1.239   1.836  0.3161  0.0305  0.0731
   15TCq1    C3  232   1.132   1.354   1.890 -0.5836  0.0510  0.4905
   15TCq1    C4  233   1.005   1.390   1.868  0.0738 -0.6224  0.8337
   15TCq1    C5  234   0.930   1.301   1.796 -0.5273 -0.5729  0.4060
   15TCq1    C6  235   0.989   1.185   1.749 -0.3238 -0.8607  0.1953
   15TCq1    C7  236   1.120   1.154   1.764  0.6516 -0.5334  0.3549
   15TCq1    C8  237   0.915   1.100   1.657 -0.8045 -0.0455  0.3514
   15TCq1    O4  238   0.969   1.005   1.602  0.2737  0.4108 -0.1838
   15TCq1    C9  239   0.950   1.506   1.928  0.5242  0.6850 -0.9958
   15TCq1    O5  240   1.032   1.585   1.975 -0.2190  0.6906 -0.0234
   15TCq1    O6  241   0.827   1.531   1.928  0.0726 -0.0847 -0.5518
   15TCq1    H1  242   1.337   1.263   2.012  0.1494  1.0958  0.5166
   15TCq1    H2  243   1.188   1.417   1.958 -0.0154 -1.1680  1.1572
   15TCq1    H3  244   0.824   1.325   1.795 -0.5330 -0.5818  1.0935
   15TCq1    H4  245   1.157   1.059   1.727  0.5392 -1.1989  1.9493
   16MPD2     C  246   0.578   1.143   1.526 -0.2821 -0.5268  0.0154
   16MPD2    C1  247   0.693   1.082   1.551  0.0281 -0.4518  0.2112
   16MPD2    C2  248   0.722   0.966   1.489  0.5570  0.3629 -0.2903
   16MPD2    C3  249   0.638   0.906   1.402  0.2675  0.1109  0.1788
   16MPD2    C4  250   0.514   0.966   1.378  0.1845  0.0445  0.1510
   16MPD2    C5  251   0.488   1.085   1.440 -0.1988  0.8621 -0.2037
   16MPD2     H  252   0.817   0.914   1.489  0.0521 -0.5711 -0.4207
   16MPD2    H1  253   0.440   0.921   1.312 -1.9357  2.0700  1.1478
   16MPD2    H2  254   0.550   1.236   1.574  1.0138  0.3857 -1.0047
   16MPD2    H3  255   0.392   1.133   1.424 -0.0120  1.9368  1.9135
   16MPD2     N  256   0.674   0.788   1.338  0.0843  0.0017  0.1023
   16MPD2    H5  257   0.755   0.739   1.374 -0.1510 -1.6904 -1.6889
   16MPD2    N1  258   0.789   1.141   1.637 -0.0007 -0.1854  0.1770
   16MPD2    H7  259   0.761   1.226   1.684 -1.3808 -0.3647 -0.3228
   17TMC1    C1  260   3.308   1.505   9.894  0.0697 -0.7578 -0.6615
   17TMC1    C2  261   3.174   1.518   9.879  0.8599  0.8030 -0.0357
   17TMC1    C3  262   3.118   1.644   9.874 -1.3789 -0.3614 -1.1554
   17TMC1    C4  263   3.393   1.610   9.913 -0.5582 -0.6144 -0.3084
   17TMC1    C5  264   3.335   1.736   9.904 -0.1543  0.0153  0.3094
   17TMC1    C6  265   3.202   1.754   9.891  0.2583 -0.2682 -0.2310
   17TMC1     C  266   3.369   1.373   9.892  0.5839  0.8251  0.2352
   17TMC1     O  267   3.309   1.273   9.846  0.1133 -0.2656  0.5076
   17TMC1     H  268   3.111   1.430   9.873  0.3889  0.9548  2.7077
   17TMC1    H1  269   3.501   1.603   9.900 -0.1188  0.8595  2.3394
   17TMC1    H2  270   3.168   1.856   9.877 -0.2974 -0.3498  0.5089
   17TMC1    C7  271   3.417   1.860   9.895 -0.3906  0.5454  0.3338
   17TMC1    C8  272   2.978   1.650   9.884 -0.2827 -0.1908  0.1306
   17TMC1    O1  273   3.373   1.972   9.871 -0.5188 -0.1890  0.7207
   17TMC1    O2  274   2.902   1.555   9.871 -0.9279  0.1772  0.1052
   17TMC1    O3  275   3.519   1.831   9.977  0.7052 -0.1851  0.1911
   17TMC1    H3  276   3.510   1.741  10.015  1.3435  0.7636  2.5466
   17TMC1    O5  277   2.944   1.773   9.935 -0.1567  0.1077 -0.1644
   17TMC1    H5  278   3.009   1.846   9.945 -0.5318  0.0366  2.8850
   18MPD2     C  279   3.505   1.129  10.003  0.3325 -0.0882  0.0070
   18MPD2    C1  280   3.555   1.259  10.012  0.1098 -0.4063 -0.8646
   18MPD2    C2  281   3.675   1.277  10.088 -0.2950  0.1242  0.8057
   18MPD2    C3  282   3.739   1.176  10.144 -0.2921 -0.0907  0.2550
   18MPD2    C4  283   3.695   1.048  10.109 -0.2918 -0.6937  0.0831
   18MPD2    C5  284   3.570   1.027  10.055  0.3077 -0.3731  0.2897
   18MPD2     H  285   3.708   1.379  10.106 -1.7244  0.4820  1.3898
   18MPD2    H1  286   3.758   0.964  10.138  0.3192  0.6607  2.6623
   18MPD2    H2  287   3.407   1.112   9.958  0.0535  0.7041  0.3050
   18MPD2    H3  288   3.535   0.924  10.056 -0.2652 -0.1722  0.9812
   18MPD2     N  289   3.865   1.188  10.216  0.4585  0.1018  0.3847
   18MPD2    H5  290   3.921   1.106  10.237  0.5104  0.4572  1.6403
   18MPD2    N1  291   3.487   1.372   9.965 -0.4393 -0.4353 -0.0357
   18MPD2    H7  292   3.520   1.463   9.993  0.5931 -0.2275 -1.9387
   19TMC2    C1  293   0.034   1.527  13.802  0.1972 -0.8651  0.2614
   19TMC2    C2  294   0.073   1.607  13.695 -0.3310  0.0649  0.5093
   19TMC2    C3  295   4.733   1.606  13.590 -0.4132 -0.1985 -0.0184
   19TMC2    C4  296   4.669   1.446  13.803 -0.0071  0.1276  0.5230
   19TMC2    C5  297   4.588   1.461  13.699  0.7353  0.5644 -0.0260
   19TMC2    C6  298   4.624   1.526  13.585 -0.0024  0.3896  0.1299
   19TMC2     C  299   0.109   1.536  13.929  0.5502  0.2211 -0.0968
   19TMC2     O  300   0.108   1.429  13.986  0.2022 -0.6882  0.8366
   19TMC2     H  301   0.169   1.657  13.702 -0.4171  0.4077 -0.8094
   19TMC2    H1  302   4.644   1.382  13.886  1.1337 -2.1587 -0.8851
   19TMC2    H2  303   4.566   1.510  13.495 -2.9245 -0.1928  2.1245
   19TMC2    C7  304   4.462   1.385  13.710  0.4523  0.0973  0.2132
   19TMC2    C8  305   0.039   1.664  13.470  0.5276 -0.8181 -0.2839
   19TMC2    O1  306   4.457   1.297  13.795  0.4842  0.9497  0.0447
   19TMC2    O2  307   0.151   1.695  13.441  0.5705 -0.7125 -0.1539
   19TMC2    O5  308   4.664   1.714  13.413  0.4691  0.1135  0.9741
   19TMC2    H5  309   4.581   1.689  13.458 -0.1027  1.9431  0.9386
   20MPD2     C  310   0.124   1.828  14.150  0.4555 -0.1656  0.0676
   20MPD2    C1  311   0.159   1.704  14.105  0.2669  0.2671  1.3851
   20MPD2    C2  312   0.242   1.624  14.182 -0.2762 -0.5921 -0.3453
   20MPD2    C3  313   0.286   1.671  14.307  0.3347  0.4705  0.9803
   20MPD2    C4  314   0.258   1.800  14.349  0.4881  0.2907  0.5913
   20MPD2    C5  315   0.181   1.872  14.265 -0.1943 -0.0125 -0.2210
   20MPD2     H  316   0.260   1.519  14.162  0.3063 -0.1431 -2.2023
   20MPD2    H1  317   0.295   1.844  14.441 -1.6963  2.1977  0.5233
   20MPD2    H2  318   0.074   1.899  14.086  2.5629  0.5852 -0.7222
   20MPD2    H3  319   0.177   1.977  14.294  1.4921  0.3428 -1.2730
   20MPD2     N  320   0.375   1.603  14.386 -0.2613 -0.2557  0.0315
   20MPD2    H5  321   0.386   1.635  14.482  1.2164 -1.9774  0.4434
   20MPD2    N1  322   0.112   1.662  13.980  0.1857  0.8973  0.8683
   20MPD2    H7  323   0.070   1.731  13.918  1.3053 -2.1608 -3.3147
   21TMC2    C1  324   2.202   1.515  14.553 -0.4403 -1.2850 -0.7637
   21TMC2    C2  325   2.225   1.417  14.645 -0.1924 -0.1582  0.0010
   21TMC2    C3  326   2.313   1.442  14.744  0.1634  0.2381 -0.2344
   21TMC2    C4  327   2.251   1.644  14.569 -0.2410  0.5171 -0.7693
   21TMC2    C5  328   2.353   1.659  14.666  0.1429  0.4729 -0.0302
   21TMC2    C6  329   2.379   1.559  14.754  0.0462  0.0566  0.4324
   21TMC2     C  330   2.196   1.474  14.414  0.9045  0.0062  0.1301
   21TMC2     O  331   2.157   1.567  14.343 -0.0724  0.2417 -0.4517
   21TMC2     H  332   2.161   1.330  14.639  0.0765 -0.2851 -1.0554
   21TMC2    H1  333   2.227   1.726  14.503 -1.4307  0.8414  0.0587
   21TMC2    H2  334   2.450   1.575  14.834  0.2526 -2.4729  0.7533
   21TMC2    C7  335   2.419   1.789  14.708  0.5149  0.2827 -0.6702
   21TMC2    C8  336   2.312   1.360  14.862  0.0003 -0.4276 -0.1731
   21TMC2    O1  337   2.476   1.796  14.817  0.2111  0.6555  0.4888
   21TMC2    O2  338   2.222   1.285  14.900  0.5634 -0.7147  0.1237
   21TMC2    O5  339   2.438   1.337  14.885  0.3496 -0.5532  0.0656
   21TMC2    H5  340   2.495   1.396  14.830  0.4301 -1.2386 -0.5844
   22MPD2     C  341   2.427   1.222  14.038 -0.8476 -0.0837 -0.4743
   22MPD2    C1  342   2.474   1.179  14.162 -0.5474 -0.5177  0.2472
   22MPD2    C2  343   2.408   1.207  14.275  0.5606 -0.0406  1.0401
   22MPD2    C3  344   2.297   1.292  14.271  0.0177  0.0379  0.2121
   22MPD2    C4  345   2.236   1.316  14.147  0.2455 -0.1145 -0.0213
   22MPD2    C5  346   2.301   1.278  14.036 -0.6498  0.2221  0.2295
   22MPD2     H  347   2.448   1.183  14.373 -2.4695 -1.2041  1.9645
   22MPD2    H1  348   2.142   1.370  14.146  0.5218  0.3449 -1.2751
   22MPD2    H2  349   2.468   1.193  13.941  0.2677 -1.1273  0.3118
   22MPD2    H3  350   2.251   1.292  13.941  1.4448 -2.2265 -1.2561
   22MPD2     N  351   2.249   1.350  14.394  0.1800 -0.7677 -0.3577
   22MPD2    H5  352   2.294   1.307  14.474  0.6624 -0.3066 -0.3849
   22MPD2    N1  353   2.607   1.133  14.180  0.4486  0.1834 -0.4666
   22MPD2    H7  354   2.634   1.100  14.271  2.2321  0.5912 -0.8528
   23TMC2    C1  355   4.126   2.822  14.465 -0.0285  0.0676  0.1937
   23TMC2    C2  356   4.166   2.874  14.342 -0.2240  0.0115 -0.3464
   23TMC2    C3  357   4.094   2.830  14.233 -0.0640  0.4774 -0.2870
   23TMC2    C4  358   4.016   2.744  14.475  0.1523  0.5097 -0.2762
   23TMC2    C5  359   3.945   2.713  14.357  0.3685 -0.0158  1.0171
   23TMC2    C6  360   3.985   2.754  14.239  0.0313  0.2035 -0.0516
   23TMC2     C  361   4.202   2.855  14.585 -0.1059  0.0789  0.3723
   23TMC2     O  362   4.157   2.797  14.682 -0.2493  0.0648 -0.4022
   23TMC2     H  363   4.262   2.922  14.327  0.2888 -0.5843  1.0552
   23TMC2    H1  364   3.979   2.690  14.561  0.6638  2.1653  0.9686
   23TMC2    H2  365   3.947   2.699  14.153  0.5480  0.7605 -0.6374
   23TMC2    C7  366   3.900   2.579  14.335 -0.6068 -0.0780 -0.1434
   23TMC2    C8  367   4.152   2.838  14.104  0.8617 -0.0590 -0.1561
   23TMC2    O1  368   3.986   2.507  14.283 -0.1759 -0.2569 -0.2829
   23TMC2    O2  369   4.077   2.860  14.012 -0.2108  0.1082 -0.2383
   23TMC2    O5  370   4.233   2.733  14.113  0.0710  0.1559 -0.0554
   23TMC2    H5  371   4.262   2.726  14.206  2.9836 -0.5178 -1.0095
   24MPD2     C  372   4.490   3.150  14.885 -0.0442 -0.1845  0.0229
   24MPD2    C1  373   4.429   3.026  14.908 -0.0445 -0.9344 -0.2739
   24MPD2    C2  374   4.368   2.962  14.800  0.8062 -0.0392 -0.1286
   24MPD2    C3  375   4.351   3.022  14.679  0.0487  0.1758  0.1562
   24MPD2    C4  376   4.423   3.137  14.655  0.2147  0.0216  0.4217
   24MPD2    C5  377   4.491   3.205  14.758  0.0004  0.2267 -0.0002
   24MPD2     H  378   4.332   2.862  14.819 -0.3918  0.4323  0.0804
   24MPD2    H1  379   4.439   3.178  14.556 -0.8060  0.8435  0.5943
   24MPD2    H2  380   4.543   3.192  14.970  0.1087 -0.4492  0.0590
   24MPD2    H3  381   4.549   3.296  14.742 -1.4022  1.1712  0.2814
   24MPD2     N  382   4.295   2.951  14.568 -0.6441 -0.6895  0.1798
   24MPD2    H5  383   4.310   2.988  14.475 -3.4060  0.1956  0.0751
   24MPD2    N1  384   4.432   2.959  15.029 -0.0289  0.1791 -0.7490
   24MPD2    H7  385   4.395   2.866  15.046  0.6871 -0.0574 -0.5129
   25TMC2    C1  386   3.105   4.374  11.557  0.0953  0.4934  0.0653
   25TMC2    C2  387   3.089   4.347  11.422  0.5704  0.2387  0.5057
   25TMC2    C3  388   3.120   4.447  11.325  0.2168 -0.6994  0.4179
   25TMC2    C4  389   3.151   4.495  11.594  0.0256 -0.1497 -0.0487
   25TMC2    C5  390   3.178   4.599  11.503  0.3156 -0.2777 -0.5511
   25TMC2    C6  391   3.173   4.567  11.370 -0.4849  0.2359 -0.6171
   25TMC2     C  392   3.023   4.308  11.655 -0.9887 -0.2295 -0.8527
   25TMC2     O  393   3.061   4.300  11.770 -0.0781 -0.1856 -0.5821
   25TMC2     H  394   3.071   4.246  11.384  1.2156  0.0497  0.6995
   25TMC2    H1  395   3.172   4.505  11.700 -2.3259  1.6973  0.2579
   25TMC2    H2  396   3.230   4.634  11.307 -0.0214 -1.2952 -1.8485
   25TMC2    C7  397   3.110   4.718  11.524 -0.1289  0.0242  0.6315
   25TMC2    C8  398   3.159   4.402  11.194 -0.4075 -0.0066 -0.2468
   25TMC2    O1  399   3.083   0.049  11.428 -0.2151  0.1126  0.5413
   25TMC2    O2  400   3.170   4.283  11.157 -0.1463  0.3215  0.1639
   25TMC2    O5  401   3.124   4.504  11.111 -0.2477 -0.3631  0.3658
   25TMC2    H5  402   3.082   4.581  11.154 -2.1919 -0.3424 -1.5541
   26MPD2     C  403   2.536   4.216  11.793 -0.0707 -0.4564  1.0776
   26MPD2    C1  404   2.545   4.224  11.653 -0.3266 -0.4168 -0.0671
   26MPD2    C2  405   2.667   4.235  11.593  0.5511  0.4344  0.0543
   26MPD2    C3  406   2.780   4.243  11.665 -0.2230 -0.5854 -0.4658
   26MPD2    C4  407   2.773   4.240  11.804  0.2109 -0.1476 -0.1246
   26MPD2    C5  408   2.648   4.225  11.870  0.4023  0.1507 -0.8951
   26MPD2     H  409   2.676   4.243  11.485  1.3081  0.0071  0.0906
   26MPD2    H1  410   2.855   4.266  11.869  0.0603  0.4135 -0.1588
   26MPD2    H2  411   2.440   4.214  11.844 -0.8843  0.6539 -0.4299
   26MPD2    H3  412   2.644   4.242  11.977 -1.0516  1.1136 -1.1024
   26MPD2     N  413   2.901   4.280  11.594  0.7461  0.2021 -0.0701
   26MPD2    H5  414   2.890   4.306  11.497 -1.8515  2.2643  0.7913
   26MPD2    N1  415   2.422   4.224  11.574 -0.5783 -0.5406  0.2696
   26MPD2    H7  416   2.332   4.212  11.620 -0.9495 -2.8233 -1.0854
   27TMC2    C1  417   1.749   2.557  12.002 -0.4808  0.6091  0.0524
   27TMC2    C2  418   1.841   2.551  11.899 -0.0484  0.2703 -0.5815
   27TMC2    C3  419   1.952   2.630  11.907  0.6887  0.4796  0.0389
   27TMC2    C4  420   1.779   2.618  12.119  0.0389 -0.2398 -0.0167
   27TMC2    C5  421   1.897   2.693  12.125 -0.2955  0.3058  0.5735
   27TMC2    C6  422   1.985   2.697  12.017  0.1099  0.1801  0.1616
   27TMC2     C  423   1.623   2.483  11.973  0.2512 -0.3627 -0.1886
   27TMC2     O  424   1.613   2.415  11.872 -0.4048  0.0870  0.6795
   27TMC2     H  425   1.820   2.491  11.812 -2.2412 -2.7569  1.9991
   27TMC2    H1  426   1.707   2.603  12.198 -0.4784  0.2215 -0.3989
   27TMC2    H2  427   2.069   2.766  12.017 -1.3208  1.9249 -1.0753
   27TMC2    C7  428   1.908   2.800  12.216 -0.0646 -0.1104  0.3618
   27TMC2    C8  429   2.037   2.635  11.793 -0.5552  0.0516  0.2559
   27TMC2    O1  430   1.991   2.886  12.202  0.1487 -0.5858 -0.4855
   27TMC2    O2  431   2.017   2.622  11.674 -0.2661 -0.2009 -0.1501
   27TMC2    O5  432   2.163   2.660  11.832 -0.0465  0.2110 -0.0017
   27TMC2    H5  433   2.189   2.651  11.926  0.5306  1.6653 -0.0187
   28MPD2     C  434   1.144   2.306  12.063 -0.9772  0.2398  0.0259
   28MPD2    C1  435   1.193   2.370  12.172 -0.0099  0.0624  0.2073
   28MPD2    C2  436   1.322   2.430  12.162  0.4953 -0.2500  0.1112
   28MPD2    C3  437   1.397   2.428  12.052 -0.8220 -0.1106 -0.8069
   28MPD2    C4  438   1.337   2.369  11.938  0.4451  0.1263 -1.2342
   28MPD2    C5  439   1.217   2.308  11.946  0.6978  0.4231 -0.1871
   28MPD2     H  440   1.360   2.471  12.255  1.0263  0.3287 -0.3586
   28MPD2    H1  441   1.384   2.394  11.843  0.2472 -2.2657 -1.9703
   28MPD2    H2  442   1.053   2.250  12.049 -0.1880 -0.6271 -1.5735
   28MPD2    H3  443   1.168   2.264  11.860 -1.8157  0.4818  1.2432
   28MPD2     N  444   1.523   2.497  12.066 -0.0606  0.0005  0.3566
   28MPD2    H5  445   1.523   2.568  12.139  1.2008 -1.1960  1.5295
   28MPD2    N1  446   1.110   2.374  12.294 -0.7075 -0.0803  0.1403
   28MPD2    H7  447   1.029   2.313  12.288  0.7766 -2.1604  1.2353
   29TMC2    C1  448   1.175   4.618  14.092 -0.0900  0.2303  0.3534
   29TMC2    C2  449   1.240   4.574  14.208 -0.3293  0.5030  0.3918
   29TMC2    C3  450   1.229   4.650  14.319  0.8218  0.6257  0.1140
   29TMC2    C4  451   1.091   4.726  14.089  0.7384 -0.5985 -0.7678
   29TMC2    C5  452   1.098   0.063  14.202 -0.8022 -0.2085 -0.0509
   29TMC2    C6  453   1.167   0.033  14.312 -0.6910 -0.6316  0.1708
   29TMC2     C  454   1.195   4.523  13.981  0.1810 -0.6394 -0.0774
   29TMC2     O  455   1.234   4.410  14.012 -0.6248  0.0138 -0.3167
   29TMC2     H  456   1.299   4.482  14.211  1.5045  1.6884  0.8766
   29TMC2    H1  457   1.021   0.012  14.010 -0.9078 -1.4315  0.4095
   29TMC2    H2  458   1.152   0.078  14.410 -1.1927 -0.3205 -0.0458
   29TMC2    C7  459   1.028   0.183  14.216 -0.2808 -0.5488  0.4051
   29TMC2    C8  460   1.301   4.616  14.440 -0.2777  0.1933  0.4604
   29TMC2    O1  461   0.919   0.193  14.158 -0.1979  0.2821 -0.5283
   29TMC2    O2  462   1.307   4.692  14.534  0.0240  0.2486  0.2923
   29TMC2    O5  463   1.304   4.476  14.450 -0.5809 -0.2417  0.1812
   29TMC2    H5  464   1.265   4.425  14.376 -2.3354  0.7804  0.3982
   30MPD2     C  465   1.132   4.366  13.503  0.7181 -0.1657 -1.1410
   30MPD2    C1  466   1.212   4.323  13.608  0.0479  0.4660  0.2632
   30MPD2    C2  467   1.216   4.392  13.726  0.4837  0.1946  0.4595
   30MPD2    C3  468   1.136   4.509  13.741  0.6498 -0.0073  0.6563
   30MPD2    C4  469   1.063   4.554  13.633  0.0770  0.0173  0.1185
   30MPD2    C5  470   1.059   4.484  13.514  0.0596  0.3006  0.2211
   30MPD2     H  471   1.278   4.358  13.808 -1.0755  1.1014  2.0290
   30MPD2    H1  472   1.002   4.642  13.646 -0.1557  0.0729 -1.3534
   30MPD2    H2  473   1.134   4.315  13.407  0.9149 -2.0562 -0.1194
   30MPD2    H3  474   0.993   4.515  13.434 -0.2429 -0.9957 -0.0206
   30MPD2     N  475   1.136   4.576  13.863  0.1826 -0.3610 -0.8056
   30MPD2    H5  476   1.110   4.674  13.862  0.6317 -0.2098  1.2615
   30MPD2    N1  477   1.291   4.210  13.603  0.3162 -0.6828 -0.3811
   30MPD2    H7  478   1.345   4.190  13.687  1.9612  3.2684 -0.5098
   31TMC2    C1  479   3.572   3.482  15.558  0.4870  0.4434  0.0874
   31TMC2    C2  480   3.439   3.511  15.579 -0.5839 -0.4549 -0.3759
   31TMC2    C3  481   3.394   3.534  15.708  0.7005  0.4739 -0.0513
   31TMC2    C4  482   3.655   3.471  15.657 -0.3429 -0.7629 -0.2837
   31TMC2    C5  483   3.607   3.494  15.784 -0.3813 -0.0040 -0.7064
   31TMC2    C6  484   3.483   3.516  15.812  0.4453  0.8143  0.6811
   31TMC2     C  485   3.625   3.537  15.435  0.7868  0.4430  0.9292
   31TMC2     O  486   3.539   3.596  15.370  0.0076  0.4492  0.1908
   31TMC2     H  487   3.370   3.502  15.495 -1.6267 -0.4400  0.4758
   31TMC2    H1  488   3.762   3.462  15.640 -0.0573  1.2435  0.4141
   31TMC2    H2  489   3.453   3.540  15.913  0.9805  1.2945  0.7246
   31TMC2    C7  490   3.701   3.448  15.883 -0.8274 -0.6930  0.8029
   31TMC2    C8  491   3.261   3.507  15.744  0.6500 -0.1833 -0.6670
   31TMC2    O1  492   3.768   3.349  15.855  0.1542 -0.1893 -0.4788
   31TMC2    O2  493   3.229   3.514  15.863 -0.0024  0.1244 -0.4075
   31TMC2    O5  494   3.175   3.543  15.638 -0.2789  0.3562  0.2523
   31TMC2    H5  495   3.210   3.533  15.547 -3.5332 -1.6019 -0.7660
   32MPD2     C  496   4.016   3.670  15.128  0.2762 -0.1412 -0.5769
   32MPD2    C1  497   3.885   3.716  15.123  0.0168 -0.2026 -0.0521
   32MPD2    C2  498   3.788   3.661  15.211  0.7065  0.6314  0.1056
   32MPD2    C3  499   3.830   3.561  15.297 -0.4182  0.1933  0.7498
   32MPD2    C4  500   3.966   3.513  15.285 -0.0629  0.7852  0.3842
   32MPD2    C5  501   4.055   3.571  15.210  0.4024  0.0204 -0.6526
   32MPD2     H  502   3.689   3.704  15.220  0.3606 -0.2061  0.3245
   32MPD2    H1  503   3.999   3.435  15.352  1.0091  2.0978  1.3701
   32MPD2    H2  504   4.094   3.712  15.067  1.3920 -0.6248  0.5006
   32MPD2    H3  505   4.154   3.528  15.212  0.5556  0.3650 -0.9272
   32MPD2     N  506   3.753   3.504  15.404 -0.3224  0.3330  0.2307
   32MPD2    H5  507   3.799   3.428  15.454 -1.3745 -0.8397 -0.6008
   32MPD2    N1  508   3.869   3.812  15.018 -0.3523  0.9687  0.0098
   32MPD2    H7  509   3.945   3.805  14.951 -0.1252  0.6010  0.3051
   33TMC2    C1  510   4.260   2.131  10.465 -0.0383 -0.3938 -0.3846
   33TMC2    C2  511   4.392   2.151  10.430 -0.1457 -0.8875 -0.8649
   33TMC2    C3  512   4.416   2.216  10.312 -0.2226  0.5876 -0.9468
   33TMC2    C4  513   4.159   2.188  10.391 -0.1499  0.5067 -0.6147
   33TMC2    C5  514   4.188   2.264  10.282  0.1279 -0.2183  0.2149
   33TMC2    C6  515   4.318   2.274  10.238  0.0538  0.0776 -0.5433
   33TMC2     C  516   4.221   2.001  10.525 -0.4787  0.1633 -0.3410
   33TMC2     O  517   4.113   1.954  10.508 -0.0433 -0.2296  0.5267
   33TMC2     H  518   4.479   2.121  10.488  0.3292  2.4253  0.1459
   33TMC2    H1  519   4.056   2.164  10.414  0.1216 -1.1098 -1.0231
   33TMC2    H2  520   4.324   2.311  10.136 -3.1570  0.8699 -0.4525
   33TMC2    C7  521   4.088   2.342  10.224 -0.4269 -0.2490 -0.3395
   33TMC2    C8  522   4.535   2.300  10.321  0.6138 -0.3128 -0.3236
   33TMC2    O1  523   4.110   2.453  10.179 -0.2243  0.1571 -0.1971
   33TMC2    O2  524   4.564   2.344  10.434  0.5882 -0.3117  0.4335
   33TMC2    O5  525   4.573   2.358  10.205 -0.5510 -0.2346 -0.2852
   33TMC2    H5  526   4.577   2.292  10.132 -0.5659 -0.9674  0.3747
   34MPD2     C  527   4.366   1.559  10.769 -0.2033 -0.0145  0.7884
   34MPD2    C1  528   4.268   1.585  10.673  0.0629 -0.4980  0.1156
   34MPD2    C2  529   4.258   1.708  10.615 -0.8296 -0.0357 -0.2384
   34MPD2    C3  530   4.341   1.812  10.653 -0.5387  0.4781  0.6387
   34MPD2    C4  531   4.455   1.785  10.728 -0.1875  0.3564 -0.4646
   34MPD2    C5  532   4.463   1.655  10.777 -0.2742  0.5615 -0.2340
   34MPD2     H  533   4.178   1.725  10.544 -1.6214 -0.3725  0.5636
   34MPD2    H1  534   4.522   1.868  10.747  0.1153 -0.2504  1.1373
   34MPD2    H2  535   4.385   1.462  10.813 -1.0371 -0.1724  0.8038
   34MPD2    H3  536   4.556   1.630  10.826 -0.2660 -2.5208 -1.8329
   34MPD2     N  537   4.327   1.943  10.593  0.0023 -0.1053 -0.1433
   34MPD2    H5  538   4.411   1.999  10.604 -0.4524  0.6287 -0.4026
   34MPD2    N1  539   4.197   1.480  10.616 -0.0482  0.0897 -0.2241
   34MPD2    H7  540   4.163   1.494  10.521  0.7123 -1.3613 -0.7205
   35TMC2    C1  541   4.605   2.365  11.391 -0.0337 -0.0087  0.5834
   35TMC2    C2  542   4.476   2.414  11.375  0.1524 -0.1733  0.5005
   35TMC2    C3  543   4.372   2.339  11.411  0.0542  0.4908  0.0125
   35TMC2    C4  544   4.643   2.236  11.429 -0.5880 -0.7159 -0.4331
   35TMC2    C5  545   4.532   2.158  11.453 -0.7387  0.3654 -0.2545
   35TMC2    C6  546   4.405   2.209  11.442  0.3623 -0.2755 -0.6403
   35TMC2     C  547   4.705   2.474  11.390  0.0697 -0.0183 -0.2722
   35TMC2     O  548   4.682   2.572  11.321  0.0069  0.9124 -0.4921
   35TMC2     H  549   4.471   2.520  11.351  1.8501 -0.7021 -2.1958
   35TMC2    H1  550   0.008   2.211  11.415  0.9267  4.9715  0.5491
   35TMC2    H2  551   4.319   2.155  11.479 -1.4550  0.8282 -3.2778
   35TMC2    C7  552   4.547   2.014  11.462  0.7732 -0.4602 -0.1680
   35TMC2    C8  553   4.231   2.381  11.402  0.6784 -0.0639  0.4661
   35TMC2    O1  554   4.446   1.944  11.451 -0.3388 -0.0461  0.1176
   35TMC2    O2  555   4.146   2.312  11.453  0.2120 -0.2675  0.5373
   35TMC2    O5  556   4.216   2.503  11.345  0.6089 -0.3003 -0.0483
   35TMC2    H5  557   4.298   2.539  11.305  0.5405 -0.5149 -0.3766
   36MPD2     C  558   0.391   2.721  11.574  0.1146 -0.0384  0.0471
   36MPD2    C1  559   0.391   2.595  11.629 -0.3003  0.0405  0.1535
   36MPD2    C2  560   0.295   2.506  11.586 -0.0617  0.5018  0.2348
   36MPD2    C3  561   0.191   2.540  11.501  0.5373 -0.0667 -0.1598
   36MPD2    C4  562   0.176   2.672  11.466  0.0942  0.1142 -0.6202
   36MPD2    C5  563   0.273   2.756  11.504 -0.0687 -0.1275  0.3502
   36MPD2     H  564   0.300   2.407  11.632 -0.5934  0.2140 -0.3278
   36MPD2    H1  565   0.090   2.712  11.415 -0.1926 -1.5437 -1.4388
   36MPD2    H2  566   0.464   2.796  11.602  0.2774 -0.5893  1.0878
   36MPD2    H3  567   0.256   2.859  11.475 -1.0970 -0.3325  0.2277
   36MPD2     N  568   0.083   2.448  11.468  0.5020 -0.3001 -0.2543
   36MPD2    H5  569   0.098   2.359  11.515  2.6479 -0.2801 -0.9461
   36MPD2    N1  570   0.494   2.563  11.710  0.2770  0.7039 -0.4205
   36MPD2    H7  571   0.563   2.638  11.717  1.4316 -0.5402  1.5117
   37TMC2    C1  572   2.441   3.229  11.858 -0.2742 -0.2445  0.1791
   37TMC2    C2  573   2.319   3.193  11.798  0.1332 -0.1397 -0.2072
   37TMC2    C3  574   2.329   3.149  11.666  0.5967 -0.6830 -0.0544
   37TMC2    C4  575   2.562   3.219  11.788 -0.7620 -0.2154  0.4474
   37TMC2    C5  576   2.556   3.171  11.656  0.1918  0.0508 -0.2278
   37TMC2    C6  577   2.440   3.142  11.585  0.1224 -0.5896 -0.1128
   37TMC2     C  578   2.444   3.197  11.999  0.4050 -0.1239 -0.8494
   37TMC2     O  579   2.344   3.186  12.065  0.6405  0.0106 -0.5379
   37TMC2     H  580   2.229   3.183  11.858 -0.0790 -1.9713 -0.8212
   37TMC2    H1  581   2.651   3.261  11.832  1.0627 -2.6290 -0.9445
   37TMC2    H2  582   2.436   3.105  11.484 -0.7387  0.4593 -0.4637
   37TMC2    C7  583   2.683   3.159  11.589  0.1647 -0.5469  0.1421
   37TMC2    C8  584   2.217   3.095  11.598  0.1727  0.3237 -0.2775
   37TMC2    O1  585   2.784   3.178  11.655 -0.0076  0.0395 -0.4458
   37TMC2    O2  586   2.210   3.104  11.475 -0.1330 -1.3413  0.0364
   37TMC2    O5  587   2.136   3.016  11.672 -0.5009  0.1932 -0.6138
   37TMC2    H5  588   2.153   3.022  11.769 -1.6408  0.5129 -0.4344
   38MPD2     C  589   2.747   3.064  12.392  0.3093 -0.4486 -0.2686
   38MPD2    C1  590   2.825   3.104  12.285 -0.1134 -0.2098 -0.0159
   38MPD2    C2  591   2.763   3.152  12.172  0.4001  1.1125 -0.4793
   38MPD2    C3  592   2.620   3.155  12.163 -0.6149  0.5249 -0.8022
   38MPD2    C4  593   2.545   3.131  12.273  0.1806  0.4061 -0.2226
   38MPD2    C5  594   2.611   3.081  12.389  0.6041  0.2310 -0.1000
   38MPD2     H  595   2.834   3.174  12.093  1.3767  0.0693  0.0997
   38MPD2    H1  596   2.438   3.144  12.277  0.1523 -0.0861  0.5213
   38MPD2    H2  597   2.793   3.025  12.482 -1.7985 -1.0457  0.5285
   38MPD2    H3  598   2.562   3.068  12.485  0.0933 -1.0172 -0.5301
   38MPD2     N  599   2.572   3.183  12.037 -0.1054  0.4022  0.1760
   38MPD2    H5  600   2.646   3.193  11.968 -0.3534  0.8954 -0.0198
   38MPD2    N1  601   2.968   3.079  12.277 -0.3848 -0.1633 -0.3231
   38MPD2    H7  602   3.014   3.100  12.189  2.2131 -2.9887  0.3470
   39TMC2    C1  603   1.307   4.373   1.355  0.0230  0.6062 -0.4105
   39TMC2    C2  604   1.266   4.343   1.481 -0.1417  0.3701 -0.6345
   39TMC2    C3  605   1.361   4.302   1.569  0.2965  0.3112 -0.4371
   39TMC2    C4  606   1.444   4.358   1.316  0.4682 -0.5523 -0.8599
   39TMC2    C5  607   1.532   4.331   1.418 -0.1894 -0.3902 -0.2983
   39TMC2    C6  608   1.495   4.291   1.542  0.5528 -0.3801  0.0637
   39TMC2     C  609   1.207   4.434   1.263  0.3847  0.7545 -0.2426
   39TMC2     O  610   1.105   4.491   1.302 -0.0786 -0.3755 -0.5836
   39TMC2     H  611   1.163   4.357   1.509 -0.2698 -0.5665 -0.6219
   39TMC2    H1  612   1.473   4.368   1.212  0.9046  1.3838 -0.5472
   39TMC2    H2  613   1.565   4.239   1.605  0.0854 -1.7272 -0.5370
   39TMC2    C7  614   1.667   4.318   1.380  0.4645 -0.1372 -0.1343
   39TMC2    C8  615   1.332   4.292   1.706  0.9470  0.5083  0.4092
   39TMC2    O1  616   1.730   4.222   1.423 -0.6169 -0.3495 -0.0372
   39TMC2    O2  617   1.234   4.239   1.754  0.5172  0.6585 -0.2143
   39TMC2    O5  618   1.386   4.417   1.753 -0.3954 -0.2916 -0.1623
   39TMC2    H5  619   1.432   4.463   1.680  2.5136 -1.6338  0.8065
   40MPD2     C  620   1.226   4.449   0.888  0.3055 -0.3098  0.4917
   40MPD2    C1  621   1.174   4.459   1.017  0.1933  0.5399  0.4963
   40MPD2    C2  622   1.052   4.533   1.027 -0.1242 -0.1483 -0.0746
   40MPD2    C3  623   0.985   4.590   0.919  0.4515 -0.9278  0.5833
   40MPD2    C4  624   1.031   4.557   0.794 -0.7888  0.2087  0.0494
   40MPD2    C5  625   1.149   4.492   0.783 -0.3173 -0.3849 -0.5049
   40MPD2     H  626   1.009   4.561   1.122  1.8957  0.3411  0.7070
   40MPD2    H1  627   0.995   4.612   0.708  1.7073 -0.6934 -1.5562
   40MPD2    H2  628   1.322   4.406   0.861  0.7623 -0.1906  1.8949
   40MPD2    H3  629   1.178   4.461   0.683 -2.9655 -0.5277 -1.2143
   40MPD2     N  630   0.867   4.665   0.932 -0.1337 -0.3430 -0.2303
   40MPD2    H5  631   0.827   4.688   0.842 -0.0813  0.2045 -0.1103
   40MPD2    N1  632   1.249   4.420   1.134 -0.0356 -0.4774  0.0727
   40MPD2    H7  633   1.336   4.369   1.127  0.6272  0.7253 -0.4938
   41TMC2    C1  634   0.012   2.405  13.602 -0.4684  0.2161 -0.1368
   41TMC2    C2  635   0.056   2.540  13.608 -0.1993  0.6750  0.1747
   41TMC2    C3  636   0.035   2.610  13.494  0.0380  0.0494 -0.1882
   41TMC2    C4  637   4.704   2.346  13.487 -0.0575 -0.0070  0.0295
   41TMC2    C5  638   4.716   2.415  13.372 -0.0593 -0.1601 -0.4506
   41TMC2    C6  639   0.002   2.547  13.375  0.7555 -0.2288 -0.1515
   41TMC2     C  640   0.023   2.324  13.721 -0.0941  0.6875 -0.1786
   41TMC2     O  641   0.045   2.206  13.707  0.4543 -0.1053 -0.4575
   41TMC2     H  642   0.109   2.567  13.698 -0.4973 -0.7042  0.7553
   41TMC2    H1  643   4.672   2.243  13.496 -0.6528  0.0720 -1.2000
   41TMC2    H2  644   0.015   2.610  13.289 -0.4028  1.1441  0.6803
   41TMC2    C7  645   4.703   2.341  13.252  0.4290  0.0523  0.1495
   41TMC2    C8  646   0.100   2.739  13.490  0.3777 -0.3848 -0.4189
   41TMC2    O1  647   4.667   2.225  13.266 -0.3092 -0.7814  0.5385
   41TMC2    O2  648   0.151   2.785  13.387 -0.0374 -0.0473 -0.2753
   41TMC2    O5  649   0.101   2.782  13.615 -0.2528  0.6831  0.3646
   41TMC2    H5  650   0.046   2.730  13.678 -0.8284  0.6431 -0.1667
   42MPD2     C  651   0.060   2.231  13.999  0.3684  0.4801 -0.4673
   42MPD2    C1  652   0.026   2.363  13.970  0.5428  0.7390 -0.7080
   42MPD2    C2  653   0.015   2.460  14.066 -0.8230  0.1231 -0.1573
   42MPD2    C3  654   0.059   2.434  14.193  0.4811  0.7667  0.1673
   42MPD2    C4  655   0.116   2.313  14.220  0.0923  0.0529  0.3708
   42MPD2    C5  656   0.108   2.216  14.123 -0.9151 -0.1148 -0.3083
   42MPD2     H  657   4.720   2.561  14.046 -3.2080 -0.2181  2.0315
   42MPD2    H1  658   0.158   2.289  14.317 -0.4987 -1.4591  0.2583
   42MPD2    H2  659   0.057   2.158  13.920  0.1961 -0.2450  0.2066
   42MPD2    H3  660   0.150   2.117  14.142  1.1826  0.6471 -0.9747
   42MPD2     N  661   0.060   2.532  14.298  0.0672  0.0830  0.3469
   42MPD2    H5  662   0.109   2.511  14.385  2.6222  0.9505 -0.9037
   42MPD2    N1  663   4.735   2.402  13.836  0.3412 -0.6644  0.2261
   42MPD2    H7  664   4.703   2.497  13.820  0.6187  0.0369  3.7928
   43TMC2    C1  665   1.208   1.225   0.431  0.5033  0.0101  0.5791
   43TMC2    C2  666   1.123   1.335   0.411  0.5605 -0.2474 -0.1467
   43TMC2    C3  667   1.121   1.429   0.512  0.3748  0.4038  0.0839
   43TMC2    C4  668   1.291   1.223   0.539 -0.5353  0.1036 -1.1905
   43TMC2    C5  669   1.285   1.316   0.639 -0.6326 -0.0646  0.6305
   43TMC2    C6  670   1.192   1.419   0.630 -0.1963 -0.2257 -0.5104
   43TMC2     C  671   1.219   1.119   0.337 -0.2534  0.0726 -0.4901
   43TMC2     O  672   1.282   1.018   0.372  0.0207 -0.2831 -0.1323
   43TMC2     H  673   1.057   1.351   0.327 -0.1316  1.8160  0.7813
   43TMC2    H1  674   1.349   1.132   0.550  0.7087  1.2560  1.7146
   43TMC2    H2  675   1.187   1.496   0.706 -0.8429  0.0760 -0.8563
   43TMC2    C7  676   1.392   1.309   0.736 -0.5051 -0.1848  0.4688
   43TMC2    C8  677   1.048   1.547   0.497 -0.2996  0.0053 -0.7368
   43TMC2    O1  678   1.495   1.260   0.694 -0.1272 -0.0773  0.1452
   43TMC2    O2  679   0.999   1.608   0.591 -0.3085  0.1431 -0.2891
   43TMC2    O5  680   1.062   1.595   0.375  0.3482 -0.2715  0.1234
   43TMC2    H5  681   1.129   1.546   0.323 -1.4718 -1.0928 -1.4549
   44MPD2     C  682   1.143   0.893  17.627 -0.6203 -0.5784 -0.0375
   44MPD2    C1  683   1.237   0.864  17.729  0.0426 -0.9343 -0.6473
   44MPD2    C2  684   1.238   0.942   0.088  0.4455 -0.0848  0.5979
   44MPD2    C3  685   1.159   1.050   0.112 -0.6307  0.3493  0.0440
   44MPD2    C4  686   1.066   1.076   0.011 -0.8000 -0.0521 -0.9381
   44MPD2    C5  687   1.064   1.003  17.649  0.0042 -0.1462  0.5171
   44MPD2     H  688   1.313   0.915   0.162 -1.7205 -2.7251  1.8071
   44MPD2    H1  689   1.009   1.167   0.015 -2.7917 -1.3164 -0.6459
   44MPD2    H2  690   1.127   0.825  17.544  2.1100  0.3905 -1.3506
   44MPD2    H3  691   0.990   1.024  17.573 -1.2846  1.3531  2.1915
   44MPD2     N  692   1.143   1.130   0.227  0.5090  0.5471  0.2267
   44MPD2    H5  693   1.087   1.214   0.218  1.0368  0.7197 -1.3718
   44MPD2    N1  694   1.320   0.751  17.723 -0.0318  0.0152 -0.2770
   44MPD2    H7  695   1.392   0.737   0.041 -0.5482 -3.5687 -0.4379
   45TMC2    C1  696   1.554   3.384   9.591 -0.2037  0.5684 -0.5891
   45TMC2    C2  697   1.442   3.423   9.515  0.0423  0.1823 -0.1978
   45TMC2    C3  698   1.438   3.557   9.487  0.0854 -0.3457  0.5235
   45TMC2    C4  699   1.654   3.471   9.630  0.3436  0.7474 -0.2587
   45TMC2    C5  700   1.641   3.600   9.601 -0.4744 -0.1391 -0.2683
   45TMC2    C6  701   1.528   3.649   9.531 -0.3601  0.0948 -0.3422
   45TMC2     C  702   1.557   3.252   9.660 -0.1620  0.2056 -0.4349
   45TMC2     O  703   1.614   3.255   9.769 -0.7117  0.3844 -0.4513
   45TMC2     H  704   1.364   3.361   9.472  0.5853 -1.5767  1.3465
   45TMC2    H1  705   1.749   3.444   9.673 -0.4664 -1.2042  0.3235
   45TMC2    H2  706   1.514   3.757   9.529 -0.8489  0.0465  0.4262
   45TMC2    C7  707   1.739   3.682   9.666  1.0946  0.2041  0.5432
   45TMC2    C8  708   1.334   3.584   9.391 -0.2004  0.4459 -0.4259
   45TMC2    O1  709   1.790   3.649   9.771 -0.1086  0.4506  0.3228
   45TMC2    O2  710   1.231   3.521   9.384 -0.1100  0.1207 -0.0349
   45TMC2    O5  711   1.363   3.693   9.312 -0.6369 -0.3396  0.1583
   45TMC2    H5  712   1.457   3.714   9.333 -1.5685  2.0466  1.8305
   46MPD2     C  713   1.548   2.957   9.752 -0.6948 -0.0960 -0.2708
   46MPD2    C1  714   1.458   3.018   9.665 -0.0554  0.4961 -0.2055
   46MPD2    C2  715   1.357   2.940   9.607 -0.2170  0.8739 -0.2326
   46MPD2    C3  716   1.348   2.801   9.635 -0.2645 -0.5559 -0.3966
   46MPD2    C4  717   1.443   2.739   9.718  0.5409 -0.3910 -0.2597
   46MPD2    C5  718   1.541   2.819   9.775 -0.7085  0.0206 -0.2238
   46MPD2     H  719   1.280   2.990   9.550  0.0256  1.4631 -0.0427
   46MPD2    H1  720   1.447   2.633   9.738  1.1366 -0.1826  0.6806
   46MPD2    H2  721   1.621   3.024   9.796 -0.2283 -0.0292 -1.1527
   46MPD2    H3  722   1.613   2.772   9.841 -2.4369 -0.0895  1.5852
   46MPD2     N  723   1.242   2.735   9.577 -0.1795 -0.0057 -0.1726
   46MPD2    H5  724   1.173   2.793   9.532  0.1489 -2.2641 -3.6358
   46MPD2    N1  725   1.478   3.146   9.611 -0.0952  0.5113 -0.6074
   46MPD2    H7  726   1.430   3.162   9.522  0.3333 -2.0041 -1.2884
   47TMC2    C1  727   4.651   4.179   8.956 -0.3598 -0.3029  0.0675
   47TMC2    C2  728   4.607   4.098   8.863 -0.3228 -0.6943  0.1708
   47TMC2    C3  729   4.479   4.116   8.812 -0.7152 -0.3550  0.4865
   47TMC2    C4  730   4.574   4.284   8.995 -0.3732  0.3970  0.2958
   47TMC2    C5  731   4.447   4.306   8.942 -0.3303 -1.2039  0.1014
   47TMC2    C6  732   4.400   4.218   8.846 -0.0343  0.4727 -0.2027
   47TMC2     C  733   0.013   4.127   9.050  0.2413 -0.3616  0.5486
   47TMC2     O  734   0.091   4.203   9.110 -0.1803 -0.7025  0.3541
   47TMC2     H  735   4.669   4.025   8.812 -0.1052 -0.6592  0.3880
   47TMC2    H1  736   4.607   4.363   9.062  2.5255  2.0389 -3.0030
   47TMC2    H2  737   4.304   4.219   8.796  0.7563 -0.2371 -1.7223
   47TMC2    C7  738   4.414   4.445   8.928 -0.1899  0.2435 -0.1578
   47TMC2    C8  739   4.441   4.041   8.698 -0.7127  0.2121  0.0633
   47TMC2    O1  740   4.514   4.518   8.927  0.3422  0.5058  0.0658
   47TMC2    O2  741   4.384   4.085   8.603 -0.0255  0.4172  0.8622
   47TMC2    O5  742   4.477   3.919   8.721  0.3788 -0.3407 -0.5301
   47TMC2    H5  743   4.506   3.899   8.812 -0.2068  1.8377  0.1503
   48MPD2     C  744   0.184   3.952   9.218 -0.5488 -0.1297  0.2042
   48MPD2    C1  745   0.056   3.915   9.176  0.7056 -0.2981 -0.0539
   48MPD2    C2  746   4.737   3.797   9.225  0.3432 -0.0922  0.6906
   48MPD2    C3  747   0.060   3.726   9.330  0.4800  0.7109 -0.4374
   48MPD2    C4  748   0.182   3.768   9.374  0.5693  0.5816  0.0486
   48MPD2    C5  749   0.251   3.872   9.309 -0.2189 -0.4048 -0.3266
   48MPD2     H  750   4.639   3.760   9.200  0.7734 -1.6680  1.3117
   48MPD2    H1  751   0.239   3.718   9.452  0.6728 -0.5057 -0.7182
   48MPD2    H2  752   0.240   4.038   9.181  2.1300 -1.1554  1.8639
   48MPD2    H3  753   0.351   3.897   9.341 -0.8971  0.5682  1.0469
   48MPD2     N  754   4.721   3.630   9.396 -0.0655  0.2295  0.2499
   48MPD2    H5  755   4.632   3.601   9.356  1.0328 -1.2949 -1.0795
   48MPD2    N1  756   4.725   3.995   9.083  0.3517 -0.2323  0.5950
   48MPD2    H7  757   4.645   3.956   9.035  0.6919 -0.8624  0.5416
   49TMC2    C1  758   1.920   0.275  10.489  0.1591 -0.9330 -0.1741
   49TMC2    C2  759   1.868   0.184  10.400  0.2050  0.3994 -0.3032
   49TMC2    C3  760   1.779   0.091  10.454  1.0674  0.0739  0.4078
   49TMC2    C4  761   1.918   0.250  10.627  0.0488  0.9931 -0.2777
   49TMC2    C5  762   1.847   0.142  10.673  0.0074 -0.2561  0.0299
   49TMC2    C6  763   1.763   0.075  10.586 -0.1255 -0.4284 -0.5245
   49TMC2     C  764   2.017   0.369  10.426 -0.2894  0.0081  0.2844
   49TMC2     O  765   2.021   0.369  10.302 -0.2735 -0.0607  0.3741
   49TMC2     H  766   1.879   0.194  10.293  1.0475 -0.5923 -0.3017
   49TMC2    H1  767   1.966   0.306  10.706 -0.3450 -0.1168  0.7541
   49TMC2    H2  768   1.689   0.005  10.624  0.0994 -0.5432 -0.3006
   49TMC2    C7  769   1.869   0.095  10.813 -0.1442  0.5702  0.1123
   49TMC2    C8  770   1.711   0.002  10.366 -0.2330 -0.4086 -0.2174
   49TMC2    O1  771   1.913   0.179  10.888 -0.7847  0.9838  0.1482
   49TMC2    O2  772   1.593   4.732  10.351 -0.2593 -0.1158 -0.2150
   49TMC2    O5  773   1.812   4.689  10.294 -0.5670 -0.2625  0.0123
   49TMC2    H5  774   1.905   4.716  10.315 -0.8518  0.4532  0.3592
   50MPD2     C  775   2.239   0.541  10.349  0.1813 -0.3618 -0.3300
   50MPD2    C1  776   2.179   0.542  10.472 -0.0000  0.2390 -0.4965
   50MPD2    C2  777   2.204   0.650  10.556  0.3232 -0.3955 -0.2908
   50MPD2    C3  778   2.296   0.748  10.519 -0.1084 -0.1825 -0.2348
   50MPD2    C4  779   2.357   0.751  10.397 -0.9827 -0.2181 -0.4045
   50MPD2    C5  780   2.320   0.650  10.312 -1.1382 -0.1817 -0.5944
   50MPD2     H  781   2.159   0.649  10.654 -0.2373  2.1863 -0.5202
   50MPD2    H1  782   2.435   0.822  10.377 -0.3966 -0.6118  0.4464
   50MPD2    H2  783   2.216   0.455  10.288  3.2988 -0.6435 -1.0926
   50MPD2    H3  784   2.360   0.641  10.211 -1.3263 -2.3121 -0.4724
   50MPD2     N  785   2.322   0.863  10.600 -0.3194 -0.2801  0.5597
   50MPD2    H5  786   2.384   0.933  10.561  0.5686 -2.1123 -1.3282
   50MPD2    N1  787   2.087   0.441  10.517 -0.5022  0.6052  0.4408
   50MPD2    H7  788   2.061   0.446  10.615 -0.6241 -2.0920  0.5513
   51TMC2    C1  789   3.669   3.851   1.868 -0.4235 -0.2618  0.1020
   51TMC2    C2  790   3.733   3.859   1.990 -0.4105  0.9987 -0.1409
   51TMC2    C3  791   3.769   3.982   2.036  0.0699 -0.5203 -0.2628
   51TMC2    C4  792   3.646   3.965   1.795  0.3829 -0.3600  0.5301
   51TMC2    C5  793   3.687   4.086   1.847 -0.5406  0.4882 -0.0730
   51TMC2    C6  794   3.751   4.096   1.969 -0.4361  0.5970 -0.0577
   51TMC2     C  795   3.628   3.719   1.817 -0.0237  0.8190  0.3387
   51TMC2     O  796   3.593   3.711   1.701 -0.2033 -0.1245 -0.0590
   51TMC2     H  797   3.764   3.768   2.039  2.0132  2.0221  0.2323
   51TMC2    H1  798   3.608   3.948   1.695  0.5470  3.2370 -0.1346
   51TMC2    H2  799   3.805   4.185   1.996  0.1884  1.0575 -2.8091
   51TMC2    C7  800   3.693   4.193   1.753 -0.9060  0.0588 -0.3004
   51TMC2    C8  801   3.805   3.986   2.176 -0.4419 -0.5032 -0.6748
   51TMC2    O1  802   3.769   4.290   1.776 -0.2358  0.0385  0.2048
   51TMC2    O2  803   3.805   3.871   2.233 -0.2037 -0.0839 -0.2103
   51TMC2    O5  804   3.752   4.097   2.225  0.0214  0.3405  0.0282
   51TMC2    H5  805   3.743   4.179   2.172 -0.4840  0.7749  0.7766
   52MPD2     C  806   3.584   3.202   1.852 -0.5859 -0.3311 -0.6036
   52MPD2    C1  807   3.594   3.286   1.736  0.2875  0.2404  0.0145
   52MPD2    C2  808   3.598   3.426   1.759  0.4440  0.2693 -0.8842
   52MPD2    C3  809   3.600   3.483   1.887 -0.0430  0.3245 -0.4899
   52MPD2    C4  810   3.606   3.398   1.997  0.0818  0.6434  0.3008
   52MPD2    C5  811   3.603   3.261   1.974  0.7976  0.3481 -0.1400
   52MPD2     H  812   3.588   3.490   1.672  0.6639 -1.7846 -2.4149
   52MPD2    H1  813   3.604   3.429   2.101  1.0435 -0.2816  0.5935
   52MPD2    H2  814   3.598   3.094   1.847 -0.2615 -0.3317  0.3408
   52MPD2    H3  815   3.605   3.204   2.066  5.3101 -2.8773 -2.2003
   52MPD2     N  816   3.620   3.621   1.915 -0.3013 -0.2613  0.1677
   52MPD2    H5  817   3.620   3.652   2.011 -2.4044 -0.8331  0.3533
   52MPD2    N1  818   3.606   3.238   1.602 -0.0668 -0.3620 -0.2920
   52MPD2    H7  819   3.601   3.310   1.530 -2.3191 -0.8626 -0.6472
   53TMC2    C1  820   3.372   2.975  11.488 -0.2015 -0.2236  0.3213
   53TMC2    C2  821   3.472   2.882  11.458  0.5096  1.2502 -0.6068
   53TMC2    C3  822   3.561   2.859  11.562  0.5697  0.2411 -0.2057
   53TMC2    C4  823   3.368   3.051  11.598  0.1047 -0.2146  0.0832
   53TMC2    C5  824   3.466   3.032  11.692 -0.4917 -0.0539 -0.1775
   53TMC2    C6  825   3.555   2.930  11.682  0.3372 -0.5465  0.8151
   53TMC2     C  826   3.280   2.989  11.382  0.2984  0.6816  0.4225
   53TMC2     O  827   3.301   2.939  11.273  0.5488 -0.4493  0.0412
   53TMC2     H  828   3.473   2.830  11.363 -1.3870  0.2749 -0.0865
   53TMC2    H1  829   3.290   3.126  11.609 -0.3334 -0.4639 -1.3378
   53TMC2    H2  830   3.632   2.916  11.756  0.3983 -0.1907  0.8173
   53TMC2    C7  831   3.421   3.066  11.829  0.3841 -0.5013 -0.0432
   53TMC2    C8  832   3.683   2.790  11.532  0.9769  0.4087  0.3954
   53TMC2    O1  833   3.294   3.066  11.841 -0.2282  0.0650  0.0348
   53TMC2    O2  834   3.782   2.831  11.591  0.1103  0.3367  0.0898
   53TMC2    O5  835   3.675   2.753  11.401  0.4492 -0.2579 -0.0344
   53TMC2    H5  836   3.588   2.708  11.394  1.4764 -2.3631  0.5991
   54MPD2     C  837   3.030   3.037  11.215 -0.2814 -0.2922  0.1618
   54MPD2    C1  838   3.041   3.053  11.355  0.0070 -0.3404  0.5308
   54MPD2    C2  839   2.926   3.082  11.427  0.3796  0.4784 -0.2443
   54MPD2    C3  840   2.802   3.112  11.373 -0.6884 -0.0824 -0.0299
   54MPD2    C4  841   2.796   3.101  11.234 -0.2034  0.1357  0.0732
   54MPD2    C5  842   2.908   3.056  11.161 -0.8735  0.4133  0.1158
   54MPD2     H  843   2.936   3.092  11.535  0.1880  1.2282 -0.2941
   54MPD2    H1  844   2.701   3.109  11.181  0.8957  0.5777 -1.8305
   54MPD2    H2  845   3.109   3.000  11.151 -2.1035 -0.0914 -2.1935
   54MPD2    H3  846   2.900   3.048  11.053  0.8901  0.7027 -0.0383
   54MPD2     N  847   2.682   3.139  11.452  0.6371 -0.2424 -0.5059
   54MPD2    H5  848   2.598   3.162  11.398 -0.9617 -0.5509  1.8695
   54MPD2    N1  849   3.159   3.025  11.427 -0.2084 -0.1031 -0.0812
   54MPD2    H7  850   3.148   3.036  11.527 -1.3296 -0.3452 -0.1845
   55TMC2    C1  851   4.200   0.135  17.304  0.0738  0.2458  0.3502
   55TMC2    C2  852   4.139   0.068  17.200  0.1094 -0.0785  0.7381
   55TMC2    C3  853   4.089   4.685  17.235 -0.5110 -0.2757  0.3978
   55TMC2    C4  854   4.209   0.090  17.436  0.0046 -0.3221 -1.3509
   55TMC2    C5  855   4.168   4.696  17.454  0.1031  0.6136 -0.7266
   55TMC2    C6  856   4.102   4.620  17.358 -0.5259  0.0898  0.1136
   55TMC2     C  857   4.231   0.271  17.287 -0.4866  0.2712  0.0606
   55TMC2     O  858   4.229   0.339  17.388 -0.5900  0.1855 -0.4656
   55TMC2     H  859   4.117   0.107  17.101  1.5645  1.6289  1.1082
   55TMC2    H1  860   4.262   0.148  17.511  1.2534 -0.8953 -1.7774
   55TMC2    H2  861   4.080   4.516  17.374  1.7848 -0.6341 -1.4140
   55TMC2    C7  862   4.171   4.643  17.584  0.0130  0.6474  0.5371
   55TMC2    C8  863   4.033   4.609  17.128  0.0242  0.3786 -0.3356
   55TMC2    O1  864   4.192   4.523  17.600 -0.3683 -0.0618 -0.5309
   55TMC2    O2  865   4.065   4.617  17.011 -0.7344  0.1723 -0.3317
   55TMC2    O5  866   3.935   4.539  17.185 -0.1879 -0.0834  0.9453
   55TMC2    H5  867   3.931   4.552  17.282  3.9364 -0.6862  1.2028
   56MPD2     C  868   4.376   0.482  17.029 -0.0987  0.3832 -0.4519
   56MPD2    C1  869   4.298   0.451  17.140 -0.1844 -0.3876  0.2098
   56MPD2    C2  870   4.253   0.555  17.219 -0.1789  0.1878 -0.2058
   56MPD2    C3  871   4.271   0.687  17.184 -0.5824  0.0715  0.5832
   56MPD2    C4  872   4.352   0.713  17.077  0.2853 -0.0941 -0.1231
   56MPD2    C5  873   4.413   0.612  17.007  0.3373 -0.6634  0.7024
   56MPD2     H  874   4.177   0.536  17.294 -2.5189  2.4620 -2.0153
   56MPD2    H1  875   4.383   0.814  17.052  0.8117 -0.1585  0.2588
   56MPD2    H2  876   4.406   0.402  16.962  2.1097  0.3287  0.6194
   56MPD2    H3  877   4.483   0.632  16.926  0.1634 -1.9145  0.2359
   56MPD2     N  878   4.220   0.785  17.272 -0.1080 -0.6414 -0.2483
   56MPD2    H5  879   4.170   0.745  17.350 -2.6354  0.4311 -1.3393
   56MPD2    N1  880   4.268   0.316  17.165  0.1676  0.3681  0.6441
   56MPD2    H7  881   4.285   0.243  17.097  0.5821 -0.6264  1.8297
   57TMC2    C1  882   2.359   1.842  13.106 -0.0104 -0.7265 -0.0017
   57TMC2    C2  883   2.292   1.940  13.039  0.0152 -0.8520  0.5761
   57TMC2    C3  884   2.369   2.036  12.982 -0.1944 -0.8264  0.3836
   57TMC2    C4  885   2.498   1.835  13.114 -0.6308 -0.3995 -0.4688
   57TMC2    C5  886   2.565   1.935  13.045 -0.2995 -0.3836  0.0645
   57TMC2    C6  887   2.506   2.041  12.986 -0.7199 -0.8028 -0.7286
   57TMC2     C  888   2.283   1.739  13.179 -0.3378  0.4238  0.0716
   57TMC2     O  889   2.351   1.664  13.251 -0.2644 -0.6223 -0.3701
   57TMC2     H  890   2.185   1.959  13.045  0.4545  2.0425 -0.9066
   57TMC2    H1  891   2.554   1.762  13.171 -0.7444 -0.5531 -0.5526
   57TMC2    H2  892   2.562   2.130  12.958 -0.1662 -1.3210 -1.2728
   57TMC2    C7  893   2.709   1.924  13.043  0.4080  0.0030  1.0851
   57TMC2    C8  894   2.316   2.155  12.921  1.0890 -0.5443 -0.3317
   57TMC2    O1  895   2.770   2.019  13.089 -0.0454  0.3103  0.1892
   57TMC2    O2  896   2.384   2.253  12.901  0.1171 -0.1352 -0.4248
   57TMC2    O5  897   2.203   2.125  12.852  0.0571  0.0191 -0.0148
   57TMC2    H5  898   2.183   2.029  12.857  0.7797 -0.2705 -2.8762
   58MPD2     C  899   1.901   1.561  13.429 -0.3897  0.4891  0.4278
   58MPD2    C1  900   2.027   1.593  13.471 -0.2313 -0.5004  0.8962
   58MPD2    C2  901   2.116   1.663  13.394 -0.0464  0.1231 -0.2879
   58MPD2    C3  902   2.069   1.702  13.268 -0.1137 -0.3193 -0.1519
   58MPD2    C4  903   1.938   1.683  13.230 -0.5705  0.1705  0.3885
   58MPD2    C5  904   1.860   1.612  13.313  0.1179 -0.7236 -0.6005
   58MPD2     H  905   2.217   1.689  13.425 -0.3685  1.9273 -0.7694
   58MPD2    H1  906   1.899   1.717  13.135  0.2457 -1.0524 -0.3721
   58MPD2    H2  907   1.820   1.510  13.480 -0.3068 -0.3741 -0.3088
   58MPD2    H3  908   1.759   1.603  13.277  0.8359  1.6351 -3.1964
   58MPD2     N  909   2.152   1.762  13.178  0.1525  0.4664  0.4407
   58MPD2    H5  910   2.108   1.828  13.116 -1.0690 -1.6730 -0.9730
   58MPD2    N1  911   2.069   1.567  13.606  0.6000  0.0826 -0.3872
   58MPD2    H7  912   2.167   1.590  13.623  0.0718  2.0937 -0.0565
   59TMC2    C1  913   0.748   1.895  12.849  0.5232  0.6222  0.5948
   59TMC2    C2  914   0.746   1.801  12.945 -0.2095  0.2049  0.1708
   59TMC2    C3  915   0.685   1.677  12.913 -0.7135 -0.6777 -0.3455
   59TMC2    C4  916   0.683   1.884  12.730 -0.0987 -0.3910 -0.3020
   59TMC2    C5  917   0.640   1.758  12.701 -0.0808 -0.6437 -0.2536
   59TMC2    C6  918   0.636   1.656  12.793 -0.2828 -0.3389 -0.1003
   59TMC2     C  919   0.803   2.028  12.885 -0.9047 -0.1717  0.1037
   59TMC2     O  920   0.759   2.134  12.842 -0.4876  0.6169 -0.1742
   59TMC2     H  921   0.790   1.818  13.043 -0.9500 -0.4695  0.6307
   59TMC2    H1  922   0.681   1.972  12.668  1.9739 -0.9715 -1.1980
   59TMC2    H2  923   0.608   1.557  12.759 -0.9959 -0.0013 -0.4897
   59TMC2    C7  924   0.611   1.728  12.559 -0.3047  0.1679 -0.4415
   59TMC2    C8  925   0.666   1.564  12.999  0.2720  0.1093 -0.4945
   59TMC2    O1  926   0.566   1.616  12.528  0.5212  0.7518 -0.6467
   59TMC2    O2  927   0.651   1.448  12.968  0.1973  0.1436 -0.2717
   59TMC2    O5  928   0.626   1.620  13.112 -0.2105 -0.3794  0.9958
   59TMC2    H5  929   0.634   1.718  13.113  1.9760 -0.4601 -3.1200
   60MPD2     C  930   0.899   2.250  13.062 -0.4686  0.6436 -0.0704
   60MPD2    C1  931   0.955   2.123  13.057  0.0583 -0.1978  0.4905
   60MPD2    C2  932   1.059   2.089  13.140 -0.8765 -0.1597 -0.5595
   60MPD2    C3  933   1.126   2.187  13.222  0.4514 -0.5418 -0.0254
   60MPD2    C4  934   1.070   2.315  13.222 -0.4673  0.2571 -0.7808
   60MPD2    C5  935   0.960   2.349  13.139 -1.0199 -1.1293  0.7790
   60MPD2     H  936   1.118   1.997  13.138 -0.9116 -0.2269  1.0765
   60MPD2    H1  937   1.107   2.395  13.284  0.7153 -2.6011  2.2474
   60MPD2    H2  938   0.815   2.278  12.999  1.2661  0.4630 -2.4476
   60MPD2    H3  939   0.907   2.443  13.143 -1.3800 -1.3049  0.1468
   60MPD2     N  940   1.241   2.152  13.292  0.5451 -0.8565  0.1254
   60MPD2    H5  941   1.284   2.061  13.278 -0.0150 -0.9388 -1.0758
   60MPD2    N1  942   0.915   2.019  12.968  0.2986  0.0173  0.2959
   60MPD2    H7  943   0.966   1.932  12.959 -1.0285 -0.7289  0.0538
   61TMC2    C1  944   0.095   3.939  15.810  0.1135  0.1854  0.0161
   61TMC2    C2  945   0.082   4.054  15.879  0.6608 -0.2782 -0.3918
   61TMC2    C3  946   0.078   4.169  15.804  0.2239  0.7430  0.4571
   61TMC2    C4  947   0.109   3.940  15.674 -0.6392  0.6033  0.1538
   61TMC2    C5  948   0.101   4.056  15.599 -0.4407  0.4880 -0.2549
   61TMC2    C6  949   0.090   4.174  15.667  0.3503 -0.4130 -0.2273
   61TMC2     C  950   0.075   3.816  15.885  0.2061 -0.0026 -0.4986
   61TMC2     O  951   0.049   3.818  16.003  0.3701  0.5034 -0.5866
   61TMC2     H  952   0.074   4.068  15.986  1.1782 -0.5155 -0.3238
   61TMC2    H1  953   0.117   3.850  15.615 -0.2368 -0.2375  1.4888
   61TMC2    H2  954   0.100   4.265  15.610 -1.3675 -0.2301 -0.2523
   61TMC2    C7  955   0.088   4.056  15.451  0.3730  0.1827 -0.6693
   61TMC2    C8  956   0.055   4.285  15.881  0.7582  0.0192  0.3854
   61TMC2    O1  957   0.151   4.143  15.388 -0.0437  0.0842 -0.1382
   61TMC2    O2  958   0.017   4.288  15.994 -0.0854 -0.2295  0.1688
   61TMC2    O5  959   0.075   4.393  15.806 -0.6480  0.5483  0.1855
   61TMC2    H5  960   0.083   4.392  15.709 -1.4604  0.3719  0.1202
   62MPD2     C  961   0.050   3.530  15.975 -0.3919  0.3653 -0.0956
   62MPD2    C1  962   0.125   3.570  15.867  0.1026 -0.2331 -0.1294
   62MPD2    C2  963   0.190   3.470  15.794 -0.1805 -0.3214 -0.0569
   62MPD2    C3  964   0.205   3.336  15.838  0.1989  0.4730  0.1193
   62MPD2    C4  965   0.119   3.298  15.940 -0.7573 -0.5018 -0.0368
   62MPD2    C5  966   0.046   3.395  16.008  0.5203 -0.0651  0.2157
   62MPD2     H  967   0.237   3.503  15.701  1.8747 -1.1315  0.6857
   62MPD2    H1  968   0.124   3.201  15.989 -1.6366 -1.1194 -1.1655
   62MPD2    H2  969   0.013   3.599  16.050 -0.4485  1.7522 -1.4004
   62MPD2    H3  970   0.007   3.377  16.107  0.0231 -1.2429 -0.1993
   62MPD2     N  971   0.275   3.234  15.768  0.0946  0.3975  0.4876
   62MPD2    H5  972   0.270   3.137  15.798  1.9712 -0.6310 -2.5836
   62MPD2    N1  973   0.110   3.705  15.810  0.0445 -0.0117  0.1592
   62MPD2    H7  974   0.163   3.720  15.725 -1.5230 -1.1443 -1.0362
   63TMC2    C1  975   4.338   3.728  10.284  0.7825  0.4623  0.3532
   63TMC2    C2  976   4.417   3.704  10.393 -0.1436 -0.2637 -0.4609
   63TMC2    C3  977   4.537   3.772  10.391  0.0032  0.3445  0.2068
   63TMC2    C4  978   4.379   3.810  10.176 -0.9560 -0.1066  0.8782
   63TMC2    C5  979   4.503   3.864  10.179 -0.3099  0.1938 -0.4646
   63TMC2    C6  980   4.580   3.856  10.290 -0.0065 -0.0429  0.3458
   63TMC2     C  981   4.216   3.657  10.272 -0.0023  0.0315 -0.4711
   63TMC2     O  982   4.135   3.698  10.186  0.0086 -0.3460  0.2728
   63TMC2     H  983   4.395   3.628  10.468 -0.8220 -0.0135 -0.4083
   63TMC2    H1  984   4.312   3.825  10.092 -2.6534  0.1922  2.2810
   63TMC2    H2  985   4.682   3.889  10.299  0.7793 -2.9579  2.0989
   63TMC2    C7  986   4.542   3.964  10.077 -0.3987  0.3240  0.0229
   63TMC2    C8  987   4.635   3.740  10.491 -0.6482  0.0651 -0.1907
   63TMC2    O1  988   4.469   3.967   9.979  0.1677  0.7546 -0.4487
   63TMC2    O2  989   4.617   3.635  10.549 -0.2483  0.3663 -0.6854
   63TMC2    O5  990   4.673   3.850  10.557 -0.2129  0.1877  0.2471
   63TMC2    H5  991   4.657   3.937  10.515 -1.9505  0.3287  1.1714
   64MPD2     C  992   3.890   3.276  10.386  0.2812  0.0191  0.2783
   64MPD2    C1  993   4.004   3.270  10.455 -0.9986  0.4893  0.3305
   64MPD2    C2  994   4.106   3.360  10.435 -0.1007  0.6399  0.4483
   64MPD2    C3  995   4.094   3.463  10.352 -0.3577 -0.2956  0.2176
   64MPD2    C4  996   3.976   3.473  10.284 -0.0722 -0.3120  0.1828
   64MPD2    C5  997   3.879   3.380  10.298  0.2933  0.2726 -0.7581
   64MPD2     H  998   4.206   3.347  10.474 -0.8848 -1.2633  1.8425
   64MPD2    H1  999   3.953   3.559  10.222  1.5940  0.2843  0.3870
   64MPD2    H2 1000   3.809   3.205  10.398  0.7030  0.0278  3.1463
   64MPD2    H3 1001   3.794   3.393  10.233 -0.5131  0.0215  0.2513
   64MPD2     N 1002   4.205   3.544  10.343  0.6381 -0.3827 -0.1796
   64MPD2    H5 1003   4.291   3.513  10.387  0.6829  0.5221  0.3882
   64MPD2    N1 1004   4.039   3.156  10.532 -0.5958 -0.0751 -0.6760
   64MPD2    H7 1005   4.136   3.148  10.559 -1.0753  1.2010  1.3460
   65TMC2    C1 1006   0.906   2.803  15.016  0.2808 -0.1953  0.1682
   65TMC2    C2 1007   0.874   2.761  14.892  0.1885  0.1132 -0.2329
   65TMC2    C3 1008   0.855   2.857  14.804 -0.3605  0.3367 -0.2097
   65TMC2    C4 1009   0.930   2.932  15.053  0.7274  0.1369  0.6847
   65TMC2    C5 1010   0.905   3.025  14.958  0.2938 -0.0950 -0.3720
   65TMC2    C6 1011   0.869   2.989  14.830 -0.5594  0.4459 -0.4291
   65TMC2     C 1012   0.914   2.703  15.123 -0.8507 -0.2587 -0.2661
   65TMC2     O 1013   0.980   2.735  15.220  0.4929 -0.5616 -0.4754
   65TMC2     H 1014   0.849   2.660  14.861  0.9644 -0.2179  0.2023
   65TMC2    H1 1015   0.970   2.942  15.153 -1.3119 -1.6174  1.6781
   65TMC2    H2 1016   0.836   3.061  14.756  3.4138  1.1275 -1.5333
   65TMC2    C7 1017   0.935   3.164  14.976 -0.6262 -0.1751 -0.6967
   65TMC2    C8 1018   0.818   2.809  14.669  0.3595  0.7999  0.1923
   65TMC2    O1 1019   0.932   3.237  14.877 -0.5649 -0.0661  0.4767
   65TMC2    O2 1020   0.745   2.713  14.665  0.0425  0.5782  0.2374
   65TMC2    O5 1021   0.806   2.917  14.585 -0.0804 -0.0197 -0.2489
   65TMC2    H5 1022   0.883   2.977  14.599  0.8238 -1.5671  1.5216
   66MPD2     C 1023   0.972   2.484  15.298  0.0121  0.3713 -0.6015
   66MPD2    C1 1024   0.872   2.480  15.202 -0.4793  0.3520  0.0818
   66MPD2    C2 1025   0.773   2.383  15.215  0.7128  0.0348 -0.0009
   66MPD2    C3 1026   0.769   2.303  15.324  0.3664 -0.3024 -1.1755
   66MPD2    C4 1027   0.868   2.311  15.418 -0.6429  0.0689  0.4527
   66MPD2    C5 1028   0.969   2.394  15.401  0.3474  0.3239 -0.4176
   66MPD2     H 1029   0.693   2.373  15.142  1.3313 -0.7343 -0.5590
   66MPD2    H1 1030   0.865   2.248  15.506 -0.3041  1.5795  1.5390
   66MPD2    H2 1031   1.054   2.554  15.302  0.1594  0.1050  1.0143
   66MPD2    H3 1032   1.047   2.400  15.476  1.0488  0.5297 -1.1717
   66MPD2     N 1033   0.668   2.209  15.355 -1.0414  0.2198 -0.3338
   66MPD2    H5 1034   0.665   2.158  15.442  0.6772  1.2729  0.3446
   66MPD2    N1 1035   0.856   2.581  15.101  0.0190  0.2051 -0.0619
   66MPD2    H7 1036   0.791   2.571  15.024 -0.8589 -0.7427  0.8020
   67TMC2    C1 1037   1.297   2.292  14.405 -0.3120 -0.0814 -0.1738
   67TMC2    C2 1038   1.306   2.400  14.317  0.0732 -0.5195 -0.4042
   67TMC2    C3 1039   1.429   2.449  14.297  0.1084 -1.3521  0.0012
   67TMC2    C4 1040   1.408   2.237  14.462  0.2682 -0.7777  0.5426
   67TMC2    C5 1041   1.530   2.281  14.421 -0.1886 -0.1854  0.5510
   67TMC2    C6 1042   1.540   2.392  14.339  0.7386  0.2574  0.1048
   67TMC2     C 1043   1.169   2.219  14.426 -0.5419 -0.9638 -0.3369
   67TMC2     O 1044   1.177   2.127  14.507  0.4486  0.3873  0.4602
   67TMC2     H 1045   1.216   2.454  14.288 -0.2728 -0.3354  1.0100
   67TMC2    H1 1046   1.394   2.152  14.528 -0.1413 -0.5050  0.8015
   67TMC2    H2 1047   1.634   2.425  14.296  0.9413  1.3150  1.3292
   67TMC2    C7 1048   1.648   2.245  14.498  0.4987  0.0821 -0.3593
   67TMC2    C8 1049   1.442   2.578  14.225 -0.2752  0.4559  0.0585
   67TMC2    O1 1050   1.757   2.267  14.438 -0.4081 -0.3306  0.0947
   67TMC2    O2 1051   1.361   2.635  14.153  0.2620  0.0114 -0.2153
   67TMC2    O5 1052   1.515   2.650  14.316  0.3248 -0.1989  0.1152
   67TMC2    H5 1053   1.557   2.600  14.389  1.3594 -0.6151 -0.7622
   68MPD2     C 1054   0.948   2.061  14.342  0.3217 -0.5519  0.7624
   68MPD2    C1 1055   0.946   2.197  14.339 -0.2398 -0.4345 -0.2510
   68MPD2    C2 1056   0.837   2.254  14.290  0.2191 -0.3598 -0.2364
   68MPD2    C3 1057   0.730   2.178  14.253 -0.2820  0.7510  0.1698
   68MPD2    C4 1058   0.732   2.045  14.239  0.1396 -0.7150  0.7167
   68MPD2    C5 1059   0.847   1.986  14.291  0.0494  0.4762  0.4725
   68MPD2     H 1060   0.834   2.362  14.286  2.6593 -0.3088 -0.3871
   68MPD2    H1 1061   0.646   1.987  14.206  0.6544 -1.8826  1.4071
   68MPD2    H2 1062   1.038   2.013  14.379  1.1688  1.1019  0.8306
   68MPD2    H3 1063   0.853   1.878  14.298 -2.1181  0.3978  0.9449
   68MPD2     N 1064   0.608   2.236  14.212 -0.3524  0.0771 -0.4595
   68MPD2    H5 1065   0.543   2.177  14.160 -1.2024 -0.4079  1.1455
   68MPD2    N1 1066   1.063   2.273  14.356 -0.0017 -0.0765  0.5432
   68MPD2    H7 1067   1.074   2.369  14.325 -0.1554  0.4077  1.9507
   69TMC2    C1 1068   3.577   3.553  12.317  0.7496 -0.1931 -0.2906
   69TMC2    C2 1069   3.484   3.651  12.307 -0.0632 -0.1258  0.6448
   69TMC2    C3 1070   3.446   3.694  12.181 -0.0699  0.0818 -0.3348
   69TMC2    C4 1071   3.621   3.488  12.213 -0.2332 -0.0031 -0.9116
   69TMC2    C5 1072   3.576   3.528  12.089 -0.5616 -1.0152  0.3294
   69TMC2    C6 1073   3.487   3.633  12.068  0.2429  0.4478 -0.5238
   69TMC2     C 1074   3.595   3.481  12.441 -0.1368  0.1751  0.0218
   69TMC2     O 1075   3.502   3.506  12.513  0.1581  0.2298  0.5268
   69TMC2     H 1076   3.450   3.699  12.398  1.6584  0.7864  0.8039
   69TMC2    H1 1077   3.670   3.391  12.209  1.7647  0.9428  0.6266
   69TMC2    H2 1078   3.446   3.668  11.974  0.6207  1.6599 -0.2417
   69TMC2    C7 1079   3.602   3.442  11.969  0.0833 -0.0233 -0.9828
   69TMC2    C8 1080   3.393   3.829  12.180 -0.2830  0.0851 -0.2629
   69TMC2    O1 1081   3.697   3.362  11.982 -0.0805 -0.0857  0.1025
   69TMC2    O2 1082   3.353   3.882  12.281 -0.2459 -0.0412 -0.8197
   69TMC2    O5 1083   3.459   3.897  12.081 -0.6144 -0.3483  0.4219
   69TMC2    H5 1084   3.528   3.846  12.034 -0.2484 -1.3580  2.0312
   70MPD2     C 1085   3.891   3.317  12.589  0.0585  0.3959  0.1360
   70MPD2    C1 1086   3.765   3.354  12.582  0.3494  0.3988  0.0984
   70MPD2    C2 1087   3.677   3.311  12.682  0.0922 -0.0854  0.0843
   70MPD2    C3 1088   3.726   3.235  12.788 -0.1285  0.2787 -0.0661
   70MPD2    C4 1089   3.860   3.205  12.800  0.0100  0.6093 -0.4014
   70MPD2    C5 1090   3.937   3.240  12.692  1.2074  0.0670  0.5860
   70MPD2     H 1091   3.572   3.317  12.656  0.1314 -2.2997 -0.5677
   70MPD2    H1 1092   3.899   3.143  12.879  2.5705  0.6868 -1.5955
   70MPD2    H2 1093   3.958   3.336  12.506 -0.5634 -1.1927 -0.7299
   70MPD2    H3 1094   4.042   3.215  12.696  0.9877 -0.9044  0.5191
   70MPD2     N 1095   3.653   3.198  12.901  0.0561 -0.1807  0.1411
   70MPD2    H5 1096   3.710   3.149  12.969  1.2446  0.0561 -0.6748
   70MPD2    N1 1097   3.719   3.422  12.464 -0.3812 -0.2603 -0.2240
   70MPD2    H7 1098   3.789   3.434  12.392 -0.9313  2.0515 -0.3643
   71TMC2    C1 1099   0.857   4.278   1.421 -0.2045 -0.6730 -0.0786
   71TMC2    C2 1100   0.823   4.394   1.489  0.5264  0.2630 -0.5094
   71TMC2    C3 1101   0.819   4.382   1.622 -1.1540  0.6818  0.3316
   71TMC2    C4 1102   0.883   4.163   1.486 -0.5844  0.5083 -0.0860
   71TMC2    C5 1103   0.902   4.156   1.616  0.4610 -0.4767  0.2456
   71TMC2    C6 1104   0.856   4.262   1.681 -0.1700 -0.6771 -0.2109
   71TMC2     C 1105   0.850   4.281   1.274 -0.1113  0.6251  0.6523
   71TMC2     O 1106   0.783   4.368   1.221 -0.0584  0.3849 -0.0782
   71TMC2     H 1107   0.775   4.475   1.435 -0.2360 -0.2739 -0.6397
   71TMC2    H1 1108   0.896   4.073   1.426 -0.8630  1.0128 -0.8983
   71TMC2    H2 1109   0.830   4.245   1.785  1.4970  0.0559  0.3283
   71TMC2    C7 1110   0.875   4.030   1.673  0.2091  0.5566  0.1017
   71TMC2    C8 1111   0.756   4.493   1.692  0.3378 -1.1105 -0.2719
   71TMC2    O1 1112   0.921   4.004   1.781 -0.0711  0.6490 -0.2770
   71TMC2    O2 1113   0.655   4.552   1.646  0.2852 -0.5028 -0.7585
   71TMC2    O5 1114   0.789   4.494   1.823  0.0990 -0.3278 -0.2096
   71TMC2    H5 1115   0.876   4.458   1.850 -0.7065 -2.1243  0.0054
   72MPD2     C 1116   0.942   4.061   0.808  0.3724 -0.3633 -0.2891
   72MPD2    C1 1117   0.873   4.177   0.844 -0.8284 -0.5733  1.1830
   72MPD2    C2 1118   0.880   4.219   0.974  0.2092 -0.2943 -0.0238
   72MPD2    C3 1119   0.938   4.150   1.073 -0.3600  0.4894 -0.9311
   72MPD2    C4 1120   1.011   4.034   1.035 -0.0546  0.1716  0.2376
   72MPD2    C5 1121   1.013   3.998   0.908 -0.0607 -0.4059  0.1409
   72MPD2     H 1122   0.839   4.317   0.995 -1.0202 -0.6817 -0.5952
   72MPD2    H1 1123   1.063   3.987   1.118  0.0076  0.0909  0.1540
   72MPD2    H2 1124   0.955   4.020   0.709  0.2628 -0.3987 -0.2889
   72MPD2    H3 1125   1.058   3.903   0.883  2.6980  1.2904 -1.2590
   72MPD2     N 1126   0.930   4.182   1.212 -0.4818  0.8434 -0.0244
   72MPD2    H5 1127   0.986   4.135   1.282 -0.1178  1.2596 -0.0347
   72MPD2    N1 1128   0.803   4.259   0.748  0.3104 -0.0173 -0.3659
   72MPD2    H7 1129   0.739   4.330   0.784  0.7180  0.3266 -0.3160
   73TMC2    C1 1130   4.290   0.257  13.529  0.4127 -0.0203  0.4224
   73TMC2    C2 1131   4.205   0.217  13.631  0.2662  0.2238  0.3447
   73TMC2    C3 1132   4.257   0.153  13.745 -0.0039 -0.3404  0.0219
   73TMC2    C4 1133   4.419   0.218  13.540  0.1328 -0.1081  0.0185
   73TMC2    C5 1134   4.466   0.156  13.648 -0.0253 -0.2016  0.4310
   73TMC2    C6 1135   4.389   0.119  13.755 -0.3325 -0.7462 -0.3867
   73TMC2     C 1136   4.297   0.402  13.513 -0.6316  0.1930  0.8368
   73TMC2     O 1137   4.412   0.447  13.505 -0.1502 -0.3324 -0.1013
   73TMC2     H 1138   4.099   0.237  13.621  0.2118 -0.5122 -0.5326
   73TMC2    H1 1139   4.483   0.248  13.458 -0.9008  1.6964 -0.1085
   73TMC2    H2 1140   4.426   0.063  13.840 -0.0200 -2.1964 -1.4765
   73TMC2    C7 1141   4.594   0.210  13.694 -0.0361  0.5289 -0.4514
   73TMC2    C8 1142   4.155   0.094  13.835 -0.0326 -0.0805  0.6455
   73TMC2    O1 1143   4.666   0.138  13.764 -0.5571 -0.4868 -0.1450
   73TMC2    O2 1144   4.156   4.715  13.882  0.3458 -0.5481 -0.0508
   73TMC2    O5 1145   4.070   0.191  13.860 -0.2224  0.0282 -0.2551
   73TMC2    H5 1146   4.116   0.275  13.839 -0.6388 -0.3474 -2.5977
   74MPD2     C 1147   4.139   0.891  13.457 -0.3858 -0.0821  0.0411
   74MPD2    C1 1148   4.250   0.843  13.524  0.6133  1.0679 -0.0877
   74MPD2    C2 1149   4.262   0.705  13.533  0.1456 -0.0033 -0.9217
   74MPD2    C3 1150   4.160   0.618  13.497  0.9161 -0.5572 -0.1154
   74MPD2    C4 1151   4.041   0.674  13.442 -0.0085 -0.3405 -0.0825
   74MPD2    C5 1152   4.033   0.814  13.415  0.7931 -0.0958 -1.2369
   74MPD2     H 1153   4.349   0.659  13.578  0.5203  2.3025  0.6846
   74MPD2    H1 1154   3.960   0.613  13.405  0.2221 -0.7994  0.1688
   74MPD2    H2 1155   4.122   0.998  13.452 -0.7249 -0.1341  0.0502
   74MPD2    H3 1156   3.936   0.859  13.393 -0.2011 -0.7203  1.7915
   74MPD2     N 1157   4.179   0.475  13.504  0.1592 -0.0591  0.2278
   74MPD2    H5 1158   4.092   0.430  13.477 -0.2046  0.7344  0.0854
   74MPD2    N1 1159   4.344   0.945  13.575  0.0250 -0.6018  0.0288
   74MPD2    H7 1160   4.330   1.037  13.536  0.7899  1.1431  3.9232
   75TMC2    C1 1161   0.469   2.426  14.156 -0.5680 -0.2909 -0.4492
   75TMC2    C2 1162   0.429   2.550  14.189 -0.6336 -0.0249  0.1728
   75TMC2    C3 1163   0.368   2.620  14.082  0.0402  0.6202 -0.4699
   75TMC2    C4 1164   0.458   2.385  14.026 -0.5174 -0.2372 -0.0299
   75TMC2    C5 1165   0.382   2.450  13.931 -0.8220 -0.2631  0.3525
   75TMC2    C6 1166   0.345   2.579  13.957  0.0050  0.2380 -0.7439
   75TMC2     C 1167   0.577   2.371  14.239 -0.3242  0.5360 -0.1707
   75TMC2     O 1168   0.614   2.441  14.333  0.2903 -1.1749  0.0730
   75TMC2     H 1169   0.445   2.581  14.292 -0.2786  0.8597 -0.1538
   75TMC2    H1 1170   0.499   2.293  13.987 -1.4355 -0.9508  0.6880
   75TMC2    H2 1171   0.286   2.644  13.893 -0.3781  1.1039  0.4843
   75TMC2    C7 1172   0.368   2.381  13.806  0.0880 -0.7627 -0.1690
   75TMC2    C8 1173   0.359   2.769  14.096 -0.0149 -0.1568 -0.7502
   75TMC2    O1 1174   0.383   2.259  13.805 -0.3727  0.2205  0.0522
   75TMC2    O2 1175   0.271   2.839  14.057 -0.1822  0.2772 -0.4374
   75TMC2    O5 1176   0.475   2.816  14.160 -0.0171 -0.4379  1.2083
   75TMC2    H5 1177   0.550   2.754  14.148  0.5496  0.0605  2.2092
   76TMC2    C1 1178   4.409   2.297  11.830  0.1237 -0.9009 -0.3985
   76TMC2    C2 1179   4.316   2.196  11.807  0.1355 -0.0361 -0.0116
   76TMC2    C3 1180   4.352   2.071  11.842  0.3126  0.5821 -0.3758
   76TMC2    C4 1181   4.536   2.273  11.879 -0.2784  0.9624 -0.5215
   76TMC2    C5 1182   4.562   2.143  11.918  0.1716 -0.4839  0.1581
   76TMC2    C6 1183   4.474   2.042  11.903  0.5652  0.7231  0.8310
   76TMC2     C 1184   4.371   2.432  11.781  0.3752 -0.2478 -0.2806
   76TMC2     O 1185   4.257   2.462  11.744  0.1861 -0.3498 -0.1648
   76TMC2     H 1186   4.221   2.223  11.762  0.7181 -0.4566 -1.4766
   76TMC2    H1 1187   4.602   2.353  11.910 -0.9877  2.0213 -1.7538
   76TMC2    H2 1188   4.505   1.947  11.945 -2.2321  0.6055  2.6119
   76TMC2    C7 1189   4.694   2.104  11.941  0.6759 -0.4961 -0.2111
   76TMC2    C8 1190   4.249   1.971  11.824 -0.0281 -0.4392  0.1313
   76TMC2    O1 1191   4.722   1.999  11.885 -0.3569  0.1108 -0.1651
   76TMC2    O2 1192   4.128   1.987  11.848  0.3687 -0.0364 -0.6292
   76TMC2    O5 1193   4.310   1.858  11.825  0.0062  0.3908  0.1495
   76TMC2    H5 1194   4.397   1.861  11.780 -1.0038 -2.2275 -1.9502
   77MPD2     C 1195   4.526   2.866  11.568  0.3713  0.0718  0.2098
   77MPD2    C1 1196   4.403   2.808  11.574 -0.1954  0.4899 -0.1310
   77MPD2    C2 1197   4.387   2.692  11.639  0.5067  0.8998 -0.1499
   77MPD2    C3 1198   4.497   2.621  11.682  0.4141 -0.8411 -0.0172
   77MPD2    C4 1199   4.621   2.677  11.676 -0.0744 -0.2907  0.4168
   77MPD2    C5 1200   4.632   2.802  11.626  0.2484  0.2687 -0.3624
   77MPD2     H 1201   4.287   2.650  11.637 -0.1120  2.3545  0.5421
   77MPD2    H1 1202   4.710   2.619  11.699  0.0716 -0.3973 -0.4046
   77MPD2    H2 1203   4.543   2.959  11.515  2.8278 -2.3845 -3.3550
   77MPD2    H3 1204   4.732   2.845  11.622 -0.9858  3.1328 -0.3794
   77MPD2     N 1205   4.488   2.504  11.753  0.0506  0.2315 -0.4010
   77MPD2    H5 1206   4.574   2.457  11.780  0.0406  1.1156  1.1686
   77MPD2    N1 1207   4.292   2.865  11.512  0.6309 -0.0015  0.1474
   77MPD2    H7 1208   4.207   2.814  11.489  1.0405 -0.6782  0.1492
   78TMC2    C1 1209   0.376   4.143   0.663 -0.2661  0.3921 -0.6461
   78TMC2    C2 1210   0.268   4.145   0.745  0.5425 -0.2268  0.1873
   78TMC2    C3 1211   0.284   4.084   0.872  0.7147 -0.2939  0.1554
   78TMC2    C4 1212   0.492   4.074   0.700 -0.0671  0.0189  0.1137
   78TMC2    C5 1213   0.499   4.005   0.822  0.1406  0.0025 -0.1575
   78TMC2    C6 1214   0.394   4.014   0.908  0.7019  0.5664 -0.1780
   78TMC2     C 1215   0.367   4.169   0.519  0.4170 -0.6971  0.1931
   78TMC2     O 1216   0.303   4.268   0.483  0.1884  0.4239 -0.6514
   78TMC2     H 1217   0.185   4.211   0.719  0.7121  0.3632  1.1488
   78TMC2    H1 1218   0.578   4.080   0.634  0.2328 -0.2559  0.4850
   78TMC2    H2 1219   0.405   3.968   1.006 -1.5788 -0.6522 -0.5125
   78TMC2    C7 1220   0.620   3.934   0.855 -0.4830 -0.4052  0.6025
   78TMC2    C8 1221   0.174   4.101   0.968  0.1724  0.2248 -0.2030
   78TMC2    O1 1222   0.678   3.890   0.760 -0.0713  0.4250  0.2509
   78TMC2    O2 1223   0.199   4.081   1.084  0.0223  0.2741  0.1647
   78TMC2    O5 1224   0.055   4.071   0.914 -0.2183  0.6915 -0.0397
   78TMC2    H5 1225   0.069   4.071   0.816  2.1998 -0.5807  0.2943
   79MPD1     C 1226   0.358   4.034   0.027  0.2099  0.3131 -0.1502
   79MPD1    C1 1227   0.356   4.157   0.081 -0.2476  0.2072  0.6877
   79MPD1    C2 1228   0.362   4.173   0.216  0.0720  0.4315  0.6327
   79MPD1    C3 1229   0.388   4.062   0.298 -0.2004 -0.1092  0.0152
   79MPD1    C4 1230   0.403   3.941   0.242  0.4474 -0.5993 -0.9626
   79MPD1    C5 1231   0.386   3.926   0.106 -0.3138  0.6807  0.2865
   79MPD1     H 1232   0.334   4.271   0.254 -0.2459  0.0783  1.3047
   79MPD1    H1 1233   0.416   3.855   0.307  2.3686  0.0622 -0.4812
   79MPD1    H2 1234   0.329   4.026  17.676  0.8348  1.2663 -0.3945
   79MPD1    H3 1235   0.402   3.823   0.076 -3.8976 -0.6686  3.0531
   79MPD1     N 1236   0.401   4.064   0.439 -0.2801  0.1224  0.2206
   79MPD1    H5 1237   0.435   3.980   0.484  1.1153  1.2971  1.3607
   79MPD1    N1 1238   0.299   4.253   0.001 -0.1089 -0.1435  0.4064
   79MPD1    H6 1239   0.331   4.238  17.659 -2.1917 -0.0380 -0.3078
   79MPD1    H7 1240   0.335   4.343   0.034  0.8659 -0.6624  0.7474
   80TMC2    C1 1241   2.894   2.332  11.516 -0.1313 -0.1960  0.3948
   80TMC2    C2 1242   2.864   2.291  11.389 -0.0144  0.7831 -0.1580
   80TMC2    C3 1243   2.770   2.198  11.366  0.2505  0.1054 -0.0727
   80TMC2    C4 1244   2.826   2.291  11.627 -0.7293  0.1979  0.4391
   80TMC2    C5 1245   2.729   2.201  11.598 -0.2073  0.4764 -0.4450
   80TMC2    C6 1246   2.694   2.164  11.467 -0.6434 -0.8526  0.2764
   80TMC2     C 1247   3.030   2.386  11.523  0.1464  0.7705 -0.5234
   80TMC2     O 1248   3.104   2.361  11.428  0.3922  0.0394  0.1693
   80TMC2     H 1249   2.911   2.332  11.301  2.6562  1.0394  1.3961
   80TMC2    H1 1250   2.865   2.306  11.727  0.6075 -0.9347  0.0913
   80TMC2    H2 1251   2.597   2.116  11.459 -0.0093 -1.9183 -0.8408
   80TMC2    C7 1252   2.639   2.152  11.701  0.0049  0.5519  0.4310
   80TMC2    C8 1253   2.729   2.151  11.232  0.1855 -0.2790 -0.3049
   80TMC2    O1 1254   2.546   2.082  11.660  0.0516  0.0911 -0.3278
   80TMC2    O2 1255   2.638   2.070  11.237 -0.3010 -0.6773 -0.2865
   80TMC2    O5 1256   2.718   2.264  11.163 -0.1353 -0.4941 -0.4044
   80TMC2    H5 1257   2.805   2.308  11.146 -0.3283  1.1132  2.8142
   81MPD2     C 1258   3.288   2.434  11.633  0.0514 -0.6491  0.2965
   81MPD2    C1 1259   3.176   2.495  11.688 -0.2179 -0.6763  0.7877
   81MPD2    C2 1260   3.185   2.576  11.810  0.2233 -0.2150  0.0467
   81MPD2    C3 1261   3.312   2.610  11.864 -0.9016  0.2066  0.1023
   81MPD2    C4 1262   3.423   2.550  11.800  0.6569  0.2109  0.5927
   81MPD2    C5 1263   3.406   2.469  11.692  0.2978  0.6111 -0.0279
   81MPD2     H 1264   3.097   2.630  11.840  1.0313  0.8910  0.4058
   81MPD2    H1 1265   3.526   2.579  11.822  1.1975 -0.9415 -0.4304
   81MPD2    H2 1266   3.295   2.376  11.542  0.9799 -0.6201  0.3476
   81MPD2    H3 1267   3.491   2.418  11.647  0.5191  2.6861 -1.9603
   81MPD2     N 1268   3.335   2.708  11.964 -0.1382  0.0708 -0.1758
   81MPD2    H5 1269   3.429   2.740  11.983 -0.0822  0.6473 -1.4167
   81MPD2    N1 1270   3.050   2.458  11.639  0.9229 -0.3314 -0.4125
   81MPD2    H7 1271   2.973   2.485  11.700  0.1975 -0.1315 -1.4249
   82TMC2    C1 1272   1.201   1.910  11.225 -0.6554  0.1262  0.4245
   82TMC2    C2 1273   1.310   1.912  11.310 -0.1037  0.1775 -0.2715
   82TMC2    C3 1274   1.327   1.813  11.401  0.3280 -0.2251 -0.2306
   82TMC2    C4 1275   1.114   1.802  11.232 -0.1620 -0.2807  0.6265
   82TMC2    C5 1276   1.133   1.710  11.338  0.8416 -0.2293  0.1408
   82TMC2    C6 1277   1.238   1.715  11.425  0.0812 -0.2042 -0.2577
   82TMC2     C 1278   1.178   2.015  11.117  0.2082  0.9041 -0.3018
   82TMC2     O 1279   1.084   2.004  11.038  0.1851  0.2969 -0.0909
   82TMC2     H 1280   1.377   1.997  11.305  1.9803 -1.2165  4.2282
   82TMC2    H1 1281   1.020   1.812  11.179  0.8221  0.5649 -0.9426
   82TMC2    H2 1282   1.266   1.637  11.495 -1.2105 -0.1133  0.3747
   82TMC2    C7 1283   1.033   1.613  11.366  0.0692 -0.3399 -0.1240
   82TMC2    C8 1284   1.451   1.819  11.480  0.4754 -0.9566  0.0149
   82TMC2    O1 1285   1.018   1.590  11.485 -0.0263  0.0558 -0.3505
   82TMC2    O2 1286   1.549   1.868  11.428  0.1130  0.3821  0.4780
   82TMC2    O5 1287   1.447   1.750  11.599 -0.1626  0.3679 -0.2936
   82TMC2    H5 1288   1.353   1.727  11.617 -0.2384  0.7281 -0.2169
   83MPD2     C 1289   1.311   2.458  10.880  0.1363  0.4878 -0.4593
   83MPD2    C1 1290   1.190   2.391  10.880  0.3629 -0.0119 -0.8759
   83MPD2    C2 1291   1.182   2.266  10.946 -0.2452  0.6707 -0.0415
   83MPD2    C3 1292   1.292   2.219  11.017  0.6250 -0.1427 -0.0923
   83MPD2    C4 1293   1.410   2.283  11.014  0.0725  0.0493 -0.4648
   83MPD2    C5 1294   1.416   2.399  10.947  0.2941 -0.0175 -0.3799
   83MPD2     H 1295   1.086   2.216  10.959  0.8445 -0.7238  2.6748
   83MPD2    H1 1296   1.492   2.243  11.073 -0.0186  0.6308  0.0490
   83MPD2    H2 1297   1.332   2.559  10.846 -2.2708  0.5853 -1.6013
   83MPD2    H3 1298   1.518   2.436  10.935  0.1754  0.7473  0.9711
   83MPD2     N 1299   1.283   2.105  11.103 -0.4847  0.0937  0.0846
   83MPD2    H5 1300   1.355   2.098  11.175 -0.2976 -0.3715 -0.1518
   83MPD2    N1 1301   1.086   2.454  10.810  0.6673  0.4840 -0.4635
   83MPD2    H7 1302   1.106   2.547  10.775 -1.1144 -0.0420 -2.8424
   84TMC2    C1 1303   2.279   1.195  10.930 -0.7234  0.0316 -0.2515
   84TMC2    C2 1304   2.373   1.267  10.861 -0.6006 -0.1417 -0.0303
   84TMC2    C3 1305   2.439   1.207  10.758 -0.5121 -0.7645  0.3995
   84TMC2    C4 1306   2.242   1.072  10.888 -0.2828  0.2312  0.0132
   84TMC2    C5 1307   2.309   1.016  10.780 -0.1699 -0.1666  0.1712
   84TMC2    C6 1308   2.403   1.084  10.711 -0.2868  0.1095  0.0094
   84TMC2     C 1309   2.235   1.238  11.064  0.7122  0.1014 -0.0713
   84TMC2     O 1310   2.158   1.160  11.121  0.2578  0.3504 -0.3149
   84TMC2     H 1311   2.398   1.371  10.883 -0.8897  0.0845 -0.7727
   84TMC2    H1 1312   2.163   1.010  10.930 -1.3074  0.9880 -0.7937
   84TMC2    H2 1313   2.450   1.051  10.618 -0.9260 -0.9347  0.0585
   84TMC2    C7 1314   2.256   0.897  10.720 -0.4207 -0.6568 -0.1394
   84TMC2    C8 1315   2.549   1.286  10.713  0.1133 -0.2094 -0.5369
   84TMC2    O1 1316   2.164   0.840  10.776 -0.3719  0.2802 -0.3138
   84TMC2    O2 1317   2.566   1.401  10.754 -0.1684  0.0286  0.4754
   84TMC2    O5 1318   2.643   1.190  10.714 -0.2555 -0.1355  0.4200
   84TMC2    H5 1319   2.616   1.097  10.699  0.2907 -0.1552 -0.4411
   85TMC2    C1 1320   3.515   4.130  16.080 -0.6219  0.1838 -0.5298
   85TMC2    C2 1321   3.395   4.183  16.114 -0.4741  0.2165  0.7920
   85TMC2    C3 1322   3.341   4.294  16.055 -0.2841  0.2368 -0.5861
   85TMC2    C4 1323   3.571   4.175  15.961 -0.6099  0.1622 -0.1457
   85TMC2    C5 1324   3.510   4.285  15.890  0.4146  0.1371 -0.1951
   85TMC2    C6 1325   3.401   4.345  15.946 -0.1422 -0.5562  0.5887
   85TMC2     C 1326   3.559   4.004  16.136 -0.0173 -0.1899  0.6240
   85TMC2     O 1327   3.676   3.992  16.172 -0.2477 -0.3416  0.1379
   85TMC2     H 1328   3.331   4.138  16.189 -0.4452  0.3258  0.8824
   85TMC2    H1 1329   3.662   4.130  15.922 -0.7894 -0.1486 -0.2013
   85TMC2    H2 1330   3.367   4.441  15.913 -2.5050 -2.3646 -2.1585
   85TMC2    C7 1331   3.509   4.265  15.744  0.4070 -0.2259 -0.2286
   85TMC2    C8 1332   3.214   4.346  16.097  0.9318  0.3516  0.2513
   85TMC2    O1 1333   3.583   4.181  15.696  0.1024  0.4733  0.2760
   85TMC2    O2 1334   3.195   4.371  16.217 -0.7561 -0.0203  0.5404
   85TMC2    O5 1335   3.127   4.287  16.013  0.3658 -0.7299  0.0179
   85TMC2    H5 1336   3.165   4.224  15.949  0.8294 -2.4347  1.9664
   86MPD2     C 1337   3.475   3.528  16.334 -0.1969  0.5185  0.3149
   86MPD2    C1 1338   3.386   3.553  16.227 -0.2797  0.2295  0.1930
   86MPD2    C2 1339   3.387   3.678  16.169  0.3617 -0.2054 -0.0936
   86MPD2    C3 1340   3.464   3.782  16.206 -0.0282  0.2936  0.4101
   86MPD2    C4 1341   3.560   3.762  16.312 -0.5993 -0.2516 -0.1919
   86MPD2    C5 1342   3.553   3.638  16.375 -0.9047  0.3119 -0.0850
   86MPD2     H 1343   3.319   3.695  16.086 -0.5819 -0.2736  0.6735
   86MPD2    H1 1344   3.623   3.841  16.352  0.1837 -0.8045 -0.3405
   86MPD2    H2 1345   3.491   3.433  16.383  0.5529  0.6811  0.3796
   86MPD2    H3 1346   3.619   3.616  16.458 -0.2550 -0.3433 -0.7684
   86MPD2     N 1347   3.457   3.907  16.147 -0.8553 -0.1256 -0.1443
   86MPD2    H5 1348   3.372   3.924  16.095  0.1642 -0.9303 -2.0801
   86MPD2    N1 1349   3.295   3.459  16.183  0.9908 -0.4598  0.3411
   86MPD2    H7 1350   3.235   3.485  16.105 -1.0391 -2.0585  1.3490
   87TMC2    C1 1351   1.413   2.093   0.213 -0.0232 -0.1143  0.7146
   87TMC2    C2 1352   1.432   1.960   0.239 -0.4447 -0.3762 -0.0038
   87TMC2    C3 1353   1.463   1.927   0.367 -1.2902 -0.0054  0.1176
   87TMC2    C4 1354   1.428   2.191   0.306  0.3723 -0.4255  0.1516
   87TMC2    C5 1355   1.466   2.152   0.433 -0.2327  0.8481  0.6801
   87TMC2    C6 1356   1.489   2.020   0.463 -0.6463  0.4082 -0.0037
   87TMC2     C 1357   1.403   2.138   0.075  0.8715 -0.0339 -0.0396
   87TMC2     O 1358   1.432   2.251   0.056 -0.0571 -0.0233  0.4972
   87TMC2     H 1359   1.414   1.880   0.168  0.0641 -0.8269  0.3787
   87TMC2    H1 1360   1.408   2.293   0.278  1.6669 -0.1025  0.4388
   87TMC2    H2 1361   1.514   1.988   0.563  4.4017  0.5024 -1.2225
   87TMC2    C7 1362   1.534   2.247   0.509  0.6170  0.2427  0.1797
   87TMC2    C8 1363   1.475   1.787   0.401  0.6711 -0.5239  0.5522
   87TMC2    O1 1364   1.572   2.349   0.446  0.6372 -0.5817  0.4097
   87TMC2    O2 1365   1.512   1.702   0.319  0.3267  0.9208  0.0824
   87TMC2    O5 1366   1.367   1.771   0.489  0.5454  0.0580 -0.2985
   87TMC2    H5 1367   1.349   1.842   0.554  1.1317  0.4495 -0.5730
   88MPD2     C 1368   1.634   2.206   0.863 -0.2974 -0.5785 -0.0546
   88MPD2    C1 1369   1.616   2.272   0.741  0.6586 -0.2779  0.0731
   88MPD2    C2 1370   1.675   2.394   0.719  0.5544  0.3582  0.1327
   88MPD2    C3 1371   1.740   2.451   0.827  0.0325  0.4008 -0.5665
   88MPD2    C4 1372   1.752   2.389   0.948  0.1050  0.1723  0.1874
   88MPD2    C5 1373   1.709   2.263   0.966 -0.6766 -0.1965  0.7277
   88MPD2     H 1374   1.656   2.457   0.632 -1.2652  1.4540  1.3349
   88MPD2    H1 1375   1.792   2.432   1.039 -0.3805  2.6236 -0.7649
   88MPD2    H2 1376   1.588   2.109   0.882 -2.1952  0.2132 -0.5740
   88MPD2    H3 1377   1.710   2.218   1.065  0.3524 -0.5732  0.5398
   88MPD2     N 1378   1.807   2.577   0.808  0.1031 -0.3424  0.4900
   88MPD2    H5 1379   1.857   2.617   0.886 -0.5660  0.9265  0.2549
   88MPD2    N1 1380   1.536   2.212   0.640 -0.5536 -1.1876 -0.2590
   88MPD2    H7 1381   1.484   2.127   0.661  0.6097 -1.6942  0.5900
   89TMC2    C1 1382   2.028   0.055   0.789 -0.2438  0.0190  0.0338
   89TMC2    C2 1383   2.048   0.053   0.654 -0.5732 -0.4582  0.6029
   89TMC2    C3 1384   2.009   0.152   0.574  0.1200 -0.2155  0.5464
   89TMC2    C4 1385   1.969   0.166   0.848 -0.6179 -0.0388  0.2965
   89TMC2    C5 1386   1.945   0.273   0.765 -0.3168 -0.2492 -0.8032
   89TMC2    C6 1387   1.955   0.267   0.630 -0.6539 -0.3224 -0.3413
   89TMC2     C 1388   2.059   4.675   0.870 -0.4283 -0.1649  0.2622
   89TMC2     O 1389   2.138   4.601   0.815 -0.8087  0.2386  0.4819
   89TMC2     H 1390   2.070   4.703   0.596 -1.7573 -0.6603  0.4502
   89TMC2    H1 1391   1.969   0.173   0.956  0.2333  1.0214  0.2156
   89TMC2    H2 1392   1.915   0.344   0.565  0.1314  2.2159  2.1882
   89TMC2    C7 1393   1.854   0.374   0.819  0.7199  0.4396 -0.4738
   89TMC2    C8 1394   2.024   0.158   0.427  0.7252 -0.4350 -0.1804
   89TMC2    O1 1395   1.801   0.336   0.923 -0.6107  0.3268 -0.2717
   89TMC2    O2 1396   1.995   0.059   0.355  0.2735 -0.4754  0.7738
   89TMC2    O5 1397   2.048   0.285   0.390 -0.2675 -0.6172 -0.1204
   89TMC2    H5 1398   2.087   0.351   0.451 -0.6654  0.5785 -1.1347
   90MPD2     C 1399   1.913   4.317   1.202 -0.3774 -0.0682  0.4170
   90MPD2    C1 1400   1.822   4.417   1.208  0.2428  0.7976  0.5337
   90MPD2    C2 1401   1.840   4.535   1.139 -0.3737 -1.2658  0.5193
   90MPD2    C3 1402   1.949   4.542   1.054  0.2570 -0.3743 -0.8112
   90MPD2    C4 1403   2.040   4.440   1.035 -0.4421  0.3005 -0.2304
   90MPD2    C5 1404   2.027   4.334   1.122  0.3354 -0.1510  0.6064
   90MPD2     H 1405   1.770   4.615   1.156  1.4957  0.2682  1.0092
   90MPD2    H1 1406   2.131   4.447   0.977 -0.3940  0.6463 -0.1175
   90MPD2    H2 1407   1.907   4.234   1.271 -4.0396 -1.3801 -1.5154
   90MPD2    H3 1408   2.099   4.253   1.129  3.0475  1.9887 -2.5381
   90MPD2     N 1409   1.969   4.661   0.975  0.3226 -0.1960  0.2948
   90MPD2    H5 1410   1.917   0.009   0.988  0.2956 -0.3354  1.1047
   90MPD2    N1 1411   1.699   4.404   1.282  0.1901  0.5464 -0.6490
   90MPD2    H7 1412   1.637   4.483   1.265  0.1262  0.5181 -0.5510
   91TMC2    C1 1413   3.137   4.730  16.172  0.6635  0.0071 -0.2131
   91TMC2    C2 1414   3.191   0.027  16.290  0.2876  0.3247 -0.4780
   91TMC2    C3 1415   3.147   4.709  16.410 -0.2876 -0.2081  0.0640
   91TMC2    C4 1416   3.021   4.662  16.169  0.6810 -0.0693  0.0912
   91TMC2    C5 1417   2.972   4.621  16.290 -0.6442 -0.5050 -0.1046
   91TMC2    C6 1418   3.033   4.641  16.407 -0.1366  0.1570 -0.3067
   91TMC2     C 1419   3.173   0.067  16.053  0.3670 -0.0780  0.0153
   91TMC2     O 1420   3.082   0.112  15.983 -0.7419 -0.2367  0.5180
   91TMC2     H 1421   3.262   0.108  16.299  0.7673 -0.1686  0.2577
   91TMC2    H1 1422   2.988   4.624  16.074 -2.0259 -1.9656  1.8025
   91TMC2    H2 1423   2.993   4.602  16.500  1.5728  0.0119  0.3783
   91TMC2    C7 1424   2.858   4.530  16.293  0.0660  0.1623  0.0053
   91TMC2    C8 1425   3.243   4.701  16.517 -0.1157 -1.0095 -0.9420
   91TMC2    O1 1426   2.818   4.492  16.405  0.1437 -0.3748  0.5159
   91TMC2    O2 1427   3.366   4.705  16.501 -0.0655 -0.0147 -0.0309
   91TMC2    O5 1428   3.186   4.679  16.635 -0.3995  0.5593 -0.0054
   91TMC2    H5 1429   3.089   4.683  16.649 -0.6009 -1.5326 -0.7245
   92MPD2     C 1430   3.315   0.220  15.843 -0.1180 -0.2421 -0.0478
   92MPD2    C1 1431   3.381   0.154  15.943 -0.1728  0.7561 -0.2948
   92MPD2    C2 1432   3.513   0.159  15.953  0.0640  0.1764 -0.5832
   92MPD2    C3 1433   3.590   0.228  15.860 -0.8849 -0.3801 -0.4234
   92MPD2    C4 1434   3.522   0.299  15.762 -0.0538 -0.0782  0.8819
   92MPD2    C5 1435   3.388   0.286  15.748 -0.1503  0.0026  0.0139
   92MPD2     H 1436   3.558   0.094  16.027  0.2732  0.2659 -0.6326
   92MPD2    H1 1437   3.576   0.359  15.690  0.2207 -0.7467  0.5247
   92MPD2    H2 1438   3.209   0.223  15.819 -0.5402 -1.4556  1.6618
   92MPD2    H3 1439   3.340   0.326  15.659  0.3426 -0.9785 -0.6914
   92MPD2     N 1440   3.725   0.235  15.886 -0.2490  0.0678  0.3500
   92MPD2    H5 1441   3.757   0.203  15.976  1.4523 -1.1276 -0.6640
   92MPD2    N1 1442   3.311   0.072  16.037 -0.6071 -0.6420 -0.4808
   92MPD2    H7 1443   3.363   0.018  16.106  0.1565 -0.9051 -1.2697
   93TMC2    C1 1444   0.253   0.046  13.719 -0.2207 -0.2518  0.1593
   93TMC2    C2 1445   0.184   0.012  13.833 -0.2053  0.6783  0.1415
   93TMC2    C3 1446   0.216   0.069  13.950 -0.1052 -1.0010 -0.2187
   93TMC2    C4 1447   0.369   0.119  13.727 -0.5551  0.2735  0.5911
   93TMC2    C5 1448   0.406   0.161  13.847  0.3011 -1.0251 -0.8404
   93TMC2    C6 1449   0.335   0.139  13.962  0.0323 -0.5114 -0.3154
   93TMC2     C 1450   0.209   0.001  13.588 -0.1435 -0.0918 -0.7339
   93TMC2     O 1451   0.271   0.020  13.487 -0.1574  0.0386 -0.3509
   93TMC2     H 1452   0.124   4.661  13.840  0.3380  0.1531 -2.0929
   93TMC2    H1 1453   0.437   0.145  13.647 -0.5712 -2.0322 -0.1660
   93TMC2    H2 1454   0.386   0.157  14.056  1.4216  0.4087 -1.2461
   93TMC2    C7 1455   0.539   0.222  13.855 -0.1948 -0.2927  0.1755
   93TMC2    C8 1456   0.132   0.014  14.057 -0.1137  0.1458  0.1092
   93TMC2    O1 1457   0.633   0.191  13.779  0.1824 -0.5324 -0.2572
   93TMC2    O2 1458   0.013   4.725  14.048  0.3069  0.0655  0.2255
   93TMC2    O5 1459   0.216   4.701  14.144  0.7061 -0.0161  0.7029
   93TMC2    H5 1460   0.305   4.696  14.101  2.7548  1.0552  4.8847
   94MPD2     C 1461   0.018   4.658  13.352 -0.2344 -0.3913 -0.2772
   94MPD2    C1 1462   4.733   4.661  13.492 -0.0858 -0.4602  0.2568
   94MPD2    C2 1463   4.611   4.615  13.536  0.9793 -0.4379 -0.4730
   94MPD2    C3 1464   4.506   4.600  13.443  0.2181  0.8160  0.6581
   94MPD2    C4 1465   4.527   4.616  13.309 -0.0107  0.0900 -0.3059
   94MPD2    C5 1466   4.650   4.654  13.268  0.0482  0.5238  0.5944
   94MPD2     H 1467   4.592   4.591  13.640  0.4198 -2.7222 -1.1009
   94MPD2    H1 1468   4.441   4.616  13.244  0.6357  0.3486 -1.1688
   94MPD2    H2 1469   0.116   4.679  13.313  0.4420 -1.4510  0.8417
   94MPD2    H3 1470   4.662   4.671  13.162  0.8352 -1.6615  0.3291
   94MPD2     N 1471   4.377   4.557  13.476  0.3888 -0.3443 -0.4014
   94MPD2    H5 1472   4.317   4.536  13.396  0.2850  2.5154 -1.0739
   94MPD2    N1 1473   0.081   4.700  13.594 -0.2871  0.2264 -0.7909
   94MPD2    H7 1474   0.048   4.703  13.689  0.9097  0.0962 -0.3712
   95TMC2    C1 1475   0.214   2.012  16.322 -0.6525  0.1531 -0.1768
   95TMC2    C2 1476   0.175   1.913  16.407 -0.2442 -0.7886 -0.3634
   95TMC2    C3 1477   0.195   1.934  16.541 -0.1897 -0.5115  0.2021
   95TMC2    C4 1478   0.272   2.128  16.367 -0.3386 -0.4674 -0.3420
   95TMC2    C5 1479   0.295   2.142  16.498  0.6878 -0.6653  0.1389
   95TMC2    C6 1480   0.251   2.050  16.586 -0.0063 -0.4938  0.1407
   95TMC2     C 1481   0.207   1.982  16.188 -0.0841 -0.3484 -0.7281
   95TMC2     O 1482   0.259   2.062  16.113 -0.2304 -0.0244  0.7277
   95TMC2     H 1483   0.143   1.816  16.371  1.0118 -1.4011  0.1607
   95TMC2    H1 1484   0.312   2.199  16.296 -0.3723  0.5174  0.6239
   95TMC2    H2 1485   0.281   2.044  16.690  0.2863 -1.6898 -0.0047
   95TMC2    C7 1486   0.320   2.281  16.548 -0.4829  0.2484  0.0784
   95TMC2    C8 1487   0.150   1.833  16.629  0.1238  0.3667  0.1540
   95TMC2    O1 1488   0.353   2.297  16.662  0.3810  0.2768  0.0706
   95TMC2    O2 1489   0.127   1.717  16.590 -0.5966 -0.3534 -0.3954
   95TMC2    O5 1490   0.081   1.886  16.732  0.4324  0.1307 -0.0807
   95TMC2    H5 1491   0.081   1.984  16.729 -0.8042  0.1178 -0.5032
   96MPD2     C 1492   0.197   1.646  15.785  0.0155  0.2105  0.1942
   96MPD2    C1 1493   0.245   1.776  15.785 -0.4587  0.3713 -0.5473
   96MPD2    C2 1494   0.245   1.852  15.906  0.3817  0.2156 -0.2976
   96MPD2    C3 1495   0.189   1.795  16.016 -0.3134  0.3803  0.0106
   96MPD2    C4 1496   0.144   1.656  16.007  0.1424  0.1405  0.1431
   96MPD2    C5 1497   0.135   1.595  15.889 -0.3856 -0.1622  0.2800
   96MPD2     H 1498   0.282   1.953  15.912 -0.4317  0.6620 -2.6759
   96MPD2    H1 1499   0.096   1.599  16.085 -0.8010 -1.0389 -1.3066
   96MPD2    H2 1500   0.189   1.587  15.694  0.8456 -0.7746  0.7710
   96MPD2    H3 1501   0.085   1.499  15.884  0.9859 -0.7311 -2.8439
   96MPD2     N 1502   0.170   1.853  16.149 -0.2043 -0.0779 -0.3393
   96MPD2    H5 1503   0.133   1.792  16.222  1.4376  0.2914  0.7841
   96MPD2    N1 1504   0.296   1.829  15.666  0.3493 -0.5032  0.4551
   96MPD2    H7 1505   0.287   1.773  15.582 -1.4449 -0.8631  0.8824
   97TMC2    C1 1506   2.489   0.001  17.618 -0.2759 -0.1408  0.5031
   97TMC2    C2 1507   2.355   0.030  17.614 -0.2286  0.6645 -0.6209
   97TMC2    C3 1508   2.335   0.168  17.584 -1.1800 -0.3013 -0.4840
   97TMC2    C4 1509   2.596   0.095  17.608 -0.9111  0.2034 -0.1129
   97TMC2    C5 1510   2.558   0.220  17.577  0.4539 -0.6570 -0.9126
   97TMC2    C6 1511   2.432   0.263  17.571  0.5159 -0.5733  0.4801
   97TMC2     C 1512   2.521   4.606  17.669 -0.1261 -0.0872  0.4668
   97TMC2     O 1513   2.427   4.536  17.701  0.4805 -0.2576  0.0188
   97TMC2     H 1514   2.279   4.691  17.618 -0.2333  0.7333  0.7334
   97TMC2    H1 1515   2.701   0.068  17.610 -1.0745 -0.3712  0.6287
   97TMC2    H2 1516   2.407   0.368  17.568  0.9242 -0.4687  0.7834
   97TMC2    C7 1517   2.663   0.314  17.611 -0.0010 -0.0158 -0.2819
   97TMC2    C8 1518   2.210   0.226  17.628  0.9341  0.1807 -0.7982
   97TMC2    O1 1519   2.751   0.289  17.695  0.1393 -0.3655  0.6480
   97TMC2    O2 1520   2.142   0.296  17.558 -0.2313  0.4544  0.0480
   97TMC2    O5 1521   2.154   0.148  17.718  0.2045 -0.1720  0.0571
   97TMC2    H5 1522   2.224   0.113   0.024  0.2727 -1.4082 -0.7553
   98MPD2     C 1523   2.836   4.268   0.129 -0.0414 -0.0621  0.4412
   98MPD2    C1 1524   2.705   4.290   0.151 -0.3301 -0.3537  0.2763
   98MPD2    C2 1525   2.638   4.380   0.071  0.5992  0.1146  0.3029
   98MPD2    C3 1526   2.709   4.470  17.748 -0.0318  0.4050 -0.1312
   98MPD2    C4 1527   2.846   4.440  17.723  0.6497  0.2846  0.2834
   98MPD2    C5 1528   2.904   4.338   0.032 -0.9369 -0.1653 -0.1832
   98MPD2     H 1529   2.538   4.407   0.102  0.7269  0.6278  0.2705
   98MPD2    H1 1530   2.915   4.498  17.663 -0.7189  2.1608  0.5406
   98MPD2    H2 1531   2.890   4.189   0.182  0.3467 -0.4239 -0.5016
   98MPD2    H3 1532   3.010   4.318   0.019 -0.5027  1.6390  0.7172
   98MPD2     N 1533   2.653   4.582  17.680  0.0215 -0.2305  0.5725
   98MPD2    H5 1534   2.727   4.644  17.649 -1.5268 -0.2819 -3.2282
   98MPD2    N1 1535   2.644   4.210   0.251  0.0719 -0.0227  0.2311
   98MPD2    H7 1536   2.693   4.125   0.276  0.1940  0.5552  1.9479
   99TMC2    C1 1537   1.337   1.527   1.546  0.3796  0.4789 -0.0941
   99TMC2    C2 1538   1.377   1.562   1.672 -0.1691 -0.2480 -0.4424
   99TMC2    C3 1539   1.283   1.619   1.760 -0.4090  0.1787 -0.2248
   99TMC2    C4 1540   1.210   1.543   1.506  0.2156 -0.0238  0.7882
   99TMC2    C5 1541   1.126   1.608   1.590  0.7765  0.0835 -0.1816
   99TMC2    C6 1542   1.161   1.653   1.717  0.6922 -0.0559 -0.0214
   99TMC2     C 1543   1.437   1.477   1.451 -0.1018 -0.2035  0.4573
   99TMC2     O 1544   1.552   1.454   1.494 -0.0349  0.1328  0.2538
   99TMC2     H 1545   1.479   1.549   1.706 -0.7839 -3.8314  0.0234
   99TMC2    H1 1546   1.178   1.558   1.404  1.7258 -1.9314  0.0301
   99TMC2    H2 1547   1.091   1.701   1.784  1.5551  1.3317 -0.1139
   99TMC2    C7 1548   0.983   1.618   1.553 -0.4089  0.0340 -0.2507
   99TMC2    C8 1549   1.343   1.669   1.884 -0.0358  0.3379 -0.1950
   99TMC2    O1 1550   0.906   1.685   1.624  0.1576  0.1907  0.2690
   99TMC2    O2 1551   1.457   1.706   1.881  0.1430  0.4907  0.2982
   99TMC2    O5 1552   1.251   1.698   1.979  0.4802  0.1457  0.0880
   99TMC2    H5 1553   1.169   1.645   1.973  0.4698  0.3683 -1.6776
  100MPD2     C 1554   1.596   1.403   1.206  0.3444 -0.8337 -0.0601
  100MPD2    C1 1555   1.458   1.423   1.211  0.1342  0.0415  0.0104
  100MPD2    C2 1556   1.381   1.407   1.099  0.4328  0.1325 -0.2596
  100MPD2    C3 1557   1.436   1.374   0.975 -0.1883  0.2972 -0.1374
  100MPD2    C4 1558   1.572   1.354   0.975 -0.3665 -0.0741  0.0451
  100MPD2    C5 1559   1.654   1.363   1.085  1.1415  0.0566  0.4268
  100MPD2     H 1560   1.278   1.440   1.098  0.0606 -1.0862 -2.2197
  100MPD2    H1 1561   1.628   1.330   0.885  0.1462 -2.0725  0.8909
  100MPD2    H2 1562   1.659   1.429   1.291  1.5792 -0.5973 -1.0307
  100MPD2    H3 1563   1.761   1.363   1.069  0.6543  0.6099 -2.7705
  100MPD2     N 1564   1.354   1.360   0.858 -0.2815 -0.6974  0.1740
  100MPD2    H5 1565   1.259   1.396   0.867  0.1238  0.5554 -0.4980
  100MPD2    N1 1566   1.387   1.472   1.327  0.3561  0.2242 -0.1987
  100MPD2    H7 1567   1.288   1.481   1.311  0.1766  1.9602  1.8975
  101TMC2    C1 1568   2.046   2.979  12.972 -0.4079  0.2336 -0.0804
  101TMC2    C2 1569   1.973   3.083  13.011  0.5355  0.0400  0.3839
  101TMC2    C3 1570   1.996   3.210  12.945 -0.2772  0.7750  0.3152
  101TMC2    C4 1571   2.147   2.989  12.878  0.3423  0.4715 -0.8691
  101TMC2    C5 1572   2.178   3.110  12.823  0.2148 -0.9149  0.8078
  101TMC2    C6 1573   2.096   3.217  12.852  0.5629  0.1275 -0.4018
  101TMC2     C 1574   1.991   2.849  13.008  0.1429 -0.7273 -0.3065
  101TMC2     O 1575   1.939   2.837  13.119 -1.0591  0.0993  0.3806
  101TMC2     H 1576   1.888   3.069  13.077  1.2206  0.4450  1.3513
  101TMC2    H1 1577   2.206   2.902  12.848  0.8895  0.1183  1.2236
  101TMC2    H2 1578   2.117   3.308  12.798  0.4273 -0.8715 -2.1291
  101TMC2    C7 1579   2.304   3.137  12.758 -1.0473  0.3690  0.0465
  101TMC2    C8 1580   1.902   3.326  12.951 -0.0321 -0.5328 -0.2417
  101TMC2    O1 1581   2.306   3.229  12.674  0.1834 -0.5008 -0.3200
  101TMC2    O2 1582   1.935   3.442  12.919 -0.7865  0.0684 -0.0031
  101TMC2    O5 1583   1.774   3.277  12.946 -0.5165 -0.4536  0.6551
  101TMC2    H5 1584   1.774   3.179  12.942  1.6918 -0.3465 -2.1035
  102MPD2     C 1585   2.017   2.534  12.826 -0.4847  0.2075  0.0130
  102MPD2    C1 1586   1.977   2.622  12.926 -0.2911  0.3077  0.5235
  102MPD2    C2 1587   1.889   2.568  13.022 -0.4309 -0.0884  0.1824
  102MPD2    C3 1588   1.846   2.440  13.031  0.2398  0.3942  0.1829
  102MPD2    C4 1589   1.877   2.362  12.914  0.0146 -0.9470 -0.6373
  102MPD2    C5 1590   1.967   2.407  12.816  0.0310 -0.1432 -0.3468
  102MPD2     H 1591   1.863   2.629  13.108  0.1368 -1.0828  1.0570
  102MPD2    H1 1592   1.834   2.264  12.896 -4.0080  0.7812 -0.5370
  102MPD2    H2 1593   2.080   2.566  12.744 -1.1396  0.5329 -0.3581
  102MPD2    H3 1594   1.995   2.340  12.736 -0.0178  1.0618 -1.3827
  102MPD2     N 1595   1.765   2.398  13.142  0.3763  0.0261 -0.5878
  102MPD2    H5 1596   1.762   2.465  13.218  3.0054 -0.3423 -0.1641
  102MPD2    N1 1597   2.016   2.761  12.910 -0.3548 -0.2305  0.0256
  102MPD2    H7 1598   2.056   2.792  12.823 -1.2458  1.0744  0.0647
  103TMC2    C1 1599   0.428   2.572  12.369 -0.1189  0.8040 -0.1022
  103TMC2    C2 1600   0.462   2.705  12.367 -0.7503 -0.1602  0.1991
  103TMC2    C3 1601   0.457   2.775  12.487 -0.3655  0.1841 -0.2705
  103TMC2    C4 1602   0.386   2.513  12.489 -0.5784 -0.6094  0.4951
  103TMC2    C5 1603   0.401   2.584  12.608  0.1938  0.0236  0.0083
  103TMC2    C6 1604   0.427   2.719  12.608  0.5097 -0.2352  0.0578
  103TMC2     C 1605   0.375   2.508  12.255  0.0338  0.7086  0.2065
  103TMC2     O 1606   0.308   2.576  12.174  0.2022 -0.4713  0.5663
  103TMC2     H 1607   0.485   2.749  12.271 -0.7183  1.8800  1.1430
  103TMC2    H1 1608   0.351   2.411  12.482  2.9666 -1.5952 -2.9957
  103TMC2    H2 1609   0.414   2.776  12.699 -0.1393  1.2504 -0.9660
  103TMC2    C7 1610   0.340   2.531  12.731  0.3921  0.0338  0.8317
  103TMC2    C8 1611   0.517   2.901  12.492  0.0425  0.4041  0.6933
  103TMC2    O1 1612   0.368   2.592  12.834  0.0994 -0.0507  0.0697
  103TMC2    O2 1613   0.618   2.917  12.423 -0.2381 -0.5129 -0.6984
  103TMC2    O5 1614   0.408   2.976  12.484 -0.7042  0.6240  0.3198
  103TMC2    H5 1615   0.324   2.925  12.476 -0.1686 -0.5650  2.2646
  104MPD2     C 1616   0.431   2.163  12.132 -0.2353  0.2765  0.0983
  104MPD2    C1 1617   0.359   2.279  12.160 -0.4409  0.0751 -0.3716
  104MPD2    C2 1618   0.234   2.287  12.108 -0.1461  0.2220  0.6176
  104MPD2    C3 1619   0.170   2.185  12.035 -0.7425 -0.1434  0.3961
  104MPD2    C4 1620   0.244   2.075  11.999 -0.3894  0.1000 -0.3278
  104MPD2    C5 1621   0.375   2.062  12.051  0.3390  0.3230  0.1490
  104MPD2     H 1622   0.178   2.378  12.128 -0.1446  0.7545 -1.7760
  104MPD2    H1 1623   0.204   2.001  11.931  1.8888 -1.9492  0.5359
  104MPD2    H2 1624   0.528   2.154  12.179 -0.7186 -0.7090  0.8955
  104MPD2    H3 1625   0.433   1.971  12.042  1.1668  0.8870 -0.1640
  104MPD2     N 1626   0.031   2.194  12.010  0.6787 -0.1305  0.5760
  104MPD2    H5 1627   4.722   2.275  12.047 -1.5897 -0.5885 -1.3488
  104MPD2    N1 1628   0.421   2.377  12.239 -0.3488 -0.2359 -0.0545
  104MPD2    H7 1629   0.495   2.349  12.303  0.8240  0.1618 -1.2358
  105TMC2    C1 1630   1.802   2.508  17.016  0.6799  0.2696 -0.0656
  105TMC2    C2 1631   1.908   2.534  17.099 -0.3019  0.3283  0.0206
  105TMC2    C3 1632   1.915   2.455  17.207  0.3044 -0.3182  0.2354
  105TMC2    C4 1633   1.686   2.447  17.055 -0.3711 -0.3766  0.4357
  105TMC2    C5 1634   1.691   2.382  17.177  0.1613 -1.1679  0.1317
  105TMC2    C6 1635   1.809   2.377  17.240  0.8155 -1.0671 -0.4936
  105TMC2     C 1636   1.833   2.549  16.882  0.1455 -0.1473  0.0651
  105TMC2     O 1637   1.901   2.654  16.872  0.3133 -0.1639  0.2783
  105TMC2     H 1638   1.990   2.598  17.069  0.9995 -2.3759 -2.1266
  105TMC2    H1 1639   1.594   2.445  16.997 -0.6207  2.4480  0.7569
  105TMC2    H2 1640   1.823   2.316  17.329 -1.2210 -0.1781  0.4267
  105TMC2    C7 1641   1.580   2.296  17.218  0.0697  0.4324 -0.0207
  105TMC2    C8 1642   2.026   2.465  17.299 -0.1466  0.2623 -0.3413
  105TMC2    O1 1643   1.495   2.266  17.131 -0.3115 -0.0670  0.0953
  105TMC2    O2 1644   2.027   2.424  17.412  0.5102 -0.1460  0.2813
  105TMC2    O5 1645   2.126   2.517  17.226 -0.3239 -0.2488  0.0665
  105TMC2    H5 1646   2.111   2.513  17.129 -0.1064 -0.7862  0.0540
  106MPD2     C 1647   1.832   2.441  16.382  1.1044 -0.7992 -0.0373
  106MPD2    C1 1648   1.725   2.385  16.442 -0.7000 -0.0807 -0.6444
  106MPD2    C2 1649   1.706   2.398  16.578 -0.0557  0.0119 -0.1902
  106MPD2    C3 1650   1.795   2.466  16.655  0.2150  0.2617  0.1546
  106MPD2    C4 1651   1.902   2.515  16.595 -0.4772  0.1364  0.1509
  106MPD2    C5 1652   1.930   2.491  16.467  0.5793  0.5800  0.6298
  106MPD2     H 1653   1.620   2.346  16.619 -1.6084  2.3753 -0.4750
  106MPD2    H1 1654   1.973   2.578  16.648 -2.5318  1.8041  0.9560
  106MPD2    H2 1655   1.865   2.422  16.281 -0.7467 -1.3426 -0.5360
  106MPD2    H3 1656   2.014   2.539  16.416  0.2857 -3.0177 -3.2426
  106MPD2     N 1657   1.766   2.470  16.793  0.6075 -0.1759  0.3868
  106MPD2    H5 1658   1.692   2.407  16.821  0.5609 -0.5387 -0.5507
  106MPD2    N1 1659   1.622   2.328  16.368  0.2596  0.1068  0.2180
  106MPD2    H7 1660   1.546   2.297  16.427 -0.2411  2.7224  0.9530
  107TMC2    C1 1661   1.647   1.537  11.778  0.4988  0.0662  0.3519
  107TMC2    C2 1662   1.552   1.482  11.695  0.4317  0.0264  0.9129
  107TMC2    C3 1663   1.590   1.440  11.573  0.2087 -0.1360 -0.5068
  107TMC2    C4 1664   1.773   1.545  11.737  0.2223  0.2997 -0.2186
  107TMC2    C5 1665   1.806   1.510  11.610 -0.0216 -0.2749 -0.2011
  107TMC2    C6 1666   1.719   1.449  11.527 -0.6332 -0.4238 -0.6397
  107TMC2     C 1667   1.607   1.578  11.912 -0.2020 -0.2563  0.2400
  107TMC2     O 1668   1.509   1.529  11.957 -0.3755  0.2648  0.6507
  107TMC2     H 1669   1.448   1.475  11.724  0.2867  0.5459  0.4947
  107TMC2    H1 1670   1.856   1.583  11.795 -1.1648  1.2349  1.1284
  107TMC2    H2 1671   1.749   1.416  11.429 -2.0519  1.6936 -1.7757
  107TMC2    C7 1672   1.931   1.560  11.558  0.5246 -0.8013 -1.0948
  107TMC2    C8 1673   1.478   1.428  11.483  0.7905 -0.5815  0.4379
  107TMC2    O1 1674   1.988   1.646  11.627 -0.0456 -0.1333 -0.3842
  107TMC2    O2 1675   1.365   1.409  11.529 -0.1184 -0.5981 -0.0804
  107TMC2    O5 1676   1.518   1.482  11.364 -0.2226 -0.3766  0.3286
  107TMC2    H5 1677   1.613   1.504  11.359 -1.2291  3.5064 -1.6198
  108MPD2     C 1678   1.779   1.790  12.158  0.0959 -0.1187  0.6769
  108MPD2    C1 1679   1.667   1.737  12.095 -0.5962 -0.1453 -0.9453
  108MPD2    C2 1680   1.553   1.732  12.172 -0.7020 -0.6779 -0.0072
  108MPD2    C3 1681   1.540   1.778  12.303 -0.2101 -0.8131 -0.1726
  108MPD2    C4 1682   1.654   1.829  12.360 -0.1097  0.0300 -0.4060
  108MPD2    C5 1683   1.765   1.839  12.286  0.0171 -0.3061 -0.4367
  108MPD2     H 1684   1.467   1.682  12.131 -1.2091  1.3233 -1.4313
  108MPD2    H1 1685   1.659   1.853  12.466  0.3025 -1.4146 -0.1023
  108MPD2    H2 1686   1.875   1.795  12.107 -0.7981 -0.6853 -1.0649
  108MPD2    H3 1687   1.851   1.889  12.330 -0.1498 -1.2824  1.0215
  108MPD2     N 1688   1.424   1.773  12.383 -0.3337  0.4646 -0.4312
  108MPD2    H5 1689   1.432   1.814  12.476 -1.2234 -0.9940  0.2939
  108MPD2    N1 1690   1.687   1.669  11.970 -0.2585  0.0361 -0.0526
  108MPD2    H7 1691   1.779   1.682  11.930  0.3050  0.1196  1.2581
  109TMC2    C1 1692   1.587   3.375  17.734  0.6852  0.4341  0.0487
  109TMC2    C2 1693   1.595   3.486  17.656 -0.0133  0.0074  0.2258
  109TMC2    C3 1694   1.717   3.541  17.628  0.0502  0.0182 -0.0947
  109TMC2    C4 1695   1.694   3.323   0.041 -0.0821 -0.4428 -0.3174
  109TMC2    C5 1696   1.817   3.374   0.018  0.2122 -0.2870  0.4588
  109TMC2    C6 1697   1.831   3.485  17.689  1.2947  0.3230 -0.4291
  109TMC2     C 1698   1.454   3.338   0.023 -0.1169 -0.0210 -0.4352
  109TMC2     O 1699   1.361   3.363  17.693 -0.3338  1.2230 -0.2917
  109TMC2     H 1700   1.511   3.520  17.598 -0.3043 -0.3622  0.4326
  109TMC2    H1 1701   1.695   3.226   0.088  2.7041 -0.0136  0.4923
  109TMC2    H2 1702   1.924   3.537  17.670  1.7261 -0.0129  0.7893
  109TMC2    C7 1703   1.917   3.349   0.118 -0.1614  0.5539 -0.3230
  109TMC2    C8 1704   1.734   3.667  17.554  0.3372  0.0946  0.1867
  109TMC2    O1 1705   1.899   3.257   0.197 -0.0790  0.6078  0.5087
  109TMC2    O2 1706   1.833   3.741  17.564  0.2051  0.2095 -0.1480
  109TMC2    O5 1707   1.660   3.658  17.445 -0.2986  0.0610 -0.2652
  109TMC2    H5 1708   1.576   3.610  17.462 -0.1314 -0.2117 -0.2155
  110MPD2     C 1709   1.121   3.226   0.392 -0.5455 -1.3989  0.0963
  110MPD2    C1 1710   1.243   3.259   0.441 -0.6392  0.4900  0.0500
  110MPD2    C2 1711   1.354   3.275   0.366  0.2102 -0.4914 -0.5294
  110MPD2    C3 1712   1.334   3.273   0.228 -1.0596  0.0641 -0.5244
  110MPD2    C4 1713   1.208   3.244   0.167 -0.4416  0.0503 -0.2791
  110MPD2    C5 1714   1.108   3.218   0.257  0.1246 -0.3041  0.3308
  110MPD2     H 1715   1.441   3.318   0.415 -0.8372 -1.6797  2.3860
  110MPD2    H1 1716   1.193   3.237   0.060 -0.3747 -2.3181 -0.1267
  110MPD2    H2 1717   1.041   3.187   0.454 -0.2398  0.3153  1.5547
  110MPD2    H3 1718   1.012   3.191   0.215 -0.8995  0.2514  2.3736
  110MPD2     N 1719   1.451   3.297   0.154  0.0514 -0.2356 -0.8728
  110MPD2    H5 1720   1.532   3.307   0.213  0.4965  0.2901 -1.5736
  110MPD2    N1 1721   1.246   3.291   0.579  0.2411 -0.0854  0.6115
  110MPD2    H7 1722   1.158   3.284   0.628 -0.0679 -0.2655  0.0362
  111TMC2    C1 1723   2.734   3.506  11.213 -0.2927  0.3718  0.7082
  111TMC2    C2 1724   2.843   3.441  11.160  0.0226 -0.0234 -0.1010
  111TMC2    C3 1725   2.959   3.427  11.230 -0.3924  0.2747  0.0744
  111TMC2    C4 1726   2.736   3.552  11.341 -0.1490 -0.0778 -0.6146
  111TMC2    C5 1727   2.846   3.528  11.413  0.2029  0.6960  0.2395
  111TMC2    C6 1728   2.960   3.474  11.357  0.2591 -0.0224 -0.3407
  111TMC2     C 1729   2.609   3.531  11.137  0.5173  0.1943  0.1623
  111TMC2     O 1730   2.577   3.456  11.044  0.2663 -0.4427  0.1938
  111TMC2     H 1731   2.831   3.426  11.053 -0.3974  0.5109 -0.1321
  111TMC2    H1 1732   2.644   3.584  11.388  0.1494 -1.7603  1.1264
  111TMC2    H2 1733   3.041   3.445  11.423 -2.0983 -2.7352  1.3969
  111TMC2    C7 1734   2.829   3.528  11.556  0.0597 -0.5668  0.0481
  111TMC2    C8 1735   3.084   3.394  11.164  0.6293 -0.4083 -0.5759
  111TMC2    O1 1736   2.926   3.527  11.630 -0.0003  0.1610 -0.3957
  111TMC2    O2 1737   3.193   3.396  11.224 -0.1738 -0.1403 -0.3861
  111TMC2    O5 1738   3.063   3.355  11.037  0.0056  0.3684  0.1370
  111TMC2    H5 1739   2.972   3.334  11.008 -0.3483 -0.1370  1.6184
  112MPD2     C 1740   2.176   3.800  11.128 -0.4332 -0.2668 -0.9161
  112MPD2    C1 1741   2.194   3.666  11.097  0.2263 -0.8400  1.4151
  112MPD2    C2 1742   2.325   3.624  11.097 -0.3766 -0.3974  0.2644
  112MPD2    C3 1743   2.434   3.702  11.144  0.5353 -0.4533 -0.0045
  112MPD2    C4 1744   2.411   3.834  11.167  0.4995 -0.1443 -0.4255
  112MPD2    C5 1745   2.288   3.879  11.152 -0.2894 -0.0703 -0.1864
  112MPD2     H 1746   2.342   3.522  11.066 -0.5674 -0.9508  1.9849
  112MPD2    H1 1747   2.483   3.909  11.199  0.2089  0.4723 -1.2197
  112MPD2    H2 1748   2.083   3.854  11.113 -0.6562  0.2733  2.4220
  112MPD2    H3 1749   2.286   3.987  11.160  2.7954 -0.1683  2.3229
  112MPD2     N 1750   2.565   3.656  11.166  0.1703 -0.0441 -0.5802
  112MPD2    H5 1751   2.623   3.722  11.216  1.9749 -0.6566 -1.8715
  112MPD2    N1 1752   2.089   3.590  11.035 -0.1316  0.0980 -0.2149
  112MPD2    H7 1753   2.104   3.497  10.998 -1.5268 -0.5151  0.7962
  113TMC2    C1 1754   0.439   0.988   0.399  0.7112 -0.2556 -0.0330
  113TMC2    C2 1755   0.371   1.054   0.298 -0.2932 -0.2350 -0.5189
  113TMC2    C3 1756   0.274   0.980   0.231  0.4580 -0.0982 -0.1792
  113TMC2    C4 1757   0.403   0.872   0.456  0.0919  0.0687  0.4844
  113TMC2    C5 1758   0.309   0.804   0.386  0.6341 -0.3378 -0.2430
  113TMC2    C6 1759   0.243   0.857   0.274  0.3221 -0.0920 -0.1582
  113TMC2     C 1760   0.539   1.073   0.462 -0.7535  0.0626  0.3481
  113TMC2     O 1761   0.543   1.190   0.425  0.4217  0.0169  0.4788
  113TMC2     H 1762   0.421   1.136   0.246 -0.6891  1.1670  1.3284
  113TMC2    H1 1763   0.462   0.822   0.532 -1.6556 -0.8081  1.2662
  113TMC2    H2 1764   0.162   0.797   0.234 -0.2069  0.0851  0.6442
  113TMC2    C7 1765   0.235   0.692   0.446  0.1165 -0.7343 -0.9262
  113TMC2    C8 1766   0.207   1.037   0.114  0.6416  0.8603 -0.0106
  113TMC2    O1 1767   0.179   0.612   0.374  0.5496  0.6852 -0.2808
  113TMC2    O2 1768   0.171   0.965   0.026 -0.0739 -0.2169  0.5597
  113TMC2    O5 1769   0.151   1.151   0.157  0.1182 -0.2579 -0.4664
  113TMC2    H5 1770   0.201   1.180   0.236  0.4637  1.6239 -1.3853
  114MPD2     C 1771   0.952   1.197   0.746 -0.0025 -0.0290  0.5808
  114MPD2    C1 1772   0.833   1.262   0.727 -0.7282 -0.2093  0.6055
  114MPD2    C2 1773   0.727   1.203   0.659 -0.0247  0.1290 -0.0188
  114MPD2    C3 1774   0.747   1.074   0.599 -0.0686  0.2192  0.3167
  114MPD2    C4 1775   0.869   1.013   0.626  0.0241 -0.0527 -0.6241
  114MPD2    C5 1776   0.966   1.075   0.697  0.4091  0.8775  0.2353
  114MPD2     H 1777   0.637   1.264   0.657  0.0023  0.1525 -0.5055
  114MPD2    H1 1778   0.902   0.917   0.587 -3.0058 -0.9693 -0.9149
  114MPD2    H2 1779   1.040   1.239   0.794 -0.2806  0.3647  0.7499
  114MPD2    H3 1780   1.059   1.021   0.711  1.4439  2.5749 -0.1244
  114MPD2     N 1781   0.645   1.006   0.523  0.2847 -0.3086  0.3510
  114MPD2    H5 1782   0.660   0.907   0.506 -0.3151 -0.1850 -0.9354
  114MPD2    N1 1783   0.816   1.388   0.785 -0.1191 -0.1477 -0.1303
  114MPD2    H7 1784   0.725   1.430   0.768 -0.1469  0.1533  0.7120
  115TMC2    C1 1785   0.990   3.401  17.227 -0.0173 -0.2929 -0.4589
  115TMC2    C2 1786   1.129   3.394  17.202 -0.0460 -0.3338 -0.2524
  115TMC2    C3 1787   1.211   3.509  17.211  0.5845 -0.1570  0.9691
  115TMC2    C4 1788   0.937   3.518  17.283  0.1470 -0.4498  0.0358
  115TMC2    C5 1789   1.019   3.624  17.284  0.5116  0.1819  0.0637
  115TMC2    C6 1790   1.158   3.629  17.255 -0.4952 -0.5133 -0.0874
  115TMC2     C 1791   0.924   3.274  17.252 -0.3598 -0.0878  0.4358
  115TMC2     O 1792   0.970   3.174  17.202 -0.0848  0.8223 -0.0633
  115TMC2     H 1793   1.177   3.299  17.183  0.4686 -0.1858  0.3074
  115TMC2    H1 1794   0.831   3.538  17.288  0.1318 -0.4778 -0.2158
  115TMC2    H2 1795   1.228   3.711  17.267  0.0132 -1.0753  0.8510
  115TMC2    C7 1796   0.952   3.754  17.317 -0.2132  0.1888 -0.7326
  115TMC2    C8 1797   1.350   3.485  17.261 -0.1151 -0.5042 -0.4002
  115TMC2    O1 1798   0.856   3.743  17.390 -0.2262  0.3077  0.1696
  115TMC2    O2 1799   1.378   3.541  17.366 -0.3872 -0.0838  0.0503
  115TMC2    O5 1800   1.398   3.362  17.225 -0.2481 -0.2952  0.5702
  115TMC2    H5 1801   1.368   3.337  17.135  0.5641 -1.5538  0.6405
  116MPD2     C 1802   0.526   3.010  17.463 -0.2562 -0.0540 -0.0287
  116MPD2    C1 1803   0.617   2.974  17.365 -0.0045 -0.0969  0.7567
  116MPD2    C2 1804   0.720   3.059  17.326  0.4155 -0.0408 -0.1568
  116MPD2    C3 1805   0.727   3.192  17.377  0.7673 -0.5682  0.3684
  116MPD2    C4 1806   0.626   3.226  17.467  0.6248 -0.4635  0.6131
  116MPD2    C5 1807   0.542   3.132  17.523 -0.8179 -0.2323  0.5002
  116MPD2     H 1808   0.799   3.023  17.261  0.8084 -0.6488  0.6521
  116MPD2    H1 1809   0.636   3.324  17.511  2.0017  0.8298 -2.5745
  116MPD2    H2 1810   0.463   2.929  17.498 -2.1812  1.2137 -0.5709
  116MPD2    H3 1811   0.486   3.154  17.613 -1.4053  2.1710 -0.4404
  116MPD2     N 1812   0.816   3.295  17.330 -0.0526  0.3864  0.2279
  116MPD2    H5 1813   0.788   3.390  17.350 -0.6693  0.2650 -0.0591
  116MPD2    N1 1814   0.591   2.843  17.307 -0.3215  0.2118 -0.3950
  116MPD2    H7 1815   0.528   2.788  17.364  0.3647 -0.0528  0.1084
  117TMC2    C1 1816   3.882   0.722  13.791  0.1993 -0.0495  0.6399
  117TMC2    C2 1817   3.970   0.618  13.806  0.8146 -0.1059  0.0564
  117TMC2    C3 1818   4.100   0.653  13.841 -0.0539  0.1689 -0.1724
  117TMC2    C4 1819   3.917   0.854  13.813  0.7613  0.5708  0.3357
  117TMC2    C5 1820   4.049   0.883  13.849  0.5230  0.9068 -0.4991
  117TMC2    C6 1821   4.139   0.782  13.857  0.7453  0.4341 -0.5282
  117TMC2     C 1822   3.744   0.691  13.762 -0.2425 -0.5315 -0.6069
  117TMC2     O 1823   3.719   0.578  13.737 -0.2908 -0.4506 -0.3664
  117TMC2     H 1824   3.942   0.514  13.791 -1.0817  0.1116  1.9644
  117TMC2    H1 1825   3.849   0.938  13.821  0.4250  0.4261 -0.9801
  117TMC2    H2 1826   4.243   0.811  13.852  0.9257 -0.1505 -0.1751
  117TMC2    C7 1827   4.101   1.015  13.815 -0.1258 -0.3067  0.4811
  117TMC2    C8 1828   4.200   0.548  13.857 -0.7475  0.0619  0.0973
  117TMC2    O1 1829   4.202   1.042  13.876 -0.5391  0.0618 -0.5564
  117TMC2    O2 1830   4.176   0.430  13.833 -0.2316 -0.1791  0.4787
  117TMC2    O5 1831   4.318   0.594  13.894 -0.4945 -0.0855  0.0110
  117TMC2    H5 1832   4.324   0.688  13.920 -0.5531 -0.7034  2.2833
  118MPD2     C 1833   4.022   1.221  13.529 -0.1537  0.3047 -0.2666
  118MPD2    C1 1834   4.088   1.192  13.645 -0.4283  0.0266  0.0641
  118MPD2    C2 1835   4.190   1.265  13.689  0.1650 -0.2533 -0.8468
  118MPD2    C3 1836   4.247   1.359  13.605  0.4505  0.0903  0.1025
  118MPD2    C4 1837   4.176   1.398  13.494  0.6355  0.0376  0.1746
  118MPD2    C5 1838   4.071   1.322  13.459 -0.2520 -0.3420 -0.2815
  118MPD2     H 1839   4.236   1.224  13.778  0.0721 -1.5549 -1.4016
  118MPD2    H1 1840   4.215   1.479  13.433 -0.5815 -1.0312 -2.0358
  118MPD2    H2 1841   3.934   1.171  13.491 -0.3456 -0.1942  0.8363
  118MPD2    H3 1842   4.036   1.348  13.359 -0.4221 -3.1761 -0.9657
  118MPD2     N 1843   4.367   1.436  13.631 -0.1554  0.7386  0.2565
  118MPD2    H5 1844   4.389   1.513  13.569  0.2675 -0.1632 -0.6930
  118MPD2    N1 1845   4.041   1.078  13.714  0.3264  0.1658  0.1362
  118MPD2    H7 1846   3.955   1.040  13.674  0.2585  0.0014  0.4401
  119TMC2    C1 1847   2.006   2.047  13.537  0.3213  0.0141  0.8746
  119TMC2    C2 1848   2.048   2.080  13.415 -0.1850  0.1855  0.3156
  119TMC2    C3 1849   1.962   2.063  13.312  0.2586  0.6821  0.3403
  119TMC2    C4 1850   1.881   2.004  13.560  0.6595 -0.3152 -0.3430
  119TMC2    C5 1851   1.788   1.996  13.459 -0.2975 -0.0627  0.5254
  119TMC2    C6 1852   1.835   2.009  13.329  0.0529 -0.7749  0.4770
  119TMC2     C 1853   2.101   1.973  13.616  0.5650  0.4504  0.1272
  119TMC2     O 1854   2.056   1.911  13.711  0.5217 -0.1547  0.2086
  119TMC2     H 1855   2.149   2.120  13.409 -0.8018  1.3250 -2.4119
  119TMC2    H1 1856   1.848   1.990  13.663  0.6876 -1.8843 -0.5531
  119TMC2    H2 1857   1.775   1.996  13.240 -0.5922  1.4953  0.5822
  119TMC2    C7 1858   1.690   1.890  13.470 -0.7762  0.6959 -0.4094
  119TMC2    C8 1859   1.992   2.101  13.182  0.3701 -0.5126  0.1669
  119TMC2    O1 1860   1.613   1.885  13.376  0.4407  0.4607 -0.3473
  119TMC2    O2 1861   1.974   2.015  13.099  0.0114 -0.5772 -0.4987
  119TMC2    O5 1862   2.097   2.192  13.182 -0.9137  0.1893  0.5327
  119TMC2    H5 1863   2.084   2.252  13.259  0.4420 -1.9928  2.4699
  120MPD2     C 1864   2.533   1.708  13.684  0.0330  0.1832 -0.5200
  120MPD2    C1 1865   2.432   1.737  13.775 -0.3766  0.1103  0.1110
  120MPD2    C2 1866   2.333   1.815  13.724 -0.4475 -0.5107  0.9002
  120MPD2    C3 1867   2.334   1.878  13.602  0.2636 -0.3613  0.0169
  120MPD2    C4 1868   2.443   1.855  13.518 -0.2683 -0.3451 -0.3315
  120MPD2    C5 1869   2.544   1.771  13.559 -0.2978  0.2331  0.4770
  120MPD2     H 1870   2.245   1.835  13.784 -1.8134  0.5676 -1.4534
  120MPD2    H1 1871   2.446   1.900  13.420 -0.3961  1.7164  0.6107
  120MPD2    H2 1872   2.604   1.631  13.713 -2.1508 -1.1273  1.3854
  120MPD2    H3 1873   2.624   1.738  13.494  0.0888 -0.9695  1.5547
  120MPD2     N 1874   2.224   1.949  13.547  0.3811 -0.5140 -0.0268
  120MPD2    H5 1875   2.223   1.995  13.457 -1.1964 -2.1086 -0.8301
  120MPD2    N1 1876   2.441   1.681  13.907 -1.2012  0.0261 -0.0146
  120MPD2    H7 1877   2.529   1.635  13.928 -0.7710  0.4569 -0.9090
  121TMC2    C1 1878   4.184   3.778  13.987 -1.1511  0.0910  0.2454
  121TMC2    C2 1879   4.225   3.666  13.908 -0.3496  0.0295 -0.3372
  121TMC2    C3 1880   4.241   3.543  13.971  0.8457 -0.1289 -0.0157
  121TMC2    C4 1881   4.147   3.763  14.118 -0.7070 -0.5965  0.2552
  121TMC2    C5 1882   4.178   3.641  14.177  0.0438 -0.2250  0.3491
  121TMC2    C6 1883   4.213   3.528  14.101  0.1883 -0.4675  0.4627
  121TMC2     C 1884   4.200   3.919  13.934 -0.2551 -0.2615 -0.0556
  121TMC2     O 1885   4.193   4.007  14.018 -0.2346 -0.1140  0.3801
  121TMC2     H 1886   4.255   3.674  13.804 -1.4608 -1.9219 -0.7988
  121TMC2    H1 1887   4.105   3.851  14.165 -0.4782 -0.3074 -0.0819
  121TMC2    H2 1888   4.213   3.431  14.150  0.0001 -1.8951 -2.3761
  121TMC2    C7 1889   4.105   3.598  14.296  0.0704  0.1542 -0.2302
  121TMC2    C8 1890   4.239   3.424  13.897 -0.0409 -0.1106 -0.5567
  121TMC2    O1 1891   4.163   3.509  14.358  0.1414 -0.0023 -0.1248
  121TMC2    O2 1892   4.140   3.352  13.891 -0.2257  0.0988  0.2227
  121TMC2    O5 1893   4.366   3.381  13.896 -0.5163  0.4572  0.1573
  121TMC2    H5 1894   4.428   3.456  13.907  0.1865 -0.1472  0.3254
  122MPD2     C 1895   4.277   4.135  13.762  0.8165  0.0101  0.3924
  122MPD2    C1 1896   4.218   4.021  13.713  0.5199  0.3860  0.1339
  122MPD2    C2 1897   4.187   4.010  13.579 -0.0097  0.8346  0.7553
  122MPD2    C3 1898   4.224   4.111  13.496 -0.2221 -0.0403  0.0182
  122MPD2    C4 1899   4.300   4.221  13.541 -0.4301 -0.4945 -0.4572
  122MPD2    C5 1900   4.327   4.227  13.673 -0.5671  0.2349 -0.2565
  122MPD2     H 1901   4.128   3.924  13.550  1.7384 -0.6013  1.5312
  122MPD2    H1 1902   4.362   4.277  13.471 -1.2847 -1.7523 -2.2231
  122MPD2    H2 1903   4.281   4.145  13.870 -3.8291  0.7045  0.5078
  122MPD2    H3 1904   4.395   4.297  13.719 -0.6873  0.2220 -0.0585
  122MPD2     N 1905   4.206   4.107  13.353 -0.8063  0.0169 -0.0871
  122MPD2    H5 1906   4.219   4.191  13.298 -0.5167 -0.8453 -1.3488
  122MPD2    N1 1907   4.191   3.911  13.798  0.1248  0.1253 -0.1178
  122MPD2    H7 1908   4.156   3.827  13.752  0.3783 -0.2231  0.3222
  123TMC2    C1 1909   3.398   2.205  10.327  0.4601  0.1582 -0.6505
  123TMC2    C2 1910   3.513   2.243  10.401 -0.3106 -0.0787  0.6538
  123TMC2    C3 1911   3.622   2.155  10.410  0.4154 -0.8890 -0.4838
  123TMC2    C4 1912   3.386   2.080  10.277 -0.1046 -0.0743 -0.1528
  123TMC2    C5 1913   3.487   1.996  10.300 -0.2429 -0.2244 -0.2314
  123TMC2    C6 1914   3.601   2.028  10.367 -0.1506 -0.6708 -0.9896
  123TMC2     C 1915   3.312   2.311  10.271 -0.7371 -0.3884  1.0010
  123TMC2     O 1916   3.354   2.430  10.279 -0.0408  0.7458 -0.8022
  123TMC2     H 1917   3.528   2.346  10.431  1.3134  0.5008 -2.1183
  123TMC2    H1 1918   3.309   2.055  10.205 -0.1401 -1.3492  0.3293
  123TMC2    H2 1919   3.685   1.960  10.378 -1.1339 -1.2595  2.8482
  123TMC2    C7 1920   3.451   1.854  10.296  1.0269  0.5559 -0.2803
  123TMC2    C8 1921   3.716   2.161  10.521 -0.0730  0.3315  1.2587
  123TMC2    O1 1922   3.539   1.776  10.324 -0.8967  0.0577  0.2779
  123TMC2    O2 1923   3.751   2.062  10.585 -0.3572  0.4626 -0.2815
  123TMC2    O5 1924   3.797   2.260  10.479 -0.1429 -0.1636 -0.0920
  123TMC2    H5 1925   3.753   2.332  10.429  0.3701  0.1619 -0.0764
  124MPD2     C 1926   2.878   2.545  10.170 -0.4130 -1.0126  0.2864
  124MPD2    C1 1927   2.849   2.435  10.250 -0.2256 -0.4716  0.3699
  124MPD2    C2 1928   2.947   2.340  10.278 -0.7119 -0.3384 -0.7386
  124MPD2    C3 1929   3.075   2.362  10.233 -0.6069  0.1760 -0.5441
  124MPD2    C4 1930   3.101   2.466  10.148  0.2795  0.3533 -0.3265
  124MPD2    C5 1931   3.001   2.564  10.116 -0.4207 -0.3048 -0.1474
  124MPD2     H 1932   2.945   2.251  10.340 -0.9780  0.1398 -0.0570
  124MPD2    H1 1933   3.200   2.474  10.106  0.6965 -0.0471  0.5792
  124MPD2    H2 1934   2.793   2.605  10.140  0.6171  0.0078 -0.5702
  124MPD2    H3 1935   3.028   2.644  10.049  0.1540 -2.6333 -2.7099
  124MPD2     N 1936   3.180   2.271  10.268 -0.9888  0.3820 -0.5190
  124MPD2    H5 1937   3.153   2.183  10.310 -1.1100 -0.3867 -2.1863
  124MPD2    N1 1938   2.717   2.418  10.288  0.3895  0.0577 -0.2246
  124MPD2    H7 1939   2.659   2.501  10.274 -1.9902 -1.4473  0.8808
  125TMC2    C1 1940   4.572   0.524   8.927 -0.0642  0.4842  0.4339
  125TMC2    C2 1941   4.533   0.658   8.899  0.0838 -0.6442 -0.4109
  125TMC2    C3 1942   4.409   0.673   8.843  0.4522 -0.2853 -0.7191
  125TMC2    C4 1943   4.483   0.421   8.917 -0.2541 -0.7148 -0.2794
  125TMC2    C5 1944   4.373   0.451   8.845  0.2133  0.7420  0.2671
  125TMC2    C6 1945   4.343   0.574   8.797 -0.3411  0.0254 -0.5408
  125TMC2     C 1946   4.708   0.501   8.967 -0.1021  0.3375  0.2744
  125TMC2     O 1947   0.050   0.583   8.927  0.6898  0.0845 -0.2478
  125TMC2     H 1948   4.595   0.743   8.924 -1.3789  0.4723 -0.5792
  125TMC2    H1 1949   4.506   0.323   8.957  0.2979 -0.8141 -0.8369
  125TMC2    H2 1950   4.251   0.594   8.742 -0.6676 -1.4924 -0.5687
  125TMC2    C7 1951   4.266   0.356   8.850 -0.3392  0.5415  0.0519
  125TMC2    C8 1952   4.374   0.802   8.796 -0.1160  0.2052  0.7218
  125TMC2    O1 1953   4.152   0.400   8.881 -0.7744  0.2006 -0.0293
  125TMC2    O2 1954   4.305   0.823   8.702  0.8864  0.2192 -0.0516
  125TMC2    O5 1955   4.401   0.890   8.900 -0.1355  0.1568 -0.1615
  125TMC2    H5 1956   4.430   0.851   8.986 -0.8066  2.5832  1.1736
  126MPD1     C 1957   0.356   0.279   9.209 -0.6904  0.3193 -0.8246
  126MPD1    C1 1958   0.238   0.229   9.264 -0.0651 -0.4824  0.3162
  126MPD1    C2 1959   0.122   0.272   9.206 -0.1907 -0.5924  0.1075
  126MPD1    C3 1960   0.117   0.369   9.106  0.7151  0.5967  0.2102
  126MPD1    C4 1961   0.234   0.414   9.051  0.3707  0.8950  0.1219
  126MPD1    C5 1962   0.353   0.367   9.106 -0.0985 -0.0973 -0.4695
  126MPD1     H 1963   0.027   0.237   9.244  0.8122 -1.4409  1.8384
  126MPD1    H1 1964   0.239   0.479   8.964 -1.1596  0.6527 -0.1458
  126MPD1    H2 1965   0.456   0.256   9.244 -1.5171 -0.5328  0.9524
  126MPD1    H3 1966   0.449   0.411   9.079  0.7657 -1.3073  0.6180
  126MPD1     N 1967   4.727   0.399   9.059  0.2488  0.5084 -0.3671
  126MPD1    H5 1968   4.643   0.351   9.088  1.6710 -1.0040  1.2519
  126MPD1    N1 1969   0.241   0.126   9.359  0.0430 -0.2882  0.3295
  126MPD1    H6 1970   0.311   0.128   9.434  0.6896 -2.8480 -0.1997
  126MPD1    H7 1971   0.156   0.108   9.412 -1.7777 -2.6314 -3.3904
  127TMC2    C1 1972   3.710   2.915   9.758  0.4006 -0.4119  0.0139
  127TMC2    C2 1973   3.593   2.987   9.766  0.2446 -0.4028 -0.6226
  127TMC2    C3 1974   3.476   2.921   9.767  0.8107 -0.2295  0.4610
  127TMC2    C4 1975   3.715   2.780   9.791 -0.0334 -0.2552 -0.1841
  127TMC2    C5 1976   3.594   2.719   9.814 -0.4198  0.1707 -0.0582
  127TMC2    C6 1977   3.474   2.781   9.787  0.5442 -0.1071  0.5453
  127TMC2     C 1978   3.829   2.981   9.719  0.3837  0.5797  0.1829
  127TMC2     O 1979   3.940   2.951   9.760  0.0689  0.0723  0.2289
  127TMC2     H 1980   3.590   3.095   9.764  1.8455 -0.3941 -2.5310
  127TMC2    H1 1981   3.807   2.723   9.786 -1.0344 -1.8147 -0.6683
  127TMC2    H2 1982   3.380   2.732   9.812  1.2721 -1.9788 -0.3635
  127TMC2    C7 1983   3.583   2.589   9.861  0.3685 -0.4967 -0.2030
  127TMC2    C8 1984   3.357   2.989   9.744 -0.4722  0.2308 -0.6062
  127TMC2    O1 1985   3.484   2.521   9.834 -0.1785 -0.8653  0.4797
  127TMC2    O2 1986   3.336   3.105   9.778 -0.2252  0.1835  0.6532
  127TMC2    O5 1987   3.267   2.908   9.674 -0.1322 -0.2833 -0.2450
  127TMC2    H5 1988   3.303   2.820   9.649  1.9514  0.0420  1.5920
  128MPD2     C 1989   3.823   3.241   9.444  0.1978 -0.6093 -0.1883
  128MPD2    C1 1990   3.884   3.164   9.547 -0.1834 -0.4955 -0.5804
  128MPD2    C2 1991   4.023   3.170   9.565  0.0267  0.2816  0.5563
  128MPD2    C3 1992   4.101   3.256   9.483 -0.5850 -0.8004  0.1741
  128MPD2    C4 1993   4.037   3.327   9.378  0.4041 -0.2432 -0.3480
  128MPD2    C5 1994   3.899   3.320   9.367  0.3510  0.2530 -0.5146
  128MPD2     H 1995   4.065   3.094   9.630 -0.2496  1.6759  2.3411
  128MPD2    H1 1996   4.089   3.403   9.320  2.9641  0.3759  2.7282
  128MPD2    H2 1997   3.716   3.238   9.427  0.4973  3.5494 -2.7062
  128MPD2    H3 1998   3.852   3.381   9.291  1.0735  1.0221 -0.3478
  128MPD2     N 1999   4.234   3.276   9.522  0.1079 -0.4886  0.3021
  128MPD2    H5 2000   4.265   3.216   9.598 -0.2100  0.1634  0.9508
  128MPD2    N1 2001   3.799   3.073   9.621 -0.0071  0.5898  0.0799
  128MPD2    H7 2002   3.703   3.072   9.587  0.1593  1.0347 -0.4110
  129TMC2    C1 2003   3.669   2.054   1.569 -0.3381 -0.0828 -0.4390
  129TMC2    C2 2004   3.731   1.932   1.598  0.6296  0.2998 -0.5407
  129TMC2    C3 2005   3.698   1.871   1.712  1.0399 -0.6629  0.2450
  129TMC2    C4 2006   3.578   2.113   1.648  0.3376 -0.4587 -0.4993
  129TMC2    C5 2007   3.545   2.044   1.762 -0.0272 -0.2530 -0.5807
  129TMC2    C6 2008   3.601   1.923   1.793  0.1549  0.4298  0.1008
  129TMC2     C 2009   3.693   2.113   1.435  0.1785  0.3302 -0.4551
  129TMC2     O 2010   3.739   2.045   1.346 -1.0961  0.0461 -0.3587
  129TMC2     H 2011   3.804   1.892   1.528  0.6536  0.8246 -0.8198
  129TMC2    H1 2012   3.527   2.205   1.620  0.3949 -0.2560  0.0703
  129TMC2    H2 2013   3.561   1.872   1.880 -3.5046  1.8504 -0.7406
  129TMC2    C7 2014   3.409   2.067   1.805  0.0967  0.3473 -0.4591
  129TMC2    C8 2015   3.705   1.721   1.714 -0.0743  0.1835  0.7063
  129TMC2    O1 2016   3.338   2.145   1.740 -0.5631  0.4649  0.1946
  129TMC2    O2 2017   3.614   1.646   1.753 -0.3994 -0.9785  0.0700
  129TMC2    O5 2018   3.821   1.682   1.653  0.2178  0.0068 -0.2497
  129TMC2    H5 2019   3.883   1.758   1.648 -0.8754  1.1503  3.2088
  130MPD2     C 2020   3.714   2.293   1.197  0.1843  0.2734 -0.1515
  130MPD2    C1 2021   3.675   2.336   1.327 -0.0799 -0.6352 -0.0667
  130MPD2    C2 2022   3.669   2.477   1.344  0.3471 -0.2026 -0.6351
  130MPD2    C3 2023   3.684   2.566   1.243 -0.0676  0.0355  0.9606
  130MPD2    C4 2024   3.703   2.517   1.112 -0.3103  0.2980  0.0045
  130MPD2    C5 2025   3.712   2.385   1.092  0.0311 -0.3158  0.3791
  130MPD2     H 2026   3.641   2.510   1.443 -1.3738  0.0672 -1.2234
  130MPD2    H1 2027   3.715   2.581   1.025  0.4088  1.8610  1.2532
  130MPD2    H2 2028   3.725   2.188   1.173 -1.8071 -0.1213  0.7251
  130MPD2    H3 2029   3.702   2.347   0.991 -0.0749 -0.9122  0.6082
  130MPD2     N 2030   3.684   2.702   1.271 -0.2333  0.1235 -0.1342
  130MPD2    H5 2031   3.666   2.721   1.369 -0.3523  0.9838 -0.3196
  130MPD2    N1 2032   3.658   2.245   1.434  0.1040  0.1733  0.0877
  130MPD2    H7 2033   3.634   2.286   1.524 -0.1605  2.2791 -0.9355
  131TMC2    C1 2034   1.859   2.657   9.749  0.3819  0.2220  0.1311
  131TMC2    C2 2035   1.791   2.549   9.699 -0.0365  0.2877 -0.2431
  131TMC2    C3 2036   1.724   2.564   9.580 -1.1204  0.3071  0.0328
  131TMC2    C4 2037   1.864   2.774   9.679  0.4069  0.1419 -0.0135
  131TMC2    C5 2038   1.809   2.780   9.554  0.5712  0.1689 -0.6705
  131TMC2    C6 2039   1.738   2.679   9.504 -0.1936  0.1982  1.1088
  131TMC2     C 2040   1.908   2.651   9.888  0.2545  0.1247 -0.5137
  131TMC2     O 2041   1.895   2.546   9.950  0.0779  0.0468  0.3487
  131TMC2     H 2042   1.787   2.448   9.739  0.2455  0.9669  1.4862
  131TMC2    H1 2043   1.933   2.851   9.712  2.0346  0.0455 -3.1810
  131TMC2    H2 2044   1.681   2.683   9.411 -0.2031  2.3123  1.2073
  131TMC2    C7 2045   1.848   2.878   9.456 -0.1261  0.0365  0.5246
  131TMC2    C8 2046   1.686   2.452   9.492 -0.3411 -0.4248 -0.4482
  131TMC2    O1 2047   1.789   2.857   9.349  0.7126 -0.2797  0.6739
  131TMC2    O2 2048   1.609   2.467   9.398  0.4509 -0.0572 -0.7577
  131TMC2    O5 2049   1.789   2.368   9.487 -0.2003  0.6187 -0.3693
  131TMC2    H5 2050   1.865   2.398   9.540 -0.2395 -0.0877  0.0819
  132MPD2     C 2051   2.002   2.908  10.143  0.7053  0.2599 -0.1118
  132MPD2    C1 2052   1.976   2.779  10.087  0.1757 -0.2781  0.0579
  132MPD2    C2 2053   2.035   2.676  10.159  0.4256 -0.2527  0.5310
  132MPD2    C3 2054   2.115   2.689  10.270  0.3214 -0.1132 -0.8809
  132MPD2    C4 2055   2.134   2.821  10.317 -0.1992  0.2123 -0.5004
  132MPD2    C5 2056   2.072   2.926  10.258 -0.5322 -0.0021  0.6093
  132MPD2     H 2057   2.029   2.575  10.120  0.0717 -0.2883  0.6832
  132MPD2    H1 2058   2.189   2.852  10.405  1.6730 -2.3842 -0.7646
  132MPD2    H2 2059   1.970   2.998  10.093 -0.6032  0.9275  1.9380
  132MPD2    H3 2060   2.090   3.028  10.291 -0.7038  0.0553  0.5254
  132MPD2     N 2061   2.180   2.580  10.329  0.6479 -0.1299  0.9809
  132MPD2    H5 2062   2.152   2.486  10.302 -1.5239  0.9314 -0.4812
  132MPD2    N1 2063   1.931   2.776   9.950 -0.5689  0.0539 -0.0579
  132MPD2    H7 2064   1.939   2.864   9.900  2.2294  0.8390  1.7927
  133TMC2    C1 2065   0.863   1.594   9.412 -0.5488  0.0214 -0.0763
  133TMC2    C2 2066   0.946   1.541   9.505  0.4783 -0.6411 -0.3418
  133TMC2    C3 2067   0.926   1.417   9.547  0.2967 -0.0396 -0.3502
  133TMC2    C4 2068   0.747   1.531   9.386 -0.1165  0.2433  0.1570
  133TMC2    C5 2069   0.719   1.413   9.443 -0.1891  0.0284  0.4721
  133TMC2    C6 2070   0.818   1.346   9.508 -0.3100  0.2313  0.1201
  133TMC2     C 2071   0.889   1.729   9.366 -0.2090  0.0808  0.1453
  133TMC2     O 2072   0.970   1.797   9.430  0.4831 -0.2870 -0.2313
  133TMC2     H 2073   1.036   1.601   9.513 -0.9428  1.9299 -3.6523
  133TMC2    H1 2074   0.676   1.573   9.316  1.7691 -0.0811 -1.9385
  133TMC2    H2 2075   0.781   1.270   9.576 -0.3730 -0.3921 -0.6066
  133TMC2    C7 2076   0.589   1.357   9.439 -0.9765 -0.5650  0.6456
  133TMC2    C8 2077   1.023   1.356   9.627  0.0074  0.1925  0.1645
  133TMC2    O1 2078   0.581   1.237   9.449 -0.0271  0.0659 -0.5524
  133TMC2    O2 2079   1.127   1.416   9.645  0.6496 -0.8652  0.0762
  133TMC2    O5 2080   1.023   1.219   9.621 -0.3037 -0.5841 -0.3625
  133TMC2    H5 2081   0.944   1.182   9.577  0.2281 -0.9902 -0.9816
  134MPD2     C 2082   0.786   1.896   9.050  0.0315 -0.7041  0.4866
  134MPD2    C1 2083   0.834   1.884   9.176  0.2517 -1.4043 -0.1461
  134MPD2    C2 2084   0.866   2.002   9.240  0.4596  0.0798  0.1778
  134MPD2    C3 2085   0.860   2.122   9.178 -0.3810  0.0314  0.2849
  134MPD2    C4 2086   0.807   2.133   9.049  0.2912 -0.0709 -0.2803
  134MPD2    C5 2087   0.781   2.014   8.984 -0.3060  0.1072  0.4809
  134MPD2     H 2088   0.903   1.995   9.342  0.9607  0.0942  0.0008
  134MPD2    H1 2089   0.789   2.229   9.002  2.3669  0.2278 -0.4798
  134MPD2    H2 2090   0.754   1.815   8.985 -0.6918  1.1449 -1.4688
  134MPD2    H3 2091   0.733   2.017   8.887  1.6577  0.6101 -0.4557
  134MPD2     N 2092   0.900   2.245   9.240  0.2713 -0.6996 -0.0145
  134MPD2    H5 2093   0.878   2.326   9.182  1.8871 -1.9802 -2.4109
  134MPD2    N1 2094   0.838   1.758   9.241 -0.0871  0.8980 -0.3517
  134MPD2    H7 2095   0.796   1.685   9.185  1.4442 -1.0831  1.0530
  135TMC2    C1 2096   3.230   4.600   9.505  0.4540 -0.4155 -0.1388
  135TMC2    C2 2097   3.091   4.581   9.485  0.1425  0.1562 -0.3774
  135TMC2    C3 2098   3.028   4.476   9.554 -0.4357  0.5186  0.0604
  135TMC2    C4 2099   3.303   4.526   9.601  0.0366  0.7162  0.7257
  135TMC2    C5 2100   3.231   4.429   9.665 -0.1688  0.9253 -0.3590
  135TMC2    C6 2101   3.095   4.402   9.639 -0.1067  0.7021  0.1286
  135TMC2     C 2102   3.293   4.712   9.427  0.1841  0.1133 -0.3939
  135TMC2     O 2103   3.211   0.045   9.376 -0.4497  0.4474  0.5645
  135TMC2     H 2104   3.054   4.631   9.397 -0.7260  0.7243  0.3108
  135TMC2    H1 2105   3.408   4.538   9.627  1.1120 -2.2357 -2.1668
  135TMC2    H2 2106   3.048   4.310   9.672  0.6943  0.3108  0.1612
  135TMC2    C7 2107   3.300   4.338   9.752  0.1890  0.5092  0.1150
  135TMC2    C8 2108   2.907   4.413   9.504 -0.1037  0.0263  0.4453
  135TMC2    O1 2109   3.418   4.328   9.739  0.3913 -0.4170 -0.2950
  135TMC2    O2 2110   2.864   4.308   9.542 -0.0500 -0.1926 -0.1213
  135TMC2    O5 2111   2.846   4.505   9.421  0.3411  0.0118  0.1316
  135TMC2    H5 2112   2.904   4.583   9.410  1.0665 -0.5065  0.2246
  136MPD2     C 2113   3.452   0.204   9.319  0.6226 -0.0048 -0.1852
  136MPD2    C1 2114   3.503   0.082   9.354 -0.0135  0.7418 -0.1199
  136MPD2    C2 2115   3.635   0.056   9.343 -0.6236  0.3425 -0.0122
  136MPD2    C3 2116   3.721   0.150   9.291  0.2658  0.1655  0.0010
  136MPD2    C4 2117   3.664   0.273   9.249  0.9813  0.1301 -0.4838
  136MPD2    C5 2118   3.530   0.300   9.263  0.4615 -1.0419 -0.6652
  136MPD2     H 2119   3.672   4.699   9.377  1.1858  1.5039  1.2354
  136MPD2    H1 2120   3.723   0.345   9.193  1.7687 -0.6380 -0.6339
  136MPD2    H2 2121   3.347   0.228   9.332  0.8592  0.9246  0.0139
  136MPD2    H3 2122   3.499   0.398   9.227  2.2858 -0.7060 -1.3741
  136MPD2     N 2123   3.860   0.134   9.273  0.3518  0.0703  0.6273
  136MPD2    H5 2124   3.910   0.218   9.246 -2.1543  1.2962 -0.1787
  136MPD2    N1 2125   3.428   4.714   9.410 -0.1191 -0.0418 -0.1635
  136MPD2    H7 2126   3.474   4.626   9.429 -0.9989 -0.2672  0.9254
  137TMC2    C1 2127   2.786   4.254   8.830 -0.2323 -0.2842  0.4638
  137TMC2    C2 2128   2.786   4.359   8.749 -0.8277  0.3128 -0.4983
  137TMC2    C3 2129   2.679   4.372   8.658 -0.4894 -0.5101  0.2143
  137TMC2    C4 2130   2.677   4.169   8.839 -0.4618  0.4155 -0.4317
  137TMC2    C5 2131   2.573   4.195   8.762  0.1518 -0.1642  0.1211
  137TMC2    C6 2132   2.573   4.293   8.673  0.3460 -0.6468  0.0757
  137TMC2     C 2133   2.888   4.226   8.919 -0.0668 -0.5075  0.7437
  137TMC2     O 2134   2.878   4.126   8.981  0.4351 -0.5665  0.3159
  137TMC2     H 2135   2.877   4.416   8.734  0.4161 -1.4624  0.3318
  137TMC2    H1 2136   2.689   4.078   8.897  1.2200  0.2510 -1.0360
  137TMC2    H2 2137   2.490   4.318   8.607 -0.1262  2.4532  1.8506
  137TMC2    C7 2138   2.447   4.118   8.766  0.3082 -0.1098  0.1499
  137TMC2    C8 2139   2.669   4.490   8.569 -0.0743 -0.0658 -0.1254
  137TMC2    O1 2140   2.370   4.128   8.671 -0.6842 -0.0326  0.4427
  137TMC2    O2 2141   2.591   4.502   8.474  0.2055  0.3192 -0.1642
  137TMC2    O5 2142   2.760   4.579   8.618 -0.6271  0.7199  0.3266
  137TMC2    H5 2143   2.779   4.556   8.711 -0.2246 -2.6176 -0.5468
  138MPD2     C 2144   3.122   4.475   9.060  0.1737 -0.2308 -0.0291
  138MPD2    C1 2145   3.059   4.349   9.044 -0.6379  0.1173 -0.1101
  138MPD2    C2 2146   3.097   4.242   9.115  0.1237 -0.5203  0.8702
  138MPD2    C3 2147   3.185   4.266   9.219  0.1807 -0.2493  0.1953
  138MPD2    C4 2148   3.257   4.389   9.231  0.5649  0.1651 -0.0672
  138MPD2    C5 2149   3.228   4.488   9.145  0.1234  0.1271  0.0153
  138MPD2     H 2150   3.059   4.141   9.109 -1.6704  0.1647  0.7244
  138MPD2    H1 2151   3.330   4.406   9.309  2.0249 -1.1318 -1.1318
  138MPD2    H2 2152   3.094   4.557   8.994  1.3707 -0.5303 -0.9094
  138MPD2    H3 2153   3.282   4.581   9.154 -0.6626  0.5195  0.7260
  138MPD2     N 2154   3.227   4.151   9.298 -0.0749  0.0864  0.0007
  138MPD2    H5 2155   3.198   4.060   9.261 -0.5143 -0.1572  0.9337
  138MPD2    N1 2156   2.959   4.342   8.948 -0.1585 -0.2514 -0.2105
  138MPD2    H7 2157   2.940   4.428   8.899  0.9424  0.6405  0.9190
  139TMC2    C1 2158   3.429   1.596  13.308  0.5214  0.4424 -0.2814
  139TMC2    C2 2159   3.542   1.617  13.231  0.2404 -0.1125  0.1842
  139TMC2    C3 2160   3.560   1.742  13.186 -0.2089  0.2861  0.5880
  139TMC2    C4 2161   3.330   1.685  13.339 -0.4897  0.0698 -0.9380
  139TMC2    C5 2162   3.360   1.810  13.290 -0.5607 -0.5004 -0.2809
  139TMC2    C6 2163   3.470   1.841  13.212  0.5846  0.6929  0.0574
  139TMC2     C 2164   3.402   1.457  13.340  0.3580 -0.0020 -0.3150
  139TMC2     O 2165   3.502   1.385  13.356 -0.6026 -0.3255  0.0384
  139TMC2     H 2166   3.619   1.543  13.214  0.1812 -0.5541  1.8169
  139TMC2    H1 2167   3.253   1.665  13.412 -0.5524 -1.8982 -1.5328
  139TMC2    H2 2168   3.484   1.941  13.171  0.8887  1.4535  2.0367
  139TMC2    C7 2169   3.287   1.918  13.334 -0.8208  0.1144  0.5974
  139TMC2    C8 2170   3.610   1.753  13.043  0.5168  0.0298 -0.5402
  139TMC2    O1 2171   3.357   2.021  13.352  0.3731  0.3443  0.1220
  139TMC2    O2 2172   3.547   1.697  12.950 -0.4330  0.6284  0.2313
  139TMC2    O5 2173   3.679   1.865  13.039  0.0151  0.0108 -0.2664
  139TMC2    H5 2174   3.731   1.880  13.121 -0.3735  0.2185 -0.0592
  140MPD2     C 2175   3.084   1.288  13.254 -0.8523 -0.9282  0.1218
  140MPD2    C1 2176   3.208   1.292  13.319 -0.3063 -0.8231  0.4030
  140MPD2    C2 2177   3.274   1.169  13.346  0.4947  0.7904  0.6567
  140MPD2    C3 2178   3.200   1.055  13.329 -0.4649  0.0121 -0.3741
  140MPD2    C4 2179   3.075   1.051  13.270  0.5878 -0.4940  0.6374
  140MPD2    C5 2180   3.016   1.170  13.238  0.7146 -0.4706  0.4911
  140MPD2     H 2181   3.371   1.173  13.396  1.4518  2.7602 -1.3226
  140MPD2    H1 2182   3.015   0.963  13.252  1.2590 -0.3766 -2.1766
  140MPD2    H2 2183   3.045   1.384  13.220 -0.8298 -0.5563  1.1520
  140MPD2    H3 2184   2.920   1.176  13.189  0.2906 -2.0165  1.1322
  140MPD2     N 2185   3.265   0.939  13.369  0.2472  0.4298 -0.0762
  140MPD2    H5 2186   3.358   0.962  13.403  0.6214  0.9473 -1.4546
  140MPD2    N1 2187   3.272   1.415  13.315  0.2003  0.3991  0.7073
  140MPD2    H7 2188   3.202   1.486  13.294  2.4180  1.9663 -1.5418
  141TMC2    C1 2189   0.028   2.741  14.400 -0.0111  0.2992  0.3320
  141TMC2    C2 2190   0.022   2.872  14.370 -0.1516 -0.1299 -0.5467
  141TMC2    C3 2191   4.732   2.955  14.476  0.2517  0.0239  0.7987
  141TMC2    C4 2192   4.734   2.694  14.522 -0.1111  0.0199  0.0461
  141TMC2    C5 2193   4.711   2.783  14.620  0.1347  0.3862 -0.4135
  141TMC2    C6 2194   4.714   2.915  14.603  0.0350  0.4860  0.2171
  141TMC2     C 2195   0.002   2.655  14.293 -0.8824 -0.1240  0.5040
  141TMC2     O 2196   4.655   2.698  14.216  0.1218 -0.6820 -0.5601
  141TMC2     H 2197   0.024   2.905  14.267 -0.1147  1.9289  0.1125
  141TMC2    H1 2198   4.727   2.587  14.536  0.4310  0.2073  1.7342
  141TMC2    H2 2199   4.665   2.981  14.673  0.5108  2.0648 -0.9247
  141TMC2    C7 2200   4.697   2.729  14.755  0.3949  0.6491  0.1300
  141TMC2    C8 2201   4.722   3.096  14.446 -0.0983 -0.1944 -0.1779
  141TMC2    O1 2202   4.676   2.608  14.762  0.1070  0.0223 -0.0618
  141TMC2    O2 2203   4.713   3.125  14.329  0.6382  0.3831 -0.2839
  141TMC2    O5 2204   0.031   3.176  14.543 -0.6540 -0.3252  0.0696
  141TMC2    H5 2205   0.062   3.122  14.619 -0.7306  1.1786  1.1684
  142TMC2    C1 2206   2.488   1.595  10.338  0.1899 -0.9742  0.4072
  142TMC2    C2 2207   2.424   1.707  10.306  0.2459  0.0865  1.0878
  142TMC2    C3 2208   2.484   1.794  10.224  0.3322  0.2917 -0.4527
  142TMC2    C4 2209   2.615   1.579  10.308  0.4232  0.4421  1.0650
  142TMC2    C5 2210   2.679   1.685  10.251  0.0448  0.5651  0.2544
  142TMC2    C6 2211   2.613   1.790  10.210 -0.4657  0.1693 -0.3551
  142TMC2     C 2212   2.410   1.484  10.387 -0.8025 -0.8876  0.3210
  142TMC2     O 2213   2.436   1.375  10.340 -0.5827  0.4462 -0.4090
  142TMC2     H 2214   2.316   1.704  10.311  0.1703  0.3538 -0.1847
  142TMC2    H1 2215   2.676   1.497  10.345  1.1073  0.6232  0.3324
  142TMC2    H2 2216   2.670   1.869  10.160 -0.6956 -0.0875 -1.0274
  142TMC2    C7 2217   2.819   1.698  10.268  0.1703  0.7175 -0.6170
  142TMC2    C8 2218   2.417   1.915  10.201  0.2405  0.2685 -0.0799
  142TMC2    O1 2219   2.859   1.806  10.308 -0.1689 -0.1722 -0.3954
  142TMC2    O2 2220   2.467   2.026  10.186 -0.2157  0.2033  0.2405
  142TMC2    O5 2221   2.311   1.873  10.137 -1.0291  0.2941 -0.7583
  142TMC2    H5 2222   2.294   1.776  10.138  1.3077 -0.0649  2.7529
  143MPD2     C 2223   2.020   1.282  10.672  0.5382 -0.1845 -0.5095
  143MPD2    C1 2224   2.075   1.238  10.553 -0.9545  0.5069  0.3127
  143MPD2    C2 2225   2.184   1.306  10.497  0.1443  0.2250  0.3761
  143MPD2    C3 2226   2.216   1.434  10.543 -0.8586 -0.2183  0.8226
  143MPD2    C4 2227   2.149   1.482  10.650 -0.2984 -0.3896  0.7683
  143MPD2    C5 2228   2.061   1.405  10.722 -0.0369  0.8218 -0.0424
  143MPD2     H 2229   2.237   1.267  10.410  0.5022  1.5516 -0.0024
  143MPD2    H1 2230   2.169   1.576  10.701 -1.4681  0.4707 -0.3646
  143MPD2    H2 2231   1.943   1.221  10.718  0.4348 -0.0407 -0.4910
  143MPD2    H3 2232   2.019   1.444  10.814 -2.2295 -1.5983 -0.0311
  143MPD2     N 2233   2.319   1.519  10.485  0.4066 -0.7677 -0.0335
  143MPD2    H5 2234   2.327   1.612  10.524  1.4119 -0.9452  0.1750
  143MPD2    N1 2235   2.021   1.116  10.501  0.0712  0.0161  0.4926
  143MPD2    H7 2236   1.936   1.086  10.548 -0.1456  3.1677  2.0996
  144TMC2    C1 2237   0.974   0.131   0.403  0.2527  0.1362 -0.1050
  144TMC2    C2 2238   1.050   0.026   0.373 -0.0550  0.4115  0.3404
  144TMC2    C3 2239   1.150   4.729   0.455 -0.4735 -0.5127 -0.0210
  144TMC2    C4 2240   0.970   0.194   0.529  0.1719  0.7221  0.2998
  144TMC2    C5 2241   1.073   0.145   0.614 -0.1226 -0.0285 -0.1973
  144TMC2    C6 2242   1.160   0.046   0.583  0.7818  0.0905 -0.1554
  144TMC2     C 2243   0.869   0.160   0.308 -0.4854  0.4061  0.3532
  144TMC2     O 2244   0.832   0.072   0.230  0.1323  0.3388 -0.0776
  144TMC2     H 2245   1.036   4.716   0.277 -0.2410 -0.9099  1.0456
  144TMC2    H1 2246   0.890   0.264   0.549 -0.2935 -0.4611  2.5002
  144TMC2    H2 2247   1.236   0.012   0.652  0.7221  0.0111 -0.1289
  144TMC2    C7 2248   1.119   0.224   0.727 -0.2614  0.7839 -0.7089
  144TMC2    C8 2249   1.214   4.603   0.425 -0.1971  0.5559  0.0723
  144TMC2    O1 2250   1.204   0.171   0.799  0.4190  0.0813  0.6123
  144TMC2    O2 2251   1.158   4.497   0.429 -0.6111  0.6531 -0.6145
  144TMC2    O5 2252   1.345   4.631   0.438 -0.2684  0.4190  0.5498
  144TMC2    H5 2253   1.371   4.712   0.390 -0.0756 -0.1478 -0.2996
  145MPD2     C 2254   0.506   0.472   0.129 -0.3213  0.7418  0.0731
  145MPD2    C1 2255   0.528   0.341   0.097 -0.5706 -0.5724  0.1769
  145MPD2    C2 2256   0.628   0.272   0.163 -0.0995 -0.7555 -0.1469
  145MPD2    C3 2257   0.705   0.343   0.258  0.1624  0.3748 -0.0785
  145MPD2    C4 2258   0.682   0.473   0.289  0.5152 -0.3669  0.3468
  145MPD2    C5 2259   0.576   0.532   0.236 -0.3203  0.3168  0.4077
  145MPD2     H 2260   0.658   0.173   0.130  1.0438 -1.7319  3.9157
  145MPD2    H1 2261   0.741   0.528   0.362 -0.0199  0.8906 -0.1729
  145MPD2    H2 2262   0.426   0.525   0.079 -0.0600  0.3281 -0.7798
  145MPD2    H3 2263   0.547   0.630   0.272  3.5462  1.4090  0.5619
  145MPD2     N 2264   0.816   0.283   0.326  0.4269  0.3495 -0.0563
  145MPD2    H5 2265   0.862   0.339   0.397  1.4364  0.4524 -0.7837
  145MPD2    N1 2266   0.467   0.274  17.742 -0.2957  0.3634  0.1144
  145MPD2    H7 2267   0.477   0.173  17.742 -0.4824  0.3447  0.0902
  146TMC2    C1 2268   1.623   3.851  12.396  0.1491  0.0645  0.8455
  146TMC2    C2 2269   1.518   3.796  12.324  0.5176 -0.4397  0.3075
  146TMC2    C3 2270   1.543   3.704  12.224  0.4714  0.4392  0.5300
  146TMC2    C4 2271   1.750   3.809  12.368 -0.0458  0.1033 -0.1979
  146TMC2    C5 2272   1.772   3.727  12.260  0.3879  0.0165 -0.1920
  146TMC2    C6 2273   1.665   3.663  12.193 -0.0648 -0.4939 -0.5905
  146TMC2     C 2274   1.589   3.942  12.498 -0.1934 -0.5781  0.5868
  146TMC2     O 2275   1.508   4.031  12.478 -0.5715 -0.0615 -0.4392
  146TMC2     H 2276   1.420   3.824  12.360  1.0004  0.1005  1.1911
  146TMC2    H1 2277   1.829   3.845  12.433 -1.9211 -0.0402  2.1303
  146TMC2    H2 2278   1.673   3.582  12.121 -2.4043 -0.2902 -1.0941
  146TMC2    C7 2279   1.902   3.670  12.227 -0.4617  1.6786  0.4217
  146TMC2    C8 2280   1.430   3.653  12.162  0.5681  0.4073  0.3447
  146TMC2    O1 2281   1.917   3.628  12.110  0.2489  0.2135 -0.0546
  146TMC2    O2 2282   1.319   3.653  12.213 -0.0115  0.4558  0.4288
  146TMC2    O5 2283   1.459   3.643  12.033  0.1561  0.0645  0.4099
  146TMC2    H5 2284   1.552   3.650  12.003 -0.3646  1.8483 -0.7488
  147MPD2     C 2285   2.364   3.484  12.357  0.7363 -0.5964  0.0417
  147MPD2    C1 2286   2.314   3.543  12.467 -0.5452  1.3030  0.1455
  147MPD2    C2 2287   2.188   3.604  12.455 -0.0453  0.2605 -0.8817
  147MPD2    C3 2288   2.117   3.606  12.336  0.7451  0.4480  0.7919
  147MPD2    C4 2289   2.176   3.548  12.230 -0.4984 -0.1078  0.0182
  147MPD2    C5 2290   2.292   3.485  12.241 -0.4386 -0.1888  0.1847
  147MPD2     H 2291   2.153   3.653  12.545  0.1604  1.0186 -1.2125
  147MPD2    H1 2292   2.119   3.546  12.138  1.4413 -1.4918 -1.1297
  147MPD2    H2 2293   2.462   3.438  12.369  1.3112  0.6681  0.2385
  147MPD2    H3 2294   2.328   3.445  12.148 -0.0473  2.5407 -0.8511
  147MPD2     N 2295   1.991   3.667  12.337  0.2018  0.3341 -0.7553
  147MPD2    H5 2296   1.951   3.690  12.427 -1.6096 -2.2857 -0.8853
  147MPD2    N1 2297   2.390   3.540  12.587 -0.5748 -0.6164  0.4190
  147MPD2    H7 2298   2.487   3.512  12.580 -0.0264  1.3429  0.1094
  148TMC2    C1 2299   1.559   2.776  11.315 -0.0095 -0.2321  0.4590
  148TMC2    C2 2300   1.533   2.711  11.432 -0.2604  0.5806  0.0427
  148TMC2    C3 2301   1.585   2.583  11.447 -0.6842 -0.4791 -0.0145
  148TMC2    C4 2302   1.630   2.716  11.213  0.4069 -0.1041  0.3306
  148TMC2    C5 2303   1.675   2.585  11.224  0.4992  0.2194 -0.6895
  148TMC2    C6 2304   1.650   2.517  11.345 -0.6156  0.1248  0.0076
  148TMC2     C 2305   1.467   2.880  11.276 -0.0687 -1.3193 -0.4575
  148TMC2     O 2306   1.393   2.921  11.360  0.6557  0.5702  0.3791
  148TMC2     H 2307   1.472   2.761  11.506  0.9157 -0.3296  1.6454
  148TMC2    H1 2308   1.664   2.776  11.130 -0.8192 -0.7877 -0.6819
  148TMC2    H2 2309   1.688   2.416  11.353 -0.3085  0.2403  0.0069
  148TMC2    C7 2310   1.742   2.511  11.118  0.0786 -0.4372 -0.6238
  148TMC2    C8 2311   1.534   2.494  11.544  0.4682  0.3885  0.0533
  148TMC2    O1 2312   1.753   2.390  11.136 -0.7235 -0.5549  0.0246
  148TMC2    O2 2313   1.486   2.384  11.506  0.5712  0.6684  0.0608
  148TMC2    O5 2314   1.475   2.572  11.640 -0.5538  0.2760 -0.8293
  148TMC2    H5 2315   1.520   2.655  11.665  0.4288 -0.2092 -0.9908
  149MPD2     C 2316   1.236   2.982  11.114 -0.0361  0.0341 -0.8461
  149MPD2    C1 2317   1.342   2.911  11.065 -0.4342 -0.0634 -0.2495
  149MPD2    C2 2318   1.343   2.874  10.930 -0.4936  0.5747 -0.0453
  149MPD2    C3 2319   1.227   2.890  10.855  0.3943 -0.8879 -0.5326
  149MPD2    C4 2320   1.128   2.964  10.904 -0.1259  0.2021  0.1070
  149MPD2    C5 2321   1.138   3.005  11.035 -0.1314  0.7071  0.2464
  149MPD2     H 2322   1.441   2.848  10.892 -0.9138 -1.1594  0.0443
  149MPD2    H1 2323   1.046   2.993  10.839  0.9390 -1.4783 -2.0108
  149MPD2    H2 2324   1.229   3.023  11.214 -1.9209 -0.9872 -0.5586
  149MPD2    H3 2325   1.054   3.066  11.067 -2.1790 -1.3152 -1.2145
  149MPD2     N 2326   1.229   2.855  10.715  0.3746  0.2783 -0.1557
  149MPD2    H5 2327   1.139   2.870  10.669 -1.5066 -2.7728  2.5262
  149MPD2    N1 2328   1.453   2.875  11.138 -0.3462  0.2658  0.2408
  149MPD2    H7 2329   1.522   2.839  11.074 -0.5986  0.7339 -0.3028
  150TMC2    C1 2330   3.530   1.529  12.276 -0.7495 -0.6141  0.0433
  150TMC2    C2 2331   3.540   1.402  12.256 -0.6576 -0.4416  0.4493
  150TMC2    C3 2332   3.659   1.346  12.283  0.8806 -0.2953 -1.1643
  150TMC2    C4 2333   3.639   1.610  12.308 -1.1406  0.2569 -0.1156
  150TMC2    C5 2334   3.756   1.545  12.326  0.5488  0.0131  0.3299
  150TMC2    C6 2335   3.767   1.412  12.319 -0.2023 -0.1674  0.0625
  150TMC2     C 2336   3.409   1.614  12.241 -0.1460  0.1886  0.6341
  150TMC2     O 2337   3.411   1.737  12.250 -0.1425 -0.5671  0.0524
  150TMC2     H 2338   3.454   1.338  12.245 -0.6136 -0.8349  2.3641
  150TMC2    H1 2339   3.616   1.714  12.331  0.1427  0.7200 -0.9168
  150TMC2    H2 2340   3.863   1.362  12.326  0.3509  1.0470  1.0657
  150TMC2    C7 2341   3.873   1.622  12.365  0.6409 -0.1543  0.3161
  150TMC2    C8 2342   3.687   1.214  12.233  0.5211 -1.1374  0.1255
  150TMC2    O1 2343   3.852   1.741  12.352 -0.7356 -0.1367  0.4518
  150TMC2    O2 2344   3.786   1.154  12.268  0.7763 -0.6221  0.4825
  150TMC2    O5 2345   3.612   1.183  12.124 -0.6441  0.1314  0.6774
  150TMC2    H5 2346   3.550   1.252  12.093  1.8781  0.9322 -2.5776
  151MPD2     C 2347   2.928   1.712  12.105  0.1321  0.0327  0.7782
  151MPD2    C1 2348   2.932   1.590  12.170  0.0862 -0.2861  0.7702
  151MPD2    C2 2349   3.046   1.528  12.209  0.6951 -0.6298 -0.0674
  151MPD2    C3 2350   3.165   1.601  12.197  0.3964  0.2258  0.7364
  151MPD2    C4 2351   3.161   1.721  12.127  0.4988 -0.5300 -0.7503
  151MPD2    C5 2352   3.048   1.779  12.086 -0.4642  0.1295  0.4481
  151MPD2     H 2353   3.049   1.434  12.263  1.3785 -0.4975  0.1293
  151MPD2    H1 2354   3.249   1.783  12.113  0.5563 -0.3237  0.4867
  151MPD2    H2 2355   2.833   1.759  12.082  0.0900 -0.6893 -0.5249
  151MPD2    H3 2356   3.046   1.880  12.049 -0.0560  0.2987  0.8767
  151MPD2     N 2357   3.291   1.545  12.240 -0.2760 -0.2894  0.1861
  151MPD2    H5 2358   3.294   1.446  12.261 -0.1679 -0.4317 -0.4895
  151MPD2    N1 2359   2.803   1.526  12.198  0.1442 -0.0063  0.2018
  151MPD2    H7 2360   2.720   1.579  12.173 -2.0654 -3.5909  0.0086
  152TMC2    C1 2361   3.770   1.638  12.734 -0.2712  0.0885  0.1038
  152TMC2    C2 2362   3.791   1.527  12.814  0.1907  0.1296 -0.5001
  152TMC2    C3 2363   3.895   1.519  12.900  0.1081  0.2079 -0.1125
  152TMC2    C4 2364   3.856   1.745  12.743  0.7963 -0.4798  0.0612
  152TMC2    C5 2365   3.961   1.727  12.827  0.3708 -0.0509  0.4789
  152TMC2    C6 2366   3.995   1.610  12.900  0.4037 -0.3768 -0.1572
  152TMC2     C 2367   3.645   1.649  12.655  0.0679 -1.2115  0.5908
  152TMC2     O 2368   3.627   1.762  12.620  0.2110  0.1837 -0.1171
  152TMC2     H 2369   3.720   1.446  12.822  1.1411 -0.5338  1.1374
  152TMC2    H1 2370   3.837   1.838  12.690  0.6630 -0.8984 -0.6274
  152TMC2    H2 2371   4.090   1.600  12.952  0.9397 -0.1533 -1.0985
  152TMC2    C7 2372   4.026   1.860  12.856 -0.9489  0.2385  0.3882
  152TMC2    C8 2373   3.922   1.390  12.957 -0.2618  0.5259  0.4519
  152TMC2    O1 2374   3.987   1.964  12.796 -0.1235 -0.0821 -0.3792
  152TMC2    O2 2375   3.866   1.293  12.910  0.2293 -0.3402 -0.5313
  152TMC2    O5 2376   3.961   1.407  13.087  0.0113 -0.3053  0.2351
  152TMC2    H5 2377   3.968   1.502  13.112 -1.8932  0.2334 -1.2428
  153MPD2     C 2378   3.396   1.382  12.589  0.0326  0.1655  0.3193
  153MPD2    C1 2379   3.443   1.512  12.610 -0.1593  0.4254 -0.2662
  153MPD2    C2 2380   3.356   1.617  12.608  0.6436 -0.4329  0.1616
  153MPD2    C3 2381   3.222   1.589  12.583 -0.5509 -0.0776  0.0287
  153MPD2    C4 2382   3.173   1.462  12.567 -0.1184  0.5840  0.0332
  153MPD2    C5 2383   3.265   1.360  12.565 -0.0280  0.4571  0.1660
  153MPD2     H 2384   3.377   1.720  12.636 -3.5157  0.3378  0.4473
  153MPD2    H1 2385   3.069   1.443  12.543 -1.2020  0.7517  4.5993
  153MPD2    H2 2386   3.459   1.295  12.602  0.0213  0.0589 -0.3416
  153MPD2    H3 2387   3.236   1.257  12.542 -1.5721  0.1321  3.6018
  153MPD2     N 2388   3.138   1.709  12.588  0.4171 -0.5038 -0.1796
  153MPD2    H5 2389   3.182   1.801  12.583  0.0606 -0.3042  0.4031
  153MPD2    N1 2390   3.578   1.528  12.638 -1.0105 -0.2802  0.1172
  153MPD2    H7 2391   3.627   1.442  12.660  1.0978  0.9426  0.1239
  154TMC2    C1 2392   1.061   2.333  17.738 -0.2877 -0.3583  0.1360
  154TMC2    C2 2393   1.011   2.209   0.002 -0.0940 -0.4883  0.6145
  154TMC2    C3 2394   1.012   2.124  17.648  0.9242 -1.0784  0.1229
  154TMC2    C4 2395   1.104   2.380  17.612 -0.7675  0.1854  0.4946
  154TMC2    C5 2396   1.096   2.293  17.510  0.6920 -0.5391  0.1850
  154TMC2    C6 2397   1.052   2.164  17.529 -0.5052 -0.2167 -0.4431
  154TMC2     C 2398   1.004   2.434   0.072  0.1506 -0.0676  0.2676
  154TMC2     O 2399   0.899   2.410   0.134 -0.3721 -0.2859 -0.5960
  154TMC2     H 2400   0.958   2.187   0.094  0.8143 -2.6899  0.6043
  154TMC2    H1 2401   1.128   2.485  17.599  1.1509 -0.0989  1.8115
  154TMC2    H2 2402   1.045   2.089  17.451  3.5253 -1.7241  0.6376
  154TMC2    C7 2403   1.142   2.335  17.379 -0.9436 -0.3637 -0.7132
  154TMC2    C8 2404   0.925   2.013  17.647 -0.1160  0.1129 -0.7817
  154TMC2    O1 2405   1.117   2.260  17.285  0.0720 -0.1901 -0.4984
  154TMC2    O2 2406   0.866   1.974  17.548  0.3454  0.1162 -0.2903
  154TMC2    O5 2407   0.917   1.958   0.017  0.0538 -0.2656 -0.0985
  154TMC2    H5 2408   0.986   1.996   0.076  1.6928 -2.9461 -0.2928
  155MPD2     C 2409   1.213   2.709   0.198  0.1229 -1.0740  0.5875
  155MPD2    C1 2410   1.101   2.638   0.185  0.0289 -0.4309 -0.7252
  155MPD2    C2 2411   0.991   2.662   0.266  0.1096 -0.3455 -0.3268
  155MPD2    C3 2412   1.005   2.757   0.371  0.2590  0.1019 -0.1160
  155MPD2    C4 2413   1.119   2.830   0.380  0.1249  0.6602 -0.0234
  155MPD2    C5 2414   1.229   2.795   0.303 -0.2975 -0.3822 -0.4561
  155MPD2     H 2415   0.903   2.599   0.261 -0.3859  0.4440 -1.8523
  155MPD2    H1 2416   1.127   2.919   0.441  0.0977 -0.7764  2.0789
  155MPD2    H2 2417   1.301   2.686   0.138  1.5835  1.4118  1.7809
  155MPD2    H3 2418   1.331   2.832   0.310  0.1154 -1.5494 -0.3500
  155MPD2     N 2419   0.880   2.787   0.444 -0.4280 -0.5362  0.0630
  155MPD2    H5 2420   0.808   2.717   0.431 -1.8292  0.6033  1.6750
  155MPD2    N1 2421   1.097   2.536   0.090 -0.6696 -0.0366 -0.0416
  155MPD2    H7 2422   1.183   2.532   0.036 -0.4122 -1.2449  0.4733
  156TMC2    C1 2423   3.914   3.905  11.197  1.2554  0.1582  0.1637
  156TMC2    C2 2424   3.949   3.773  11.162  0.7050 -0.2645 -0.1194
  156TMC2    C3 2425   3.919   3.734  11.031  0.9917  0.4587  0.0738
  156TMC2    C4 2426   3.861   3.989  11.111 -0.1028 -0.2385  0.8561
  156TMC2    C5 2427   3.819   3.940  10.995 -0.0483  0.3404 -0.6337
  156TMC2    C6 2428   3.854   3.818  10.944  0.0691 -0.8581 -0.2147
  156TMC2     C 2429   3.916   3.950  11.333 -0.0802  0.0051 -0.3514
  156TMC2     O 2430   3.841   4.046  11.349  0.4305  0.6933  0.8610
  156TMC2     H 2431   4.000   3.701  11.226 -0.1782 -1.2310 -0.4987
  156TMC2    H1 2432   3.824   4.086  11.144 -0.2106  0.1884 -0.4990
  156TMC2    H2 2433   3.827   3.780  10.846 -0.6113 -3.1544  0.8646
  156TMC2    C7 2434   3.751   4.038  10.917 -0.6070 -0.0282  0.2283
  156TMC2    C8 2435   3.957   3.604  10.987  0.9655  0.2270  0.0634
  156TMC2    O1 2436   3.722   4.147  10.968  0.9557 -0.5050  0.3468
  156TMC2    O2 2437   3.893   3.542  10.906  0.9102 -0.3925 -0.0711
  156TMC2    O5 2438   4.085   3.573  11.027 -0.0022  0.0449  0.2897
  156TMC2    H5 2439   4.140   3.636  11.078 -3.4324  2.5318  0.8687
  157MPD2     C 2440   4.109   3.865  11.630  0.2515  0.5113  0.3398
  157MPD2    C1 2441   4.013   3.929  11.554  0.0683 -1.2285  0.3966
  157MPD2    C2 2442   3.952   4.039  11.607  0.2222  0.4091  1.2598
  157MPD2    C3 2443   3.977   4.078  11.738  0.4931  0.4004 -0.1357
  157MPD2    C4 2444   4.076   4.008  11.806 -0.3320  0.1749 -0.0428
  157MPD2    C5 2445   4.134   3.902  11.752 -0.4693  0.5808  0.1499
  157MPD2     H 2446   3.871   4.096  11.563 -0.3573 -0.2417  1.4774
  157MPD2    H1 2447   4.115   4.044  11.901 -0.0165 -1.6647  0.5339
  157MPD2    H2 2448   4.161   3.782  11.583 -0.0757  1.6426 -2.0127
  157MPD2    H3 2449   4.214   3.860  11.812  0.5177  0.0018 -1.5601
  157MPD2     N 2450   3.907   4.190  11.793  0.2261  0.8129  0.1768
  157MPD2    H5 2451   3.842   4.239  11.732  0.4215  0.4767 -0.2950
  157MPD2    N1 2452   3.999   3.891  11.425  0.2219  0.6437  0.6574
  157MPD2    H7 2453   4.061   3.816  11.399  0.2578  1.3831 -1.3507
  158TMC2    C1 2454   4.048   3.337  13.549  0.4958 -0.5564  0.2731
  158TMC2    C2 2455   4.072   3.468  13.562  0.0973  0.1112  0.3631
  158TMC2    C3 2456   3.971   3.555  13.539  0.4282 -0.2451  0.0473
  158TMC2    C4 2457   3.919   3.287  13.535  0.4447 -0.2686 -0.0257
  158TMC2    C5 2458   3.820   3.377  13.518 -0.5126 -0.6478  0.1700
  158TMC2    C6 2459   3.851   3.513  13.504  0.1648  0.7154 -0.1376
  158TMC2     C 2460   4.174   3.261  13.536 -0.2021  0.0418  0.4335
  158TMC2     O 2461   4.261   3.322  13.478 -0.5232 -0.6745  0.1921
  158TMC2     H 2462   4.169   3.511  13.583 -0.4795  0.9895  1.2061
  158TMC2    H1 2463   3.900   3.181  13.530 -0.0642 -0.1671 -0.2492
  158TMC2    H2 2464   3.770   3.585  13.504  0.3793  0.9603 -0.8506
  158TMC2    C7 2465   3.695   3.344  13.461  0.3691 -0.1372  0.1903
  158TMC2    C8 2466   3.990   3.691  13.578  0.7028  0.3460 -0.1104
  158TMC2    O1 2467   3.663   3.433  13.383 -0.2667 -0.2816 -0.1239
  158TMC2    O2 2468   4.080   3.720  13.655 -0.8797  0.0634  0.5594
  158TMC2    O5 2469   3.907   3.785  13.518  0.3573 -0.2632 -0.1474
  158TMC2    H5 2470   3.876   3.754  13.430  0.2572  2.2830 -0.9955
  159MPD2     C 2471   4.459   2.843  13.631 -0.2868 -0.1695  0.1656
  159MPD2    C1 2472   4.336   2.838  13.700  1.0408 -0.2303 -0.1829
  159MPD2    C2 2473   4.234   2.930  13.670  0.2502 -0.7165 -0.1006
  159MPD2    C3 2474   4.261   3.039  13.588 -0.1161  0.4419 -0.0552
  159MPD2    C4 2475   4.382   3.045  13.524  0.1434 -0.6918  0.3867
  159MPD2    C5 2476   4.478   2.955  13.548 -0.0965  0.6703 -0.7550
  159MPD2     H 2477   4.146   2.936  13.734 -0.4738 -0.3504 -1.1216
  159MPD2    H1 2478   4.414   3.131  13.466  1.2182 -1.3353  0.0239
  159MPD2    H2 2479   4.543   2.774  13.638  0.0876  0.3734  1.0434
  159MPD2    H3 2480   4.579   2.968  13.513  0.8685 -0.0382  1.7051
  159MPD2     N 2481   4.155   3.132  13.580  0.4223  0.5269  0.2110
  159MPD2    H5 2482   4.069   3.113  13.631 -0.6147 -0.7305 -2.0222
  159MPD2    N1 2483   4.302   2.722  13.767  0.5490  0.0986  1.1118
  159MPD2    H7 2484   4.208   2.721  13.806 -0.8651 -0.5749 -2.3663
  160TMC2    C1 2485   4.079   0.583   1.214 -0.4946  0.3511  0.5043
  160TMC2    C2 2486   3.966   0.525   1.276 -0.3737 -0.4318  0.0034
  160TMC2    C3 2487   3.932   0.402   1.226 -0.9048  0.8472 -0.8952
  160TMC2    C4 2488   4.156   0.515   1.122  0.4682 -0.4520  0.8730
  160TMC2    C5 2489   4.116   0.391   1.081  0.0554  0.0691  0.4959
  160TMC2    C6 2490   4.003   0.335   1.132  0.1094 -0.6520  0.5245
  160TMC2     C 2491   4.084   0.725   1.207 -0.8371  0.3776 -0.2229
  160TMC2     O 2492   4.194   0.771   1.182 -0.2212 -0.4060  0.3617
  160TMC2     H 2493   3.904   0.573   1.351  1.3009  2.1188 -0.2514
  160TMC2    H1 2494   4.228   0.569   1.062 -0.7392  1.4267  1.1092
  160TMC2    H2 2495   3.973   0.235   1.104  0.6342 -1.2737  2.1886
  160TMC2    C7 2496   4.162   0.346   0.951 -0.2827 -0.4000 -0.3815
  160TMC2    C8 2497   3.820   0.324   1.280  0.8209  0.8378 -0.7173
  160TMC2    O1 2498   4.132   0.228   0.932 -0.4713 -0.1961 -0.0218
  160TMC2    O2 2499   3.838   0.210   1.316  0.3713 -0.0965  0.0552
  160TMC2    O5 2500   3.733   0.415   1.318 -0.3439  0.4491  0.1436
  160TMC2    H5 2501   3.752   0.501   1.274  0.8150 -0.2330 -0.6783
  161MPD2     C 2502   4.032   1.019   1.252  0.2891 -0.8922 -0.0973
  161MPD2    C1 2503   3.932   0.924   1.241 -0.2362  0.1019  0.2075
  161MPD2    C2 2504   3.800   0.972   1.238  0.2875  0.6680 -0.2037
  161MPD2    C3 2505   3.766   1.104   1.236 -0.7212  0.3184  0.5041
  161MPD2    C4 2506   3.872   1.196   1.246 -0.0753 -0.7068 -0.1113
  161MPD2    C5 2507   3.998   1.145   1.264 -0.3428  0.3338 -0.0688
  161MPD2     H 2508   3.713   0.908   1.243  1.6267 -1.0896  0.7600
  161MPD2    H1 2509   3.855   1.303   1.242  0.8480 -0.5237  0.7235
  161MPD2    H2 2510   4.134   0.985   1.264  0.7346  0.5024  0.0425
  161MPD2    H3 2511   4.084   1.211   1.268  0.4465 -0.8824  2.7755
  161MPD2     N 2512   3.633   1.158   1.221  0.7994 -0.1434 -0.4840
  161MPD2    H5 2513   3.631   1.258   1.235  0.9327 -0.4357  1.6705
  161MPD2    N1 2514   3.964   0.788   1.241 -0.4650  0.1461 -0.4434
  161MPD2    H7 2515   3.890   0.719   1.244  0.0248 -0.4202 -1.4586
  162TMC2    C1 2516   1.988   2.757   1.245 -0.0604 -0.0290 -0.2023
  162TMC2    C2 2517   1.852   2.791   1.241  0.2279 -0.1295 -0.6515
  162TMC2    C3 2518   1.803   2.851   1.353  0.5230  0.7936 -0.1544
  162TMC2    C4 2519   2.069   2.775   1.351  0.4160 -0.5034  0.3036
  162TMC2    C5 2520   2.012   2.835   1.465  0.5414  0.5321  0.3285
  162TMC2    C6 2521   1.885   2.868   1.462  0.0489 -0.0797  0.2887
  162TMC2     C 2522   2.032   2.688   1.124 -0.1595  0.9421  0.1451
  162TMC2     O 2523   1.956   2.682   1.032  0.6764  0.2765 -0.4383
  162TMC2     H 2524   1.789   2.766   1.156  0.9191 -1.7909 -0.6684
  162TMC2    H1 2525   2.174   2.748   1.346  0.8815  1.3940 -0.1995
  162TMC2    H2 2526   1.838   2.915   1.548  2.6621  1.7012  0.7216
  162TMC2    C7 2527   2.079   2.826   1.594  0.2085 -0.4732  0.2851
  162TMC2    C8 2528   1.660   2.844   1.382 -0.1672 -0.4456 -0.2394
  162TMC2    O1 2529   2.023   2.884   1.685 -0.1026 -0.1887  0.1555
  162TMC2    O2 2530   1.614   2.856   1.495  0.0973  0.2075 -0.0338
  162TMC2    O5 2531   1.582   2.853   1.269 -0.1439 -0.1461 -0.5735
  162TMC2    H5 2532   1.630   2.862   1.184  1.4593  1.7271  0.5219
  163MPD2     C 2533   2.372   2.404   0.864  0.2323 -0.4348 -0.3165
  163MPD2    C1 2534   2.270   2.478   0.820  0.2799 -0.5641 -0.4151
  163MPD2    C2 2535   2.194   2.548   0.912 -0.2243  0.1913 -0.1712
  163MPD2    C3 2536   2.224   2.550   1.050 -0.3174  0.0876  0.2093
  163MPD2    C4 2537   2.335   2.479   1.091  0.8445  0.3363 -0.6737
  163MPD2    C5 2538   2.403   2.400   1.001  0.0914 -0.1951 -0.1717
  163MPD2     H 2539   2.107   2.605   0.880  0.6888  1.0485 -1.1182
  163MPD2    H1 2540   2.370   2.488   1.193  0.7170 -0.3869 -0.5723
  163MPD2    H2 2541   2.432   2.345   0.796  1.0540 -0.9744  0.8759
  163MPD2    H3 2542   2.491   2.348   1.038  0.7769 -0.0851 -1.6205
  163MPD2     N 2543   2.146   2.619   1.152 -0.0427 -0.0541  0.6576
  163MPD2    H5 2544   2.168   2.593   1.248  0.7259 -2.1508 -0.0942
  163MPD2    N1 2545   2.238   2.480   0.680 -0.3906  0.0102 -0.5707
  163MPD2    H7 2546   2.270   2.411   0.612  0.0932 -0.6695  0.3553
  164TMC2    C1 2547   2.202   2.702  10.905 -0.3610  0.1592  0.7668
  164TMC2    C2 2548   2.257   2.760  10.795 -0.0647 -0.8004 -0.0060
  164TMC2    C3 2549   2.240   2.897  10.772 -0.2937 -0.9843 -0.2420
  164TMC2    C4 2550   2.122   2.774  10.989  0.0803  0.2368  0.0796
  164TMC2    C5 2551   2.118   2.910  10.976  0.2381  0.7685 -0.2046
  164TMC2    C6 2552   2.182   2.973  10.872 -0.1234  0.3377  0.3028
  164TMC2     C 2553   2.193   2.555  10.915  0.7338 -0.5050  0.7384
  164TMC2     O 2554   2.119   2.500  10.997 -0.1249  0.1839 -0.1864
  164TMC2     H 2555   2.312   2.709  10.717  0.1955 -1.6254  0.7164
  164TMC2    H1 2556   2.073   2.716  11.066 -1.5890  0.1618 -1.0376
  164TMC2    H2 2557   2.160   3.077  10.854  1.0204  0.2914 -1.3224
  164TMC2    C7 2558   2.019   2.985  11.063  0.0812  0.1344  0.4988
  164TMC2    C8 2559   2.316   2.975  10.668 -0.3255 -0.2359  0.2452
  164TMC2    O1 2560   1.982   3.093  11.015 -0.4634 -0.0555  0.1471
  164TMC2    O2 2561   2.431   2.953  10.633 -0.0978 -0.4413  0.5019
  164TMC2    O5 2562   2.221   3.052  10.611  0.1889 -0.2207 -0.5427
  164TMC2    H5 2563   2.127   3.042  10.637  0.0485  1.0660 -0.5535
  165TMC2    C1 2564   3.975   4.626   1.298  0.1724  0.0350  0.1644
  165TMC2    C2 2565   3.999   4.585   1.165 -0.3751 -0.9352  0.2528
  165TMC2    C3 2566   4.092   4.657   1.098 -0.3767 -0.4353 -0.1520
  165TMC2    C4 2567   4.044   4.727   1.360  0.1113 -0.3851 -0.7206
  165TMC2    C5 2568   4.148   0.039   1.286 -0.2096  0.3207  0.2141
  165TMC2    C6 2569   4.182   0.001   1.157 -0.3887 -1.1129 -0.2411
  165TMC2     C 2570   3.884   4.553   1.377 -0.2138  0.0429  0.5874
  165TMC2     O 2571   3.880   4.577   1.497  0.5191 -0.1678  0.5404
  165TMC2     H 2572   3.957   4.491   1.132  1.2253 -0.6458 -2.5493
  165TMC2    H1 2573   4.032   0.004   1.467  2.0123  3.5147 -1.0499
  165TMC2    H2 2574   4.257   0.054   1.099 -1.4064 -0.9279 -1.3714
  165TMC2    C7 2575   4.226   0.153   1.326  0.1032  0.8847  0.3534
  165TMC2    C8 2576   4.122   4.623   0.956 -0.0816 -0.2057 -0.3334
  165TMC2    O1 2577   4.322   0.187   1.259 -0.3545 -0.1027  0.3536
  165TMC2    O2 2578   4.230   4.647   0.904  0.4477 -0.2825  0.2800
  165TMC2    O5 2579   4.026   4.553   0.897 -0.3377 -0.2092  0.4246
  165TMC2    H5 2580   3.939   4.556   0.942  0.5350  2.1570  1.9507
  166MPD2     C 2581   3.510   4.200   1.440 -0.5685  0.4820  0.0919
  166MPD2    C1 2582   3.608   4.247   1.527  0.0196  0.3816  0.1993
  166MPD2    C2 2583   3.692   4.345   1.480  0.6103  0.1291 -0.5620
  166MPD2    C3 2584   3.689   4.398   1.354  0.3746 -0.2944 -0.3553
  166MPD2    C4 2585   3.592   4.353   1.269 -0.3142 -0.0706 -0.1453
  166MPD2    C5 2586   3.501   4.259   1.309  0.7091 -0.1646  0.0158
  166MPD2     H 2587   3.763   4.380   1.554  0.4308  0.5166 -0.5687
  166MPD2    H1 2588   3.576   4.404   1.174  0.2200  0.9572  0.3179
  166MPD2    H2 2589   3.438   4.125   1.470 -0.2147  0.4250  0.7893
  166MPD2    H3 2590   3.427   4.222   1.240 -0.3997  1.5600  0.2901
  166MPD2     N 2591   3.790   4.479   1.308 -0.6631 -0.5132 -0.2018
  166MPD2    H5 2592   3.782   4.507   1.210  0.9647  0.3853 -0.0878
  166MPD2    N1 2593   3.605   4.176   1.649 -0.1128 -0.1163  0.0901
  166MPD2    H7 2594   3.534   4.104   1.659  0.8968 -1.3051 -1.4328
  167TMC2    C1 2595   1.587   2.821  12.986  0.8317 -0.0169  0.0848
  167TMC2    C2 2596   1.614   2.849  13.116 -0.1179  0.0959  0.4830
  167TMC2    C3 2597   1.564   2.768  13.212  0.1927  0.5363  0.7070
  167TMC2    C4 2598   1.507   2.721  12.941 -0.1070  0.9392  0.4042
  167TMC2    C5 2599   1.461   2.637  13.038  0.7281 -0.5711  0.2609
  167TMC2    C6 2600   1.495   2.656  13.168 -0.2685  0.7018  0.0420
  167TMC2     C 2601   1.653   2.906  12.891  0.0189 -0.1155  0.2282
  167TMC2     O 2602   1.699   3.017  12.923  0.0003  0.9063 -0.2536
  167TMC2     H 2603   1.685   2.924  13.148 -0.8596  0.0520  2.2490
  167TMC2    H1 2604   1.468   2.716  12.839 -0.6300 -2.1218  0.7564
  167TMC2    H2 2605   1.473   2.586  13.248  2.0934  0.5788  0.5796
  167TMC2    C7 2606   1.403   2.511  13.006  0.4244  0.4187 -0.3136
  167TMC2    C8 2607   1.661   2.736  13.321 -0.5817 -0.5101 -0.0551
  167TMC2    O1 2608   1.352   2.447  13.095  0.3931  0.0169  0.2719
  167TMC2    O2 2609   1.713   2.628  13.327  0.1522  0.1156  0.4364
  167TMC2    O5 2610   1.690   2.844  13.397  0.7354  0.4213  0.8428
  167TMC2    H5 2611   1.626   2.917  13.385 -0.7836 -0.6592  2.3979
  168MPD2     C 2612   1.788   3.040  12.652 -0.0277  0.3902  0.5348
  168MPD2    C1 2613   1.733   2.913  12.655  0.4233 -1.0267  0.2296
  168MPD2    C2 2614   1.747   2.834  12.539  0.3745  0.1852 -0.3342
  168MPD2    C3 2615   1.827   2.869  12.432  0.4875  0.8093  0.1997
  168MPD2    C4 2616   1.885   2.995  12.435 -0.1814  0.1519  0.4610
  168MPD2    C5 2617   1.865   3.076  12.542 -0.5913  0.6440 -0.2100
  168MPD2     H 2618   1.711   2.732  12.540 -0.6322  0.5233 -2.2461
  168MPD2    H1 2619   1.940   3.034  12.351  1.7961 -3.2361  0.1601
  168MPD2    H2 2620   1.772   3.109  12.734 -1.0929  2.1450 -1.1428
  168MPD2    H3 2621   1.895   3.179  12.527  0.0632  0.2886 -1.3483
  168MPD2     N 2622   1.844   2.775  12.329  0.5313  0.1583  0.1769
  168MPD2    H5 2623   1.802   2.682  12.334 -1.3740  0.9946 -0.4502
  168MPD2    N1 2624   1.662   2.853  12.763 -0.3542  0.6567 -0.1284
  168MPD2    H7 2625   1.610   2.767  12.747 -1.0357  1.0597 -0.0685
  169MPD1     C 2626   3.053   1.820   9.524  1.1175 -0.3213  0.2373
  169MPD1    C1 2627   3.175   1.756   9.526 -1.0803  0.1495  0.6006
  169MPD1    C2 2628   3.291   1.830   9.524  0.3962  0.7438  0.1028
  169MPD1    C3 2629   3.295   1.962   9.554  0.6844 -0.5887  0.6690
  169MPD1    C4 2630   3.173   2.022   9.588  0.3485 -0.0690  0.6779
  169MPD1    C5 2631   3.056   1.955   9.558  0.1949  0.5835 -0.1936
  169MPD1     H 2632   3.382   1.776   9.501 -0.5995 -0.1306 -1.7017
  169MPD1    H1 2633   3.160   2.122   9.629  1.6000 -0.1738  1.3548
  169MPD1    H2 2634   2.958   1.769   9.520  1.0570 -0.2211  0.3908
  169MPD1    H3 2635   2.963   2.009   9.572 -0.1805 -0.4951  1.4725
  169MPD1     N 2636   3.422   2.015   9.573  0.5668 -0.1788  0.0675
  169MPD1    H5 2637   3.497   1.948   9.558  1.5747  1.0629 -0.3601
  169MPD1    N1 2638   3.180   1.620   9.486  0.2620  0.4722  0.2304
  169MPD1    H6 2639   3.106   1.557   9.517 -0.8338  0.9867 -1.3158
  169MPD1    H7 2640   3.269   1.575   9.505 -0.0062 -0.5665 -1.0146
  170MPD1     C 2641   3.102   0.129  13.063  0.2359 -0.1743 -0.5326
  170MPD1    C1 2642   2.973   0.116  13.053 -0.1587 -0.0572  0.0943
  170MPD1    C2 2643   2.896   0.107  13.168  0.4407  0.2391 -1.0735
  170MPD1    C3 2644   2.950   0.106  13.293 -0.8360  0.6310  0.7116
  170MPD1    C4 2645   3.087   0.129  13.300  0.4432  0.1142  0.0387
  170MPD1    C5 2646   3.159   0.141  13.185  0.2299 -0.4661  0.7650
  170MPD1     H 2647   2.788   0.099  13.158  0.6588 -2.3328 -1.4594
  170MPD1    H1 2648   3.140   0.126  13.395  0.8048 -0.0889 -0.1712
  170MPD1    H2 2649   3.165   0.119  12.975  1.3880 -1.5365  0.4286
  170MPD1    H3 2650   3.266   0.155  13.194  0.2483  0.1340 -0.3380
  170MPD1     N 2651   2.866   0.102  13.408  0.4815 -0.0930 -0.0244
  170MPD1    H5 2652   2.769   0.111  13.379  0.6316 -0.9488 -0.7745
  170MPD1    N1 2653   2.913   0.077  12.932 -0.4143 -0.0187  0.1574
  170MPD1    H6 2654   2.955   0.099  12.842 -0.6024  1.0137  0.3211
  170MPD1    H7 2655   2.811   0.084  12.931 -0.3388  1.0889  0.1786
  171MPD1     C 2656   1.105   0.771  15.272  0.1079 -0.1806 -0.2211
  171MPD1    C1 2657   1.141   0.812  15.401 -0.2608  0.3308  0.1296
  171MPD1    C2 2658   1.222   0.725  15.470 -0.7703  0.2989  0.0958
  171MPD1    C3 2659   1.263   0.605  15.415 -0.1277 -0.4032 -0.3700
  171MPD1    C4 2660   1.225   0.567  15.284  0.6078 -0.1712 -0.0631
  171MPD1    C5 2661   1.150   0.655  15.220  0.3359 -0.0891  0.0448
  171MPD1     H 2662   1.249   0.759  15.569 -0.3186 -0.3419  0.1918
  171MPD1    H1 2663   1.256   0.473  15.239 -0.9629 -0.8849  0.3376
  171MPD1    H2 2664   1.056   0.836  15.201 -0.4619  1.7022  1.8974
  171MPD1    H3 2665   1.121   0.631  15.118  1.5705  0.1818 -0.3710
  171MPD1     N 2666   1.348   0.516  15.482 -0.0299 -0.0910  0.4034
  171MPD1    H5 2667   1.390   0.431  15.447 -1.4901 -0.8955  0.6024
  171MPD1    N1 2668   1.099   0.939  15.442 -0.5467  0.0409 -0.2973
  171MPD1    H6 2669   1.131   0.966  15.535 -0.6540 -0.3675 -0.1396
  171MPD1    H7 2670   1.119   1.015  15.378 -0.2449 -0.3987 -0.7220
  172MPD1     C 2671   0.670   4.707  17.148 -1.2274 -0.7842 -0.4716
  172MPD1    C1 2672   0.650   0.102  17.157 -0.8411 -0.0065  0.1021
  172MPD1    C2 2673   0.695   0.162  17.277 -0.4940 -0.3017  0.1456
  172MPD1    C3 2674   0.747   0.084  17.385  0.7682 -0.6395  0.1383
  172MPD1    C4 2675   0.749   4.683  17.376  0.2772  0.1884 -0.1659
  172MPD1    C5 2676   0.718   4.631  17.255 -0.7098 -0.3501 -0.5802
  172MPD1     H 2677   0.688   0.270  17.281  0.5100 -0.1723 -1.7956
  172MPD1    H1 2678   0.783   4.627  17.462  1.0022  1.6157  0.4872
  172MPD1    H2 2679   0.636   4.656  17.059  1.9383 -0.4312 -1.8806
  172MPD1    H3 2680   0.745   4.526  17.249  0.4358 -0.2542  2.8015
  172MPD1     N 2681   0.786   0.143  17.507 -0.1399 -0.1203 -0.2520
  172MPD1    H5 2682   0.801   0.084  17.588  1.3238 -0.2727 -0.6226
  172MPD1    N1 2683   0.622   0.179  17.039 -0.6426 -0.3715 -0.7120
  172MPD1    H6 2684   0.579   0.271  17.050 -0.1588 -0.1577 -0.6046
  172MPD1    H7 2685   0.561   0.127  16.976  0.4014 -0.4970 -1.5987
  173MPD1     C 2686   1.558   0.378  14.351  0.4300  0.2884 -0.5955
  173MPD1    C1 2687   1.532   0.267  14.272 -0.4142  0.3296  0.9599
  173MPD1    C2 2688   1.572   0.144  14.309 -0.5616  0.0904  0.7665
  173MPD1    C3 2689   1.619   0.117  14.437 -0.9558 -1.2000 -0.5942
  173MPD1    C4 2690   1.631   0.216  14.529  0.1449  0.5318  0.0158
  173MPD1    C5 2691   1.599   0.346  14.480 -0.8600  0.1927 -0.0999
  173MPD1     H 2692   1.560   0.055  14.248  0.9274 -0.3672  1.1448
  173MPD1    H1 2693   1.677   0.209  14.627  0.1079  1.6608  0.1166
  173MPD1    H2 2694   1.542   0.479  14.318 -1.4462  0.2984  0.3461
  173MPD1    H3 2695   1.610   0.421  14.557 -0.7617 -0.6404  0.7035
  173MPD1     N 2696   1.645   4.724  14.465  0.6125  0.1874 -0.2816
  173MPD1    H5 2697   1.639   4.655  14.390 -0.4613  0.1506 -0.1658
  173MPD1    N1 2698   1.490   0.292  14.134  0.0716 -0.2886  0.1665
  173MPD1    H6 2699   1.443   0.213  14.091 -0.4554  0.4026 -0.5114
  173MPD1    H7 2700   1.440   0.379  14.120  2.3049  0.9665  0.0337
  174MPD1     C 2701   1.388   3.947  14.036  0.6044 -0.3724 -0.3916
  174MPD1    C1 2702   1.379   4.080  14.026 -0.6884  0.0435 -0.2201
  174MPD1    C2 2703   1.464   4.158  14.106 -0.0174 -0.3576  0.4641
  174MPD1    C3 2704   1.539   4.097  14.207 -0.1356 -0.0927 -0.5004
  174MPD1    C4 2705   1.539   3.960  14.223 -0.1110 -0.2739  0.4140
  174MPD1    C5 2706   1.458   3.894  14.138  0.0631 -0.5664 -0.6634
  174MPD1     H 2707   1.466   4.264  14.084 -0.2896 -0.2252  1.0903
  174MPD1    H1 2708   1.582   3.910  14.309 -2.0870 -1.4329  0.7423
  174MPD1    H2 2709   1.321   3.888  13.975  0.4966  0.3192 -0.9378
  174MPD1    H3 2710   1.458   3.785  14.144  1.0585 -0.4912  0.6046
  174MPD1     N 2711   1.582   4.171  14.315  0.2060  0.1784 -0.3948
  174MPD1    H5 2712   1.609   4.116  14.396  0.0328 -0.7599 -0.9746
  174MPD1    N1 2713   1.302   4.145  13.928  0.2635  0.1564 -0.0944
  174MPD1    H6 2714   1.271   4.237  13.959 -1.8017 -0.3091 -0.7572
  174MPD1    H7 2715   1.219   4.099  13.889 -0.1496  2.9820 -2.5526
  175MPD1     C 2716   0.171   1.331  15.290  0.2600 -0.6029  0.3065
  175MPD1    C1 2717   0.101   1.416  15.371 -0.5180 -0.0648  0.7716
  175MPD1    C2 2718   0.074   1.379  15.504  0.2336 -0.1154 -0.4402
  175MPD1    C3 2719   0.116   1.256  15.549 -0.2034 -0.1784  0.0072
  175MPD1    C4 2720   0.187   1.175  15.467  0.6108 -0.9185  0.3056
  175MPD1    C5 2721   0.220   1.218  15.348  0.2570 -0.1366  0.3113
  175MPD1     H 2722   0.035   1.457  15.568  3.0383 -0.9340  2.2574
  175MPD1    H1 2723   0.202   1.068  15.483 -1.8630 -1.1864  0.7309
  175MPD1    H2 2724   0.190   1.343  15.184 -2.0614  1.5588  0.1347
  175MPD1    H3 2725   0.266   1.146  15.281  1.5407  0.8015  0.1897
  175MPD1     N 2726   0.084   1.206  15.678 -0.5948 -0.0091 -0.6367
  175MPD1    H5 2727   0.122   1.116  15.704  2.4692  1.4067 -0.2601
  175MPD1    N1 2728   0.069   1.546  15.324 -0.0132  0.0098  0.2251
  175MPD1    H6 2729   4.733   1.600  15.367 -1.2619 -0.8561 -0.8331
  175MPD1    H7 2730   0.055   1.539  15.223 -0.0630  1.7807  0.1072
  176MPD1     C 2731   1.930   2.740  17.486  0.4498 -0.1667  0.4904
  176MPD1    C1 2732   1.828   2.752  17.390  0.7039 -0.0247 -0.1987
  176MPD1    C2 2733   1.829   2.856  17.299 -0.2387 -0.3672 -0.0833
  176MPD1    C3 2734   1.938   2.939  17.291 -0.3447  0.2458  0.2867
  176MPD1    C4 2735   2.041   2.923  17.379  0.7806 -0.4095 -0.4917
  176MPD1    C5 2736   2.037   2.825  17.475  0.5409 -0.1139  0.7584
  176MPD1     H 2737   1.748   2.866  17.228  1.2228 -2.4726 -2.0246
  176MPD1    H1 2738   2.122   2.995  17.385  0.6879 -0.2860 -0.7070
  176MPD1    H2 2739   1.926   2.669  17.569 -1.6814 -0.3178  0.2697
  176MPD1    H3 2740   2.121   2.826  17.543  1.3963  0.9190 -0.3048
  176MPD1     N 2741   1.934   3.038  17.193  0.0527  0.4091  0.0515
  176MPD1    H5 2742   1.845   3.048  17.146 -1.2761  1.7119  2.8535
  176MPD1    N1 2743   1.709   2.675  17.404  0.4767  0.1020 -0.2726
  176MPD1    H6 2744   1.649   2.678  17.322 -2.6737  1.9106  2.1330
  176MPD1    H7 2745   1.717   2.581  17.441 -0.0243  0.5108  0.8803
  177MPD1     C 2746   0.047   3.017  10.254 -0.1838  0.0763  0.3400
  177MPD1    C1 2747   0.143   3.104  10.204 -0.3043  0.6652 -1.0572
  177MPD1    C2 2748   0.113   3.184  10.098  0.4289 -0.5643  0.0789
  177MPD1    C3 2749   4.734   3.182  10.026 -0.1215 -0.3083 -0.0652
  177MPD1    C4 2750   4.638   3.102  10.086  0.2398 -0.4594 -0.3048
  177MPD1    C5 2751   4.663   3.021  10.193  0.2797 -0.5053 -1.0116
  177MPD1     H 2752   0.195   3.249  10.070  1.0045 -1.1566  0.3550
  177MPD1    H1 2753   4.542   3.084  10.038 -0.5359  0.5477  0.8533
  177MPD1    H2 2754   0.060   2.955  10.342 -1.0274 -2.1992 -1.1383
  177MPD1    H3 2755   4.588   2.957  10.239 -2.0835  1.0305 -2.7557
  177MPD1     N 2756   4.707   3.256   9.908 -0.3701  0.0335 -0.5831
  177MPD1    H5 2757   0.030   3.333   9.884 -0.5965 -0.5561 -3.0668
  177MPD1    N1 2758   0.251   3.136  10.285 -0.1189 -0.6241 -0.1143
  177MPD1    H6 2759   0.336   3.139  10.229 -1.2439 -0.7178 -1.8172
  177MPD1    H7 2760   0.271   3.066  10.356  0.8682  1.3935  1.6211
  178MPD1     C 2761   2.771   3.799   0.417 -0.1504 -0.4198 -0.0411
  178MPD1    C1 2762   2.700   3.711   0.340 -0.1099  0.2468 -0.3132
  178MPD1    C2 2763   2.711   3.715   0.200 -0.5695 -0.3683  0.0609
  178MPD1    C3 2764   2.793   3.809   0.138  0.6701 -0.5095  0.4994
  178MPD1    C4 2765   2.846   3.908   0.215 -0.6386 -0.1856  0.3158
  178MPD1    C5 2766   2.837   3.902   0.353  0.1933 -0.1821  0.2647
  178MPD1     H 2767   2.655   3.647   0.135  0.7960  0.1946 -1.7046
  178MPD1    H1 2768   2.916   3.975   0.167  1.1886 -1.2356  1.5095
  178MPD1    H2 2769   2.760   3.797   0.525 -3.6012 -0.2624 -0.4012
  178MPD1    H3 2770   2.881   3.980   0.414  0.5805  0.1345 -0.4212
  178MPD1     N 2771   2.812   3.811  17.751 -0.8703  0.0343  0.8895
  178MPD1    H5 2772   2.864   3.894  17.724  0.6098 -0.7049  1.4772
  178MPD1    N1 2773   2.630   3.598   0.394 -0.6034  1.0672  0.0753
  178MPD1    H6 2774   2.608   3.607   0.493  1.5845  1.0322  0.5616
  178MPD1    H7 2775   2.544   3.575   0.344  0.1475  1.4318 -1.3701
  179MPD1     C 2776   2.771   2.416  15.565  0.0957  0.3925 -0.1056
  179MPD1    C1 2777   2.728   2.390  15.691  0.2049 -0.0350 -0.3361
  179MPD1    C2 2778   2.665   2.271  15.724  0.2366  0.2406 -0.0591
  179MPD1    C3 2779   2.665   2.175  15.623 -0.7051 -0.7310 -0.1110
  179MPD1    C4 2780   2.723   2.196  15.495  0.1717  0.6175  0.4149
  179MPD1    C5 2781   2.778   2.318  15.477 -0.0953 -0.6162 -0.7840
  179MPD1     H 2782   2.628   2.262  15.825  2.3966  0.0518  0.7208
  179MPD1    H1 2783   2.709   2.137  15.405  0.4417  1.1483  0.0235
  179MPD1    H2 2784   2.800   2.515  15.532  0.9739 -0.0162 -0.5596
  179MPD1    H3 2785   2.822   2.343  15.381  1.8819  0.8446  0.5099
  179MPD1     N 2786   2.610   2.048  15.641  0.2124  0.4086 -0.6016
  179MPD1    H5 2787   2.610   1.977  15.569 -1.1548 -0.1697 -0.0406
  179MPD1    N1 2788   2.717   2.495  15.783  0.3352 -0.4109  0.2393
  179MPD1    H6 2789   2.693   2.469  15.878 -1.6292  0.0099 -0.1454
  179MPD1    H7 2790   2.802   2.551  15.786 -0.1655  0.3294  0.2988
  180MPD1     C 2791   2.933   3.749  15.187  0.4311 -0.6976 -0.0966
  180MPD1    C1 2792   2.988   3.688  15.075 -0.1770  0.3885 -0.3768
  180MPD1    C2 2793   2.908   3.592  15.011  0.8948 -0.6177 -0.3457
  180MPD1    C3 2794   2.772   3.577  15.043 -0.1786  0.3199 -0.3484
  180MPD1    C4 2795   2.719   3.647  15.153 -0.2684 -0.0646  0.0562
  180MPD1    C5 2796   2.802   3.734  15.219 -0.3420 -0.5910  0.5649
  180MPD1     H 2797   2.945   3.534  14.927  1.5399 -1.2955  0.4150
  180MPD1    H1 2798   2.618   3.628  15.187  0.2257  1.0287  2.1510
  180MPD1    H2 2799   2.989   3.823  15.243  0.6988 -0.5491 -0.5622
  180MPD1    H3 2800   2.759   3.783  15.305  0.1444 -1.0202  1.0588
  180MPD1     N 2801   2.705   3.480  14.974  0.4615  0.3945  0.4563
  180MPD1    H5 2802   2.756   3.442  14.896  0.3058 -0.8061  0.9331
  180MPD1    N1 2803   3.128   3.691  15.067 -0.1771  0.3643 -0.0562
  180MPD1    H6 2804   3.167   3.657  14.980  0.1750  0.7220 -0.0395
  180MPD1    H7 2805   3.158   3.788  15.066 -1.6558  0.8194 -0.1490
  181MPD1     C 2806   3.832   0.688   9.845 -0.5290 -0.0443 -0.2779
  181MPD1    C1 2807   3.802   0.823   9.842 -0.4931  0.1335  0.4844
  181MPD1    C2 2808   3.906   0.917   9.857 -0.4532  0.3621  0.3479
  181MPD1    C3 2809   4.034   0.876   9.871  0.2891 -0.4777  0.1222
  181MPD1    C4 2810   4.068   0.745   9.864  0.2629  0.3822 -0.5439
  181MPD1    C5 2811   3.960   0.652   9.853 -0.5688 -0.7048 -0.2638
  181MPD1     H 2812   3.885   1.023   9.846  1.9470  0.9627  1.6053
  181MPD1    H1 2813   4.171   0.710   9.864  0.6733  1.5903 -1.3583
  181MPD1    H2 2814   3.755   0.618   9.811 -2.1048  1.3634  0.4168
  181MPD1    H3 2815   3.977   0.547   9.831  1.6161 -0.6473  1.2050
  181MPD1     N 2816   4.145   0.961   9.882  0.2353  1.1633 -0.2025
  181MPD1    H5 2817   4.233   0.910   9.884  0.3640  1.4257  1.5203
  181MPD1    N1 2818   3.671   0.858   9.808  0.7714 -0.6830  0.8905
  181MPD1    H6 2819   3.605   0.787   9.842 -1.7215 -0.5913 -3.7449
  181MPD1    H7 2820   3.648   0.945   9.856 -2.3936 -1.0478  0.0709
  182MPD1     C 2821   0.481   4.536   1.236  0.2530  0.3180 -0.6502
  182MPD1    C1 2822   0.447   4.446   1.138 -0.2737 -0.8329  0.7021
  182MPD1    C2 2823   0.326   4.457   1.073  0.7761  0.3005  0.4786
  182MPD1    C3 2824   0.234   4.556   1.099  0.3137  0.3861 -0.1491
  182MPD1    C4 2825   0.267   4.640   1.199 -0.4249 -0.0082  0.0632
  182MPD1    C5 2826   0.387   4.636   1.258 -0.6642  0.8863  0.2159
  182MPD1     H 2827   0.299   4.380   1.002 -0.5224  0.4596  0.8004
  182MPD1    H1 2828   0.201   4.717   1.238 -0.4185  0.5947 -1.1096
  182MPD1    H2 2829   0.580   4.535   1.279 -0.9771 -1.9672  2.1578
  182MPD1    H3 2830   0.416   4.702   1.339  2.2476 -1.0850  0.7976
  182MPD1     N 2831   0.105   4.560   1.043  0.3519  0.0518  0.5013
  182MPD1    H5 2832   0.049   4.632   1.086 -0.1141 -0.0503  0.0773
  182MPD1    N1 2833   0.532   4.340   1.105 -0.6820  0.2985 -0.3550
  182MPD1    H6 2834   0.487   4.250   1.125  2.3647 -0.5172  2.7939
  182MPD1    H7 2835   0.618   4.342   1.159 -2.5812 -1.3850  2.7514
  183MPD1     C 2836   1.803   0.931   9.657  0.0834 -0.2055 -0.1419
  183MPD1    C1 2837   1.681   1.000   9.636  0.2052 -0.1912 -0.1028
  183MPD1    C2 2838   1.563   0.942   9.666  1.1941 -0.6504 -0.0881
  183MPD1    C3 2839   1.555   0.812   9.711 -0.2408 -0.0795  0.6580
  183MPD1    C4 2840   1.674   0.736   9.719 -0.1625 -0.1170 -0.3202
  183MPD1    C5 2841   1.794   0.801   9.692  0.1044 -0.3775 -0.4391
  183MPD1     H 2842   1.473   0.998   9.643  0.2572 -1.7497  0.8652
  183MPD1    H1 2843   1.682   0.628   9.723 -3.1032 -0.2671  1.2924
  183MPD1    H2 2844   1.901   0.970   9.631  0.3001 -0.7845 -0.1856
  183MPD1    H3 2845   1.887   0.744   9.693  0.5527  0.2585 -4.6113
  183MPD1     N 2846   1.430   0.774   9.763  0.7768 -0.3135 -0.2763
  183MPD1    H5 2847   1.349   0.825   9.731  1.1394  1.6023  1.8641
  183MPD1    N1 2848   1.679   1.126   9.577 -0.3299  0.0543 -0.2973
  183MPD1    H6 2849   1.593   1.169   9.613  0.1849 -0.1201  1.1620
  183MPD1    H7 2850   1.755   1.181   9.617 -0.8775  0.5984  0.0109
  184MPD1     C 2851   3.370   2.805  10.187  0.3206  0.0341  0.3113
  184MPD1    C1 2852   3.502   2.774  10.163 -0.2043 -0.5144 -0.5611
  184MPD1    C2 2853   3.592   2.873  10.135  0.7063 -0.2374  0.1226
  184MPD1    C3 2854   3.544   2.999  10.110  0.6196  0.7005 -0.4503
  184MPD1    C4 2855   3.408   3.025  10.103 -0.5242 -0.2712  0.6264
  184MPD1    C5 2856   3.323   2.928  10.148 -0.1939 -0.4887 -0.0969
  184MPD1     H 2857   3.696   2.846  10.141  1.1067  2.1827  4.0626
  184MPD1    H1 2858   3.362   3.119  10.076  0.7327 -0.0434 -0.7239
  184MPD1    H2 2859   3.293   2.732  10.207 -0.0443  0.1966 -0.4915
  184MPD1    H3 2860   3.218   2.952  10.145 -0.2485 -0.7458 -0.3046
  184MPD1     N 2861   3.625   3.106  10.072  0.0792  0.0717 -0.2097
  184MPD1    H5 2862   3.567   3.188  10.053 -0.4999 -0.7175 -1.7921
  184MPD1    N1 2863   3.548   2.652  10.205 -0.9217 -0.1339 -0.4666
  184MPD1    H6 2864   3.480   2.577  10.194 -2.5606  1.2559  0.2342
  184MPD1    H7 2865   3.638   2.626  10.165  0.1315  3.4460 -0.4311
  185MPD1     C 2866   3.604   3.716   9.295 -0.5091  0.5628  0.2784
  185MPD1    C1 2867   3.527   3.616   9.349 -0.2971 -0.0265  0.3451
  185MPD1    C2 2868   3.576   3.545   9.457  0.5836 -0.3651  0.4471
  185MPD1    C3 2869   3.696   3.584   9.517 -0.5892 -0.1299 -0.0079
  185MPD1    C4 2870   3.771   3.682   9.455  0.7864 -0.0119 -0.2463
  185MPD1    C5 2871   3.724   3.749   9.347 -0.3269  0.7097 -0.1591
  185MPD1     H 2872   3.516   3.465   9.501  0.0732 -0.6206 -0.7145
  185MPD1    H1 2873   3.868   3.719   9.487 -0.6712  1.5398  2.3411
  185MPD1    H2 2874   3.585   3.772   9.204  0.7861  0.4807 -0.0339
  185MPD1    H3 2875   3.780   3.829   9.300  5.0814 -2.0664  1.5581
  185MPD1     N 2876   3.745   3.530   9.637 -0.2456  0.0507  0.1203
  185MPD1    H5 2877   3.831   3.577   9.664  0.1045 -0.3016 -0.3930
  185MPD1    N1 2878   3.416   3.559   9.275  0.3664  0.9773 -0.0705
  185MPD1    H6 2879   3.351   3.621   9.228 -1.2178 -0.8185 -0.2179
  185MPD1    H7 2880   3.357   3.502   9.334  1.9372 -1.3251 -0.7284
  186MPD1     C 2881   2.944   1.728  15.787  0.4770  0.5705 -0.5964
  186MPD1    C1 2882   2.977   1.839  15.716 -0.1785  1.3985 -0.4916
  186MPD1    C2 2883   2.968   1.963  15.783 -0.1374  0.7247  0.3339
  186MPD1    C3 2884   2.935   1.965  15.919  0.0467 -0.2293 -0.6915
  186MPD1    C4 2885   2.909   1.855  15.992 -0.0359 -1.0882  0.2051
  186MPD1    C5 2886   2.913   1.736  15.920 -0.2037  0.7109 -0.0681
  186MPD1     H 2887   2.980   2.057  15.730 -1.1805  0.2165 -0.8158
  186MPD1    H1 2888   2.892   1.858  16.099  0.6473  3.3433  0.1627
  186MPD1    H2 2889   2.928   1.632  15.741  0.9878 -0.2659  0.9480
  186MPD1    H3 2890   2.902   1.640  15.969  1.6242 -0.6100 -2.2874
  186MPD1     N 2891   2.920   2.082  15.997 -0.5736  0.1967 -0.1891
  186MPD1    H5 2892   2.870   2.066  16.084 -1.1762  0.3966 -0.4985
  186MPD1    N1 2893   2.974   1.841  15.575  0.0512  0.0971 -0.2057
  186MPD1    H6 2894   3.018   1.761  15.530 -2.4210  0.2913 -2.9199
  186MPD1    H7 2895   3.012   1.927  15.537  1.6111  0.4728  2.2097
  187MPD1     C 2896   2.086   3.311  17.555  0.2167 -0.5789  0.2873
  187MPD1    C1 2897   1.982   3.327  17.465  0.3979 -0.2227 -0.0545
  187MPD1    C2 2898   1.960   3.442  17.401  0.5973  0.2950 -0.3018
  187MPD1    C3 2899   2.064   3.538  17.394  0.5872 -0.3672  0.0415
  187MPD1    C4 2900   2.174   3.523  17.476  0.8248 -0.0005 -1.0938
  187MPD1    C5 2901   2.182   3.413  17.561  0.5603  0.3489 -0.0191
  187MPD1     H 2902   1.865   3.464  17.354  0.6193  1.6433  0.2878
  187MPD1    H1 2903   2.245   3.604  17.479  2.0954 -1.2170  2.2041
  187MPD1    H2 2904   2.102   3.235  17.629  1.9253 -1.4419 -0.9726
  187MPD1    H3 2905   2.258   3.413  17.637  0.6556  0.7756 -0.1124
  187MPD1     N 2906   2.050   3.649  17.312 -0.2267  0.4832  0.1543
  187MPD1    H5 2907   2.115   3.727  17.318 -2.1188  2.3067 -3.2557
  187MPD1    N1 2908   1.883   3.227  17.471  0.5032  0.0298  0.1596
  187MPD1    H6 2909   1.811   3.231  17.399  0.4977  2.1026  0.2833
  187MPD1    H7 2910   1.917   3.131  17.478  1.5856  0.3319 -0.9746
  188MPD1     C 2911   1.794   4.351  10.227 -0.3911 -0.5062  0.1632
  188MPD1    C1 2912   1.704   4.367  10.128 -0.2464  0.3565  0.5006
  188MPD1    C2 2913   1.659   4.250  10.067 -0.4285  0.0976 -0.4088
  188MPD1    C3 2914   1.680   4.124  10.117 -0.7997  0.1640 -0.0679
  188MPD1    C4 2915   1.772   4.118  10.222 -0.0701 -0.0992  0.8472
  188MPD1    C5 2916   1.823   4.231  10.279 -0.0710 -0.2866  0.3565
  188MPD1     H 2917   1.592   4.251   9.982  2.4138 -1.8184 -2.6613
  188MPD1    H1 2918   1.793   4.023  10.270  3.1961 -0.4199 -1.2243
  188MPD1    H2 2919   1.838   4.433  10.283 -0.5633  0.9793 -1.8544
  188MPD1    H3 2920   1.869   4.225  10.377  0.6630 -1.3738 -0.0602
  188MPD1     N 2921   1.631   4.000  10.070 -0.1572  0.1102 -0.5357
  188MPD1    H5 2922   1.649   3.913  10.119 -0.9974  0.3609  0.2139
  188MPD1    N1 2923   1.667   4.495  10.080  0.0985  0.2057 -0.2539
  188MPD1    H6 2924   1.580   4.501  10.029 -0.3388  3.6928  0.9224
  188MPD1    H7 2925   1.681   4.562  10.155 -0.6714 -2.1822  2.0270
  189MPD1     C 2926   3.663   0.020   0.299  0.0022 -0.5302  0.2279
  189MPD1    C1 2927   3.529   0.038   0.310  0.2256 -0.3114 -0.6079
  189MPD1    C2 2928   3.473   0.161   0.293 -0.4998  0.1970  0.6006
  189MPD1    C3 2929   3.552   0.269   0.238  0.3076 -0.4603  0.5457
  189MPD1    C4 2930   3.688   0.252   0.226  0.4896 -0.5291 -0.4082
  189MPD1    C5 2931   3.739   0.125   0.260  0.1495 -0.0594 -0.3000
  189MPD1     H 2932   3.368   0.178   0.309 -0.9982 -0.2007 -2.1800
  189MPD1    H1 2933   3.750   0.332   0.188 -0.5031  1.4995  2.2375
  189MPD1    H2 2934   3.712   4.663   0.313  1.3043 -0.1890 -1.9443
  189MPD1    H3 2935   3.843   0.095   0.249 -1.0035 -4.7337  1.2051
  189MPD1     N 2936   3.484   0.389   0.208  0.0167 -0.2573 -0.2832
  189MPD1    H5 2937   3.385   0.383   0.228 -0.4138  0.4497 -2.2544
  189MPD1    N1 2938   3.446   4.681   0.368  0.1434  0.0490 -0.4253
  189MPD1    H6 2939   3.349   4.701   0.342 -0.3936 -1.4239  0.3932
  189MPD1    H7 2940   3.470   4.584   0.348  0.4886  0.2275 -0.8737
  190MPD1     C 2941   2.293   3.081  14.912 -0.7721 -0.0109  0.5395
  190MPD1    C1 2942   2.421   3.044  14.915  0.4338  0.2610  0.7377
  190MPD1    C2 2943   2.494   3.080  15.029 -0.1166  0.6809 -0.0842
  190MPD1    C3 2944   2.454   3.167  15.127 -0.0123 -0.0592 -1.3525
  190MPD1    C4 2945   2.322   3.214  15.116  0.3011 -0.8726  0.0249
  190MPD1    C5 2946   2.246   3.166  15.009  0.0020 -0.0620  0.1217
  190MPD1     H 2947   2.590   3.031  15.042 -0.7238 -0.2066  1.0412
  190MPD1    H1 2948   2.282   3.288  15.184 -0.6889 -1.8690  0.5222
  190MPD1    H2 2949   2.219   3.050  14.839  0.3938 -1.3603 -0.0669
  190MPD1    H3 2950   2.142   3.196  15.014 -0.3378 -1.0515 -1.0114
  190MPD1     N 2951   2.550   3.210  15.220 -0.1543 -0.9113  0.2826
  190MPD1    H5 2952   2.644   3.171  15.215 -0.6327 -1.6676 -2.7664
  190MPD1    N1 2953   2.462   2.937  14.832 -0.8350  0.3049  0.6736
  190MPD1    H6 2954   2.564   2.928  14.829 -0.7758  1.1070  0.3869
  190MPD1    H7 2955   2.425   2.932  14.737  0.4698 -0.9413  0.2246
  191MPD1     C 2956   1.145   0.160  13.573 -0.7666 -0.1797  0.1681
  191MPD1    C1 2957   1.053   0.256  13.600 -0.0572  0.0384 -0.4446
  191MPD1    C2 2958   1.039   0.357  13.504  0.0496 -0.1227  0.2432
  191MPD1    C3 2959   1.102   0.347  13.382  0.1428  0.0454 -0.3481
  191MPD1    C4 2960   1.191   0.244  13.360  1.1259  0.2436  0.5624
  191MPD1    C5 2961   1.210   0.152  13.452 -0.3467  0.1948  0.7012
  191MPD1     H 2962   0.978   0.444  13.522  1.2887  0.6801  0.5202
  191MPD1    H1 2963   1.245   0.227  13.268 -0.7618 -0.9565 -0.3251
  191MPD1    H2 2964   1.158   0.083  13.649 -0.3062  0.5850  0.8658
  191MPD1    H3 2965   1.277   0.071  13.426 -0.3171  0.6122 -0.5109
  191MPD1     N 2966   1.073   0.454  13.289 -0.0229 -0.5483  0.0989
  191MPD1    H5 2967   1.009   0.527  13.318 -0.3642 -1.0719  0.6737
  191MPD1    N1 2968   0.993   0.269  13.728  0.6961 -0.1477  0.4328
  191MPD1    H6 2969   0.953   0.180  13.759 -0.7084  0.2180 -0.3054
  191MPD1    H7 2970   0.910   0.327  13.717 -0.5469 -2.1408 -0.8039
  192MPD1     C 2971   0.397   1.092  12.972 -0.0117 -0.2696  0.0403
  192MPD1    C1 2972   0.407   0.982  13.051  0.9483  0.6825 -0.2668
  192MPD1    C2 2973   0.515   0.902  13.038  0.5877 -0.4229 -0.1114
  192MPD1    C3 2974   0.618   0.938  12.953 -0.1253 -0.0549  0.1547
  192MPD1    C4 2975   0.615   1.060  12.885 -0.2747  0.2905  0.2879
  192MPD1    C5 2976   0.503   1.137  12.898  0.0558  0.6586  0.6478
  192MPD1     H 2977   0.519   0.811  13.096  1.8438 -0.0880  0.3272
  192MPD1    H1 2978   0.696   1.097  12.824 -1.1927 -1.4914 -2.0169
  192MPD1    H2 2979   0.310   1.156  12.979 -0.5238 -0.7992 -1.5860
  192MPD1    H3 2980   0.495   1.228  12.839 -0.3049 -0.4793 -1.0551
  192MPD1     N 2981   0.744   0.863  12.946 -0.2701  0.4019  0.0122
  192MPD1    H5 2982   0.814   0.918  12.898  0.7526 -1.4685 -0.6403
  192MPD1    N1 2983   0.297   0.935  13.125  0.4623 -0.1351  0.3767
  192MPD1    H6 2984   0.336   0.876  13.198  2.6394 -1.4617 -1.8451
  192MPD1    H7 2985   0.259   1.015  13.176 -1.3464  0.1171 -1.3549
  193MPD1     C 2986   1.556   0.009  16.352  0.0565 -0.2205 -0.1398
  193MPD1    C1 2987   1.549   0.117  16.257 -0.0741 -0.3947 -0.0421
  193MPD1    C2 2988   1.643   0.219  16.270 -0.5601 -0.0085 -0.2412
  193MPD1    C3 2989   1.723   0.227  16.382 -0.6134  0.5398 -0.4728
  193MPD1    C4 2990   1.718   0.130  16.480  0.6412  0.0681  0.1187
  193MPD1    C5 2991   1.641   0.020  16.458 -0.0609  0.0201  0.0124
  193MPD1     H 2992   1.647   0.296  16.193  2.9736  0.8767  0.8582
  193MPD1    H1 2993   1.795   0.131  16.557 -0.8092  0.9736  1.5740
  193MPD1    H2 2994   1.504   4.653  16.351 -0.5065  0.1138 -1.5268
  193MPD1    H3 2995   1.659   4.672  16.522  0.4091  0.9129  1.0899
  193MPD1     N 2996   1.806   0.336  16.413 -0.4721 -0.4106 -0.0490
  193MPD1    H5 2997   1.864   0.331  16.496 -0.4419  1.3231  0.0472
  193MPD1    N1 2998   1.473   0.100  16.144 -0.0422  0.7789  0.2787
  193MPD1    H6 2999   1.384   0.059  16.172 -0.0431  0.1222 -0.6812
  193MPD1    H7 3000   1.448   0.186  16.095  2.9071  0.0590 -2.4968
  194MPD1     C 3001   3.465   2.711  17.478  0.0280  0.0590  1.1264
  194MPD1    C1 3002   3.487   2.586  17.434 -0.1182  0.0442 -1.1418
  194MPD1    C2 3003   3.576   2.567  17.332  0.2729  0.5510 -0.3126
  194MPD1    C3 3004   3.652   2.677  17.285 -0.2638 -0.4645 -0.1545
  194MPD1    C4 3005   3.634   2.797  17.340 -0.1611 -0.3850  0.4060
  194MPD1    C5 3006   3.542   2.819  17.433  0.0959  0.0684  0.4351
  194MPD1     H 3007   3.583   2.466  17.292 -2.5711  0.0210  0.4957
  194MPD1    H1 3008   3.694   2.879  17.300 -1.3058  0.5438  0.5937
  194MPD1    H2 3009   3.412   2.719  17.572  3.9160  0.3239  3.2825
  194MPD1    H3 3010   3.529   2.910  17.490 -0.6723 -0.4768  1.1461
  194MPD1     N 3011   3.738   2.671  17.175 -0.1733  0.4335 -0.2415
  194MPD1    H5 3012   3.783   2.759  17.149  3.1404 -1.6474 -1.5849
  194MPD1    N1 3013   3.436   2.474  17.503 -0.5308  0.7130 -0.4665
  194MPD1    H6 3014   3.416   2.397  17.440  3.4122  0.1225 -1.0032
  194MPD1    H7 3015   3.346   2.501  17.542 -0.5771  0.5560 -0.4636
  195MPD1     C 3016   2.164   4.258   0.073  0.7584 -0.1344 -0.4747
  195MPD1    C1 3017   2.058   4.221   0.156 -0.3324  0.3777 -0.2150
  195MPD1    C2 3018   1.944   4.154   0.103  0.4988 -0.2232 -0.4220
  195MPD1    C3 3019   1.928   4.148  17.715 -0.3374 -0.9790  0.1266
  195MPD1    C4 3020   2.021   4.218  17.644 -0.0866 -0.1928 -0.1136
  195MPD1    C5 3021   2.142   4.263  17.694 -0.1503  0.4359  0.1244
  195MPD1     H 3022   1.865   4.111   0.163 -0.6382  0.5525 -1.3754
  195MPD1    H1 3023   2.010   4.236  17.538  1.0205 -1.4392 -0.4311
  195MPD1    H2 3024   2.262   4.292   0.106  0.1849 -0.2719  1.3579
  195MPD1    H3 3025   2.216   4.309  17.631 -1.8364 -1.5921 -3.3740
  195MPD1     N 3026   1.810   4.092  17.660  0.4138  0.5679  0.3726
  195MPD1    H5 3027   1.733   4.072  17.723 -0.0545  1.2521  0.0162
  195MPD1    N1 3028   2.060   4.219   0.297 -0.0121  0.2587  0.8098
  195MPD1    H6 3029   1.965   4.223   0.333 -0.7437 -2.9214 -0.7442
  195MPD1    H7 3030   2.114   4.294   0.339  1.2377  0.8011 -1.7424
  196MPD1     C 3031   0.602   4.095  17.541 -1.0237  0.2766 -0.2263
  196MPD1    C1 3032   0.556   4.227  17.559  0.2581  0.8351 -0.5045
  196MPD1    C2 3033   0.599   4.291  17.677 -0.9599  0.1226  0.0471
  196MPD1    C3 3034   0.689   4.238   0.016  0.2076  0.2309  0.2884
  196MPD1    C4 3035   0.729   4.105  17.749 -0.5058  0.4630  0.1129
  196MPD1    C5 3036   0.682   4.034  17.637  0.1958 -0.1114  0.1832
  196MPD1     H 3037   0.559   4.391  17.692  3.1458  1.7133  0.7043
  196MPD1    H1 3038   0.785   4.042   0.065  2.4403  0.5725 -2.1360
  196MPD1    H2 3039   0.570   4.027  17.463 -0.8231 -1.0764  0.8639
  196MPD1    H3 3040   0.713   3.931  17.621  3.4151  0.5209  2.3900
  196MPD1     N 3041   0.724   4.297   0.136 -0.0816  0.8623  0.7854
  196MPD1    H5 3042   0.774   4.232   0.196  0.6825  0.9103  0.1837
  196MPD1    N1 3043   0.451   4.272  17.473 -0.5291  0.1182  0.1496
  196MPD1    H6 3044   0.459   4.231  17.380 -0.4807  0.3688  0.0416
  196MPD1    H7 3045   0.451   4.373  17.461  1.5310  0.2550  1.1637
  197MPD1     C 3046   0.726   1.022  17.426 -0.0893  0.2298 -0.2104
  197MPD1    C1 3047   0.680   0.968  17.309  0.2189 -0.1031 -0.3796
  197MPD1    C2 3048   0.630   1.046  17.210  0.1855 -0.6461  0.4581
  197MPD1    C3 3049   0.633   1.184  17.229 -0.4168 -0.2992  0.3596
  197MPD1    C4 3050   0.679   1.239  17.346  0.3741 -0.3365 -0.7907
  197MPD1    C5 3051   0.722   1.153  17.450  0.1118 -0.1342 -0.1429
  197MPD1     H 3052   0.602   0.992  17.120  0.9233  0.7427 -0.6031
  197MPD1    H1 3053   0.667   1.346  17.354  1.2007 -0.3456  0.7196
  197MPD1    H2 3054   0.754   0.957  17.509 -1.2001  0.6332  0.4810
  197MPD1    H3 3055   0.746   1.193  17.548 -1.6527  1.5290 -0.3850
  197MPD1     N 3056   0.557   1.280  17.153  0.0444 -0.3207 -0.2193
  197MPD1    H5 3057   0.574   1.379  17.172 -2.1676  0.2527 -1.1647
  197MPD1    N1 3058   0.709   0.827  17.292 -0.0284 -0.4719 -0.2454
  197MPD1    H6 3059   0.711   0.779  17.382  3.8357  1.3651  0.6775
  197MPD1    H7 3060   0.657   0.768  17.228 -2.2774  0.1535  1.0061
  198MPD1     C 3061   1.980   3.883  15.056  0.1570  0.4231  0.0885
  198MPD1    C1 3062   1.955   3.854  15.186 -0.4040 -0.2997  0.7430
  198MPD1    C2 3063   2.028   3.932  15.282 -0.1065 -0.3745  1.0353
  198MPD1    C3 3064   2.102   4.047  15.249  0.0777 -0.3911 -0.0875
  198MPD1    C4 3065   2.119   4.077  15.116  0.0098  0.3538  0.1626
  198MPD1    C5 3066   2.066   3.989  15.023  0.0605  0.2593  0.0065
  198MPD1     H 3067   2.015   3.919  15.389  0.0169  0.2499  1.1304
  198MPD1    H1 3068   2.164   4.169  15.083 -1.2390  1.4530  1.5385
  198MPD1    H2 3069   1.932   3.839  14.968 -1.1270  2.6166 -0.3079
  198MPD1    H3 3070   2.082   4.017  14.919  0.0775 -1.4409 -0.4581
  198MPD1     N 3071   2.142   4.129  15.361  0.0458 -0.0774 -0.5156
  198MPD1    H5 3072   2.116   4.102  15.455 -1.1132  0.9203 -0.5635
  198MPD1    N1 3073   1.856   3.757  15.217 -0.3984  0.1954 -0.3923
  198MPD1    H6 3074   1.852   3.685  15.144  0.7771 -1.0245  0.7376
  198MPD1    H7 3075   1.871   3.705  15.303  0.1208 -0.6432 -0.9777
  199MPD1     C 3076   4.538   0.775   9.512 -0.0895  0.3709 -0.1134
  199MPD1    C1 3077   4.533   0.911   9.494 -0.6553  0.3168 -0.3444
  199MPD1    C2 3078   4.412   0.972   9.483  0.9300  0.3089  0.6931
  199MPD1    C3 3079   4.298   0.906   9.506 -0.5984  0.3457 -0.3656
  199MPD1    C4 3080   4.307   0.771   9.537 -0.3986 -0.2954 -0.3016
  199MPD1    C5 3081   4.419   0.701   9.531 -0.3718  0.1903  0.6477
  199MPD1     H 3082   4.407   1.075   9.450 -0.7453  0.0199  0.0192
  199MPD1    H1 3083   4.214   0.717   9.552  0.4190 -2.2547 -2.2816
  199MPD1    H2 3084   4.628   0.717   9.523  0.0390  0.2338 -1.7929
  199MPD1    H3 3085   4.418   0.596   9.559 -0.7544  0.3213  1.1295
  199MPD1     N 3086   4.169   0.960   9.514  0.1068  0.5533 -0.1079
  199MPD1    H5 3087   4.094   0.892   9.526  1.5156 -0.8583  0.6978
  199MPD1    N1 3088   4.648   0.990   9.460  0.2082 -0.2482 -0.4222
  199MPD1    H6 3089   4.647   1.090   9.479 -0.3580 -0.5400  1.1009
  199MPD1    H7 3090   4.735   0.948   9.492  0.2845  1.0991  1.1237
  200MPD1     C 3091   3.819   0.696  15.479 -0.1966  0.3358  0.3899
  200MPD1    C1 3092   3.706   0.637  15.424  0.5991 -0.0980 -0.9477
  200MPD1    C2 3093   3.631   0.711  15.331  0.1374 -0.2524 -0.4689
  200MPD1    C3 3094   3.692   0.821  15.267  0.4429  0.0949  0.8918
  200MPD1    C4 3095   3.810   0.872  15.318  0.1321  0.0810 -0.4040
  200MPD1    C5 3096   3.868   0.818  15.422  0.4148 -0.2386  0.2556
  200MPD1     H 3097   3.535   0.679  15.292  1.2993 -2.5093 -1.4509
  200MPD1    H1 3098   3.855   0.962  15.278  0.1276  0.3161  0.1299
  200MPD1    H2 3099   3.860   0.663  15.574 -0.9713 -0.6638  0.3720
  200MPD1    H3 3100   3.960   0.860  15.460 -0.5303  2.4417 -0.4082
  200MPD1     N 3101   3.614   0.889  15.174 -1.1026 -0.2354 -0.2355
  200MPD1    H5 3102   3.520   0.861  15.147 -0.4606 -1.4217 -1.2701
  200MPD1    N1 3103   3.657   0.521  15.483 -0.0158 -0.1957  0.0746
  200MPD1    H6 3104   3.606   0.468  15.413 -2.8645  0.2278  1.8145
  200MPD1    H7 3105   3.733   0.465  15.521 -0.5572 -0.4759  0.7449
  201MPD1     C 3106   0.677   4.432  13.001  0.4359  0.9569  0.3067
  201MPD1    C1 3107   0.735   4.326  12.933  0.2194  0.1487  0.5460
  201MPD1    C2 3108   0.864   4.293  12.961  0.5185 -0.1588  0.2903
  201MPD1    C3 3109   0.943   4.364  13.049  0.4589  0.1482  0.5195
  201MPD1    C4 3110   0.883   4.468  13.121  0.0896  0.2392  0.6257
  201MPD1    C5 3111   0.755   4.506  13.085  0.0202 -0.4842  0.1056
  201MPD1     H 3112   0.911   4.214  12.903  0.5791 -0.0819  0.2351
  201MPD1    H1 3113   0.933   4.520  13.202  1.4320 -3.0804  1.9549
  201MPD1    H2 3114   0.578   4.474  12.985  1.4214  2.9021 -0.7531
  201MPD1    H3 3115   0.711   4.592  13.135  1.8937  1.5209 -1.6818
  201MPD1     N 3116   1.071   4.321  13.070 -0.2933 -0.0902 -1.1273
  201MPD1    H5 3117   1.093   4.230  13.030 -0.5484  0.0021 -1.4759
  201MPD1    N1 3118   0.665   4.273  12.822 -0.1160  0.1417  0.0173
  201MPD1    H6 3119   0.685   4.173  12.822  1.4439  0.4726 -2.2473
  201MPD1    H7 3120   0.565   4.289  12.833 -0.1080 -1.9607  3.1338
  202MPD1     C 3121   1.728   4.400   9.549  0.6102 -0.4311  0.1346
  202MPD1    C1 3122   1.636   4.449   9.456  0.1868  0.3632  0.5107
  202MPD1    C2 3123   1.505   4.455   9.501  0.7792 -0.0335  0.3862
  202MPD1    C3 3124   1.460   4.375   9.605  0.6336 -0.3379  0.4254
  202MPD1    C4 3125   1.551   4.320   9.687 -0.4520  0.1635 -1.0877
  202MPD1    C5 3126   1.684   4.334   9.665  0.0241  0.0138 -0.7798
  202MPD1     H 3127   1.435   4.503   9.433 -0.3886 -0.4486  1.3053
  202MPD1    H1 3128   1.522   4.257   9.771 -1.0186  1.1231 -0.5633
  202MPD1    H2 3129   1.835   4.408   9.533  0.4220 -1.0204 -1.4720
  202MPD1    H3 3130   1.765   4.293   9.724 -0.0335  1.1631  0.1046
  202MPD1     N 3131   1.324   4.350   9.632 -0.2459 -0.3694 -0.3639
  202MPD1    H5 3132   1.299   4.299   9.716 -2.9529 -0.5659 -1.2968
  202MPD1    N1 3133   1.672   4.540   9.364 -0.0549  0.2048  0.0665
  202MPD1    H6 3134   1.761   4.524   9.319 -0.3767 -0.6192 -0.2638
  202MPD1    H7 3135   1.603   4.552   9.291 -2.1094 -1.5552  1.7288
  203MPD1     C 3136   4.293   0.949  12.285  0.6384  0.9091  0.2811
  203MPD1    C1 3137   4.257   0.876  12.177 -0.4257  0.2781 -1.1531
  203MPD1    C2 3138   4.243   0.739  12.193 -0.8680  0.0680  0.3955
  203MPD1    C3 3139   4.260   0.677  12.319  0.2511  0.4497 -0.1312
  203MPD1    C4 3140   4.289   0.760  12.428 -0.2441 -0.6254  0.2043
  203MPD1    C5 3141   4.315   0.892  12.412  0.8472  0.3367 -0.5836
  203MPD1     H 3142   4.232   0.675  12.106  2.6288 -0.2295  0.1951
  203MPD1    H1 3143   4.311   0.718  12.525 -0.9273 -2.0443 -0.2550
  203MPD1    H2 3144   4.298   1.057  12.276  0.0975  0.7142 -2.5386
  203MPD1    H3 3145   4.336   0.961  12.492  0.4623 -0.2449  0.0221
  203MPD1     N 3146   4.242   0.541  12.329  0.5337 -0.1168  0.0531
  203MPD1    H5 3147   4.213   0.494  12.243  0.1148 -1.8212  1.1281
  203MPD1    N1 3148   4.262   0.931  12.046 -0.4933  0.0535 -0.5791
  203MPD1    H6 3149   4.192   0.891  11.983 -1.4266  2.2061 -0.9096
  203MPD1    H7 3150   4.256   1.033  12.052  0.8715  0.1424 -0.6251
  204MPD1     C 3151   3.688   1.376  17.100  0.9774 -0.0538 -0.3891
  204MPD1    C1 3152   3.719   1.366  16.971 -1.1078  0.2343 -0.7614
  204MPD1    C2 3153   3.790   1.259  16.927 -0.1078  0.0079 -0.1681
  204MPD1    C3 3154   3.824   1.156  17.016 -0.0572 -0.4802  0.7016
  204MPD1    C4 3155   3.775   1.161  17.146  0.1923  0.0133  0.4609
  204MPD1    C5 3156   3.714   1.276  17.185 -0.4896  0.3686 -0.3520
  204MPD1     H 3157   3.827   1.262  16.825  0.0782  2.6372 -0.0466
  204MPD1    H1 3158   3.797   1.083  17.218  0.9618 -1.9319 -1.8984
  204MPD1    H2 3159   3.635   1.466  17.130  3.0334  0.5919  1.3105
  204MPD1    H3 3160   3.675   1.277  17.287  2.1345 -0.7182  0.6707
  204MPD1     N 3161   3.899   1.044  16.981 -0.4789 -0.4141  0.0862
  204MPD1    H5 3162   3.929   1.056  16.884 -1.1212 -1.7384 -0.2709
  204MPD1    N1 3163   3.717   1.482  16.888  0.6612  0.3509 -0.3313
  204MPD1    H6 3164   3.733   1.475  16.788  0.7488 -1.9117 -0.1631
  204MPD1    H7 3165   3.646   1.549  16.916 -0.5419 -0.6462 -0.9752
  205MPD1     C 3166   3.867   4.452  15.880 -0.4035 -0.8974 -0.2472
  205MPD1    C1 3167   3.814   4.558  15.944  0.6023  0.7680 -0.2431
  205MPD1    C2 3168   3.800   4.554  16.084 -0.4286 -0.1964  0.0241
  205MPD1    C3 3169   3.836   4.435  16.154 -0.8252  0.0264 -0.0089
  205MPD1    C4 3170   3.890   4.327  16.082 -0.2870 -0.1951 -0.3603
  205MPD1    C5 3171   3.906   4.338  15.947 -0.2954  0.0409  0.2452
  205MPD1     H 3172   3.765   4.645  16.130 -0.3690  0.7564 -1.8213
  205MPD1    H1 3173   3.915   4.234  16.132  1.1376  0.2300 -0.2892
  205MPD1    H2 3174   3.895   4.457  15.776 -0.7445  0.7796 -0.2557
  205MPD1    H3 3175   3.955   4.256  15.897  0.3647  0.3162  0.4426
  205MPD1     N 3176   3.838   4.428  16.296  0.3813 -0.0929  0.1087
  205MPD1    H5 3177   3.877   4.348  16.345  1.0124  0.0908 -0.0998
  205MPD1    N1 3178   3.805   4.681  15.878 -0.1398  0.2995 -0.4029
  205MPD1    H6 3179   3.802   4.677  15.777 -0.2036  1.4220 -0.4412
  205MPD1    H7 3180   3.736   0.009  15.911 -1.4251 -0.5004 -1.4551
  206MPD1     C 3181   4.327   3.114  17.031 -0.3898  0.0171 -0.2583
  206MPD1    C1 3182   4.266   2.994  17.040  0.1811  0.4572 -0.2795
  206MPD1    C2 3183   4.196   2.965  16.919  0.1942  0.7449  0.3114
  206MPD1    C3 3184   4.192   3.040  16.804 -0.2681  0.1732  0.0648
  206MPD1    C4 3185   4.268   3.155  16.801  0.5185  0.9399  0.0878
  206MPD1    C5 3186   4.321   3.194  16.918 -0.4609  0.2525  0.8584
  206MPD1     H 3187   4.140   2.872  16.922 -1.5018  1.7839  1.3603
  206MPD1    H1 3188   4.265   3.222  16.716 -0.3992 -1.2581 -1.6176
  206MPD1    H2 3189   4.365   3.159  17.123 -2.0091  0.2045  0.3266
  206MPD1    H3 3190   4.367   3.292  16.915  2.2272 -1.0171  1.1578
  206MPD1     N 3191   4.119   3.009  16.689 -1.0048 -0.1349 -0.1658
  206MPD1    H5 3192   4.128   3.071  16.609 -0.8766 -0.1302 -0.1478
  206MPD1    N1 3193   4.264   2.918  17.153 -0.3377 -0.4015 -0.2538
  206MPD1    H6 3194   4.248   2.819  17.136 -0.5885 -0.2636 -0.8280
  206MPD1    H7 3195   4.356   2.922  17.198  0.2982 -1.0218 -1.5110
  207MPD1     C 3196   2.321   0.578   9.680 -0.1031 -0.1000  0.1654
  207MPD1    C1 3197   2.204   0.522   9.712 -0.4155 -0.8902  0.5078
  207MPD1    C2 3198   2.137   0.559   9.826  0.1323 -0.2772 -0.3078
  207MPD1    C3 3199   2.192   0.659   9.911 -0.3757  0.0561  0.6275
  207MPD1    C4 3200   2.309   0.718   9.876  0.4066  0.3052  0.0789
  207MPD1    C5 3201   2.374   0.678   9.762 -0.4473  0.0804 -0.3450
  207MPD1     H 3202   2.055   0.497   9.858 -0.3340 -0.2069 -1.3829
  207MPD1    H1 3203   2.365   0.794   9.929 -1.8109  0.5020  2.1489
  207MPD1    H2 3204   2.378   0.540   9.596  1.1679  2.9505 -0.3541
  207MPD1    H3 3205   2.463   0.732   9.733  1.3150 -1.2927  2.5276
  207MPD1     N 3206   2.140   0.696  10.034  0.1561  0.3969 -0.1411
  207MPD1    H5 3207   2.185   0.771  10.085 -1.9137 -0.3968  2.8580
  207MPD1    N1 3208   2.156   0.422   9.630  0.4445 -0.6207  0.1094
  207MPD1    H6 3209   2.055   0.411   9.644  0.8075  1.9719  4.5216
  207MPD1    H7 3210   2.180   0.426   9.531  0.3720  3.6851  0.2921
  208MPD1     C 3211   0.474   4.669  17.615 -0.3144 -0.5024 -0.9891
  208MPD1    C1 3212   0.407   4.671  17.735 -0.0978  0.5689  0.5227
  208MPD1    C2 3213   0.272   4.650  17.735 -0.0443 -0.5397 -0.8557
  208MPD1    C3 3214   0.207   4.594  17.618 -0.0957 -0.4162 -0.2123
  208MPD1    C4 3215   0.285   4.566  17.509 -0.4812  0.1145  0.0292
  208MPD1    C5 3216   0.413   4.607  17.508 -0.3639 -0.1860 -0.4129
  208MPD1     H 3217   0.215   4.670   0.072  0.5918 -1.2108 -0.3086
  208MPD1    H1 3218   0.238   4.538  17.415 -0.3739 -1.9119  0.5885
  208MPD1    H2 3219   0.580   4.692  17.611 -0.2920 -0.4801 -0.3820
  208MPD1    H3 3220   0.474   4.588  17.421 -0.1252  1.9540 -0.7120
  208MPD1     N 3221   0.067   4.568  17.629  0.0246  0.2486  0.1882
  208MPD1    H5 3222   0.026   4.592  17.719  1.7307  1.7835  0.5541
  208MPD1    N1 3223   0.471   4.720   0.099  0.0663  0.5059  0.4167
  208MPD1    H6 3224   0.426   4.691   0.185 -1.4189 -2.2607 -1.2961
  208MPD1    H7 3225   0.565   4.680   0.093 -0.1932  0.1498 -1.4139
  209MPD1     C 3226   1.681   4.356  11.555  0.2191 -0.2233 -0.2863
  209MPD1    C1 3227   1.735   4.457  11.622  0.0878  0.1276 -0.5294
  209MPD1    C2 3228   1.737   4.579  11.559  0.6529 -0.1339  0.0040
  209MPD1    C3 3229   1.691   4.596  11.433  0.0081 -0.6819  0.3739
  209MPD1    C4 3230   1.648   4.487  11.358  0.4967  0.6674 -0.2249
  209MPD1    C5 3231   1.639   4.369  11.428  0.6075 -0.0032  0.4445
  209MPD1     H 3232   1.770   4.671  11.608  0.3517  1.1266 -2.1745
  209MPD1    H1 3233   1.608   4.495  11.258  1.1419  0.4451 -0.4966
  209MPD1    H2 3234   1.664   4.263  11.609 -2.1615  1.8977  2.6382
  209MPD1    H3 3235   1.597   4.281  11.379  1.4919  1.5247 -3.0462
  209MPD1     N 3236   1.699   4.723  11.377 -0.4193 -0.6305  0.1014
  209MPD1    H5 3237   1.757   0.048  11.431 -0.4991 -0.9327  0.5449
  209MPD1    N1 3238   1.754   4.438  11.764 -0.7764 -0.0198  0.4148
  209MPD1    H6 3239   1.833   4.494  11.795 -0.4311 -0.2095 -0.1253
  209MPD1    H7 3240   1.774   4.340  11.778  0.0690 -0.0784 -1.1871
  210MPD1     C 3241   1.433   0.920  11.609  0.1226  0.6042  0.6788
  210MPD1    C1 3242   1.415   0.790  11.656 -0.0543 -0.2394  0.4464
  210MPD1    C2 3243   1.474   0.681  11.589  0.3344 -0.2741 -0.0250
  210MPD1    C3 3244   1.563   0.702  11.484  0.7231  0.2815 -0.1182
  210MPD1    C4 3245   1.599   0.837  11.464 -0.2131  0.2179 -0.5555
  210MPD1    C5 3246   1.529   0.939  11.511  0.6262  0.1533 -0.3871
  210MPD1     H 3247   1.447   0.585  11.629  2.0728  0.3638  2.6647
  210MPD1    H1 3248   1.675   0.855  11.389 -0.0053  1.6376  0.0015
  210MPD1    H2 3249   1.380   1.005  11.648 -2.9218 -0.5695 -0.8967
  210MPD1    H3 3250   1.549   1.042  11.482  0.4476  0.8887  2.1289
  210MPD1     N 3251   1.622   0.602  11.405  0.4541 -0.6331 -0.1052
  210MPD1    H5 3252   1.679   0.632  11.326 -0.1954 -0.4377 -0.5023
  210MPD1    N1 3253   1.318   0.764  11.762  0.0115 -0.6811  0.2190
  210MPD1    H6 3254   1.346   0.691  11.827 -0.5591 -2.1619 -1.1921
  210MPD1    H7 3255   1.291   0.850  11.809  0.3177 -0.9176  0.8392
  211MPD1     C 3256   0.032   0.402  15.607  0.2905 -1.3562  0.3004
  211MPD1    C1 3257   0.026   0.369  15.738 -0.9192  0.3447  0.0394
  211MPD1    C2 3258   4.644   0.350  15.795 -0.5225  0.7866 -0.5216
  211MPD1    C3 3259   4.524   0.382  15.729  0.1853  0.5050  0.0629
  211MPD1    C4 3260   4.529   0.423  15.599  0.7278  0.3140 -0.1936
  211MPD1    C5 3261   4.651   0.432  15.540  0.5639 -0.8323 -0.7289
  211MPD1     H 3262   4.637   0.313  15.897 -1.8512 -0.2022 -0.9755
  211MPD1    H1 3263   4.445   0.446  15.534 -0.2331 -0.5133  0.7511
  211MPD1    H2 3264   0.128   0.417  15.560  0.1230 -0.4169  0.2506
  211MPD1    H3 3265   4.659   0.474  15.440 -3.5286  1.5408 -0.0443
  211MPD1     N 3266   4.400   0.375  15.800 -0.2741 -0.7413 -0.6562
  211MPD1    H5 3267   4.404   0.346  15.897  1.9292 -0.8099 -0.7549
  211MPD1    N1 3268   0.145   0.336  15.801 -0.0242 -0.1785 -0.3529
  211MPD1    H6 3269   0.200   0.403  15.749  1.7516  0.3186  2.2113
  211MPD1    H7 3270   0.148   0.366  15.898  3.7140 -2.3167  0.1945
  212MPD1     C 3271   3.706   3.270  16.644  0.2748 -0.5407  0.2487
  212MPD1    C1 3272   3.657   3.163  16.570 -0.4358  0.4439  0.0977
  212MPD1    C2 3273   3.613   3.054  16.643  0.0744 -0.2843  0.4191
  212MPD1    C3 3274   3.621   3.045  16.783 -0.1280 -0.0239  0.3239
  212MPD1    C4 3275   3.672   3.158  16.852 -0.8276 -0.1847  0.4123
  212MPD1    C5 3276   3.721   3.264  16.779  0.0521 -0.3060  1.2402
  212MPD1     H 3277   3.572   2.969  16.590  1.0785 -1.5726  1.7345
  212MPD1    H1 3278   3.666   3.165  16.961 -0.5297  0.5955  0.3792
  212MPD1    H2 3279   3.729   3.364  16.595  0.8706 -0.3580  0.8815
  212MPD1    H3 3280   3.771   3.339  16.840 -1.5824  0.7446  1.2821
  212MPD1     N 3281   3.567   2.930  16.845 -0.0786  0.1529 -0.4066
  212MPD1    H5 3282   3.537   2.853  16.785  0.7015  0.2204 -0.8845
  212MPD1    N1 3283   3.618   3.185  16.436 -0.3313 -0.4728  0.2706
  212MPD1    H6 3284   3.595   3.102  16.383  2.0343 -0.7257 -0.3893
  212MPD1    H7 3285   3.696   3.230  16.387  0.0964 -0.7448  0.7003
  213MPD1     C 3286   0.990   3.718  15.885  0.2968  0.1188 -0.1249
  213MPD1    C1 3287   0.992   3.791  15.768 -0.1531  0.4648 -0.2055
  213MPD1    C2 3288   1.054   3.731  15.656  0.7144 -0.1423 -0.3781
  213MPD1    C3 3289   1.139   3.626  15.668  0.5062  0.2250  0.5210
  213MPD1    C4 3290   1.150   3.561  15.787 -0.5497  0.3017  0.0274
  213MPD1    C5 3291   1.072   3.601  15.894 -0.5910  0.0483 -0.5914
  213MPD1     H 3292   1.043   3.780  15.559 -1.7742  1.2257  0.5996
  213MPD1    H1 3293   1.220   3.479  15.803  1.1567  1.6473 -0.4974
  213MPD1    H2 3294   0.947   3.757  15.976 -3.2983 -2.8377 -0.5746
  213MPD1    H3 3295   1.085   3.561  15.994  1.1405  1.8417 -0.0966
  213MPD1     N 3296   1.207   3.578  15.549  0.2526 -0.6003 -0.3400
  213MPD1    H5 3297   1.199   3.630  15.462  0.2345  0.0891  0.0706
  213MPD1    N1 3298   0.888   3.887  15.742 -0.1803  0.3549 -0.6289
  213MPD1    H6 3299   0.918   3.952  15.670 -0.9533  0.1157 -1.1587
  213MPD1    H7 3300   0.885   3.942  15.828 -1.4237  0.2291 -0.5912
  214MPD1     C 3301   1.312   2.680  14.950  0.3777  0.6299  1.0362
  214MPD1    C1 3302   1.294   2.700  15.086 -0.0705  0.0235  0.6549
  214MPD1    C2 3303   1.291   2.826  15.134  0.0329 -0.5460  0.3482
  214MPD1    C3 3304   1.306   2.934  15.051  0.3041  0.1405 -0.1002
  214MPD1    C4 3305   1.311   2.919  14.917  0.6337  0.1146  0.0388
  214MPD1    C5 3306   1.318   2.794  14.873 -0.1024 -0.6386  0.3114
  214MPD1     H 3307   1.289   2.842  15.241  0.0271 -1.3072  0.4605
  214MPD1    H1 3308   1.306   3.007  14.855 -2.2804 -0.6486 -0.8243
  214MPD1    H2 3309   1.312   2.582  14.903 -1.9208  0.3532  1.5892
  214MPD1    H3 3310   1.334   2.779  14.767 -0.3238 -0.5798  0.2684
  214MPD1     N 3311   1.296   3.066  15.097 -0.0674 -0.3738 -0.4340
  214MPD1    H5 3312   1.306   3.136  15.023  2.1470  0.1750  0.3892
  214MPD1    N1 3313   1.309   2.588  15.173 -0.9732  0.3222 -0.0874
  214MPD1    H6 3314   1.258   2.597  15.261  0.8484  0.3639  0.9596
  214MPD1    H7 3315   1.290   2.498  15.129 -2.2774  1.3167 -1.5504
  215MPD1     C 3316   1.375   4.287  10.842  0.9054 -0.2342  0.5776
  215MPD1    C1 3317   1.425   4.272  10.972  0.3391 -0.1396 -0.2008
  215MPD1    C2 3318   1.398   4.370  11.065 -0.5341 -0.1860 -0.2086
  215MPD1    C3 3319   1.325   4.482  11.039  0.0793 -0.9335 -0.5877
  215MPD1    C4 3320   1.260   4.491  10.912 -0.0987 -0.8735  0.0629
  215MPD1    C5 3321   1.289   4.396  10.818  0.2801  0.6891  0.3728
  215MPD1     H 3322   1.443   4.359  11.163 -1.6801 -1.8119  0.1252
  215MPD1    H1 3323   1.197   4.576  10.887  1.3335  0.1856  0.0391
  215MPD1    H2 3324   1.385   4.216  10.760  1.5449 -1.1798  1.4756
  215MPD1    H3 3325   1.231   4.397  10.727  1.3760  2.7296 -0.3083
  215MPD1     N 3326   1.313   4.582  11.140  0.1373  0.2862  0.0715
  215MPD1    H5 3327   1.373   4.578  11.221  0.6189  3.1187 -0.1582
  215MPD1    N1 3328   1.530   4.184  11.005 -0.1286 -0.1887 -0.3785
  215MPD1    H6 3329   1.550   4.173  11.104  2.6709 -1.7793 -1.1339
  215MPD1    H7 3330   1.534   4.091  10.965  0.1085  0.4205 -1.7898
  216MPD1     C 3331   3.296   1.701   0.878  0.0084 -0.2029 -0.0358
  216MPD1    C1 3332   3.202   1.702   0.777  0.2517  0.1821 -0.0648
  216MPD1    C2 3333   3.235   1.654   0.652  0.2976  0.4371  0.9488
  216MPD1    C3 3334   3.358   1.599   0.623  0.2430  0.1324 -0.4986
  216MPD1    C4 3335   3.450   1.611   0.719 -0.9701 -0.4247  0.4151
  216MPD1    C5 3336   3.420   1.650   0.848 -0.2987  0.4258  0.5857
  216MPD1     H 3337   3.163   1.666   0.571  1.2903  0.6665  0.1058
  216MPD1    H1 3338   3.540   1.551   0.712 -0.4459  0.2608  1.3017
  216MPD1    H2 3339   3.270   1.742   0.975 -0.8819 -1.3255  0.1984
  216MPD1    H3 3340   3.503   1.643   0.918 -1.5779 -3.0026  1.7697
  216MPD1     N 3341   3.385   1.542   0.495  0.2331 -0.7015  0.2484
  216MPD1    H5 3342   3.305   1.530   0.435 -0.4951 -1.5870  1.4144
  216MPD1    N1 3343   3.087   1.785   0.787 -0.4177 -0.5360 -0.1050
  216MPD1    H6 3344   3.053   1.792   0.883  0.1393 -2.0610  0.2018
  216MPD1    H7 3345   3.005   1.759   0.733 -0.7963  0.1397  0.1467
  217MPD1     C 3346   4.230   0.828   9.152 -0.3592 -0.0476 -0.2171
  217MPD1    C1 3347   4.346   0.765   9.178 -0.3553 -0.2453 -0.0446
  217MPD1    C2 3348   4.334   0.630   9.206  0.5363 -0.4949  0.3443
  217MPD1    C3 3349   4.219   0.557   9.204 -0.5939 -0.4369 -0.7112
  217MPD1    C4 3350   4.108   0.629   9.190  0.3396 -0.0826 -0.0624
  217MPD1    C5 3351   4.117   0.760   9.163  0.5416 -0.2010  1.0048
  217MPD1     H 3352   4.420   0.569   9.230  1.0474  0.2171  0.3144
  217MPD1    H1 3353   4.008   0.587   9.195 -0.2584  1.4017  0.6675
  217MPD1    H2 3354   4.232   0.935   9.135 -0.9341  0.0925  0.5953
  217MPD1    H3 3355   4.023   0.814   9.153 -0.5274 -2.3508 -0.5368
  217MPD1     N 3356   4.205   0.420   9.215  0.5412 -0.0560  0.0412
  217MPD1    H5 3357   4.109   0.388   9.208  0.7282 -0.7184  0.4863
  217MPD1    N1 3358   4.473   0.827   9.168  0.1704  0.6152 -0.4536
  217MPD1    H6 3359   4.478   0.919   9.211  0.2129 -0.1311  1.1295
  217MPD1    H7 3360   4.551   0.779   9.213 -0.2148  1.7364  1.4406
  218MPD1     C 3361   1.376   1.093  12.100 -0.1445 -0.0390  0.1414
  218MPD1    C1 3362   1.283   1.039  12.184  0.0361  0.7300 -0.8540
  218MPD1    C2 3363   1.291   0.905  12.205  0.2134 -1.3162 -0.7298
  218MPD1    C3 3364   1.362   0.830  12.118  0.4757  0.5601  0.1874
  218MPD1    C4 3365   1.450   0.886  12.026  0.0079 -0.3119  0.2976
  218MPD1    C5 3366   1.452   1.027  12.012  0.3343  0.1421 -0.1911
  218MPD1     H 3367   1.242   0.857  12.290  0.6222 -2.1250 -0.9557
  218MPD1    H1 3368   1.502   0.821  11.956  1.1683  0.2138  0.6840
  218MPD1    H2 3369   1.394   1.200  12.108 -2.4639  0.4732 -1.4902
  218MPD1    H3 3370   1.507   1.081  11.935  0.4279  0.1401 -0.1254
  218MPD1     N 3371   1.371   0.691  12.154 -0.5149 -0.0648  0.3169
  218MPD1    H5 3372   1.298   0.656  12.215 -0.0520 -0.1523  0.8173
  218MPD1    N1 3373   1.209   1.114  12.279 -0.3045 -0.2246 -0.3113
  218MPD1    H6 3374   1.200   1.214  12.262 -0.2604  0.2835  2.7164
  218MPD1    H7 3375   1.115   1.077  12.292 -1.6590  2.4351 -2.6093
  219MPD1     C 3376   0.740   4.725  12.216 -0.3022  0.1002  0.0079
  219MPD1    C1 3377   0.784   0.072  12.124  0.1600 -0.2845 -0.1185
  219MPD1    C2 3378   0.909   0.132  12.139  0.0879  0.4591 -0.7853
  219MPD1    C3 3379   0.988   0.112  12.253 -0.2062  0.3734 -0.1337
  219MPD1    C4 3380   0.936   0.037  12.352  0.3015 -0.3928 -0.2021
  219MPD1    C5 3381   0.809   4.727  12.339  0.5662  0.1041  0.3976
  219MPD1     H 3382   0.948   0.185  12.053  0.5557  2.8619  0.8914
  219MPD1    H1 3383   0.993   0.011  12.440  1.2602 -0.1738 -0.7477
  219MPD1    H2 3384   0.641   4.680  12.213 -1.2122  2.1209 -0.7930
  219MPD1    H3 3385   0.760   4.680  12.423  1.4077  3.0281  2.5259
  219MPD1     N 3386   1.109   0.183  12.269 -0.2550 -0.0429  0.2641
  219MPD1    H5 3387   1.150   0.174  12.361 -1.8889 -2.0814  0.7757
  219MPD1    N1 3388   0.716   0.081  11.996 -0.1187  0.0551 -0.1779
  219MPD1    H6 3389   0.748   0.162  11.943 -1.1188  1.4773  1.4101
  219MPD1    H7 3390   0.615   0.089  12.007 -0.0690 -1.0184  0.9586
  220MPD1     C 3391   1.860   1.138  10.056  0.2696 -0.1475 -0.3307
  220MPD1    C1 3392   1.802   1.191  10.165  0.4340 -0.1374 -0.7715
  220MPD1    C2 3393   1.699   1.116  10.219  0.1413 -0.3284  0.1874
  220MPD1    C3 3394   1.649   0.999  10.166  0.4247  0.0953 -0.5413
  220MPD1    C4 3395   1.714   0.944  10.055  0.6908  0.1063  0.2841
  220MPD1    C5 3396   1.814   1.021  10.000 -0.2896  0.2502 -0.8946
  220MPD1     H 3397   1.655   1.155  10.310 -1.6257 -0.3339 -0.6684
  220MPD1    H1 3398   1.672   0.860   9.999  2.8252 -0.7260 -0.0449
  220MPD1    H2 3399   1.937   1.180   9.993  0.4869 -2.5991 -1.6827
  220MPD1    H3 3400   1.863   0.989   9.909 -0.2432 -1.2831 -0.3264
  220MPD1     N 3401   1.534   0.943  10.226 -0.0855 -0.6730 -0.5846
  220MPD1    H5 3402   1.486   0.987  10.303  0.0047  0.3322 -1.1024
  220MPD1    N1 3403   1.820   1.327  10.197 -0.3614 -0.6118  0.2503
  220MPD1    H6 3404   1.799   1.334  10.297 -0.3972  2.1003  0.0336
  220MPD1    H7 3405   1.917   1.354  10.182 -0.4088 -0.8316 -0.4392
  221MPD1     C 3406   3.455   4.351  16.587 -0.3101  0.1682 -0.1573
  221MPD1    C1 3407   3.480   4.257  16.686 -0.0739 -0.1417 -0.0373
  221MPD1    C2 3408   3.570   4.160  16.654  0.4158  0.2059 -0.3277
  221MPD1    C3 3409   3.626   4.142  16.528 -0.6555 -0.2662 -0.6716
  221MPD1    C4 3410   3.595   4.231  16.430 -0.0513 -0.0351  0.2314
  221MPD1    C5 3411   3.506   4.329  16.462  0.0170 -0.3769 -0.2276
  221MPD1     H 3412   3.605   4.099  16.737 -0.6604 -1.4248 -1.0743
  221MPD1    H1 3413   3.643   4.232  16.333 -0.1469  0.7411  0.1963
  221MPD1    H2 3414   3.388   4.436  16.601 -1.5865 -0.4399 -2.5357
  221MPD1    H3 3415   3.491   4.402  16.382  1.5101  0.9496  0.7075
  221MPD1     N 3416   3.733   4.046  16.495 -0.3525 -0.3073  0.9162
  221MPD1    H5 3417   3.752   4.025  16.398  0.4559  0.6935  0.8690
  221MPD1    N1 3418   3.423   4.275  16.809  0.0920 -1.0041 -0.8388
  221MPD1    H6 3419   3.419   4.191  16.867  2.2785 -1.1070 -0.8393
  221MPD1    H7 3420   3.329   4.311  16.798  0.1014 -1.0304 -1.0043
  222MPD1     C 3421   3.036   2.831  17.707  0.4040  0.1434 -0.1608
  222MPD1    C1 3422   2.987   2.761   0.056  0.1914  0.0092 -0.5139
  222MPD1    C2 3423   2.950   2.817   0.180  0.1726 -0.2749 -0.2383
  222MPD1    C3 3424   2.972   2.951   0.201 -0.2318 -0.0743 -0.5766
  222MPD1    C4 3425   3.021   3.024   0.088  0.2782 -0.3138  0.3774
  222MPD1    C5 3426   3.048   2.970  17.722  0.4204 -0.1274 -0.9783
  222MPD1     H 3427   2.911   2.759   0.262 -0.0056  2.7416  1.8064
  222MPD1    H1 3428   3.033   3.132   0.094  0.0633 -0.1472 -1.9663
  222MPD1    H2 3429   3.054   2.787  17.610 -0.1419  1.2207 -0.7529
  222MPD1    H3 3430   3.069   3.039  17.641 -0.6022 -0.7195 -1.7477
  222MPD1     N 3431   2.940   3.022   0.315 -0.8290  0.1933 -0.5096
  222MPD1    H5 3432   2.955   3.122   0.319  1.7280 -0.2236  0.4213
  222MPD1    N1 3433   2.982   2.626   0.033 -0.4216  0.1246  0.0842
  222MPD1    H6 3434   2.919   2.605  17.709 -0.9995 -0.5095  0.7324
  222MPD1    H7 3435   2.957   2.581   0.121  1.1355 -1.1321 -0.1054
  223MPD1     C 3436   2.743   3.026   1.418  0.1691  0.0193 -0.2216
  223MPD1    C1 3437   2.702   3.144   1.367  0.1298 -0.1752 -0.0673
  223MPD1    C2 3438   2.723   3.175   1.236  0.2097 -0.1295 -0.5252
  223MPD1    C3 3439   2.782   3.080   1.152 -0.5452  0.0079 -0.1284
  223MPD1    C4 3440   2.805   2.954   1.204  0.2386  0.0275 -0.2620
  223MPD1    C5 3441   2.794   2.935   1.336 -0.0154 -0.5379 -0.3545
  223MPD1     H 3442   2.706   3.278   1.209 -1.4744 -0.5249 -0.9905
  223MPD1    H1 3443   2.827   2.873   1.135 -1.1232 -0.2067 -0.4233
  223MPD1    H2 3444   2.741   2.997   1.523  0.9720 -0.3965 -0.3268
  223MPD1    H3 3445   2.817   2.834   1.367 -1.6031  0.0380  2.7312
  223MPD1     N 3446   2.810   3.116   1.018 -0.0603  0.4097 -0.3297
  223MPD1    H5 3447   2.781   3.208   0.986 -4.9136 -1.6590 -1.7594
  223MPD1    N1 3448   2.671   3.249   1.454 -0.0839  0.3983 -0.2530
  223MPD1    H6 3449   2.604   3.313   1.411 -1.0298 -0.4295 -0.0283
  223MPD1    H7 3450   2.628   3.225   1.543  0.9115  1.9412  0.6308
  224MPD1     C 3451   1.236   0.779   9.482  0.3767  0.1794  0.5039
  224MPD1    C1 3452   1.150   0.833   9.573  0.5725  0.4664 -0.4416
  224MPD1    C2 3453   1.028   0.775   9.587 -0.2942  0.9241 -0.3774
  224MPD1    C3 3454   0.989   0.661   9.519 -0.0157 -0.0297 -0.8104
  224MPD1    C4 3455   1.073   0.610   9.428 -0.1885 -0.8296 -0.7691
  224MPD1    C5 3456   1.199   0.672   9.406  0.3464 -0.0021 -0.6021
  224MPD1     H 3457   0.955   0.808   9.661  2.4579  1.4667  2.0923
  224MPD1    H1 3458   1.039   0.525   9.370  1.1180 -0.8471 -1.5030
  224MPD1    H2 3459   1.328   0.833   9.459  0.3892 -0.7528 -1.6345
  224MPD1    H3 3460   1.265   0.635   9.329  0.7533  0.6095 -0.5451
  224MPD1     N 3461   0.859   0.605   9.541 -0.1946 -0.8183  0.2157
  224MPD1    H5 3462   0.839   0.515   9.498  0.9271  0.1052 -2.2624
  224MPD1    N1 3463   1.183   0.944   9.653  0.1677  0.3001 -0.0112
  224MPD1    H6 3464   1.103   0.985   9.701 -0.5585 -1.5903  0.3736
  224MPD1    H7 3465   1.234   1.006   9.591 -1.7055  0.8487 -0.9956
  225MPD1     C 3466   4.628   0.427  13.259  0.2455 -0.4470 -0.1169
  225MPD1    C1 3467   4.627   0.558  13.217  0.9823  0.6730  0.2327
  225MPD1    C2 3468   4.729   0.603  13.126  0.0259  0.0866  0.0713
  225MPD1    C3 3469   0.080   0.512  13.078  0.4560  1.0647  0.0767
  225MPD1    C4 3470   0.083   0.385  13.119 -0.3590 -0.1589 -0.2480
  225MPD1    C5 3471   4.717   0.337  13.203  0.0259  0.0331  0.2725
  225MPD1     H 3472   4.737   0.707  13.096 -1.8636  0.0074 -0.7045
  225MPD1    H1 3473   0.163   0.317  13.091  2.0262  1.8178  1.7548
  225MPD1    H2 3474   4.553   0.391  13.328 -1.5925  1.2029 -1.2829
  225MPD1    H3 3475   4.717   0.234  13.235  1.1929  0.4623  1.6677
  225MPD1     N 3476   0.166   0.552  12.972  0.4868  0.3477  0.0881
  225MPD1    H5 3477   0.151   0.645  12.934 -1.0014  0.4565  0.9671
  225MPD1    N1 3478   4.523   0.645  13.245  0.6439  0.1413  0.3042
  225MPD1    H6 3479   4.482   0.629  13.337  0.0693  1.4133  0.2733
  225MPD1    H7 3480   4.558   0.740  13.241 -0.8752  0.6948  0.1697
  226MPD1     C 3481   0.494   0.700   9.257  0.0638  0.1101 -0.6365
  226MPD1    C1 3482   0.592   0.794   9.282 -0.3770  0.3923  0.0562
  226MPD1    C2 3483   0.562   0.912   9.356 -0.2397  0.6804  0.1184
  226MPD1    C3 3484   0.433   0.913   9.416 -0.3479 -0.0897  0.2447
  226MPD1    C4 3485   0.345   0.805   9.397  0.3841 -0.1055  0.1244
  226MPD1    C5 3486   0.372   0.708   9.312  0.0055  0.5802  0.6779
  226MPD1     H 3487   0.626   0.998   9.363  1.6324 -0.5916 -1.3844
  226MPD1    H1 3488   0.251   0.801   9.449  0.5378  1.7648  0.5667
  226MPD1    H2 3489   0.504   0.621   9.184 -1.6861  0.6074 -1.4267
  226MPD1    H3 3490   0.299   0.629   9.293  1.1988 -0.1996 -0.7093
  226MPD1     N 3491   0.407   1.026   9.492 -0.2780 -0.3296  0.0625
  226MPD1    H5 3492   0.476   1.100   9.484  0.7913 -1.3002  0.2830
  226MPD1    N1 3493   0.718   0.776   9.219  0.3373  0.5827 -0.2881
  226MPD1    H6 3494   0.730   0.676   9.207  0.4648  0.6502 -0.7103
  226MPD1    H7 3495   0.798   0.819   9.265 -0.2972 -0.8671  2.2000
  227MPD1     C 3496   4.337   1.570   9.842  0.0228 -0.9974 -0.4309
  227MPD1    C1 3497   4.347   1.468   9.751  0.0835 -0.1463 -0.3930
  227MPD1    C2 3498   4.472   1.415   9.721 -0.3391 -0.3463 -0.3425
  227MPD1    C3 3499   4.588   1.451   9.787  1.0738  0.2704 -0.3279
  227MPD1    C4 3500   4.568   1.531   9.900 -0.3827  0.0445 -0.6525
  227MPD1    C5 3501   4.447   1.592   9.920  0.2790 -0.5679  0.4331
  227MPD1     H 3502   4.482   1.341   9.642  0.3826 -1.7942  1.1024
  227MPD1    H1 3503   4.642   1.534   9.978 -0.1419  3.6198 -1.0364
  227MPD1    H2 3504   4.249   1.631   9.860  0.3651 -0.4437 -0.6545
  227MPD1    H3 3505   4.432   1.651  10.010 -0.2982 -1.4490  0.9045
  227MPD1     N 3506   4.717   1.397   9.760 -0.2521  0.2603  0.1043
  227MPD1    H5 3507   4.716   1.327   9.686 -1.2257  2.2865 -1.7984
  227MPD1    N1 3508   4.236   1.445   9.663 -0.1207 -0.0618  0.1050
  227MPD1    H6 3509   4.239   1.353   9.620  1.1934  0.3646 -0.7188
  227MPD1    H7 3510   4.148   1.484   9.696  0.7376  1.1846  0.8766
  228MPD1     C 3511   3.178   3.702  12.526  0.1940  0.2579 -0.8686
  228MPD1    C1 3512   3.060   3.743  12.479  0.1735  0.1679  0.1678
  228MPD1    C2 3513   2.945   3.710  12.549 -0.1144 -0.0682  0.4426
  228MPD1    C3 3514   2.949   3.634  12.663 -0.0378  0.9297 -0.6550
  228MPD1    C4 3515   3.073   3.606  12.720 -0.9496  0.5414  0.4968
  228MPD1    C5 3516   3.185   3.627  12.640  0.2143  0.1018  0.4690
  228MPD1     H 3517   2.843   3.738  12.522 -0.0901  3.1013  3.7346
  228MPD1    H1 3518   3.086   3.561  12.818  0.8936  0.3796  0.1882
  228MPD1    H2 3519   3.271   3.735  12.481  0.8071  0.9018  0.8581
  228MPD1    H3 3520   3.282   3.603  12.682  1.2365  1.7983 -0.9324
  228MPD1     N 3521   2.829   3.611  12.729  0.7208  0.0974  0.0888
  228MPD1    H5 3522   2.744   3.633  12.679 -0.0151  0.9108  1.6871
  228MPD1    N1 3523   3.058   3.809  12.357  0.9352  0.1235 -0.3730
  228MPD1    H6 3524   3.142   3.864  12.342  2.1154 -1.2518  1.2543
  228MPD1    H7 3525   2.973   3.858  12.329  1.1422  0.0048 -1.2134
  229MPD1     C 3526   1.960   1.678  14.874  1.5199 -0.5548 -0.0671
  229MPD1    C1 3527   1.986   1.575  14.965  0.4590  0.2297  0.2601
  229MPD1    C2 3528   2.111   1.562  15.023  0.7360  0.2938 -0.3456
  229MPD1    C3 3529   2.204   1.662  15.008 -0.7443  0.5117 -0.4522
  229MPD1    C4 3530   2.174   1.772  14.932  0.7680  0.3982 -0.9188
  229MPD1    C5 3531   2.055   1.781  14.869 -0.0368  0.4562  0.3901
  229MPD1     H 3532   2.131   1.467  15.070 -3.8442 -0.2833  0.3815
  229MPD1    H1 3533   2.231   1.863  14.918  3.1281 -0.8912  0.2207
  229MPD1    H2 3534   1.860   1.678  14.831  0.0646  1.8746  3.2609
  229MPD1    H3 3535   2.038   1.872  14.812 -1.0985  1.2697  1.9925
  229MPD1     N 3536   2.328   1.654  15.074  0.4622 -0.5951 -0.1638
  229MPD1    H5 3537   2.393   1.729  15.049  0.8159 -0.1498  2.1622
  229MPD1    N1 3538   1.896   1.465  14.977  0.3738  0.6878 -0.0741
  229MPD1    H6 3539   1.916   1.395  15.048  0.5074 -1.0002 -1.7757
  229MPD1    H7 3540   1.894   1.406  14.894  0.7677  0.3810  0.1327
  230MPD1     C 3541   3.088   1.315  15.813 -0.1310  0.4635  0.9234
  230MPD1    C1 3542   3.146   1.327  15.689  0.0353 -0.4005  0.0362
  230MPD1    C2 3543   3.083   1.379  15.578  0.0062  0.3688 -0.5674
  230MPD1    C3 3544   2.943   1.408  15.590  0.5420 -0.1840  0.2166
  230MPD1    C4 3545   2.885   1.376  15.708  0.1205  0.8634 -0.1546
  230MPD1    C5 3546   2.954   1.340  15.819  0.1892  0.4977  0.2647
  230MPD1     H 3547   3.139   1.388  15.486  0.2339  0.0804 -0.4579
  230MPD1    H1 3548   2.779   1.398  15.717 -0.3044 -1.0427 -0.5460
  230MPD1    H2 3549   3.134   1.279  15.904  1.8544  0.1747 -0.1893
  230MPD1    H3 3550   2.902   1.324  15.913  0.8167 -0.8993  0.3722
  230MPD1     N 3551   2.871   1.473  15.483  0.1863 -0.8723  0.0401
  230MPD1    H5 3552   2.931   1.498  15.404  0.0258  2.5814  0.9929
  230MPD1    N1 3553   3.280   1.289  15.689  0.2701 -0.1276  0.4612
  230MPD1    H6 3554   3.316   1.284  15.784 -2.2783  0.5124  1.4389
  230MPD1    H7 3555   3.332   1.360  15.637  0.7101  0.4651  1.7197
  231MPD1     C 3556   0.176   4.065  14.267  0.1378 -0.4395  0.1507
  231MPD1    C1 3557   0.128   3.971  14.352 -0.0134 -0.0233 -0.0948
  231MPD1    C2 3558   0.224   3.918  14.439  0.4886 -0.2075  0.4402
  231MPD1    C3 3559   0.357   3.952  14.442  0.5563  0.9144 -0.3245
  231MPD1    C4 3560   0.398   4.039  14.346  0.4841 -0.9757 -0.6314
  231MPD1    C5 3561   0.305   4.091  14.264 -0.1627  0.8330  0.3240
  231MPD1     H 3562   0.176   3.851  14.509  1.2598  1.8432  2.9381
  231MPD1    H1 3563   0.502   4.060  14.327  0.6993 -1.2606  0.2238
  231MPD1    H2 3564   0.106   4.125  14.209  1.7557  2.7779  1.5034
  231MPD1    H3 3565   0.346   4.169  14.201 -0.3854 -2.1203 -3.4673
  231MPD1     N 3566   0.444   3.892  14.536 -0.5753 -0.1616  0.1957
  231MPD1    H5 3567   0.407   3.808  14.580 -1.0943 -0.8091 -1.4623
  231MPD1    N1 3568   4.729   3.948  14.378 -1.0413  0.3877 -0.3799
  231MPD1    H6 3569   4.710   3.850  14.399  1.6999 -0.0635 -0.0261
  231MPD1    H7 3570   4.665   3.978  14.304 -2.4639 -0.6824  0.4067
  232MPD1     C 3571   2.803   1.841   0.030 -0.6045  0.6326 -0.2793
  232MPD1    C1 3572   2.818   1.755  17.678 -0.1809  0.2875  1.0036
  232MPD1    C2 3573   2.711   1.716  17.609  0.1879  0.8395  0.0502
  232MPD1    C3 3574   2.583   1.752  17.656  0.3190 -0.4315 -0.3216
  232MPD1    C4 3575   2.575   1.824   0.022 -0.3083 -0.1829  0.5210
  232MPD1    C5 3576   2.687   1.871   0.079  0.4072 -0.0197  0.2182
  232MPD1     H 3577   2.727   1.653  17.523  2.4993  2.5296 -0.7665
  232MPD1    H1 3578   2.482   1.854   0.070  0.4321 -1.3246  2.6684
  232MPD1    H2 3579   2.891   1.877   0.083 -1.8735  1.6431  1.1508
  232MPD1    H3 3580   2.689   1.935   0.167  0.9909  2.3818 -1.5214
  232MPD1     N 3581   2.459   1.712  17.603  0.3043  0.3959  0.3510
  232MPD1    H5 3582   2.379   1.733  17.662  0.3165 -0.2370  0.5935
  232MPD1    N1 3583   2.942   1.697  17.653 -0.1993 -0.1281  0.8986
  232MPD1    H6 3584   3.022   1.760  17.665  0.3707 -0.7715  0.4952
  232MPD1    H7 3585   2.959   1.674  17.555  1.9686  0.7393  1.0671
  233MPD1     C 3586   3.284   3.954   0.965  0.0049  0.4008  0.4215
  233MPD1    C1 3587   3.290   3.832   1.032 -0.3391  0.0888 -0.0028
  233MPD1    C2 3588   3.398   3.817   1.122 -0.3918 -0.0876  0.3582
  233MPD1    C3 3589   3.510   3.899   1.121 -0.3260  0.0449  0.6171
  233MPD1    C4 3590   3.514   4.005   1.027  0.2471 -0.1726 -0.5241
  233MPD1    C5 3591   3.398   4.034   0.960 -0.2754  0.0392  0.0742
  233MPD1     H 3592   3.404   3.730   1.186  0.5203 -0.0952  0.2647
  233MPD1    H1 3593   3.592   4.080   1.025  0.5420 -0.4620  0.0537
  233MPD1    H2 3594   3.198   3.982   0.904 -0.4396 -2.1542 -0.1257
  233MPD1    H3 3595   3.397   4.124   0.899 -0.4328 -0.1680 -0.2270
  233MPD1     N 3596   3.620   3.896   1.213 -0.5437  0.1639  0.1822
  233MPD1    H5 3597   3.702   3.955   1.201 -1.2424  1.2258  0.5389
  233MPD1    N1 3598   3.174   3.746   1.038 -0.4891 -0.0276  0.1790
  233MPD1    H6 3599   3.123   3.748   0.950  0.1862  0.2735 -0.2093
  233MPD1    H7 3600   3.197   3.649   1.057 -0.6214 -0.3029 -1.0806
  234MPD1     C 3601   0.515   3.931  10.177  1.0139 -0.2660  0.1810
  234MPD1    C1 3602   0.561   4.049  10.136  0.7078 -0.8804 -0.3550
  234MPD1    C2 3603   0.537   4.094  10.007  0.1693 -0.4697 -0.1829
  234MPD1    C3 3604   0.451   4.029   9.920  1.5977 -0.0384 -0.3749
  234MPD1    C4 3605   0.412   3.896   9.959 -0.4863  0.5340  0.2317
  234MPD1    C5 3606   0.437   3.859  10.095 -0.2599 -0.0883 -0.0097
  234MPD1     H 3607   0.584   4.189   9.982 -0.3722  0.0981  0.9257
  234MPD1    H1 3608   0.355   3.829   9.896  0.8234  1.4501 -1.9239
  234MPD1    H2 3609   0.521   3.900  10.280 -0.6059 -1.4279 -0.0661
  234MPD1    H3 3610   0.389   3.765  10.122 -0.0973 -0.3663 -0.6887
  234MPD1     N 3611   0.418   4.075   9.786 -0.3797  0.1346 -0.3876
  234MPD1    H5 3612   0.445   4.172   9.771  0.2530  0.0184 -0.0129
  234MPD1    N1 3613   0.651   4.117  10.216  0.1551 -0.1875  0.1915
  234MPD1    H6 3614   0.616   4.122  10.311 -0.8427 -1.4006 -0.1042
  234MPD1    H7 3615   0.650   4.215  10.191 -1.1123 -0.1956  0.2244
  235MPD1     C 3616   1.874   1.755  10.377  0.7199 -0.3364 -0.2366
  235MPD1    C1 3617   1.845   1.869  10.295 -0.1551 -0.4611 -0.0055
  235MPD1    C2 3618   1.928   1.978  10.305  0.6327  0.2907  0.5726
  235MPD1    C3 3619   2.040   1.985  10.389 -0.1194 -0.0248 -0.4830
  235MPD1    C4 3620   2.059   1.875  10.466 -0.0017 -0.0221  0.2014
  235MPD1    C5 3621   1.979   1.765  10.459  0.5617 -0.1021 -0.0196
  235MPD1     H 3622   1.913   2.067  10.245 -0.7262 -0.6499 -0.4995
  235MPD1    H1 3623   2.142   1.868  10.535  0.4988 -2.0155 -0.6103
  235MPD1    H2 3624   1.809   1.668  10.377  0.3108 -0.0370  0.7285
  235MPD1    H3 3625   1.997   1.688  10.533  0.6754  0.5490  0.6229
  235MPD1     N 3626   2.124   2.099  10.391 -0.2680  0.8012 -0.1789
  235MPD1    H5 3627   2.101   2.181  10.337  0.3347  1.9366  1.2805
  235MPD1    N1 3628   1.749   1.866  10.200  0.0596 -0.3607  0.3461
  235MPD1    H6 3629   1.724   1.964  10.185 -0.7378 -0.5153  0.6952
  235MPD1    H7 3630   1.673   1.802  10.218 -2.5532  1.8609 -2.6244
  236MPD1     C 3631   0.582   2.568  10.042 -0.2507 -0.6035  0.3697
  236MPD1    C1 3632   0.645   2.687  10.065 -0.0799 -0.0821  0.4475
  236MPD1    C2 3633   0.752   2.691  10.153  0.0179  0.3475  0.7078
  236MPD1    C3 3634   0.815   2.577  10.205  0.2568 -0.2703  0.8027
  236MPD1    C4 3635   0.760   2.458  10.170 -0.4622 -0.6889  0.2887
  236MPD1    C5 3636   0.647   2.456  10.091 -0.8267  0.2190  0.4770
  236MPD1     H 3637   0.786   2.785  10.196  2.1096 -0.7714  1.5273
  236MPD1    H1 3638   0.807   2.364  10.196 -0.2390 -1.0811 -1.5351
  236MPD1    H2 3639   0.490   2.549   9.989 -1.3907  2.3459  1.2911
  236MPD1    H3 3640   0.593   2.363  10.077 -0.5948  0.2173 -0.4260
  236MPD1     N 3641   0.929   2.582  10.286  0.2686  0.2566  0.1368
  236MPD1    H5 3642   0.957   2.500  10.339  0.7960  0.6865  0.5252
  236MPD1    N1 3643   0.588   2.810  10.037  0.0344 -0.3184 -0.3279
  236MPD1    H6 3644   0.543   2.805   9.945 -1.5944  0.4627  0.4183
  236MPD1    H7 3645   0.660   2.882  10.037 -1.2246  0.9315  0.9850
  237MPD1     C 3646   1.906   0.509  14.822 -0.0330 -0.6503  0.5478
  237MPD1    C1 3647   1.828   0.620  14.800  0.4974 -0.4150 -0.4980
  237MPD1    C2 3648   1.695   0.592  14.787  0.2418  0.7494  0.2476
  237MPD1    C3 3649   1.631   0.470  14.820 -0.5576 -0.4778 -0.0433
  237MPD1    C4 3650   1.713   0.367  14.852  0.5199  0.9478 -0.1916
  237MPD1    C5 3651   1.851   0.387  14.854 -0.5979  0.5194  0.4075
  237MPD1     H 3652   1.629   0.672  14.753 -1.3651 -1.1307 -1.0577
  237MPD1    H1 3653   1.670   0.271  14.880  1.5421 -0.0878 -2.1898
  237MPD1    H2 3654   2.014   0.516  14.827 -0.1637  2.6149 -1.6655
  237MPD1    H3 3655   1.911   0.302  14.883 -1.7039 -0.4593 -0.1558
  237MPD1     N 3656   1.489   0.445  14.813  0.6755  0.4970  0.1018
  237MPD1    H5 3657   1.454   0.350  14.806  0.9971  0.5113 -1.6918
  237MPD1    N1 3658   1.883   0.747  14.776  0.1509  0.8387  0.0121
  237MPD1    H6 3659   1.824   0.813  14.827 -0.2058 -0.4962  1.3475
  237MPD1    H7 3660   1.981   0.757  14.802  0.3878  0.7839 -0.8734
  238MPD1     C 3661   2.532   3.986  15.505  0.0803 -0.7081 -0.4135
  238MPD1    C1 3662   2.562   4.058  15.393 -0.5298 -0.0942 -0.3190
  238MPD1    C2 3663   2.494   4.029  15.273 -0.0749 -0.0916  0.2317
  238MPD1    C3 3664   2.429   3.909  15.260  0.5476  0.4761 -0.8338
  238MPD1    C4 3665   2.396   3.840  15.377  0.1582  0.2936  0.1692
  238MPD1    C5 3666   2.458   3.871  15.491  0.2485 -0.4482  0.1702
  238MPD1     H 3667   2.504   4.098  15.190 -0.9675  0.2286  0.3898
  238MPD1    H1 3668   2.350   3.742  15.365  0.1295  0.3083  0.1577
  238MPD1    H2 3669   2.573   4.011  15.603 -1.7166 -0.7754  0.3419
  238MPD1    H3 3670   2.436   3.814  15.581  0.7420  0.8131  1.0936
  238MPD1     N 3671   2.400   3.854  15.137 -0.0403  0.6497  0.5976
  238MPD1    H5 3672   2.350   3.766  15.137  1.3382 -0.1288 -0.5319
  238MPD1    N1 3673   2.632   4.180  15.398  0.7883  0.5489 -0.5012
  238MPD1    H6 3674   2.720   4.170  15.449 -0.1035  0.6920  1.0659
  238MPD1    H7 3675   2.658   4.212  15.305  1.3797  0.8173 -0.2478
  239MPD1     C 3676   2.900   4.681  15.056  0.1223  0.0860  0.2262
  239MPD1    C1 3677   2.988   4.701  14.952 -0.0324  0.0281 -0.2261
  239MPD1    C2 3678   2.934   4.706  14.825  0.0423  0.5740  0.3863
  239MPD1    C3 3679   2.799   4.697  14.794 -0.3379 -0.0582 -0.0618
  239MPD1    C4 3680   2.713   4.676  14.900  0.3070 -0.9822 -0.6013
  239MPD1    C5 3681   2.764   4.672  15.035 -0.6045  0.4278  0.2901
  239MPD1     H 3682   3.014   4.710  14.752 -0.0398 -2.2813  0.1169
  239MPD1    H1 3683   2.608   4.656  14.882  0.5462 -1.0511 -1.8808
  239MPD1    H2 3684   2.942   4.659  15.154  2.4027 -0.9944 -0.9985
  239MPD1    H3 3685   2.694   4.638  15.111  0.5519 -1.2355  0.6057
  239MPD1     N 3686   2.739   4.731  14.671 -0.2319 -0.3622  0.6543
  239MPD1    H5 3687   2.638   4.725  14.659 -0.0580 -2.4243  0.2367
  239MPD1    N1 3688   3.127   4.699  14.980 -0.7458  0.4852 -0.1555
  239MPD1    H6 3689   3.152   4.729  15.075 -1.5166  3.1422 -0.7929
  239MPD1    H7 3690   3.182   0.017  14.917  0.3224  0.6873  0.9546
  240MPD1     C 3691   1.938   0.311  14.095  0.1938  0.2869 -0.6680
  240MPD1    C1 3692   2.031   0.257  14.013 -0.5836 -0.1850  0.7412
  240MPD1    C2 3693   2.080   0.134  14.050 -0.2132 -0.3025  0.3422
  240MPD1    C3 3694   2.029   0.047  14.144  0.3736 -0.6543 -0.2976
  240MPD1    C4 3695   1.924   0.104  14.222 -0.4538  0.1872 -0.1240
  240MPD1    C5 3696   1.888   0.235  14.200 -0.1726  0.3023 -0.2078
  240MPD1     H 3697   2.156   0.099  13.982  0.8901 -1.2256  2.0604
  240MPD1    H1 3698   1.870   0.053  14.301  0.5196  0.3063  0.6262
  240MPD1    H2 3699   1.897   0.410  14.079  1.0846  0.8632  0.5345
  240MPD1    H3 3700   1.803   0.274  14.255 -0.5959 -0.6876 -0.1607
  240MPD1     N 3701   2.088   4.661  14.171 -0.2341  0.6063 -0.5826
  240MPD1    H5 3702   2.186   4.656  14.148 -0.1579 -0.2286 -0.0571
  240MPD1    N1 3703   2.098   0.344  13.923 -0.2041  0.0808 -0.8715
  240MPD1    H6 3704   2.141   0.289  13.849 -0.7322  0.3005 -1.3441
  240MPD1    H7 3705   2.036   0.416  13.886 -0.2133  0.8469  0.6661
  241MPD1     C 3706   2.549   4.301  14.980  0.5375  0.5638  0.5852
  241MPD1    C1 3707   2.616   4.346  14.859 -0.0069  0.1304 -0.5095
  241MPD1    C2 3708   2.547   4.341  14.737  0.7578 -0.3861  0.1341
  241MPD1    C3 3709   2.409   4.331  14.738 -0.0962 -0.0471  0.4798
  241MPD1    C4 3710   2.347   4.302  14.856  0.1157  0.5437  0.5575
  241MPD1    C5 3711   2.417   4.280  14.971  0.4286 -0.4306  0.5420
  241MPD1     H 3712   2.595   4.337  14.640  1.2254  0.8940  0.3255
  241MPD1    H1 3713   2.242   4.277  14.862  0.4415 -1.4756 -2.1675
  241MPD1    H2 3714   2.604   4.286  15.072  0.5095  1.5452  0.7582
  241MPD1    H3 3715   2.363   4.237  15.055  0.9111 -0.7922  0.6715
  241MPD1     N 3716   2.328   4.328  14.618 -0.2360  0.8213 -0.2153
  241MPD1    H5 3717   2.230   4.307  14.634  0.0460 -0.0399  0.3890
  241MPD1    N1 3718   2.749   4.347  14.857 -0.4099  0.5191 -0.2195
  241MPD1    H6 3719   2.778   4.366  14.952 -0.0749 -2.1136  0.1855
  241MPD1    H7 3720   2.778   4.421  14.792 -0.3752  1.4798  0.8775
  242MPD1     C 3721   1.873   3.587  15.569 -0.6709  0.5868 -1.4356
  242MPD1    C1 3722   1.809   3.467  15.572  0.2591  0.3162 -0.3724
  242MPD1    C2 3723   1.872   3.352  15.529 -0.4835  0.1948 -0.4913
  242MPD1    C3 3724   2.013   3.358  15.499 -0.1978 -0.7744  0.1895
  242MPD1    C4 3725   2.069   3.481  15.485  0.0668 -0.0404 -0.5823
  242MPD1    C5 3726   1.999   3.588  15.519 -0.1096  0.1962  0.1041
  242MPD1     H 3727   1.826   3.254  15.526  0.1785 -0.0656 -2.5455
  242MPD1    H1 3728   2.169   3.496  15.445  0.3492  3.6253  1.4728
  242MPD1    H2 3729   1.824   3.682  15.590 -4.7219 -1.5020 -1.3668
  242MPD1    H3 3730   2.050   3.682  15.503 -1.0095  0.7153  0.2806
  242MPD1     N 3731   2.087   3.253  15.447  0.2895 -0.0113  0.1172
  242MPD1    H5 3732   2.179   3.276  15.411  0.4307  0.9440  1.0718
  242MPD1    N1 3733   1.673   3.473  15.600 -0.1411 -0.2019 -0.1309
  242MPD1    H6 3734   1.647   3.525  15.684 -1.2795  2.3784 -2.0750
  242MPD1    H7 3735   1.645   3.377  15.622  0.3481 -0.1151  0.8725
  243MPD1     C 3736   3.273   1.397  17.311  0.0231 -0.2388 -0.6073
  243MPD1    C1 3737   3.307   1.406  17.176  0.4051 -0.4501 -0.0674
  243MPD1    C2 3738   3.353   1.295  17.115 -0.4044  0.3604 -0.1144
  243MPD1    C3 3739   3.374   1.180  17.182  0.2893 -0.1632 -0.1346
  243MPD1    C4 3740   3.342   1.173  17.314 -0.5434 -0.3888 -0.3719
  243MPD1    C5 3741   3.292   1.280  17.379  0.1471 -0.0525 -0.1386
  243MPD1     H 3742   3.399   1.299  17.017 -1.3342  0.1012 -0.5669
  243MPD1    H1 3743   3.356   1.086  17.377  2.5736 -0.2768 -0.9311
  243MPD1    H2 3744   3.221   1.483  17.351  1.1946  1.2510 -2.2753
  243MPD1    H3 3745   3.272   1.268  17.484  0.6910 -0.0585 -0.0349
  243MPD1     N 3746   3.425   1.079  17.102 -0.1008  0.0126  0.3905
  243MPD1    H5 3747   3.441   1.101  17.004 -2.9425  2.7445  0.5446
  243MPD1    N1 3748   3.276   1.515  17.098  0.0763  0.6245 -0.3105
  243MPD1    H6 3749   3.274   1.600  17.154 -2.1834  0.6616 -0.4473
  243MPD1    H7 3750   3.346   1.538  17.028  0.7933  1.8115  0.8049
  244MPD1     C 3751   3.272   0.150  17.167 -0.3870  0.4632 -0.2157
  244MPD1    C1 3752   3.263   0.216  17.049 -1.1331  0.3802  0.7091
  244MPD1    C2 3753   3.345   0.321  17.016  0.0702  0.2871 -0.4867
  244MPD1    C3 3754   3.433   0.368  17.108 -0.3413 -0.7793 -0.0065
  244MPD1    C4 3755   3.436   0.309  17.233 -0.2897  0.3137 -0.5797
  244MPD1    C5 3756   3.352   0.206  17.261  0.0364 -1.4640  0.0224
  244MPD1     H 3757   3.344   0.353  16.912 -0.7658  3.0629  0.3627
  244MPD1    H1 3758   3.511   0.339  17.305 -0.7602 -1.7762  0.7849
  244MPD1    H2 3759   3.215   0.061  17.189 -0.3742  1.6293  4.4321
  244MPD1    H3 3760   3.347   0.169  17.363 -2.0064 -1.6359 -0.1258
  244MPD1     N 3761   3.512   0.478  17.084  0.2789 -0.1358  0.3676
  244MPD1    H5 3762   3.556   0.524  17.164 -2.4977  0.7764  1.3479
  244MPD1    N1 3763   3.202   0.147  16.943  0.2455 -0.0639 -0.3614
  244MPD1    H6 3764   3.114   0.116  16.983  0.2724 -0.4256 -0.5845
  244MPD1    H7 3765   3.189   0.203  16.859  2.2223  2.7865  1.2351
  245MPD1     C 3766   0.697   1.456  13.532 -0.2301 -0.6470  0.2033
  245MPD1    C1 3767   0.745   1.448  13.664  0.7866  0.3985  0.4029
  245MPD1    C2 3768   0.757   1.569  13.728 -0.5617 -0.2220 -0.4623
  245MPD1    C3 3769   0.724   1.692  13.671 -0.5855 -0.8348 -0.4791
  245MPD1    C4 3770   0.668   1.692  13.545 -0.1343 -0.0961  0.1045
  245MPD1    C5 3771   0.660   1.569  13.468 -0.7239 -0.0599  0.1430
  245MPD1     H 3772   0.780   1.574  13.834 -1.2648 -1.7342 -0.2498
  245MPD1    H1 3773   0.647   1.784  13.492  1.9651  0.7478  0.7656
  245MPD1    H2 3774   0.695   1.364  13.475 -0.8242  0.6273 -1.8272
  245MPD1    H3 3775   0.625   1.577  13.366  0.4875  1.0192 -0.1966
  245MPD1     N 3776   0.732   1.807  13.756 -0.2304  0.0059  1.0514
  245MPD1    H5 3777   0.781   1.803  13.845 -0.5753  1.3518  1.2960
  245MPD1    N1 3778   0.753   1.329  13.735  0.0358  0.6463  0.0967
  245MPD1    H6 3779   0.781   1.247  13.681 -1.3675 -0.9350  1.7565
  245MPD1    H7 3780   0.792   1.335  13.828 -0.3081  0.7934  0.2310
  246MPD1     C 3781   0.094   1.421   9.311  0.4211 -0.8114 -0.5516
  246MPD1    C1 3782   0.125   1.522   9.397 -0.2591  0.9814  0.3737
  246MPD1    C2 3783   0.251   1.528   9.444  0.3605 -0.9857  0.5805
  246MPD1    C3 3784   0.343   1.427   9.419  0.2040 -0.8988 -0.6268
  246MPD1    C4 3785   0.306   1.315   9.350  0.2533  0.0244 -0.0170
  246MPD1    C5 3786   0.184   1.320   9.290  0.8505 -0.0942  0.1137
  246MPD1     H 3787   0.291   1.625   9.471  0.6491 -0.7369 -0.7405
  246MPD1    H1 3788   0.382   1.248   9.312  0.8331 -0.4839  2.0209
  246MPD1    H2 3789   0.003   1.417   9.252 -0.6593 -3.1119  1.2517
  246MPD1    H3 3790   0.159   1.249   9.213  0.1907  0.0761  0.1711
  246MPD1     N 3791   0.484   1.455   9.445 -0.0555  0.3255  0.6500
  246MPD1    H5 3792   0.509   1.549   9.476 -2.2229  1.3009 -0.6404
  246MPD1    N1 3793   0.038   1.629   9.412  0.7263  0.3430 -0.0382
  246MPD1    H6 3794   0.054   1.690   9.491  0.4424  1.9013 -1.1867
  246MPD1    H7 3795   4.682   1.593   9.400  0.7308  0.2672  0.1565
  247MPD1     C 3796   0.305   2.785  16.450 -0.2463 -0.5150 -0.0265
  247MPD1    C1 3797   0.333   2.723  16.566 -0.2614 -0.3865  0.3323
  247MPD1    C2 3798   0.338   2.587  16.569 -1.2181 -0.1044 -0.0002
  247MPD1    C3 3799   0.296   2.513  16.458 -0.0907 -0.3933 -0.9284
  247MPD1    C4 3800   0.265   2.581  16.342  0.7412 -0.4762  0.1473
  247MPD1    C5 3801   0.274   2.710  16.340 -0.1236 -0.1154  0.1043
  247MPD1     H 3802   0.352   2.533  16.663  2.6707 -0.6421 -0.8973
  247MPD1    H1 3803   0.240   2.536  16.247 -4.2298  0.6747  0.8932
  247MPD1    H2 3804   0.321   2.891  16.434  3.5048 -1.3521 -1.7121
  247MPD1    H3 3805   0.243   2.765  16.252  1.0059 -0.4402 -0.5074
  247MPD1     N 3806   0.287   2.374  16.448 -0.3543 -0.2961  0.0756
  247MPD1    H5 3807   0.266   2.336  16.356 -0.7685 -1.6631  0.7453
  247MPD1    N1 3808   0.355   2.792  16.684  0.5937  0.3383 -0.3204
  247MPD1    H6 3809   0.380   2.889  16.664  1.4502 -0.1061 -1.3253
  247MPD1    H7 3810   0.398   2.748  16.765 -1.0526 -2.7241 -1.1196
  248MPD1     C 3811   1.356   2.650  17.056 -0.5193 -0.0880 -0.0159
  248MPD1    C1 3812   1.416   2.686  17.180 -0.4843 -0.4901  0.0899
  248MPD1    C2 3813   1.378   2.612  17.293  0.2864 -0.1881 -0.1335
  248MPD1    C3 3814   1.281   2.517  17.278 -0.1920  0.0030  1.0780
  248MPD1    C4 3815   1.211   2.504  17.163  0.2261 -0.3578  0.5259
  248MPD1    C5 3816   1.245   2.565  17.050 -0.3227 -0.2563 -0.1251
  248MPD1     H 3817   1.422   2.632  17.390 -1.0277 -1.4093  0.7043
  248MPD1    H1 3818   1.123   2.443  17.143  0.1221  0.2171 -0.7795
  248MPD1    H2 3819   1.389   2.690  16.961  0.9995 -2.2799 -0.4105
  248MPD1    H3 3820   1.202   2.547  16.952  0.0364  0.9639 -0.5105
  248MPD1     N 3821   1.225   2.446  17.390  0.5295 -0.1531  0.2932
  248MPD1    H5 3822   1.259   2.473  17.482 -0.4094  0.9898  0.3145
  248MPD1    N1 3823   1.527   2.776  17.184  0.3159 -0.3710 -0.4927
  248MPD1    H6 3824   1.516   2.842  17.108 -2.0947  0.8223  0.8889
  248MPD1    H7 3825   1.521   2.833  17.268  1.1545 -1.4877  0.3430
  249MPD1     C 3826   1.921   4.504  11.191  0.1951 -0.4446 -0.3052
  249MPD1    C1 3827   1.838   4.450  11.097  0.2804 -0.6591 -0.0212
  249MPD1    C2 3828   1.815   4.512  10.976 -0.8547 -0.5781 -0.6275
  249MPD1    C3 3829   1.865   4.639  10.960  1.0749 -0.2925 -0.1677
  249MPD1    C4 3830   1.947   4.689  11.064 -0.1599 -0.6213  0.3901
  249MPD1    C5 3831   1.972   4.630  11.179 -1.4831 -0.1590  0.1385
  249MPD1     H 3832   1.772   4.460  10.891 -0.8372  0.1882 -1.1011
  249MPD1    H1 3833   2.001   0.042  11.048 -0.6643 -0.2638  0.7437
  249MPD1    H2 3834   1.942   4.448  11.282  1.9451  0.3781 -0.2095
  249MPD1    H3 3835   2.039   4.663  11.258 -0.9445 -2.3703  0.6166
  249MPD1     N 3836   1.844   4.699  10.834 -0.1342  0.2905 -0.0769
  249MPD1    H5 3837   1.802   4.638  10.765 -0.9026 -0.0665  0.7137
  249MPD1    N1 3838   1.795   4.318  11.115 -0.8435 -0.0505 -0.0013
  249MPD1    H6 3839   1.708   4.302  11.063 -1.9091  2.2528  1.0660
  249MPD1    H7 3840   1.776   4.298  11.213  0.7611  0.6300  0.4486
  250MPD2     C 3841   2.989   0.582  12.824 -1.2055 -0.3056 -0.6856
  250MPD2    C1 3842   2.981   0.681  12.728 -0.1207  0.0347  0.4568
  250MPD2    C2 3843   2.957   0.649  12.599  0.1851 -0.1165  0.4097
  250MPD2    C3 3844   2.930   0.517  12.574 -0.2876 -0.1036 -0.1501
  250MPD2    C4 3845   2.934   0.419  12.670 -0.5776 -0.2727  0.2455
  250MPD2    C5 3846   2.965   0.453  12.799 -0.0118 -0.3739  0.2680
  250MPD2     H 3847   2.943   0.729  12.528  1.5698  1.1876  1.6039
  250MPD2    H1 3848   2.921   0.312  12.654 -0.4398 -0.0924 -1.0568
  250MPD2    H2 3849   2.996   0.612  12.928 -0.5307 -1.5027 -0.3765
  250MPD2    H3 3850   2.955   0.380  12.878 -0.7333 -1.1232 -0.5209
  250MPD2     N 3851   2.905   0.474  12.440  0.0320 -0.0910  0.1053
  250MPD2    H5 3852   2.904   0.374  12.423  1.6859  0.1018 -1.0704
  250MPD2    N1 3853   3.018   0.811  12.768 -0.2117 -0.3169 -0.0891
  250MPD2    H7 3854   3.057   0.825  12.860  2.5406 -2.5766 -0.9140
  251TMC3    C1 3855   3.080   1.029  12.741  0.8261  0.6356  0.1646
  251TMC3    C2 3856   3.015   1.145  12.770 -0.3137 -0.1614 -0.4376
  251TMC3    C3 3857   3.083   1.230  12.848  0.0139 -0.6327 -1.2700
  251TMC3    C4 3858   3.205   1.003  12.783  0.6307  0.1225  0.3964
  251TMC3    C5 3859   3.279   1.094  12.845  0.5668  0.1850  0.1610
  251TMC3    C6 3860   3.214   1.207  12.896 -0.4835  0.1681 -0.5515
  251TMC3     C 3861   3.010   0.921  12.691 -0.2251 -0.5878 -0.3862
  251TMC3     O 3862   2.953   0.942  12.583 -1.5504  0.0093 -0.1192
  251TMC3     H 3863   2.913   1.163  12.737 -0.1438 -1.3565 -1.5932
  251TMC3    H1 3864   3.253   0.913  12.746  1.2535  0.3161  0.7200
  251TMC3    H2 3865   3.261   1.267  12.973 -1.6023  0.4724 -0.1135
  251TMC3    C7 3866   3.406   1.039  12.896  0.4804 -0.4436 -0.2105
  251TMC3    C8 3867   3.007   1.350  12.888  0.2995 -0.0261 -0.5332
  251TMC3    O1 3868   3.438   0.925  12.867 -0.3249 -0.1379  0.3564
  251TMC3    O2 3869   2.884   1.353  12.871 -0.8272  0.0945  0.0333
  252TMC3    C1 3870   3.571   2.169   9.661  0.0210  0.7094  0.1051
  252TMC3    C2 3871   3.625   2.286   9.639  0.0237 -0.1848  0.0750
  252TMC3    C3 3872   3.761   2.295   9.661 -0.2953 -0.0150 -0.2865
  252TMC3    C4 3873   3.634   2.063   9.727 -0.5192 -0.2975  0.0265
  252TMC3    C5 3874   3.769   2.080   9.750 -0.1888 -0.1495 -0.8176
  252TMC3    C6 3875   3.832   2.193   9.712 -0.6739  0.1328 -0.0639
  252TMC3     C 3876   3.444   2.146   9.593  0.2530 -0.9036  1.2301
  252TMC3     O 3877   3.371   2.240   9.559  0.1739  0.5491  0.4420
  252TMC3     H 3878   3.570   2.364   9.588  0.0391  0.5959  1.2516
  252TMC3    H1 3879   3.582   1.975   9.763 -2.4194  1.1902  0.9255
  252TMC3    H2 3880   3.940   2.202   9.717 -0.5471 -0.2626 -2.4277
  252TMC3    C7 3881   3.844   1.985   9.825  0.4696  0.2653 -0.7980
  252TMC3    C8 3882   3.807   2.434   9.654 -0.2901  0.1881  0.0856
  252TMC3    O1 3883   3.954   2.024   9.866  0.3946 -0.1578 -0.2319
  252TMC3    O2 3884   3.768   2.510   9.562 -0.4567  0.2792  0.5888
  253MPD2     C 3885   0.514   0.286  14.340 -0.4876  0.4069  0.4076
  253MPD2    C1 3886   0.406   0.299  14.424  0.1124 -0.4964 -0.4572
  253MPD2    C2 3887   0.425   0.305  14.558  0.5013  0.2744 -0.2830
  253MPD2    C3 3888   0.552   0.320  14.616 -0.2544  0.0309 -0.0010
  253MPD2    C4 3889   0.655   0.281  14.535 -0.8187  0.7402  0.1428
  253MPD2    C5 3890   0.635   0.269  14.398 -0.5247  0.0757  0.7595
  253MPD2     H 3891   0.340   0.312  14.625  1.7254 -1.7789  1.4900
  253MPD2    H1 3892   0.755   0.281  14.578  0.0753 -0.1284 -1.9343
  253MPD2    H2 3893   0.515   0.280  14.232  1.4224 -0.1449  0.4424
  253MPD2    H3 3894   0.722   0.248  14.338 -0.2005 -1.1438  1.6581
  253MPD2     N 3895   0.574   0.372  14.746  0.3247 -0.0859  0.1565
  253MPD2    H5 3896   0.668   0.374  14.785  0.4255  1.0406 -0.1578
  253MPD2    N1 3897   0.275   0.306  14.377 -0.1215 -0.7579 -0.6347
  253MPD2    H7 3898   0.202   0.297  14.447  1.3944  3.0051  1.4681
  254TMC3    C1 3899   0.502   0.484  14.952 -0.2063 -0.7217 -0.2349
  254TMC3    C2 3900   0.401   0.553  15.018  0.3327  0.6071 -0.4224
  254TMC3    C3 3901   0.407   0.587  15.150  0.2054 -0.0777  0.6169
  254TMC3    C4 3902   0.614   0.451  15.024 -0.0200 -0.6644  0.1509
  254TMC3    C5 3903   0.611   0.474  15.158  0.3430  0.2370  0.3749
  254TMC3    C6 3904   0.513   0.545  15.219 -0.6239  0.0968  0.2677
  254TMC3     C 3905   0.474   0.436  14.818 -0.5386  0.3730 -0.3133
  254TMC3     O 3906   0.359   0.462  14.776  0.3244 -0.2498 -0.3773
  254TMC3     H 3907   0.310   0.568  14.962 -1.4686  0.1867  2.4322
  254TMC3    H1 3908   0.698   0.399  14.981  1.0920 -0.4582  2.0492
  254TMC3    H2 3909   0.519   0.559  15.326 -2.6453  1.7923  0.1550
  254TMC3    C7 3910   0.726   0.426  15.225 -0.6399 -0.5298  0.8143
  254TMC3    C8 3911   0.296   0.623  15.230 -0.0187  0.6553 -0.6736
  254TMC3    O1 3912   0.829   0.476  15.172 -0.1823 -0.0806  0.5708
  254TMC3    O2 3913   0.301   0.598  15.350  0.3954  0.4113  0.3053
  255MPD2     C 3914   2.856   3.450   9.867 -0.1705  0.0156 -0.2987
  255MPD2    C1 3915   2.947   3.530   9.929  0.1274  0.3121 -0.7125
  255MPD2    C2 3916   3.043   3.590   9.847  0.4333  0.0487 -0.9118
  255MPD2    C3 3917   3.034   3.593   9.713  0.0395 -0.5219 -0.5444
  255MPD2    C4 3918   2.931   3.526   9.646  0.1529 -0.0976  0.0410
  255MPD2    C5 3919   2.851   3.452   9.728  0.2226  0.1312  0.4432
  255MPD2     H 3920   3.111   3.648   9.908  0.2391  0.1618 -0.7987
  255MPD2    H1 3921   2.923   3.512   9.539  1.0599  0.5304 -0.1056
  255MPD2    H2 3922   2.778   3.393   9.916  0.2253 -0.1967  0.0749
  255MPD2    H3 3923   2.775   3.388   9.683  0.2587  0.0373  0.5135
  255MPD2     N 3924   3.134   3.672   9.656  0.9587 -0.5509  0.3697
  255MPD2    H5 3925   3.187   3.736   9.714  0.7446  0.0402 -0.0842
  255MPD2    N1 3926   2.958   3.559  10.070  0.1615  0.3831  0.0409
  255MPD2    H7 3927   3.037   3.615  10.098 -1.6897  2.4750  1.0975
  256TMC3    C1 3928   2.869   3.603  10.283 -0.3458 -0.1216 -0.4455
  256TMC3    C2 3929   2.992   3.674  10.284 -0.6567  0.4732 -0.4369
  256TMC3    C3 3930   2.983   3.806  10.296  0.2211  0.3215 -0.1662
  256TMC3    C4 3931   2.752   3.670  10.312 -0.5232 -0.4079  0.4694
  256TMC3    C5 3932   2.747   3.810  10.315  0.4159  0.3384  0.1703
  256TMC3    C6 3933   2.867   3.883  10.314 -0.6556 -0.3320  0.4805
  256TMC3     C 3934   2.850   3.535  10.156 -0.8077  0.3593 -1.2234
  256TMC3     O 3935   2.738   3.492  10.130  0.0588 -0.0316  0.1532
  256TMC3     H 3936   3.086   3.623  10.301 -0.5663  0.9873  0.6485
  256TMC3    H1 3937   2.666   3.604  10.307  1.1947 -2.5981 -0.3124
  256TMC3    H2 3938   2.871   3.991  10.318 -3.5347 -0.2479  1.1501
  256TMC3    C7 3939   2.636   3.856  10.235  0.3842 -0.2502 -0.5274
  256TMC3    C8 3940   3.109   3.869  10.274 -0.5685  0.1658  0.5801
  256TMC3    O1 3941   2.563   3.768  10.191  0.7181 -0.3430  0.1700
  256TMC3    O2 3942   3.211   3.819  10.329  0.0755 -0.2400  0.3403
  257MPD2     C 3943   2.145   0.501  13.396 -0.3678 -0.8251  0.4895
  257MPD2    C1 3944   2.208   0.417  13.305 -0.2312 -0.0418  0.3827
  257MPD2    C2 3945   2.304   0.324  13.335 -0.5391  0.7384  0.4270
  257MPD2    C3 3946   2.327   0.307  13.475 -0.9179  0.3660 -0.1170
  257MPD2    C4 3947   2.264   0.391  13.568 -0.0308  0.6295  0.2023
  257MPD2    C5 3948   2.178   0.486  13.525  0.3149  0.3333 -0.3960
  257MPD2     H 3949   2.357   0.261  13.264 -2.1470  0.0941 -0.1853
  257MPD2    H1 3950   2.283   0.397  13.675 -2.8657  1.8926  0.6284
  257MPD2    H2 3951   2.074   0.577  13.365 -0.2667 -1.2908 -0.8997
  257MPD2    H3 3952   2.130   0.545  13.602 -0.9445 -2.1996  0.7709
  257MPD2     N 3953   2.420   0.210  13.518  0.5460  0.0086  0.4972
  257MPD2    H5 3954   2.471   0.166  13.442  0.9939  1.6214 -0.1332
  257MPD2    N1 3955   2.173   0.445  13.168 -0.1186  0.3518 -0.3179
  257MPD2    H7 3956   2.106   0.520  13.155 -3.1846 -2.2396  0.7418
  258TMC3    C1 3957   2.561   0.108  13.678  0.3736  0.1024 -0.1827
  258TMC3    C2 3958   2.668   0.119  13.590 -0.6294 -0.1779  0.4151
  258TMC3    C3 3959   2.797   0.077  13.631  0.1307  0.2409 -0.8858
  258TMC3    C4 3960   2.577   0.051  13.797 -0.4164 -1.1841  0.6655
  258TMC3    C5 3961   2.704   0.012  13.837  0.2323 -0.4578 -0.7207
  258TMC3    C6 3962   2.820   0.026  13.758 -0.1751 -0.4110  0.1624
  258TMC3     C 3963   2.445   0.184  13.652 -0.4268  0.0150  0.0293
  258TMC3     O 3964   2.383   0.226  13.749 -0.0691 -0.2126 -0.0823
  258TMC3     H 3965   2.664   0.194  13.511  0.1947 -3.1655 -2.4256
  258TMC3    H1 3966   2.484   0.039  13.850 -0.5925 -0.7326  0.4584
  258TMC3    H2 3967   2.918   4.735  13.794  0.2727 -0.5342 -1.1482
  258TMC3    C7 3968   2.716   4.671  13.962 -0.2731  0.3724 -0.0851
  258TMC3    C8 3969   2.908   0.101  13.537 -0.1314 -0.3158 -0.9155
  258TMC3    O1 3970   2.616   4.617  13.996 -0.3453  0.2837  0.2613
  258TMC3    O2 3971   3.019   0.082  13.583 -0.3548 -0.0536  0.1204
  259MPD2     C 3972   1.912   2.047   0.725 -0.3514  0.6178  0.4469
  259MPD2    C1 3973   1.892   1.915   0.692  0.7514  0.2630 -0.2395
  259MPD2    C2 3974   1.856   1.886   0.556  0.4565 -0.3711  0.4507
  259MPD2    C3 3975   1.837   1.983   0.468  0.3381 -0.2070  0.2719
  259MPD2    C4 3976   1.855   2.110   0.507 -0.0876  0.0008 -0.1571
  259MPD2    C5 3977   1.893   2.146   0.632 -0.5356  0.1770  0.3309
  259MPD2     H 3978   1.825   1.786   0.528  2.4616 -0.0902 -2.7564
  259MPD2    H1 3979   1.835   2.190   0.436  1.9776  1.3944  0.8185
  259MPD2    H2 3980   1.908   2.078   0.828  3.0525 -2.6243  1.5602
  259MPD2    H3 3981   1.914   2.249   0.659 -1.6507  0.5104 -0.0893
  259MPD2     N 3982   1.802   1.948   0.338 -0.4698  0.2062 -1.0411
  259MPD2    H5 3983   1.828   1.855   0.307  0.1967  0.4205 -1.1263
  259MPD2    N1 3984   1.894   1.815   0.795  0.2312 -0.5163  0.1237
  259MPD2    H7 3985   1.933   1.839   0.885  0.8598  1.4127 -0.6620
  260TMC3    C1 3986   1.755   1.969   0.111 -0.1997  0.0203 -0.0071
  260TMC3    C2 3987   1.774   2.047  17.749  0.2212 -0.1118  1.4611
  260TMC3    C3 3988   1.728   2.002  17.626 -0.1412  0.0397 -0.5381
  260TMC3    C4 3989   1.704   1.839   0.111 -0.5486  0.2323  0.4231
  260TMC3    C5 3990   1.661   1.810  17.737 -0.0022  0.1658 -0.6999
  260TMC3    C6 3991   1.671   1.883  17.621 -0.1694  0.1101  0.6097
  260TMC3     C 3992   1.778   2.035   0.237  0.4143  0.1120  0.1099
  260TMC3     O 3993   1.747   2.150   0.232 -0.1104 -0.0696 -0.2705
  260TMC3     H 3994   1.813   2.148   0.009 -0.9584  0.5995 -0.5923
  260TMC3    H1 3995   1.695   1.776   0.199 -0.8542 -1.4697 -0.8054
  260TMC3    H2 3996   1.634   1.855  17.523  1.5898  0.3297 -0.1013
  260TMC3    C7 3997   1.618   1.673  17.715  0.0817 -0.3312 -0.1138
  260TMC3    C8 3998   1.797   2.040  17.510 -0.3666  0.1023 -0.1468
  260TMC3    O1 3999   1.608   1.646  17.598 -0.3644  0.1285  0.2728
  260TMC3    O2 4000   1.810   2.160  17.491 -0.1069  0.0128  0.1468
  261MPD2     C 4001   2.999   0.442  11.508 -0.2143  0.3384  0.4211
  261MPD2    C1 4002   2.946   0.507  11.622 -0.1785 -0.8485  0.8498
  261MPD2    C2 4003   2.828   0.587  11.601 -0.5092 -0.9980 -0.0883
  261MPD2    C3 4004   2.754   0.570  11.482  0.3838 -0.7786  0.2262
  261MPD2    C4 4005   2.809   0.496  11.373  0.3523  0.2550 -0.1799
  261MPD2    C5 4006   2.927   0.436  11.393  0.2884  0.2244 -0.1582
  261MPD2     H 4007   2.793   0.653  11.679  1.0467  1.0973 -1.1571
  261MPD2    H1 4008   2.766   0.474  11.276 -0.6613 -0.5401  0.4515
  261MPD2    H2 4009   3.098   0.397  11.513 -0.3029  0.2033  0.9538
  261MPD2    H3 4010   2.971   0.375  11.314  0.3646  1.1375 -0.8134
  261MPD2     N 4011   2.623   0.629  11.474  0.2538  0.3771 -0.2437
  261MPD2    H5 4012   2.594   0.681  11.557 -1.6880  0.3111 -0.8869
  261MPD2    N1 4013   3.013   0.498  11.748 -0.4855  0.1593 -0.0497
  261MPD2    H7 4014   3.080   0.422  11.750 -1.4648 -0.6637  1.4862
  262TMC3    C1 4015   2.428   0.712  11.379  0.4386 -0.0826  0.1855
  262TMC3    C2 4016   2.392   0.768  11.497 -0.5903  0.0599 -0.9810
  262TMC3    C3 4017   2.320   0.885  11.493  0.5972 -0.8359 -0.1413
  262TMC3    C4 4018   2.403   0.779  11.256  0.0545 -0.3327 -0.0924
  262TMC3    C5 4019   2.349   0.904  11.264 -0.6536  0.6633  0.0944
  262TMC3    C6 4020   2.307   0.954  11.378  0.6451 -0.0368 -0.4261
  262TMC3     C 4021   2.529   0.613  11.375 -0.0585 -0.2671  0.0394
  262TMC3     O 4022   2.535   0.541  11.271  0.1254  0.3647 -0.2310
  262TMC3     H 4023   2.405   0.710  11.588  0.8461  0.5127 -0.9040
  262TMC3    H1 4024   2.448   0.747  11.163  0.9245  0.2845  0.1135
  262TMC3    H2 4025   2.266   1.054  11.385  2.1969  0.5567  0.0906
  262TMC3    C7 4026   2.449   0.994  11.217 -0.2597 -0.5340  0.3227
  262TMC3    C8 4027   2.306   0.956  11.619 -0.1292  0.3960 -0.3207
  262TMC3    O1 4028   2.492   0.981  11.106 -0.1530 -0.1921  0.0922
  262TMC3    O2 4029   2.333   1.075  11.625 -0.4323  0.7111 -0.1257
  263MPD2     C 4030   3.838   0.271  11.132 -1.2361  1.1079  0.0754
  263MPD2    C1 4031   3.963   0.227  11.100 -0.2719  0.3593  0.3606
  263MPD2    C2 4032   3.995   0.249  10.968 -0.1368 -0.5066  0.3530
  263MPD2    C3 4033   3.904   0.291  10.874  0.1919  0.4151  0.2746
  263MPD2    C4 4034   3.778   0.329  10.909  0.1844  0.0915 -0.5244
  263MPD2    C5 4035   3.748   0.316  11.045  0.7836  0.5487 -0.1672
  263MPD2     H 4036   4.095   0.232  10.930  0.7098  1.7722  1.6095
  263MPD2    H1 4037   3.702   0.358  10.837  1.2899  0.9412 -1.3572
  263MPD2    H2 4038   3.800   0.251  11.232 -0.8763 -0.1295 -0.0336
  263MPD2    H3 4039   3.652   0.345  11.086  1.7854  1.1884  1.6945
  263MPD2     N 4040   3.961   0.312  10.747  0.1170  0.4620 -0.1001
  263MPD2    H5 4041   4.063   0.312  10.747  0.1157 -2.2746  1.1446
  263MPD2    N1 4042   4.042   0.148  11.189 -0.5546 -0.6549  0.8089
  263MPD2    H7 4043   3.994   0.131  11.277  0.9157  1.0866  1.9498
  264TMC3    C1 4044   3.983   0.359  10.516  0.3751 -0.5444  0.0871
  264TMC3    C2 4045   3.932   0.407  10.396  0.4128  0.2330 -0.3370
  264TMC3    C3 4046   4.016   0.423  10.289  0.4687 -0.2770  0.3319
  264TMC3    C4 4047   4.113   0.310  10.520  0.0711 -0.2158  0.3789
  264TMC3    C5 4048   4.194   0.332  10.405 -0.2137  0.2111  0.3700
  264TMC3    C6 4049   4.144   0.383  10.287  0.1568 -0.2954  0.0108
  264TMC3     C 4050   3.893   0.325  10.625 -0.0598  0.5626  1.2510
  264TMC3     O 4051   3.772   0.337  10.611  0.0012  0.2838 -0.4524
  264TMC3     H 4052   3.833   0.448  10.407 -0.0310 -0.8816 -0.2221
  264TMC3    H1 4053   4.159   0.263  10.606 -1.4669 -0.2542  1.1838
  264TMC3    H2 4054   4.214   0.417  10.212 -1.5719 -0.3431 -1.6062
  264TMC3    C7 4055   4.334   0.333  10.419 -0.2738  0.4379  0.0878
  264TMC3    C8 4056   3.963   0.490  10.170 -0.1124  0.1760 -0.8152
  264TMC3    O1 4057   4.398   0.335  10.315 -0.1014 -0.4046  0.1005
  264TMC3    O2 4058   3.966   0.435  10.060 -0.5199  0.0302 -0.0584
  265MPD2     C 4059   1.313   4.695  15.346  0.4511  0.0481  0.0264
  265MPD2    C1 4060   1.439   4.708  15.394  0.3213  0.1511  0.3362
  265MPD2    C2 4061   1.539   4.640  15.332 -0.1636  0.1375  0.4230
  265MPD2    C3 4062   1.510   4.547  15.229  0.2358  0.0855  0.3314
  265MPD2    C4 4063   1.379   4.518  15.200 -0.5678 -0.1734 -0.5525
  265MPD2    C5 4064   1.282   4.600  15.252 -0.4751 -0.4523 -0.4148
  265MPD2     H 4065   1.643   4.657  15.358 -0.5291 -1.4590  2.9397
  265MPD2    H1 4066   1.365   4.435  15.131  2.6630 -0.2938 -1.0840
  265MPD2    H2 4067   1.238   0.027  15.380  1.0664  0.0398  1.4067
  265MPD2    H3 4068   1.177   4.583  15.228 -0.8420  1.4021 -0.0658
  265MPD2     N 4069   1.608   4.473  15.162 -0.1238 -0.4346  1.0730
  265MPD2    H5 4070   1.578   4.421  15.081 -0.5169 -0.6759  1.3698
  265MPD2    N1 4071   1.458   0.069  15.494  0.4926 -0.3367 -0.0351
  265MPD2    H7 4072   1.379   0.128  15.517  1.2002  0.8053 -0.5498
  266TMC3    C1 4073   1.573   0.210  15.639  0.0950 -0.2524 -0.4864
  266TMC3    C2 4074   1.647   0.225  15.748 -0.1645  0.3327  0.2698
  266TMC3    C3 4075   1.653   0.348  15.805  0.0492  0.3590  0.1264
  266TMC3    C4 4076   1.504   0.312  15.578 -0.7085 -0.1307  0.0347
  266TMC3    C5 4077   1.499   0.428  15.646  0.1690  0.0392  0.4202
  266TMC3    C6 4078   1.573   0.449  15.761  0.0060 -0.7227 -0.5133
  266TMC3     C 4079   1.574   0.084  15.570  0.0685  0.3400  0.6555
  266TMC3     O 4080   1.655   0.001  15.605 -0.2226  0.1589 -0.0984
  266TMC3     H 4081   1.708   0.142  15.783 -0.3518  0.9680  2.0884
  266TMC3    H1 4082   1.441   0.292  15.492 -1.1247  1.4591 -0.0332
  266TMC3    H2 4083   1.567   0.548  15.804  0.3034 -1.1409  0.4882
  266TMC3    C7 4084   1.404   0.533  15.606 -0.1030 -0.8759  0.3311
  266TMC3    C8 4085   1.759   0.366  15.908 -0.0463  0.3020  0.0984
  266TMC3    O1 4086   1.365   0.613  15.688 -0.3336  0.2253  0.3795
  266TMC3    O2 4087   1.832   0.269  15.927 -0.4356  0.2145 -0.1141
  267MPD2     C 4088   3.751   1.760  17.295  0.5336 -0.1057 -0.2668
  267MPD2    C1 4089   3.838   1.709  17.386  0.1739 -0.4600  0.0603
  267MPD2    C2 4090   3.787   1.654  17.502  0.0716  0.1431  0.4646
  267MPD2    C3 4091   3.652   1.640  17.521  0.0960  0.2121 -1.0267
  267MPD2    C4 4092   3.565   1.677  17.422  0.2586  0.0372  0.3079
  267MPD2    C5 4093   3.617   1.746  17.314  0.0733  0.4150 -0.2742
  267MPD2     H 4094   3.853   1.626  17.584 -0.6831 -0.5601  0.8273
  267MPD2    H1 4095   3.460   1.665  17.444  0.1978  0.0811  0.0285
  267MPD2    H2 4096   3.789   1.812  17.208 -0.8957  1.0325 -0.2292
  267MPD2    H3 4097   3.549   1.798  17.248 -1.5387 -0.5061  0.6576
  267MPD2     N 4098   3.588   1.582  17.635  0.0093 -0.3590  0.6714
  267MPD2    H5 4099   3.489   1.565  17.621 -0.1405  0.2196  1.0434
  267MPD2    N1 4100   3.974   1.725  17.357  0.0275 -0.1057  0.5879
  267MPD2    H7 4101   3.996   1.776  17.272 -2.7993  1.1967  0.6504
  268TMC3    C1 4102   4.199   1.684  17.369  0.7935  0.3710  0.4006
  268TMC3    C2 4103   4.249   1.807  17.347  0.0598  0.3717  0.2345
  268TMC3    C3 4104   4.387   1.811  17.372 -0.7461  0.2886 -0.7697
  268TMC3    C4 4105   4.281   1.571  17.388 -0.4849 -0.6825 -0.0633
  268TMC3    C5 4106   4.413   1.586  17.395 -0.3715 -0.3148  0.7880
  268TMC3    C6 4107   4.471   1.709  17.395  0.0403 -0.0283 -0.0890
  268TMC3     C 4108   4.072   1.675  17.437 -0.1348 -0.1877 -0.2250
  268TMC3     O 4109   4.068   1.608  17.537  0.0820  0.3438 -0.2290
  268TMC3     H 4110   4.185   1.894  17.350  1.4685  1.5067 -2.7911
  268TMC3    H1 4111   4.238   1.476  17.418 -1.4949 -0.1421  0.1843
  268TMC3    H2 4112   4.577   1.725  17.410  0.0784 -1.0907  0.8157
  268TMC3    C7 4113   4.498   1.477  17.442 -0.6921  0.7337 -0.5166
  268TMC3    C8 4114   4.448   1.942  17.370 -0.1964  0.2068  0.2851
  268TMC3    O1 4115   4.605   1.502  17.494 -0.0677 -0.1340  0.3223
  268TMC3    O2 4116   4.549   1.957  17.442  0.5872 -0.1516 -0.1331
  269MPD2     C 4117   4.535   1.160  14.959 -0.0765 -0.0560 -0.3893
  269MPD2    C1 4118   4.410   1.142  15.017  0.4318  0.3317  0.0088
  269MPD2    C2 4119   4.328   1.255  15.050  0.6541  0.0533  1.3515
  269MPD2    C3 4120   4.387   1.383  15.027  0.2145  0.0900  0.0498
  269MPD2    C4 4121   4.510   1.395  14.966  0.3055  0.5204  0.0573
  269MPD2    C5 4122   4.582   1.284  14.931  0.1871  0.1176 -0.3631
  269MPD2     H 4123   4.234   1.261  15.103 -0.1306  2.4875 -0.3383
  269MPD2    H1 4124   4.541   1.494  14.934 -1.4956  1.3962  1.0079
  269MPD2    H2 4125   4.597   1.078  14.925 -0.0577 -0.2344  0.0767
  269MPD2    H3 4126   4.674   1.284  14.873  0.2309 -2.4086 -0.3042
  269MPD2     N 4127   4.315   1.498  15.082  0.1939 -0.0464 -0.4957
  269MPD2    H5 4128   4.214   1.492  15.091  0.3489  1.0062  1.8244
  269MPD2    N1 4129   4.380   1.009  15.043 -0.0037  0.4617 -0.1221
  269MPD2    H7 4130   4.448   0.942  15.009 -1.2141 -0.5386 -0.5532
  270TMC3    C1 4131   4.265   0.821  15.144  0.5327  0.1607  0.2566
  270TMC3    C2 4132   4.137   0.773  15.177 -0.6160  0.3810 -0.3570
  270TMC3    C3 4133   4.133   0.641  15.217 -0.2120 -0.5109 -0.6632
  270TMC3    C4 4134   4.381   0.749  15.156  0.0740 -0.8179  0.8187
  270TMC3    C5 4135   4.374   0.625  15.208  0.8290 -0.0418 -0.2949
  270TMC3    C6 4136   4.250   0.565  15.237  0.1991  0.1988  1.0619
  270TMC3     C 4137   4.276   0.964  15.121 -0.8946 -0.0871  0.1011
  270TMC3     O 4138   4.188   1.022  15.182  0.7686 -0.1990 -0.6218
  270TMC3     H 4139   4.042   0.823  15.170 -0.8954  0.1205  1.5632
  270TMC3    H1 4140   4.480   0.794  15.151 -1.4077  1.9032 -4.1189
  270TMC3    H2 4141   4.251   0.464  15.278  2.8954 -0.7404 -1.3436
  270TMC3    C7 4142   4.492   0.539  15.200 -0.3806  0.5384 -0.4442
  270TMC3    C8 4143   4.032   0.563  15.144  0.9176 -0.1865 -0.0608
  270TMC3    O1 4144   4.479   0.439  15.269  0.1370  0.7124  0.0668
  270TMC3    O2 4145   3.968   0.628  15.064 -0.6492 -0.4207  0.3103
  271MPD2     C 4146   2.990   0.648  13.996 -0.4366  0.0162 -0.1081
  271MPD2    C1 4147   2.922   0.615  14.109  0.1013 -0.3260  0.2178
  271MPD2    C2 4148   2.796   0.658  14.129 -0.0203 -0.1894  0.2562
  271MPD2    C3 4149   2.730   0.726  14.020 -0.6681 -0.5521 -1.0458
  271MPD2    C4 4150   2.802   0.763  13.912  0.3109 -1.6417 -0.2763
  271MPD2    C5 4151   2.932   0.720  13.899  1.0125 -0.4508  0.2048
  271MPD2     H 4152   2.741   0.624  14.217  1.2433  0.6080  1.3490
  271MPD2    H1 4153   2.754   0.814  13.830  0.5345 -0.0658  0.5863
  271MPD2    H2 4154   3.082   0.598  13.969  0.1323  1.5208 -0.9629
  271MPD2    H3 4155   2.985   0.731  13.805  0.7535  1.2118  0.2359
  271MPD2     N 4156   2.594   0.772  14.027  0.6164 -0.5238 -0.3419
  271MPD2    H5 4157   2.561   0.807  13.938  1.3054  0.8418 -0.0632
  271MPD2    N1 4158   2.979   0.535  14.207  0.7698 -0.1402  1.0163
  271MPD2    H7 4159   2.917   0.512  14.285  0.4330  1.4082  1.2185
  272TMC3    C1 4160   3.150   0.382  14.290  0.5341 -0.3333  0.5316
  272TMC3    C2 4161   3.254   0.311  14.235  0.7443 -0.7708 -0.1330
  272TMC3    C3 4162   3.366   0.287  14.303 -0.6654 -0.3002  0.1722
  272TMC3    C4 4163   3.154   0.411  14.425 -0.1629 -0.5213 -0.0899
  272TMC3    C5 4164   3.271   0.392  14.489  0.3353  1.0887 -0.1880
  272TMC3    C6 4165   3.379   0.326  14.439  0.1382  0.5973 -0.0383
  272TMC3     C 4166   3.116   0.494  14.208  0.3625 -0.6150  0.3603
  272TMC3     O 4167   3.208   0.527  14.139 -0.2728  0.0503  1.0768
  272TMC3     H 4168   3.251   0.301  14.127  1.7060  2.1735 -0.4419
  272TMC3    H1 4169   3.080   0.473  14.473 -0.7909 -1.8424  0.6522
  272TMC3    H2 4170   3.466   0.318  14.502 -0.1220 -0.5573  0.1719
  272TMC3    C7 4171   3.279   0.411  14.630  0.5174  0.5955  0.2784
  272TMC3    C8 4172   3.467   0.226  14.220 -0.9061  0.0359 -0.0958
  272TMC3    O1 4173   3.193   0.356  14.700  0.2722 -0.0450  0.5132
  272TMC3    O2 4174   3.443   0.199  14.103  0.0648 -0.1110 -0.2311
  273MPD2     C 4175   4.586   3.425  11.470 -0.2352 -0.0735  0.3406
  273MPD2    C1 4176   4.694   3.477  11.418  0.4071 -0.4715 -0.4172
  273MPD2    C2 4177   4.694   3.515  11.280  0.4793  0.1585 -0.0165
  273MPD2    C3 4178   4.582   3.490  11.203  0.8119  0.0390  0.3542
  273MPD2    C4 4179   4.479   3.433  11.263 -0.1921 -0.7726 -0.1486
  273MPD2    C5 4180   4.478   3.394  11.393  0.0569  0.2529 -0.2020
  273MPD2     H 4181   0.046   3.548  11.232  0.8359 -1.6917 -0.6232
  273MPD2    H1 4182   4.387   3.415  11.209 -1.5395  5.1546  0.1719
  273MPD2    H2 4183   4.576   3.393  11.573 -0.8568 -0.4673  0.1609
  273MPD2    H3 4184   4.402   3.339  11.448 -2.0408  3.1368 -0.2401
  273MPD2     N 4185   4.578   3.529  11.067  0.1998 -0.1435 -0.0757
  273MPD2    H5 4186   4.490   3.509  11.019 -0.8855  2.1585  0.9664
  273MPD2    N1 4187   0.068   3.499  11.508 -0.4251  0.5627  0.4084
  273MPD2    H7 4188   0.051   3.449  11.595 -1.1178 -0.8339 -0.5278
  274TMC3    C1 4189   4.621   3.663  10.888  0.0659  1.0019  0.4240
  274TMC3    C2 4190   4.497   3.620  10.849  0.5683  0.2412  0.0266
  274TMC3    C3 4191   4.396   3.707  10.825  0.1084 -0.1425  0.6988
  274TMC3    C4 4192   4.646   3.794  10.900  0.6275 -1.1390  0.3511
  274TMC3    C5 4193   4.540   3.880  10.876  0.1768  0.0513  0.5563
  274TMC3    C6 4194   4.422   3.839  10.829 -0.4655 -0.3070  0.2929
  274TMC3     C 4195   4.677   3.599  11.000 -0.0960 -0.1285  0.4339
  274TMC3     O 4196   0.045   3.644  11.037  0.2343 -0.3992 -0.0273
  274TMC3     H 4197   4.470   3.517  10.829 -1.5744  0.3181  2.5415
  274TMC3    H1 4198   0.012   3.822  10.912  0.4363  1.4178 -3.8658
  274TMC3    H2 4199   4.337   3.901  10.854 -2.0683 -2.0775 -0.7354
  274TMC3    C7 4200   4.535   3.998  10.958  0.2776  0.0400 -0.2784
  274TMC3    C8 4201   4.268   3.666  10.760 -0.0650 -0.1992  0.2417
  274TMC3    O1 4202   4.463   4.089  10.920  0.3119 -0.0391 -0.3152
  274TMC3    O2 4203   4.229   3.549  10.769 -0.3781  0.0083 -0.3220
  275MPD2     C 4204   4.387   1.658  13.991  0.2393 -0.5014  0.4700
  275MPD2    C1 4205   4.363   1.548  14.059 -1.0137  0.7501  0.1237
  275MPD2    C2 4206   4.245   1.479  14.032 -0.3138 -0.4442  0.3793
  275MPD2    C3 4207   4.161   1.525  13.924 -0.0237 -0.1067  0.4755
  275MPD2    C4 4208   4.200   1.629  13.841  0.3191 -0.2802 -0.5649
  275MPD2    C5 4209   4.308   1.703  13.884  0.4488  0.0520 -0.1425
  275MPD2     H 4210   4.222   1.396  14.098  0.4695 -0.5420  0.5279
  275MPD2    H1 4211   4.137   1.664  13.760 -0.4641 -3.3389 -1.2944
  275MPD2    H2 4212   4.462   1.733  14.015  1.5374 -1.4310 -0.7001
  275MPD2    H3 4213   4.343   1.794  13.837  0.4660  0.2718  0.2959
  275MPD2     N 4214   4.034   1.462  13.916  0.3965  0.3179  0.2900
  275MPD2    H5 4215   4.014   1.392  13.987  2.0812 -2.0924 -1.6098
  275MPD2    N1 4216   4.448   1.504  14.164  0.1922 -0.1555  0.2811
  275MPD2    H7 4217   4.440   1.414  14.211  0.8163  0.6375  1.9031
  276TMC3    C1 4218   4.619   1.538  14.330 -0.3899 -0.9825  0.1201
  276TMC3    C2 4219   4.684   1.420  14.306  0.7840  0.2204 -0.5166
  276TMC3    C3 4220   0.047   1.382  14.393 -0.2977 -0.2940 -0.7035
  276TMC3    C4 4221   4.681   1.626  14.414 -0.2670  0.0313  0.2437
  276TMC3    C5 4222   0.042   1.587  14.502 -0.3956 -0.3031 -0.4538
  276TMC3    C6 4223   0.097   1.463  14.494 -0.4634 -0.2439 -0.0710
  276TMC3     C 4224   4.528   1.595  14.230  0.3940  0.3707 -0.3898
  276TMC3     O 4225   4.533   1.718  14.223  0.3875 -0.4880 -0.2276
  276TMC3     H 4226   4.661   1.361  14.218 -0.8411 -2.2221  1.5443
  276TMC3    H1 4227   4.663   1.733  14.405 -1.9892 -0.3959 -1.2650
  276TMC3    H2 4228   0.165   1.424  14.568 -1.1390 -0.2748  0.5315
  276TMC3    C7 4229   0.069   1.656  14.624  0.2857  0.5058  0.1006
  276TMC3    C8 4230   0.144   1.272  14.357 -0.0761 -0.1939  0.0304
  276TMC3    O1 4231   0.153   1.611  14.696  0.2065 -0.4228  0.4075
  276TMC3    O2 4232   0.251   1.273  14.416  1.0319  0.3535 -0.0399
  277MPD2     C 4233   1.393   0.870  13.177 -0.1356 -0.2328  0.3312
  277MPD2    C1 4234   1.266   0.870  13.238 -0.2973 -0.2678  0.0538
  277MPD2    C2 4235   1.253   0.793  13.353 -0.0715 -0.1098 -0.1713
  277MPD2    C3 4236   1.339   0.705  13.401 -0.0597 -0.3377  0.1437
  277MPD2    C4 4237   1.461   0.702  13.336 -0.0221  0.1912 -0.3979
  277MPD2    C5 4238   1.490   0.783  13.226  0.4552 -0.3108  0.5903
  277MPD2     H 4239   1.163   0.808  13.411 -0.2158 -0.1040 -0.3982
  277MPD2    H1 4240   1.551   0.645  13.359 -0.5772 -0.3002  0.5343
  277MPD2    H2 4241   1.414   0.937  13.094 -3.3272  0.1967 -0.1286
  277MPD2    H3 4242   1.586   0.782  13.176 -0.9900  1.1005 -2.1525
  277MPD2     N 4243   1.314   0.646  13.526  0.7231  0.3121  0.6196
  277MPD2    H5 4244   1.229   0.681  13.568  1.5966 -0.4003  2.9348
  277MPD2    N1 4245   1.160   0.954  13.192 -0.2655  0.4126  0.5365
  277MPD2    H7 4246   1.184   1.018  13.117  0.1931  0.3253  0.6052
  278TMC3    C1 4247   1.353   0.494  13.703 -0.4238 -0.1509 -0.2046
  278TMC3    C2 4248   1.390   0.362  13.728  0.2972 -0.0239  0.0503
  278TMC3    C3 4249   1.336   0.295  13.837 -0.1587  0.1902  0.1257
  278TMC3    C4 4250   1.265   0.560  13.780 -0.0155 -0.1260 -0.4273
  278TMC3    C5 4251   1.207   0.491  13.881 -0.1216 -0.7783 -0.2285
  278TMC3    C6 4252   1.235   0.359  13.912  0.1402  0.5589 -0.4306
  278TMC3     C 4253   1.397   0.548  13.577 -0.1667 -0.1605  0.2621
  278TMC3     O 4254   1.495   0.498  13.530  0.1935  0.1435  0.2815
  278TMC3     H 4255   1.466   0.312  13.668  0.1765  1.6901 -1.5481
  278TMC3    H1 4256   1.242   0.666  13.773  1.5367  0.2487  0.1225
  278TMC3    H2 4257   1.182   0.308  13.991  0.1070  0.8909 -0.2406
  278TMC3    C7 4258   1.086   0.558  13.929 -0.5782  0.5664 -0.1792
  278TMC3    C8 4259   1.379   0.155  13.868  0.6461  0.4387 -1.0106
  278TMC3    O1 4260   1.089   0.678  13.958  0.5794  0.1687 -0.3718
  278TMC3    O2 4261   1.361   0.103  13.980  0.6804 -0.2484 -0.1137
  279MPD2     C 4262   1.180   4.657  17.603  0.1830  0.9665  0.3197
  279MPD2    C1 4263   1.187   0.055  17.623 -0.1068  0.7321 -0.8683
  279MPD2    C2 4264   1.179   0.144  17.515 -0.1873  0.1476  0.1091
  279MPD2    C3 4265   1.160   0.095  17.386  0.3783 -0.7497  0.3931
  279MPD2    C4 4266   1.134   4.699  17.384  0.0099 -0.0578 -0.1866
  279MPD2    C5 4267   1.148   4.609  17.483  0.0330 -0.6663 -0.1082
  279MPD2     H 4268   1.185   0.249  17.541  1.0862 -0.4866  2.3853
  279MPD2    H1 4269   1.106   4.651  17.291  3.2189  0.5753 -1.4799
  279MPD2    H2 4270   1.192   4.591  17.689  0.3558  0.0231 -0.4242
  279MPD2    H3 4271   1.127   4.503  17.473 -0.1637 -0.7117  0.7894
  279MPD2     N 4272   1.160   0.162  17.260 -0.4606 -0.0982  0.5226
  279MPD2    H5 4273   1.123   0.103  17.186  2.1747 -1.0380 -0.0553
  279MPD2    N1 4274   1.212   0.099  17.753  0.7431 -0.6374  0.6061
  279MPD2    H7 4275   1.267   0.031   0.051 -0.4464 -2.1061 -0.0952
  280TMC3    C1 4276   1.063   0.296   0.026  0.4489  0.5315  0.1796
  280TMC3    C2 4277   0.963   0.238  17.704  0.3052 -0.2210  0.6674
  280TMC3    C3 4278   0.862   0.320  17.657 -0.0216 -0.0948 -0.7416
  280TMC3    C4 4279   1.054   0.429   0.074 -0.3573 -0.0275  1.0158
  280TMC3    C5 4280   0.954   0.503   0.020 -0.8803  0.6955 -0.9116
  280TMC3    C6 4281   0.854   0.448  17.694 -0.5152  0.1509 -0.3288
  280TMC3     C 4282   1.193   0.228   0.049  0.1124  0.6424 -0.6358
  280TMC3     O 4283   1.258   0.277   0.141  0.1967  0.0153  0.7658
  280TMC3     H 4284   0.969   0.141  17.656  0.6259  0.5341 -0.8260
  280TMC3    H1 4285   1.131   0.469   0.138  0.8032 -0.2809 -0.2194
  280TMC3    H2 4286   0.758   0.495  17.682 -0.0201  1.7013  1.7202
  280TMC3    C7 4287   0.917   0.623   0.092 -0.2502  0.1509 -0.1730
  280TMC3    C8 4288   0.795   0.278  17.534  0.2870  0.7056 -0.0649
  280TMC3    O1 4289   0.949   0.632   0.210 -0.1109 -0.5178 -0.2981
  280TMC3    O2 4290   0.767   0.377  17.474  0.2206  0.1618  0.0596
  281TMC3    C1 4291   3.347   0.714  13.373  0.4141 -0.3044 -0.2916
  281TMC3    C2 4292   3.461   0.760  13.434 -0.0021 -0.1200 -0.0670
  281TMC3    C3 4293   3.584   0.697  13.421 -0.1365 -0.2686  0.4573
  281TMC3    C4 4294   3.357   0.598  13.296 -0.1148 -1.2183  0.1020
  281TMC3    C5 4295   3.478   0.541  13.282 -0.0751 -0.1168  0.0492
  281TMC3    C6 4296   3.594   0.586  13.339 -0.0851  0.1559 -0.5882
  281TMC3     C 4297   3.240   0.809  13.332  0.0401 -0.0443  0.7538
  281TMC3     O 4298   3.140   0.768  13.273  0.0050  0.2896 -0.5472
  281TMC3     H 4299   3.469   0.854  13.488  2.1191  0.9699 -2.2681
  281TMC3    H1 4300   3.274   0.558  13.239 -0.4668 -0.4329  0.0678
  281TMC3    H2 4301   3.685   0.529  13.326  0.3894  0.5738  0.9089
  281TMC3    C7 4302   3.472   0.404  13.223 -0.3588  0.1944  0.3588
  281TMC3    C8 4303   3.687   0.794  13.395  0.0853  0.4512  0.5462
  281TMC3    O1 4304   3.379   0.374  13.147 -0.0203  0.5384  0.0436
  281TMC3    O2 4305   3.709   0.871  13.485 -0.5015 -0.3089 -0.3656
  282MPD2     C 4306   1.865   2.214  14.972 -0.5824  0.3479 -0.9031
  282MPD2    C1 4307   1.725   2.213  14.984 -0.1637  0.7432 -0.1116
  282MPD2    C2 4308   1.650   2.203  14.869 -0.6840 -0.5411 -0.0313
  282MPD2    C3 4309   1.705   2.219  14.741 -0.2143 -0.5968  0.3047
  282MPD2    C4 4310   1.839   2.221  14.733  0.1979 -0.1898  0.2996
  282MPD2    C5 4311   1.924   2.221  14.847  0.4455 -0.2132 -0.0423
  282MPD2     H 4312   1.549   2.237  14.890 -0.6516  0.6804 -1.8915
  282MPD2    H1 4313   1.887   2.217  14.636 -0.4298 -0.2100 -0.0058
  282MPD2    H2 4314   1.914   2.218  15.069 -0.6968 -1.0415 -0.7987
  282MPD2    H3 4315   2.031   2.230  14.836  0.2534  0.0657 -1.6731
  282MPD2     N 4316   1.622   2.236  14.629  0.5411 -0.0579 -0.1272
  282MPD2    H5 4317   1.524   2.225  14.655  0.0834  1.4463 -1.1936
  282MPD2    N1 4318   1.677   2.216  15.115 -0.5964 -0.6636  0.3106
  282MPD2    H7 4319   1.743   2.240  15.189 -1.3594 -1.7179  1.3208
  283TMC3    C1 4320   1.527   2.217  15.298  0.5703 -0.1068  0.0798
  283TMC3    C2 4321   1.578   2.330  15.347 -0.2525 -0.4437 -0.4945
  283TMC3    C3 4322   1.508   2.377  15.460  0.2741  0.0638  0.1529
  283TMC3    C4 4323   1.421   2.142  15.347 -0.9535  0.3107  0.5615
  283TMC3    C5 4324   1.359   2.189  15.462 -0.1542 -0.1631 -0.1359
  283TMC3    C6 4325   1.397   2.314  15.519  0.0756 -0.0158  0.5010
  283TMC3     C 4326   1.545   2.191  15.154 -0.0772  0.1844  0.3221
  283TMC3     O 4327   1.459   2.133  15.084 -0.5349 -0.3916 -0.0045
  283TMC3     H 4328   1.661   2.390  15.309  0.4498 -1.2723 -0.2746
  283TMC3    H1 4329   1.390   2.050  15.298 -1.6816  0.9235 -0.1283
  283TMC3    H2 4330   1.348   2.368  15.599  0.7719  0.9639  0.2669
  283TMC3    C7 4331   1.253   2.123  15.523 -0.3965 -0.6756  0.2528
  283TMC3    C8 4332   1.551   2.504  15.508  0.0122 -1.0247  0.2013
  283TMC3    O1 4333   1.184   2.201  15.586 -0.0573  0.0593  0.4635
  283TMC3    O2 4334   1.548   2.525  15.628 -0.8215  0.6093  0.5071
  284MPD2     C 4335   4.055   1.192  11.862  0.6801 -0.8111  0.4151
  284MPD2    C1 4336   4.188   1.215  11.855  0.2448  0.6630 -0.8387
  284MPD2    C2 4337   4.259   1.262  11.970  0.0312  0.5916  0.6572
  284MPD2    C3 4338   4.198   1.276  12.093 -0.0538 -0.1389  0.0459
  284MPD2    C4 4339   4.060   1.246  12.105 -0.1649 -0.9100  0.6026
  284MPD2    C5 4340   3.993   1.205  11.987  0.0802 -0.1907  0.8211
  284MPD2     H 4341   4.365   1.284  11.971 -0.0575  1.0660 -1.4448
  284MPD2    H1 4342   3.999   1.268  12.193  0.1820  1.4811  0.2648
  284MPD2    H2 4343   3.992   1.168  11.777 -0.6292  0.4565  1.0418
  284MPD2    H3 4344   3.888   1.181  11.984 -0.0735  0.5040  0.6392
  284MPD2     N 4345   4.270   1.315  12.207 -0.1427 -0.3969 -0.3170
  284MPD2    H5 4346   4.365   1.341  12.180 -0.5301  0.5280 -0.7988
  284MPD2    N1 4347   4.245   1.216  11.729  0.0167  0.4866 -0.2118
  284MPD2    H7 4348   4.328   1.272  11.712 -1.3714  2.7768  0.4948
  285TMC3    C1 4349   4.282   1.181  11.499 -0.4038 -0.0881  0.2905
  285TMC3    C2 4350   4.344   1.088  11.427  0.3683 -0.5706 -0.1360
  285TMC3    C3 4351   4.452   1.136  11.353  0.0466 -0.2005 -0.0794
  285TMC3    C4 4352   4.334   1.314  11.516  0.2931  0.2604  0.6041
  285TMC3    C5 4353   4.450   1.352  11.439 -0.2969  1.0572  0.1736
  285TMC3    C6 4354   4.504   1.263  11.349 -0.0662 -0.5344 -0.0900
  285TMC3     C 4355   4.202   1.138  11.619 -0.2547  0.3860 -0.3876
  285TMC3     O 4356   4.137   1.034  11.618 -0.1976 -0.4797  0.0400
  285TMC3     H 4357   4.315   0.984  11.433  1.2031 -0.7102  1.5411
  285TMC3    H1 4358   4.286   1.387  11.581  1.1417  2.1516 -0.9206
  285TMC3    H2 4359   4.581   1.283  11.274 -0.2289 -0.1713 -0.1606
  285TMC3    C7 4360   4.494   1.487  11.466  0.3950  0.2057  0.0367
  285TMC3    C8 4361   4.511   1.036  11.279 -0.1543  0.1332 -0.5598
  285TMC3    O1 4362   4.416   1.561  11.529  0.0717  0.3045  0.0171
  285TMC3    O2 4363   4.438   0.960  11.221  0.2132 -0.0847  0.7722
  286MPD2     C 4364   0.433   0.574   1.579  1.2279  0.3928  0.2411
  286MPD2    C1 4365   0.364   0.578   1.459  0.6145  0.0094 -0.1200
  286MPD2    C2 4366   0.378   0.477   1.367  0.0432  0.0579 -0.1701
  286MPD2    C3 4367   0.474   0.378   1.384  0.5647 -0.6349  0.5931
  286MPD2    C4 4368   0.549   0.373   1.500 -0.3532  0.4212 -0.0939
  286MPD2    C5 4369   0.517   0.463   1.602 -0.0337 -0.5465  0.7868
  286MPD2     H 4370   0.325   0.480   1.273 -1.6978  0.4097  0.8231
  286MPD2    H1 4371   0.621   0.294   1.517  0.1404  0.9504  0.2819
  286MPD2    H2 4372   0.429   0.649   1.657 -0.5161 -2.7432  3.1453
  286MPD2    H3 4373   0.567   0.463   1.698  0.3607 -1.5532  0.5832
  286MPD2     N 4374   0.502   0.284   1.284 -0.0557 -0.2105 -0.5431
  286MPD2    H5 4375   0.579   0.222   1.306 -0.1424 -1.2961 -3.3336
  286MPD2    N1 4376   0.280   0.690   1.428 -0.6389  0.1923  0.5873
  286MPD2    H7 4377   0.265   0.701   1.328  0.2953 -2.0446  0.1913
  287TMC3    C1 4378   0.494   0.153   1.084  0.2259 -0.1823  0.1872
  287TMC3    C2 4379   0.423   0.112   0.975 -0.2859 -0.7575  0.2535
  287TMC3    C3 4380   0.473   0.011   0.895 -0.6064 -0.2142 -0.5838
  287TMC3    C4 4381   0.622   0.104   1.112  0.6733  0.3827  0.4332
  287TMC3    C5 4382   0.669   0.008   1.031 -0.7829  0.7419  0.0547
  287TMC3    C6 4383   0.598   4.698   0.921 -0.6329 -0.9384 -0.2349
  287TMC3     C 4384   0.434   0.255   1.169  0.8726  0.2391  0.3521
  287TMC3     O 4385   0.326   0.294   1.135  0.1262  0.0769 -0.7028
  287TMC3     H 4386   0.323   0.150   0.955  0.8656  2.8084  1.2484
  287TMC3    H1 4387   0.687   0.147   1.188 -0.0137  2.8594 -0.3933
  287TMC3    H2 4388   0.633   4.612   0.866  0.7408  0.9833 -2.3323
  287TMC3    C7 4389   0.800   4.693   1.049 -0.7584  1.1785 -0.0907
  287TMC3    C8 4390   0.390   4.696   0.790  0.3018  0.2248  0.6065
  287TMC3    O1 4391   0.841   4.696   1.162  0.6493  0.6843 -0.6250
  287TMC3    O2 4392   0.411   4.580   0.761  0.1060  0.4366  0.1073
  288TMC3    C1 4393   1.607   4.343  14.467 -0.8556 -0.6813 -0.1552
  288TMC3    C2 4394   1.556   4.273  14.573 -0.1808  0.2340  0.7394
  288TMC3    C3 4395   1.558   4.336  14.696  0.4831  0.5411  0.1011
  288TMC3    C4 4396   1.672   4.461  14.479 -0.1571  0.5164  0.5751
  288TMC3    C5 4397   1.665   4.529  14.597 -0.3272 -0.5600  1.0010
  288TMC3    C6 4398   1.608   4.466  14.707 -0.1844 -0.2878 -0.3792
  288TMC3     C 4399   1.585   4.308  14.328 -0.4613 -0.5483  0.8239
  288TMC3     O 4400   1.578   4.396  14.243 -0.1064 -0.0894 -0.1259
  288TMC3     H 4401   1.532   4.167  14.566  0.9678  0.1137 -1.3823
  288TMC3    H1 4402   1.710   4.507  14.388 -4.2521 -0.6267 -1.7178
  288TMC3    H2 4403   1.594   4.524  14.797 -1.5922  0.7015 -1.2320
  288TMC3    C7 4404   1.658   4.672  14.590 -1.0391 -0.3437  0.1205
  288TMC3    C8 4405   1.465   4.286  14.796  0.1800 -0.6250 -0.3069
  288TMC3    O1 4406   1.632   4.720  14.697  0.3851 -0.1536  0.3375
  288TMC3    O2 4407   1.480   4.340  14.905  0.2885  0.1398  0.7357
  289MPD2     C 4408   1.958   3.832  14.193 -0.1169 -0.6165  0.4123
  289MPD2    C1 4409   1.908   3.954  14.150  0.3925  0.3697 -0.4564
  289MPD2    C2 4410   1.824   3.955  14.038  0.3091 -0.4894 -1.1752
  289MPD2    C3 4411   1.770   3.841  13.989  0.0414 -0.0013 -0.1328
  289MPD2    C4 4412   1.811   3.719  14.038  0.3127  0.4685 -0.0354
  289MPD2    C5 4413   1.901   3.721  14.136 -0.1503  0.7918  0.5118
  289MPD2     H 4414   1.798   4.054  14.003 -2.2691 -1.0156 -0.7893
  289MPD2    H1 4415   1.773   3.624  14.000  1.7733 -0.6045  1.1857
  289MPD2    H2 4416   2.035   3.835  14.269  1.3344  0.7684 -1.1128
  289MPD2    H3 4417   1.933   3.624  14.173 -1.6596  0.3410  0.6767
  289MPD2     N 4418   1.674   3.845  13.886 -0.7141 -0.8763  0.0307
  289MPD2    H5 4419   1.628   3.757  13.866  0.6130 -1.5889  0.0760
  289MPD2    N1 4420   1.966   4.076  14.196 -0.0744 -0.0518  0.4762
  289MPD2    H7 4421   1.951   4.158  14.137 -2.0593 -1.9918 -1.7092
  290TMC3    C1 4422   1.540   3.918  13.710 -0.1411  0.0385  0.2144
  290TMC3    C2 4423   1.479   4.030  13.650 -0.3555 -0.3393  0.1119
  290TMC3    C3 4424   1.380   4.004  13.562  0.0275  0.2768  0.0968
  290TMC3    C4 4425   1.502   3.785  13.684  0.6413  0.2501  0.7995
  290TMC3    C5 4426   1.398   3.768  13.592  0.4629 -0.2573 -0.0112
  290TMC3    C6 4427   1.338   3.872  13.529 -0.0282 -0.0915 -0.5183
  290TMC3     C 4428   1.642   3.952  13.802 -0.0298 -0.3899 -0.0022
  290TMC3     O 4429   1.700   4.059  13.787  0.1056 -0.2619 -0.0871
  290TMC3     H 4430   1.518   4.130  13.661  0.7327 -0.4020 -3.2616
  290TMC3    H1 4431   1.557   3.702  13.725  2.0482  0.7060 -0.1665
  290TMC3    H2 4432   1.240   3.862  13.484 -0.2880  0.4926 -0.0924
  290TMC3    C7 4433   1.309   3.654  13.587 -0.5668 -0.4899  0.0507
  290TMC3    C8 4434   1.299   4.115  13.502  0.7086 -0.4321 -0.1046
  290TMC3    O1 4435   1.196   3.665  13.543 -0.3947  0.7860 -0.3028
  290TMC3    O2 4436   1.235   4.106  13.395  0.0623 -0.2498  0.5534
  291MPD2     C 4437   0.937   3.596  17.661  0.4307  0.1814 -0.1361
  291MPD2    C1 4438   1.067   3.556  17.633  0.4294 -0.3622 -0.2507
  291MPD2    C2 4439   1.169   3.649  17.637 -0.1043 -0.6385 -0.1294
  291MPD2    C3 4440   1.142   3.780  17.652 -0.2151 -0.4947  0.1757
  291MPD2    C4 4441   1.015   3.821  17.673 -0.4842 -0.6369 -0.4410
  291MPD2    C5 4442   0.914   3.729  17.682 -0.2463  0.9366  0.1912
  291MPD2     H 4443   1.271   3.622  17.612 -0.1037 -1.1152  0.3851
  291MPD2    H1 4444   0.988   3.925  17.664  0.1862 -0.2913  1.5145
  291MPD2    H2 4445   0.849   3.535  17.643 -0.6811  2.1837 -1.4834
  291MPD2    H3 4446   0.818   3.776  17.703 -0.5997 -0.1432  0.9874
  291MPD2     N 4447   1.235   3.885  17.627  0.2855 -0.0346 -0.4885
  291MPD2    H5 4448   1.205   3.981  17.613 -2.6316 -1.0038 -1.0155
  291MPD2    N1 4449   1.096   3.418  17.614 -0.7866 -0.5355  0.1752
  291MPD2    H7 4450   1.195   3.395  17.615 -1.0421 -1.5696  1.2701
  292TMC3    C1 4451   1.067   3.192  17.587  1.2077  0.1520  0.5676
  292TMC3    C2 4452   1.203   3.179  17.565 -0.7536  0.2629 -0.3924
  292TMC3    C3 4453   1.262   3.050  17.571 -0.0952  0.4971  0.2395
  292TMC3    C4 4454   0.988   3.082  17.610  0.3046 -0.1256 -0.1779
  292TMC3    C5 4455   1.059   2.958  17.625 -0.5665 -0.0379  0.0547
  292TMC3    C6 4456   1.193   2.941  17.617  0.2774  0.4741  0.3321
  292TMC3     C 4457   1.007   3.319  17.617 -0.9314 -0.5409  0.3064
  292TMC3     O 4458   0.895   3.308  17.656 -0.3791  0.1477  0.5124
  292TMC3     H 4459   1.252   3.259  17.511  0.4134  0.1955  0.5763
  292TMC3    H1 4460   0.880   3.084  17.623  0.4176  0.5147  0.6429
  292TMC3    H2 4461   1.239   2.843  17.625 -0.5637 -0.1611 -2.2292
  292TMC3    C7 4462   0.978   2.839  17.598  0.0000 -0.4631 -0.2839
  292TMC3    C8 4463   1.402   3.043  17.594  0.8519 -0.2729 -0.9360
  292TMC3    O1 4464   1.042   2.751  17.551 -0.1839  0.3328 -0.3678
  292TMC3    O2 4465   1.476   3.104  17.518  0.2013  0.5812 -0.5491
  293MPD2     C 4466   2.611   0.657  12.569 -0.3591  0.1314 -0.2116
  293MPD2    C1 4467   2.583   0.533  12.616  0.0782  0.1025  0.1306
  293MPD2    C2 4468   2.572   0.519  12.752  0.3162  0.0967 -0.0758
  293MPD2    C3 4469   2.575   0.629  12.840  0.0815  0.3849 -0.2179
  293MPD2    C4 4470   2.598   0.755  12.785 -0.2630 -0.3964 -0.0085
  293MPD2    C5 4471   2.624   0.766  12.649  0.3182  0.1107 -0.5501
  293MPD2     H 4472   2.557   0.421  12.796  0.7781  0.6336  1.2989
  293MPD2    H1 4473   2.616   0.837  12.853 -0.3864  2.4878 -3.4705
  293MPD2    H2 4474   2.641   0.667  12.465  1.0799  0.7178  0.2565
  293MPD2    H3 4475   2.644   0.867  12.616 -1.8326  1.2416  1.5457
  293MPD2     N 4476   2.541   0.614  12.980  0.7420  0.3283 -0.0749
  293MPD2    H5 4477   2.545   0.519  13.015  1.9150  0.6211  0.5995
  293MPD2    N1 4478   2.583   0.427  12.520  0.0703 -0.4983  0.0336
  293MPD2    H7 4479   2.611   0.458  12.427 -2.6893  3.8127  0.6606
  294TMC3    C1 4480   2.550   0.224  12.412 -0.0781 -0.2622 -0.1564
  294TMC3    C2 4481   2.486   0.104  12.413 -1.0154 -0.1103  0.1570
  294TMC3    C3 4482   2.500   0.016  12.303  0.6870 -0.9490  0.1086
  294TMC3    C4 4483   2.608   0.273  12.294 -0.0960  0.4637  1.0846
  294TMC3    C5 4484   2.609   0.190  12.188 -0.1887  0.1347  0.0442
  294TMC3    C6 4485   2.552   0.069  12.189 -0.3661 -0.3218  0.0184
  294TMC3     C 4486   2.565   0.296  12.539 -0.2725 -0.6119 -0.6724
  294TMC3     O 4487   2.541   0.234  12.645  0.4820  0.6046 -0.1605
  294TMC3     H 4488   2.465   0.067  12.513 -2.2545  1.2885  0.4061
  294TMC3    H1 4489   2.628   0.379  12.282  0.4121  0.0348 -1.9736
  294TMC3    H2 4490   2.548   0.005  12.101 -2.2317  2.4814 -1.9124
  294TMC3    C7 4491   2.662   0.240  12.057  0.3671 -0.1752  0.2510
  294TMC3    C8 4492   2.410   4.647  12.292 -0.1803  0.4036 -0.3082
  294TMC3    O1 4493   2.671   0.359  12.033  0.3836 -0.1366  0.4270
  294TMC3    O2 4494   2.422   4.560  12.207 -0.2603 -0.1956 -0.1432
  295MPD2     C 4495   3.877   3.783   1.044 -0.3220  0.9164 -0.6794
  295MPD2    C1 4496   3.827   3.681   0.965 -1.0825  0.7353 -0.2425
  295MPD2    C2 4497   3.828   3.553   1.022 -0.0485  0.6568  0.2764
  295MPD2    C3 4498   3.868   3.519   1.149  0.6521  0.1975 -0.1161
  295MPD2    C4 4499   3.931   3.625   1.217 -0.1538 -0.0013  0.6590
  295MPD2    C5 4500   3.938   3.750   1.167 -0.3750  0.2864 -0.6760
  295MPD2     H 4501   3.787   3.483   0.950  1.6171  1.6956 -1.6911
  295MPD2    H1 4502   3.988   3.598   1.304  0.9531 -0.3792 -0.1830
  295MPD2    H2 4503   3.893   3.886   1.013  0.9480  0.9166 -0.0219
  295MPD2    H3 4504   3.983   3.829   1.225  0.6564 -0.8605  0.0800
  295MPD2     N 4505   3.879   3.382   1.195 -0.0894 -0.0534 -0.0244
  295MPD2    H5 4506   3.912   3.369   1.290 -1.0497 -2.1680  0.0166
  295MPD2    N1 4507   3.778   3.707   0.835  0.2174  0.5359 -0.4522
  295MPD2    H7 4508   3.721   3.633   0.795  2.4528 -0.7812 -1.1968
  296TMC3    C1 4509   3.777   3.169   1.245  0.3809 -0.1737  0.0677
  296TMC3    C2 4510   3.729   3.202   1.364 -0.5988 -0.6059 -0.3201
  296TMC3    C3 4511   3.664   3.091   1.434 -0.3859 -0.6460  0.2532
  296TMC3    C4 4512   3.753   3.051   1.180  0.2143 -0.7163 -0.1180
  296TMC3    C5 4513   3.691   2.950   1.246 -0.6505  0.1720  0.3959
  296TMC3    C6 4514   3.650   2.969   1.375 -0.4578  0.0471  0.0036
  296TMC3     C 4515   3.793   3.281   1.157  0.1550 -0.7295  0.5251
  296TMC3     O 4516   3.716   3.285   1.061 -0.1535 -0.5671 -0.4580
  296TMC3     H 4517   3.743   3.303   1.400 -0.2617 -0.1081 -1.8624
  296TMC3    H1 4518   3.778   3.053   1.075  5.0614  0.8103  1.0713
  296TMC3    H2 4519   3.596   2.893   1.430  0.1843 -0.7904 -0.5187
  296TMC3    C7 4520   3.710   2.813   1.187  0.8024  0.4279  0.4613
  296TMC3    C8 4521   3.616   3.108   1.569 -0.2708  0.2022 -0.1912
  296TMC3    O1 4522   3.720   2.804   1.062 -0.4252  0.2492 -0.0631
  296TMC3    O2 4523   3.626   3.007   1.638 -0.2994  0.0782  0.2767
  297MPD2     C 4524   0.425   0.907  16.239  0.1413 -0.5431  0.2632
  297MPD2    C1 4525   0.407   1.019  16.156  0.4910 -0.3269  0.9055
  297MPD2    C2 4526   0.513   1.100  16.132 -0.1844  0.5825  0.1535
  297MPD2    C3 4527   0.638   1.069  16.163  0.1287 -0.2441 -0.7397
  297MPD2    C4 4528   0.661   0.971  16.257  1.0556  0.2387 -0.6883
  297MPD2    C5 4529   0.557   0.886  16.291  0.3117 -0.2428  0.3550
  297MPD2     H 4530   0.503   1.186  16.067 -0.1121 -0.0179 -0.6652
  297MPD2    H1 4531   0.758   0.937  16.293  0.9426  0.4837 -0.1593
  297MPD2    H2 4532   0.350   0.830  16.250 -0.8987  0.3329 -0.8330
  297MPD2    H3 4533   0.588   0.797  16.346  2.0566 -0.5036 -1.0500
  297MPD2     N 4534   0.741   1.153  16.111 -0.1732 -0.3123  0.8450
  297MPD2    H5 4535   0.708   1.221  16.042  0.6018  1.8401  2.6004
  297MPD2    N1 4536   0.281   1.063  16.110 -0.1985 -0.6166  0.3555
  297MPD2    H7 4537   0.279   1.148  16.054 -0.2955 -0.3459  0.7704
  298TMC3    C1 4538   0.052   1.049  16.058 -1.3886 -0.9866  0.2920
  298TMC3    C2 4539   0.067   1.094  15.935 -0.0266 -0.1235 -1.5424
  298TMC3    C3 4540   4.707   1.175  15.885 -0.0777 -0.6139  0.1019
  298TMC3    C4 4541   4.667   1.058  16.122  0.7858 -0.4421  0.3754
  298TMC3    C5 4542   4.569   1.143  16.073 -0.1858 -0.4788 -0.5637
  298TMC3    C6 4543   4.592   1.206  15.958  0.3016 -0.1339  0.2244
  298TMC3     C 4544   0.165   0.999  16.140  0.4164 -0.1505  0.2617
  298TMC3     O 4545   0.141   0.904  16.218  0.1026 -0.1869  0.2731
  298TMC3     H 4546   0.161   1.073  15.885 -0.0162 -2.1888 -0.6604
  298TMC3    H1 4547   4.664   1.012  16.220 -0.9236 -0.7702  0.1731
  298TMC3    H2 4548   4.512   1.265  15.915 -0.6882 -1.6867 -0.0601
  298TMC3    C7 4549   4.492   1.201  16.180  0.8400  0.3617 -0.2791
  298TMC3    C8 4550   4.733   1.263  15.768  0.7274 -0.0892  0.8318
  298TMC3    O1 4551   4.535   1.198  16.293  0.4160 -0.2175  0.4030
  298TMC3    O2 4552   4.648   1.348  15.756 -0.3089 -0.4512  0.7048
  299MPD2     C 4553   0.966   0.629  10.948 -0.1805 -1.2099 -0.0004
  299MPD2    C1 4554   1.017   0.756  10.909  0.4808 -0.1965 -0.5795
  299MPD2    C2 4555   1.017   0.772  10.773 -0.4597 -0.4859 -0.3072
  299MPD2    C3 4556   0.964   0.681  10.684  0.3313  0.4422  0.1105
  299MPD2    C4 4557   0.914   0.565  10.730 -0.7682  0.0501  0.0009
  299MPD2    C5 4558   0.918   0.534  10.862  0.2613 -0.1030 -0.0036
  299MPD2     H 4559   1.073   0.857  10.735 -1.8429  0.2706 -0.6605
  299MPD2    H1 4560   0.872   0.490  10.664  0.6883 -0.9669  0.2371
  299MPD2    H2 4561   0.984   0.598  11.051  1.4964  0.3455  0.1647
  299MPD2    H3 4562   0.882   0.436  10.892  1.5795 -0.5436  0.1376
  299MPD2     N 4563   0.958   0.706  10.541 -0.0745 -0.1166 -0.2068
  299MPD2    H5 4564   0.926   0.631  10.480 -0.3125 -0.0392 -0.1794
  299MPD2    N1 4565   1.084   0.840  11.004 -0.3740  0.0970  0.4281
  299MPD2    H7 4566   1.080   0.799  11.096  1.0063  0.1774  0.5325
  300TMC3    C1 4567   0.962   0.827  10.329 -0.7702  0.8007 -0.4921
  300TMC3    C2 4568   0.934   0.964  10.301 -0.3011 -0.0504  0.2849
  300TMC3    C3 4569   0.817   0.987  10.236  0.4771  0.1962  0.0519
  300TMC3    C4 4570   0.891   0.726  10.270 -0.1920  0.1476 -0.1069
  300TMC3    C5 4571   0.783   0.761  10.190  0.6524 -0.7680  0.5283
  300TMC3    C6 4572   0.737   0.888  10.172  0.3550 -0.4542 -0.3101
  300TMC3     C 4573   1.015   0.807  10.473 -0.1867 -0.3688 -0.2456
  300TMC3     O 4574   1.078   0.908  10.505 -0.4296 -0.2301 -0.2812
  300TMC3     H 4575   1.000   1.047  10.324 -0.0970 -0.3784  0.8948
  300TMC3    H1 4576   0.903   0.622  10.299  1.2575 -0.3836 -2.6659
  300TMC3    H2 4577   0.652   0.904  10.106  1.1581 -1.6887 -1.6401
  300TMC3    C7 4578   0.693   0.654  10.148  0.6709 -0.4320 -0.2950
  300TMC3    C8 4579   0.784   1.129  10.240 -0.2578 -0.6307 -0.0813
  300TMC3    O1 4580   0.741   0.546  10.109  0.4527 -0.1720 -0.6835
  300TMC3    O2 4581   0.849   1.208  10.309 -0.3764  0.0985 -1.0115
  301MPD2     C 4582   3.177   1.810   1.585  0.1308  1.3170  0.0336
  301MPD2    C1 4583   3.138   1.824   1.452 -0.3214  0.9264 -0.1745
  301MPD2    C2 4584   3.195   1.740   1.359 -0.3421  0.7017 -0.5958
  301MPD2    C3 4585   3.299   1.656   1.401  0.2258  0.4034  0.3433
  301MPD2    C4 4586   3.352   1.662   1.528  0.2684 -0.3166 -0.1216
  301MPD2    C5 4587   3.280   1.735   1.621  0.6838 -0.0198  0.0544
  301MPD2     H 4588   3.169   1.749   1.254  0.4965  0.6622 -0.8104
  301MPD2    H1 4589   3.433   1.598   1.562 -0.6516 -1.7506 -0.6424
  301MPD2    H2 4590   3.134   1.863   1.669 -0.3431  0.8060  0.1085
  301MPD2    H3 4591   3.304   1.724   1.726  3.0300 -0.1348 -0.5104
  301MPD2     N 4592   3.357   1.562   1.311  0.1515  0.2327 -0.6717
  301MPD2    H5 4593   3.449   1.523   1.329  0.3558  1.3300  0.7209
  301MPD2    N1 4594   3.035   1.916   1.410  0.5229  0.2201 -0.4867
  301MPD2    H7 4595   3.007   1.916   1.313  0.5740  0.3905 -0.5012
  302TMC3    C1 4596   3.352   1.417   1.126  0.3321  0.5635  0.0982
  302TMC3    C2 4597   3.421   1.317   1.186  0.4598  0.1832 -0.6097
  302TMC3    C3 4598   3.427   1.195   1.118 -0.1936 -0.0319  0.2492
  302TMC3    C4 4599   3.296   1.397   1.001  0.1251  1.1981  0.8783
  302TMC3    C5 4600   3.321   1.281   0.929 -0.1981  0.7497 -0.5636
  302TMC3    C6 4601   3.385   1.180   0.991 -0.5168 -0.0736 -0.8249
  302TMC3     C 4602   3.285   1.516   1.205  0.4834 -0.6309  0.1843
  302TMC3     O 4603   3.167   1.540   1.178  0.2297  0.5642 -0.2055
  302TMC3     H 4604   3.448   1.328   1.291 -0.0812  0.7429 -0.5302
  302TMC3    H1 4605   3.241   1.479   0.957 -0.1130 -0.2215 -1.5022
  302TMC3    H2 4606   3.400   1.085   0.940 -1.1753 -0.9854  0.6836
  302TMC3    C7 4607   3.278   1.268   0.788 -0.2282  0.1900 -0.3078
  302TMC3    C8 4608   3.523   1.094   1.158  0.0452  0.2543  0.6873
  302TMC3    O1 4609   3.337   1.183   0.720 -0.4398 -0.0866 -0.1133
  302TMC3    O2 4610   3.522   0.983   1.109  0.2780  0.5319 -0.3062
  303MPD2     C 4611   3.359   0.950  10.510  0.0833  0.2008 -0.4340
  303MPD2    C1 4612   3.307   0.823  10.525 -0.9766 -0.8370  0.3246
  303MPD2    C2 4613   3.252   0.767  10.412 -0.0063  0.8846  0.2818
  303MPD2    C3 4614   3.243   0.842  10.293 -0.6030  0.1979 -0.2368
  303MPD2    C4 4615   3.302   0.967  10.282 -0.1311 -0.2016 -0.0257
  303MPD2    C5 4616   3.372   1.010  10.388  0.8142  0.6135  0.1218
  303MPD2     H 4617   3.208   0.669  10.426  1.6211 -0.1583 -1.8685
  303MPD2    H1 4618   3.299   1.015  10.185 -1.8874  0.3651  0.3078
  303MPD2    H2 4619   3.405   1.005  10.592  0.8091 -0.3365 -0.4781
  303MPD2    H3 4620   3.438   1.096  10.378  0.9572  0.5022  0.1087
  303MPD2     N 4621   3.175   0.798  10.177 -0.1304 -0.0964 -0.4057
  303MPD2    H5 4622   3.195   0.850  10.092  0.3612 -0.6151 -0.6131
  303MPD2    N1 4623   3.301   0.761  10.658 -0.6805 -0.1436  0.1439
  303MPD2    H7 4624   3.331   0.816  10.738  0.7812 -0.4287 -0.2118
  304TMC3    C1 4625   3.252   0.609  10.818 -0.1962 -0.6584 -0.2213
  304TMC3    C2 4626   3.179   0.708  10.883  0.3056 -0.1694 -0.1434
  304TMC3    C3 4627   3.093   0.666  10.982 -0.2957 -0.1942  0.2037
  304TMC3    C4 4628   3.242   0.473  10.847  0.5592  0.3966 -0.8120
  304TMC3    C5 4629   3.164   0.446  10.958  0.0713  0.5263  0.4261
  304TMC3    C6 4630   3.092   0.537  11.019 -0.3191  0.2397 -0.1814
  304TMC3     C 4631   3.281   0.628  10.677 -0.3656  1.1716 -0.3983
  304TMC3     O 4632   3.290   0.536  10.596 -0.3348  0.3791  0.0858
  304TMC3     H 4633   3.175   0.811  10.851  1.5201  0.9769  3.3529
  304TMC3    H1 4634   3.289   0.398  10.785  2.7120  0.3863  0.8525
  304TMC3    H2 4635   3.048   0.512  11.115 -1.1235  1.0405 -0.3396
  304TMC3    C7 4636   3.082   0.328  10.949 -0.2629 -0.2422 -0.0176
  304TMC3    C8 4637   2.962   0.719  10.980  0.6071  1.1703  0.1034
  304TMC3    O1 4638   2.972   0.334  11.001 -0.2802  0.5762 -0.6332
  304TMC3    O2 4639   2.933   0.837  10.964 -0.0108 -0.3133  0.2856
  305MPD2     C 4640   2.036   2.674  13.822  0.1157  0.3438 -0.3972
  305MPD2    C1 4641   1.962   2.577  13.879 -1.3666 -0.0006 -0.3368
  305MPD2    C2 4642   1.869   2.511  13.805 -0.1053  0.1045 -0.7284
  305MPD2    C3 4643   1.846   2.553  13.674 -0.4426 -0.8521 -0.0014
  305MPD2    C4 4644   1.910   2.663  13.627  0.6798 -0.1317 -0.2821
  305MPD2    C5 4645   2.013   2.719  13.699  0.0351  0.3694 -0.0552
  305MPD2     H 4646   1.802   2.438  13.848 -0.5789  1.4622  0.8342
  305MPD2    H1 4647   1.895   2.703  13.528 -1.6505 -0.8442 -0.2190
  305MPD2    H2 4648   2.108   2.738  13.873 -0.6008 -0.9238  2.2310
  305MPD2    H3 4649   2.067   2.806  13.663 -1.2128  1.6310  1.1378
  305MPD2     N 4650   1.745   2.492  13.596 -0.2640 -0.3196  0.1218
  305MPD2    H5 4651   1.727   2.538  13.508  0.6448 -0.1970  0.0082
  305MPD2    N1 4652   1.980   2.550  14.019  0.0186 -0.0001  0.2046
  305MPD2    H7 4653   2.062   2.597  14.056  1.0739  0.0290 -2.1208
  306TMC3    C1 4654   1.941   2.498  14.232  0.0165  0.1567  0.3733
  306TMC3    C2 4655   2.061   2.444  14.260 -0.0373  0.4099  0.2596
  306TMC3    C3 4656   2.104   2.436  14.391 -0.2644  0.1429 -0.3092
  306TMC3    C4 4657   1.864   2.558  14.323  0.3417 -0.1744  0.3162
  306TMC3    C5 4658   1.911   2.558  14.454  0.5488 -0.0843  0.1002
  306TMC3    C6 4659   2.022   2.486  14.489 -0.6081 -0.7817 -0.7555
  306TMC3     C 4660   1.890   2.499  14.096  0.0861 -1.0353  0.5312
  306TMC3     O 4661   1.777   2.462  14.078  0.2138 -0.3020 -0.0565
  306TMC3     H 4662   2.115   2.388  14.183 -1.7700 -0.0110 -0.6469
  306TMC3    H1 4663   1.774   2.607  14.287  1.2991  1.7060  0.4434
  306TMC3    H2 4664   2.041   2.457  14.592 -0.9514 -0.6232 -0.6471
  306TMC3    C7 4665   1.828   2.586  14.562  0.1156  0.3322 -0.1394
  306TMC3    C8 4666   2.176   2.322  14.426  0.7039 -0.1185  0.5793
  306TMC3    O1 4667   1.706   2.584  14.543  0.2314 -0.0563 -0.0171
  306TMC3    O2 4668   2.173   2.230  14.344  0.3171  0.2575  0.1598
  307MPD2     C 4669   4.150   4.590   0.128 -0.7387  0.0137 -0.0306
  307MPD2    C1 4670   4.132   4.717   0.073 -0.0134  0.3509  0.0713
  307MPD2    C2 4671   4.120   0.094   0.151  0.1047  0.0713 -0.2233
  307MPD2    C3 4672   4.093   0.075   0.288 -0.1034  0.0953  0.5197
  307MPD2    C4 4673   4.093   4.690   0.337 -1.2587  0.0742  0.2374
  307MPD2    C5 4674   4.119   4.575   0.260 -0.6865  0.0772  0.3903
  307MPD2     H 4675   4.125   0.195   0.113  2.6831  0.4099  1.0369
  307MPD2    H1 4676   4.076   4.669   0.442  1.6760  0.3633  0.7738
  307MPD2    H2 4677   4.161   4.497   0.073 -2.5366 -0.9001  1.1621
  307MPD2    H3 4678   4.134   4.481   0.312  2.0935  0.1358 -0.3043
  307MPD2     N 4679   4.068   0.191   0.366 -0.4414  0.3201  0.4522
  307MPD2    H5 4680   4.059   0.283   0.324 -1.3012  0.0446  0.0238
  307MPD2    N1 4681   4.140   0.001  17.685  0.1477  0.3179  0.3933
  307MPD2    H7 4682   4.114   0.094  17.654 -0.5513  0.2149  0.6693
  308TMC3    C1 4683   3.767   0.422   0.584 -0.5916 -0.5295 -0.0473
  308TMC3    C2 4684   3.817   0.542   0.543 -0.1579  0.1161  0.1923
  308TMC3    C3 4685   3.945   0.536   0.502  1.1157  0.7621  0.1223
  308TMC3    C4 4686   3.837   0.302   0.586 -0.5180  0.5694  0.1711
  308TMC3    C5 4687   3.962   0.310   0.531  0.5151  1.2891 -0.1727
  308TMC3    C6 4688   4.020   0.424   0.488 -0.6539  0.3789  0.4013
  308TMC3     C 4689   3.621   0.404   0.599 -0.3263 -0.3458 -0.0822
  308TMC3     O 4690   3.581   0.297   0.643  0.0050  0.3783 -0.3172
  308TMC3     H 4691   3.772   0.632   0.581  0.6086  0.7124 -0.3227
  308TMC3    H1 4692   3.792   0.207   0.612  0.6239  0.0558  0.2662
  308TMC3    H2 4693   4.121   0.433   0.451  0.4478  0.1509  3.3077
  308TMC3    C7 4694   4.012   0.185   0.490 -0.1756  0.1593  1.5377
  308TMC3    C8 4695   4.018   0.657   0.509 -0.0020 -0.4074 -0.2229
  308TMC3    O1 4696   4.003   0.092   0.565 -0.3791 -0.6764 -0.5312
  308TMC3    O2 4697   3.989   0.744   0.590  0.2541 -0.2178 -0.1567
  309MPD2     C 4698   3.134   0.866  17.026  0.3013 -0.1778  0.0936
  309MPD2    C1 4699   3.049   0.840  16.922  0.8908 -1.0868  0.1229
  309MPD2    C2 4700   2.916   0.853  16.946  0.3371 -0.5468  0.3362
  309MPD2    C3 4701   2.874   0.917  17.062  0.3871  0.3851 -0.0197
  309MPD2    C4 4702   2.960   0.955  17.156  0.1776 -0.3430  0.2022
  309MPD2    C5 4703   3.091   0.920  17.142  0.0272 -0.1004  0.1657
  309MPD2     H 4704   2.841   0.824  16.873 -0.7014  1.0201  0.7861
  309MPD2    H1 4705   2.929   0.990  17.254 -0.5895  2.7549 -1.1443
  309MPD2    H2 4706   3.241   0.865  17.012  0.3926  0.9058  0.7058
  309MPD2    H3 4707   3.156   0.943  17.226  0.1289 -0.8977  0.3090
  309MPD2     N 4708   2.741   0.947  17.091  0.3433  0.4124 -0.1809
  309MPD2    H5 4709   2.715   1.019  17.158  0.7785  0.0846  0.3354
  309MPD2    N1 4710   3.091   0.801  16.794 -0.3140  0.1119 -0.3397
  309MPD2    H7 4711   3.018   0.758  16.738 -2.0057 -0.3174  2.1450
  310TMC3    C1 4712   3.233   0.734  16.616 -0.3192  0.4256  0.0217
  310TMC3    C2 4713   3.143   0.741  16.511 -0.7123 -0.7664 -0.2364
  310TMC3    C3 4714   3.175   0.689  16.393  0.3062  0.9591  0.4139
  310TMC3    C4 4715   3.350   0.663  16.606  0.9568 -0.7650 -0.6722
  310TMC3    C5 4716   3.387   0.612  16.482 -0.2605 -0.4583  0.6521
  310TMC3    C6 4717   3.302   0.636  16.380  0.5163 -0.0902  0.2667
  310TMC3     C 4718   3.221   0.809  16.738 -0.2290  0.4181 -0.3955
  310TMC3     O 4719   3.324   0.843  16.800  0.1322  0.5862  0.5263
  310TMC3     H 4720   3.063   0.813  16.521 -0.2831  0.0878 -2.9701
  310TMC3    H1 4721   3.414   0.665  16.693  0.5472  0.1696 -0.3903
  310TMC3    H2 4722   3.328   0.588  16.286  1.6271  0.8486  0.1102
  310TMC3    C7 4723   3.527   0.597  16.442 -0.5191  0.9947  0.1738
  310TMC3    C8 4724   3.135   0.770  16.285 -0.1771  0.3161 -0.4414
  310TMC3    O1 4725   3.549   0.645  16.329 -0.5145  0.3111 -0.3274
  310TMC3    O2 4726   3.020   0.775  16.254 -0.1989 -0.2904  0.7170
  311MPD2     C 4727   0.451   2.118  12.501 -0.7241 -0.5999  0.3183
  311MPD2    C1 4728   0.499   2.171  12.623  0.4355  0.5738 -0.4232
  311MPD2    C2 4729   0.448   2.114  12.738 -0.0882 -0.5221 -0.1067
  311MPD2    C3 4730   0.366   2.006  12.736 -0.4864 -0.6968 -0.3955
  311MPD2    C4 4731   0.325   1.949  12.612  0.2204 -0.0067 -0.5914
  311MPD2    C5 4732   0.363   2.012  12.499  0.2557 -0.2355  0.5221
  311MPD2     H 4733   0.479   2.141  12.839  0.7130 -3.3830  0.3978
  311MPD2    H1 4734   0.256   1.868  12.594  0.1861  0.0004 -0.4928
  311MPD2    H2 4735   0.479   2.163  12.407 -0.7774 -2.2371 -0.4838
  311MPD2    H3 4736   0.327   1.973  12.405  1.0212  1.1377 -0.3380
  311MPD2     N 4737   0.317   1.952  12.862 -0.8667 -0.8653  0.0872
  311MPD2    H5 4738   0.341   1.999  12.949 -2.0652 -0.9075  0.4402
  311MPD2    N1 4739   0.603   2.263  12.628  0.4904  0.0019 -0.1991
  311MPD2    H7 4740   0.642   2.274  12.722  1.0035  0.1669 -0.4279
  312TMC3    C1 4741   0.196   1.828  13.015 -0.4060  0.2945 -0.0850
  312TMC3    C2 4742   0.056   1.809  13.036 -0.2311 -0.6306  0.6358
  312TMC3    C3 4743   0.000   1.866  13.147 -0.3254  0.0493 -0.2217
  312TMC3    C4 4744   0.276   1.892  13.102  0.4406  0.6188 -0.1976
  312TMC3    C5 4745   0.210   1.957  13.206 -0.3064  0.2752  0.0337
  312TMC3    C6 4746   0.066   1.951  13.222  0.2787  0.2436 -0.0034
  312TMC3     C 4747   0.236   1.840  12.880  0.6687  0.4608  0.0681
  312TMC3     O 4748   0.181   1.758  12.801 -0.1984  0.2365  0.1223
  312TMC3     H 4749   0.003   1.743  12.968 -0.1986 -0.4233  0.4083
  312TMC3    H1 4750   0.382   1.900  13.081 -0.1393  1.9066 -2.6525
  312TMC3    H2 4751   0.017   1.998  13.307  1.9160 -1.6913  2.0201
  312TMC3    C7 4752   0.263   2.087  13.221 -0.7228 -0.5122 -0.0834
  312TMC3    C8 4753   4.596   1.865  13.142  0.0407  0.3343  0.5199
  312TMC3    O1 4754   0.331   2.123  13.127 -0.1110  0.2207 -0.1797
  312TMC3    O2 4755   4.540   1.760  13.115  0.1246 -0.1544 -0.1191
  313MPD2     C 4756   4.453   1.378  11.050  0.3567  0.6008 -0.1958
  313MPD2    C1 4757   4.558   1.462  11.062 -0.5130  0.2236 -0.4731
  313MPD2    C2 4758   4.682   1.418  11.040  0.0617 -0.1144 -0.4988
  313MPD2    C3 4759   4.701   1.289  10.983  0.1454  0.2133 -0.0578
  313MPD2    C4 4760   4.590   1.205  10.964  0.1677  1.0725 -0.5063
  313MPD2    C5 4761   4.469   1.252  11.002 -0.2061  0.1846  0.7538
  313MPD2     H 4762   0.036   1.467  11.063 -1.3618  1.7496  1.2677
  313MPD2    H1 4763   4.589   1.105  10.922  0.1870  1.9402 -2.5891
  313MPD2    H2 4764   4.349   1.403  11.068  0.2942 -0.9728  1.5641
  313MPD2    H3 4765   4.380   1.190  10.994  1.1418 -1.6543 -0.0417
  313MPD2     N 4766   0.092   1.252  10.941 -0.2618 -0.4683  0.1265
  313MPD2    H5 4767   0.168   1.306  10.980 -0.4117  0.3896 -0.7695
  313MPD2    N1 4768   4.539   1.595  11.103 -0.0525 -0.3906  0.4459
  313MPD2    H7 4769   4.626   1.643  11.120  0.1429 -0.6898  0.2997
  314TMC3    C1 4770   4.429   1.807  11.120 -0.1787 -0.1106  0.1868
  314TMC3    C2 4771   4.550   1.860  11.136 -0.0238  0.2789 -0.8673
  314TMC3    C3 4772   4.580   1.985  11.081  0.4798  0.7479  0.7964
  314TMC3    C4 4773   4.334   1.869  11.044  0.1958 -0.8834  0.0425
  314TMC3    C5 4774   4.363   1.996  10.995 -0.3453 -0.6752  0.0392
  314TMC3    C6 4775   4.485   2.047  11.013 -0.4951  0.0046  0.4607
  314TMC3     C 4776   4.418   1.659  11.118  0.2705 -0.4989  0.3283
  314TMC3     O 4777   4.305   1.615  11.114 -0.4774 -0.1914  0.0822
  314TMC3     H 4778   4.623   1.816  11.204 -0.5916 -0.9404 -1.0407
  314TMC3    H1 4779   4.246   1.813  11.014  0.3138 -0.8803 -0.3216
  314TMC3    H2 4780   4.494   2.155  11.001  0.0697  0.1612  2.3048
  314TMC3    C7 4781   4.258   2.072  10.925 -0.2299  0.0269 -0.0828
  314TMC3    C8 4782   4.696   2.068  11.119 -0.5582  0.5100  0.3078
  314TMC3    O1 4783   4.154   2.004  10.929 -0.0902 -0.1021  0.6659
  314TMC3    O2 4784   4.684   2.187  11.089 -0.1914  0.0246  0.7591
  315MPD2     C 4785   4.647   0.525  17.397 -0.0039  0.7548 -0.2253
  315MPD2    C1 4786   0.027   0.517  17.473 -0.4232  0.1098 -0.2716
  315MPD2    C2 4787   0.119   0.618  17.459 -0.2595 -0.0314  0.1216
  315MPD2    C3 4788   0.102   0.721  17.369  0.0144  0.7384  0.1489
  315MPD2    C4 4789   4.729   0.722  17.289  0.0558  0.9185 -0.7220
  315MPD2    C5 4790   4.630   0.625  17.310 -0.3683  0.0954 -0.4644
  315MPD2     H 4791   0.209   0.619  17.519  0.2112  2.4071 -0.6282
  315MPD2    H1 4792   4.709   0.805  17.222 -0.0821  0.3548 -1.3772
  315MPD2    H2 4793   4.561   0.460  17.406  0.4996  0.1874  0.5004
  315MPD2    H3 4794   4.533   0.625  17.262  0.4631  0.9200 -2.1555
  315MPD2     N 4795   0.191   0.833  17.370  0.0124  0.5927  0.5792
  315MPD2    H5 4796   0.272   0.826  17.432 -0.5963 -2.4169  1.0450
  315MPD2    N1 4797   0.071   0.411  17.551 -0.2904 -0.2246  0.1903
  315MPD2    H7 4798   0.159   0.421  17.599 -0.9208  1.7159  0.9730
  316TMC3    C1 4799   0.255   1.055  17.353 -0.2752  0.6111 -0.2991
  316TMC3    C2 4800   0.300   1.044  17.486 -0.3522 -0.0986  0.5328
  316TMC3    C3 4801   0.363   1.157  17.536 -0.3154  0.2119 -0.4632
  316TMC3    C4 4802   0.235   1.176  17.296  0.5082 -0.2942 -0.1104
  316TMC3    C5 4803   0.265   1.288  17.373 -0.0333 -0.0440 -0.2241
  316TMC3    C6 4804   0.339   1.276  17.485  0.0986  0.3091 -0.0093
  316TMC3     C 4805   0.189   0.943  17.291  0.3370 -0.4150 -0.5152
  316TMC3     O 4806   0.122   0.962  17.192 -0.1325  0.9845 -0.1681
  316TMC3     H 4807   0.296   0.955  17.547 -1.4866 -1.7120 -1.8596
  316TMC3    H1 4808   0.199   1.189  17.195  1.6936  1.5540 -0.2889
  316TMC3    H2 4809   0.389   1.360  17.531 -0.9116  0.9886 -0.1671
  316TMC3    C7 4810   0.228   1.425  17.331  0.2984  0.3114 -0.1404
  316TMC3    C8 4811   0.452   1.149  17.650 -0.4311 -0.7631  0.2469
  316TMC3    O1 4812   0.268   1.520  17.396  0.1244 -0.1649 -0.3186
  316TMC3    O2 4813   0.480   1.243  17.721 -0.2737 -0.1838 -0.5559
  317MPD2     C 4814   1.599   4.090  12.756 -0.0328 -0.6144 -0.1669
  317MPD2    C1 4815   1.672   3.974  12.728 -0.0507  0.5285 -0.3974
  317MPD2    C2 4816   1.759   3.924  12.824 -0.1725  0.1790  0.5437
  317MPD2    C3 4817   1.788   3.995  12.936 -0.1433  0.1904  0.4703
  317MPD2    C4 4818   1.723   4.118  12.956  0.1308 -0.5295  0.8618
  317MPD2    C5 4819   1.623   4.162  12.872  0.0680 -0.6798 -0.2227
  317MPD2     H 4820   1.817   3.837  12.795 -1.6934 -0.9919  0.9622
  317MPD2    H1 4821   1.738   4.186  13.038  2.7436 -1.0877  0.8533
  317MPD2    H2 4822   1.534   4.139  12.685  0.1422 -0.7809 -0.4414
  317MPD2    H3 4823   1.579   4.260  12.883  1.3415 -0.3650  2.2425
  317MPD2     N 4824   1.895   3.951  13.016 -0.0124  0.3185  0.2120
  317MPD2    H5 4825   1.938   3.861  13.000  0.6988  0.8175 -0.6753
  317MPD2    N1 4826   1.668   3.905  12.602 -0.0471 -0.0025 -1.0011
  317MPD2    H7 4827   1.730   3.826  12.592  0.5515  0.7311 -3.1411
  318TMC3    C1 4828   2.052   3.945  13.193 -0.2762 -0.4576 -0.2870
  318TMC3    C2 4829   2.035   3.809  13.196  0.4856 -0.3501  0.1352
  318TMC3    C3 4830   2.094   3.750  13.304 -0.7936 -0.5403  0.1840
  318TMC3    C4 4831   2.142   4.017  13.263 -0.0878  0.0253 -0.0408
  318TMC3    C5 4832   2.218   3.939  13.355 -0.1837 -0.3540 -0.5777
  318TMC3    C6 4833   2.189   3.811  13.382 -0.5500  0.2130 -1.0354
  318TMC3     C 4834   1.964   4.023  13.109  0.2187  0.5785  0.0020
  318TMC3     O 4835   1.939   4.138  13.143  0.3282  0.0865  0.3770
  318TMC3     H 4836   1.955   3.759  13.143  0.0350  1.9522 -1.3130
  318TMC3    H1 4837   2.165   4.119  13.233  0.2433 -0.8478 -2.8297
  318TMC3    H2 4838   2.243   3.752  13.455 -0.0195  1.5728 -0.3303
  318TMC3    C7 4839   2.339   3.996  13.406 -0.2309 -0.4543  0.9026
  318TMC3    C8 4840   2.065   3.607  13.327  0.2470 -0.2886  0.4096
  318TMC3    O1 4841   2.346   4.117  13.420 -0.0951  0.1748  0.0651
  318TMC3    O2 4842   2.153   3.543  13.385 -0.1471  0.2627  0.7419
  319MPD2     C 4843   3.050   0.368  16.505  0.4215  0.1109 -0.1911
  319MPD2    C1 4844   2.931   0.342  16.566  0.3650 -0.1628 -0.3020
  319MPD2    C2 4845   2.830   0.274  16.504  0.1301 -0.8226 -0.3360
  319MPD2    C3 4846   2.843   0.237  16.368 -0.4652  0.0411  0.8235
  319MPD2    C4 4847   2.965   0.274  16.303 -0.4806  0.5178  0.4320
  319MPD2    C5 4848   3.063   0.344  16.373 -0.0044 -1.5199 -0.0653
  319MPD2     H 4849   2.736   0.256  16.554  0.7963  0.9944  1.5606
  319MPD2    H1 4850   2.982   0.242  16.201 -1.6225  1.1592  0.0454
  319MPD2    H2 4851   3.134   0.419  16.551  0.9422 -1.2356  0.3373
  319MPD2    H3 4852   3.159   0.360  16.325 -0.4282  2.1485  0.3504
  319MPD2     N 4853   2.746   0.160  16.301 -0.0729 -0.4495 -0.0698
  319MPD2    H5 4854   2.774   0.120  16.212 -1.5208  1.0319 -1.2098
  319MPD2    N1 4855   2.907   0.361  16.699  0.2107 -0.2025 -0.2993
  319MPD2    H7 4856   2.818   0.340  16.744 -0.9551 -1.4956 -3.2075
  320TMC3    C1 4857   2.534   0.076  16.247  0.3228 -0.6190  0.0656
  320TMC3    C2 4858   2.512   0.132  16.126  0.6926 -0.1297 -0.4511
  320TMC3    C3 4859   2.424   0.075  16.039 -0.1183 -0.7346 -0.4280
  320TMC3    C4 4860   2.454   4.720  16.294 -0.0111  0.2501 -0.1769
  320TMC3    C5 4861   2.365   4.664  16.203  0.4900 -0.3242 -0.0915
  320TMC3    C6 4862   2.357   4.704  16.075 -0.0444 -0.6565  0.3073
  320TMC3     C 4863   2.616   0.137  16.345  0.0418 -0.2711 -0.1879
  320TMC3     O 4864   2.564   0.169  16.451 -0.1466 -0.0987  0.0995
  320TMC3     H 4865   2.574   0.212  16.087 -1.6960  2.0373  0.2314
  320TMC3    H1 4866   2.466   4.688  16.396  0.0381 -1.1424 -0.6268
  320TMC3    H2 4867   2.285   4.650  16.013 -2.3204  1.0085  1.4915
  320TMC3    C7 4868   2.292   4.546  16.239 -0.2633 -0.3199  0.0329
  320TMC3    C8 4869   2.366   0.170  15.945 -0.6342  0.1466 -0.0774
  320TMC3    O1 4870   2.206   4.503  16.161  0.2818 -0.0069 -0.1851
  320TMC3    O2 4871   2.382   0.285  15.984  0.1893 -0.2844 -0.2739
  321TMC3    C1 4872   2.949   0.394  16.919  0.5499 -0.1434 -0.1102
  321TMC3    C2 4873   2.828   0.330  16.943 -0.9463 -0.4028 -0.2055
  321TMC3    C3 4874   2.773   0.339  17.071 -0.5259 -0.8708 -0.8833
  321TMC3    C4 4875   3.010   0.470  17.018  0.6963 -0.6386 -0.0969
  321TMC3    C5 4876   2.938   0.497  17.129 -0.4096 -0.0148  0.0128
  321TMC3    C6 4877   2.822   0.428  17.160  0.1541  0.0089  0.4276
  321TMC3     C 4878   3.008   0.381  16.792 -0.2946 -0.6501 -0.1505
  321TMC3     O 4879   3.122   0.417  16.785  0.5625  0.5683  0.0012
  321TMC3     H 4880   2.810   0.239  16.886  3.3503 -1.4825  0.1418
  321TMC3    H1 4881   3.112   0.506  17.006  0.9363 -1.4976 -0.6251
  321TMC3    H2 4882   2.772   0.446  17.254 -2.0931  2.0488 -1.1567
  321TMC3    C7 4883   3.005   0.501  17.256  0.2736  0.2214 -0.3181
  321TMC3    C8 4884   2.749   0.205  17.120  0.0904  0.0711 -0.1628
  321TMC3    O1 4885   2.962   0.410  17.328  0.2338  0.0365  0.3914
  321TMC3    O2 4886   2.695   0.120  17.046  0.7440  0.3880 -0.7656
  322MPD2     C 4887   1.086   1.766  13.768  0.0267  0.0722 -0.0137
  322MPD2    C1 4888   1.091   1.679  13.875 -0.3703 -0.1042 -0.5171
  322MPD2    C2 4889   1.095   1.545  13.844 -0.3198 -0.1832 -0.5091
  322MPD2    C3 4890   1.088   1.489  13.716 -0.3472  0.1247  0.6127
  322MPD2    C4 4891   1.089   1.580  13.614  1.0792  0.1438  0.3091
  322MPD2    C5 4892   1.093   1.715  13.642  0.0513  0.2225 -0.3043
  322MPD2     H 4893   1.108   1.476  13.927 -2.2241 -1.1068 -0.9744
  322MPD2    H1 4894   1.090   1.544  13.512 -0.5348  0.7444  0.0878
  322MPD2    H2 4895   1.099   1.872  13.781 -0.7587  0.1779 -0.0900
  322MPD2    H3 4896   1.101   1.789  13.563 -1.7769  1.3056  0.5336
  322MPD2     N 4897   1.116   1.351  13.697  0.3986  0.3551  0.1301
  322MPD2    H5 4898   1.116   1.299  13.785 -0.1034  1.1609  0.6087
  322MPD2    N1 4899   1.096   1.727  14.006 -0.0034  0.5574 -0.4979
  322MPD2    H7 4900   1.116   1.825  14.021  0.2322  0.7379 -2.0105
  323TMC3    C1 4901   1.118   1.714  14.238  0.6518  0.6949 -0.0455
  323TMC3    C2 4902   1.210   1.819  14.230 -0.2017 -0.3315 -0.4755
  323TMC3    C3 4903   1.277   1.850  14.347  0.7295  0.3220  0.0499
  323TMC3    C4 4904   1.077   1.656  14.359  0.1483  0.5915 -0.5332
  323TMC3    C5 4905   1.142   1.690  14.475  0.2643 -0.1181 -0.1026
  323TMC3    C6 4906   1.240   1.793  14.467 -0.4019  0.1195 -0.3469
  323TMC3     C 4907   1.081   1.644  14.117 -0.0888  1.4105 -0.3269
  323TMC3     O 4908   1.042   1.529  14.127  0.0543 -0.6059  0.4415
  323TMC3     H 4909   1.238   1.861  14.133 -0.2113  1.4771  0.3042
  323TMC3    H1 4910   1.040   1.554  14.355  1.4599  0.1240 -0.5173
  323TMC3    H2 4911   1.273   1.840  14.559 -1.4824  0.1207  0.0364
  323TMC3    C7 4912   1.182   1.572  14.552  0.3221  0.5738  0.3943
  323TMC3    C8 4913   1.424   1.863  14.319 -0.0847  0.2195  0.3287
  323TMC3    O1 4914   1.134   1.462  14.521 -0.3030  0.1466  0.1366
  323TMC3    O2 4915   1.459   1.823  14.209  0.0733  0.2538 -0.5069
  324MPD2     C 4916   3.726   2.345  14.303  0.0221  0.1867  0.8246
  324MPD2    C1 4917   3.678   2.463  14.348  0.1002 -0.3987  0.0628
  324MPD2    C2 4918   3.541   2.480  14.375 -0.2538 -0.0616 -0.8655
  324MPD2    C3 4919   3.455   2.375  14.351 -0.0512 -0.3316 -0.5384
  324MPD2    C4 4920   3.511   2.260  14.316  0.1853 -0.0271 -0.6723
  324MPD2    C5 4921   3.646   2.243  14.286  0.0275 -0.8596 -0.6877
  324MPD2     H 4922   3.502   2.578  14.402  0.5365  0.0624 -0.1921
  324MPD2    H1 4923   3.446   2.179  14.286  0.6952 -0.1423 -1.4897
  324MPD2    H2 4924   3.827   2.314  14.281 -0.2688  1.1146 -1.8164
  324MPD2    H3 4925   3.684   2.147  14.253  0.6797 -0.9603  0.3665
  324MPD2     N 4926   3.316   2.374  14.361 -0.1932  0.6492 -0.8884
  324MPD2    H5 4927   3.267   2.288  14.342 -1.1006  0.6169  1.6450
  324MPD2    N1 4928   3.766   2.568  14.368  0.2416  0.5475  0.4464
  324MPD2    H7 4929   3.727   2.658  14.394  2.3282  1.4640  0.4228
  325TMC3    C1 4930   3.102   2.467  14.389 -0.1070 -0.1532  0.7714
  325TMC3    C2 4931   3.039   2.361  14.321  0.1693 -0.6632 -0.2215
  325TMC3    C3 4932   2.907   2.355  14.293  0.4785  0.2459 -0.1735
  325TMC3    C4 4933   3.022   2.575  14.432  0.7975  0.2749  0.0523
  325TMC3    C5 4934   2.897   2.576  14.384 -0.1461  0.2363 -0.4733
  325TMC3    C6 4935   2.834   2.472  14.320 -0.3956 -0.4279  0.3857
  325TMC3     C 4936   3.244   2.492  14.378  0.1326  0.6904 -0.2272
  325TMC3     O 4937   3.281   2.607  14.369  0.2927  0.1008  0.1087
  325TMC3     H 4938   3.093   2.279  14.274  0.2157 -1.2552  0.8574
  325TMC3    H1 4939   3.060   2.661  14.486  0.4427  0.8361 -0.6003
  325TMC3    H2 4940   2.732   2.479  14.286 -0.2408  1.8108  0.3825
  325TMC3    C7 4941   2.822   2.701  14.404 -0.8059  0.8203  0.3604
  325TMC3    C8 4942   2.877   2.296  14.169 -0.0790  0.5977 -0.5495
  325TMC3    O1 4943   2.845   2.761  14.509 -0.2692  0.1455  0.3493
  325TMC3    O2 4944   2.954   2.315  14.072  0.4686  0.6025  0.1144
  326MPD2     C 4945   4.300   4.646  10.428  0.1580 -0.8305  0.2767
  326MPD2    C1 4946   4.289   4.512  10.449  0.4474  0.2108  0.3800
  326MPD2    C2 4947   4.363   4.461  10.554  0.3908  0.6684  0.6018
  326MPD2    C3 4948   4.441   4.544  10.631  0.2710 -0.0165 -0.4632
  326MPD2    C4 4949   4.454   4.676  10.609 -0.1707 -0.1551  0.6207
  326MPD2    C5 4950   4.386   4.727  10.502 -0.1342  0.0878  0.0136
  326MPD2     H 4951   4.348   4.359  10.587 -0.8685  0.3222 -1.0227
  326MPD2    H1 4952   4.527   4.727  10.671 -1.9434  2.7865  0.2526
  326MPD2    H2 4953   4.247   4.697  10.348  0.2148 -0.9343  0.1739
  326MPD2    H3 4954   4.402   0.089  10.467  0.0329  0.2942  0.6979
  326MPD2     N 4955   4.514   4.489  10.738  0.0060 -0.0518  0.7271
  326MPD2    H5 4956   4.555   4.564  10.793  0.9810 -1.8936  2.4860
  326MPD2    N1 4957   4.186   4.439  10.380  0.5101 -0.3204  0.2522
  326MPD2    H7 4958   4.180   4.345  10.417 -0.1677 -0.4140 -0.0855
  327TMC3    C1 4959   3.990   4.385  10.250  0.0080  0.0086 -0.2268
  327TMC3    C2 4960   3.908   4.430  10.155 -0.6778 -0.1655 -0.0712
  327TMC3    C3 4961   3.783   4.382  10.164 -0.1761 -0.3269  0.1589
  327TMC3    C4 4962   3.961   4.282  10.340 -0.0054 -0.1653 -0.6213
  327TMC3    C5 4963   3.832   4.231  10.335 -0.2477 -0.6193 -0.2748
  327TMC3    C6 4964   3.744   4.278  10.243  0.2391  0.1727  0.0488
  327TMC3     C 4965   4.096   4.481  10.288 -0.0308  0.1825 -0.5224
  327TMC3     O 4966   4.093   4.586  10.225 -0.3415 -0.0589  0.1876
  327TMC3     H 4967   3.932   4.516  10.095  0.9935 -2.8429 -3.1958
  327TMC3    H1 4968   4.015   4.263  10.432  1.4811  2.9390 -0.8539
  327TMC3    H2 4969   3.648   4.228  10.238  0.8663 -0.8403 -1.8056
  327TMC3    C7 4970   3.819   4.086  10.374  0.2591 -0.0403  0.0695
  327TMC3    C8 4971   3.689   4.467  10.096 -0.1537 -0.5059  0.1263
  327TMC3    O1 4972   3.731   4.022  10.318  0.1344 -0.4848 -0.4950
  327TMC3    O2 4973   3.724   4.570  10.042  0.2646  0.3572  0.0012
  328MPD2     C 4974   2.342   3.670  17.105 -0.5195  0.1787  0.1355
  328MPD2    C1 4975   2.274   3.648  16.990 -0.5776  0.7841 -1.4233
  328MPD2    C2 4976   2.255   3.752  16.902  0.1785 -0.1348 -0.3945
  328MPD2    C3 4977   2.304   3.878  16.922 -0.1354 -0.0705  0.7720
  328MPD2    C4 4978   2.378   3.896  17.039 -0.1417 -0.1767 -0.3921
  328MPD2    C5 4979   2.401   3.792  17.126 -0.8070  0.6020 -0.0648
  328MPD2     H 4980   2.198   3.735  16.811  0.0983 -2.2508  0.0498
  328MPD2    H1 4981   2.405   3.996  17.070 -0.2667  0.0761 -1.0979
  328MPD2    H2 4982   2.355   3.591  17.178 -1.2547 -1.6507 -1.6913
  328MPD2    H3 4983   2.465   3.819  17.209  1.3520 -1.5254 -1.0246
  328MPD2     N 4984   2.274   3.995  16.843 -0.0567  0.0383 -0.4322
  328MPD2    H5 4985   2.323   4.080  16.869  1.0045 -0.3379 -1.1620
  328MPD2    N1 4986   2.202   3.523  16.975 -0.3532  0.0720 -0.1516
  328MPD2    H7 4987   2.218   3.452  17.046 -0.1833 -1.0490 -1.3020
  329TMC3    C1 4988   2.042   3.371  16.889  0.1439  0.1980  0.2120
  329TMC3    C2 4989   1.912   3.368  16.846  0.0711  0.6304  0.9116
  329TMC3    C3 4990   1.817   3.315  16.928  0.2704  0.1562 -0.1147
  329TMC3    C4 4991   2.078   3.299  16.999 -0.2264 -0.6547  0.3179
  329TMC3    C5 4992   1.985   3.238  17.073 -0.2704  0.2328 -0.3682
  329TMC3    C6 4993   1.851   3.249  17.039  0.3737 -0.2657  0.4438
  329TMC3     C 4994   2.113   3.493  16.877  0.7115  1.0876 -0.3244
  329TMC3     O 4995   2.057   3.574  16.802  0.4195  0.1843 -0.4077
  329TMC3     H 4996   1.883   3.429  16.761 -2.2901  1.1495  2.0833
  329TMC3    H1 4997   2.183   3.281  17.014  0.0953  0.5780 -0.4279
  329TMC3    H2 4998   1.776   3.202  17.101  0.0819  2.2800  2.0293
  329TMC3    C7 4999   2.032   3.136  17.167  0.3658 -0.3173  0.0456
  329TMC3    C8 5000   1.689   3.372  16.910  0.4970  0.7858 -0.0849
  329TMC3    O1 5001   2.152   3.140  17.198 -0.4863  0.1161  0.2564
  329TMC3    O2 5002   1.636   3.353  16.800  0.6209 -0.4223 -0.4662
  330TMC3    C1 5003   4.656   3.455   9.547  0.0972  0.1721 -0.8338
  330TMC3    C2 5004   4.536   3.450   9.478 -0.0666  0.0416  0.6845
  330TMC3    C3 5005   4.435   3.387   9.544 -0.1706 -0.0046  0.1174
  330TMC3    C4 5006   4.684   3.394   9.668 -0.4545 -0.9244  0.5583
  330TMC3    C5 5007   4.576   3.319   9.719 -0.8299  0.0168  0.0117
  330TMC3    C6 5008   4.454   3.317   9.667 -0.6480 -0.6079  0.7848
  330TMC3     C 5009   0.012   3.562   9.512  0.0550  0.6872 -0.3442
  330TMC3     O 5010   0.101   3.573   9.594 -0.2774 -0.7196  0.3735
  330TMC3     H 5011   4.513   3.498   9.383 -0.2336 -2.6543 -0.6433
  330TMC3    H1 5012   0.040   3.407   9.718  1.0977 -1.6856 -2.1784
  330TMC3    H2 5013   4.373   3.277   9.727  1.1426 -0.2715  3.4332
  330TMC3    C7 5014   4.600   3.228   9.829  0.6911  0.3067 -0.5203
  330TMC3    C8 5015   4.318   3.372   9.467  0.1670 -0.4482  0.0171
  330TMC3    O1 5016   4.516   3.138   9.829 -0.0522 -0.2466  0.2994
  330TMC3    O2 5017   4.296   3.459   9.381  0.3084 -0.5179 -0.7509
  331MPD2     C 5018   3.295   2.620  12.795 -0.1247  0.0814 -0.5912
  331MPD2    C1 5019   3.303   2.604  12.658 -0.1934  0.1022 -0.0585
  331MPD2    C2 5020   3.266   2.479  12.619 -0.2883  0.0597  0.0918
  331MPD2    C3 5021   3.240   2.376  12.707  0.2000 -0.1895  0.2437
  331MPD2    C4 5022   3.252   2.396  12.843 -0.4849  0.1539 -1.0270
  331MPD2    C5 5023   3.286   2.517  12.888 -0.1128  0.2824 -0.6213
  331MPD2     H 5024   3.248   2.457  12.514 -0.7333  0.5257  0.0683
  331MPD2    H1 5025   3.235   2.318  12.917 -2.5588  1.6000  0.0016
  331MPD2    H2 5026   3.310   2.718  12.839  1.0322 -0.6130  0.5794
  331MPD2    H3 5027   3.298   2.542  12.993  1.2860  0.2541 -0.7747
  331MPD2     N 5028   3.181   2.262  12.647  0.1318  0.0648  0.3648
  331MPD2    H5 5029   3.162   2.257  12.548  0.5964  1.1415  0.2282
  331MPD2    N1 5030   3.333   2.708  12.563  0.4007 -0.0242  0.6613
  331MPD2    H7 5031   3.353   2.803  12.593  1.5225 -0.1673  0.3493
  332TMC3    C1 5032   3.042   2.073  12.629  0.0400  0.7918  0.4425
  332TMC3    C2 5033   2.987   2.120  12.515  0.6205 -0.4100 -0.2106
  332TMC3    C3 5034   2.915   2.040  12.432  0.0369  1.0388 -0.2438
  332TMC3    C4 5035   3.027   1.941  12.654 -0.1824  0.4351 -1.2502
  332TMC3    C5 5036   2.961   1.856  12.568 -0.9673 -0.6181  0.0534
  332TMC3    C6 5037   2.904   1.906  12.455 -0.1841 -0.4834  0.5124
  332TMC3     C 5038   3.129   2.152  12.714 -0.6769 -0.2431  0.5878
  332TMC3     O 5039   3.157   2.114  12.827 -0.2288 -0.2845 -0.1927
  332TMC3     H 5040   2.994   2.224  12.488 -0.5304 -0.0378  0.9258
  332TMC3    H1 5041   3.055   1.907  12.753 -1.1954  0.0691 -1.0889
  332TMC3    H2 5042   2.848   1.832  12.399  2.8783 -0.6711 -2.2862
  332TMC3    C7 5043   3.006   1.720  12.565 -0.7670 -0.1783  0.2400
  332TMC3    C8 5044   2.856   2.092  12.314  0.3704  0.0703  0.3614
  332TMC3    O1 5045   2.919   1.636  12.553 -0.6847 -0.2301  0.6448
  332TMC3    O2 5046   2.911   2.189  12.262 -0.3779 -0.3460  0.2170
  333MPD2     C 5047   2.614   2.790  10.891 -0.1047 -0.0723 -0.0454
  333MPD2    C1 5048   2.660   2.663  10.865 -0.2744  0.1080 -0.8775
  333MPD2    C2 5049   2.630   2.561  10.954  1.0523  0.6710 -0.2564
  333MPD2    C3 5050   2.546   2.594  11.056  0.2497 -0.2547  0.5337
  333MPD2    C4 5051   2.487   2.719  11.075  0.1979  0.2694 -0.1438
  333MPD2    C5 5052   2.532   2.819  10.995 -0.8392  0.9551 -0.2573
  333MPD2     H 5053   2.684   2.467  10.955 -0.8330 -0.3824  2.0218
  333MPD2    H1 5054   2.411   2.756  11.142  1.5005  0.6813  1.1021
  333MPD2    H2 5055   2.638   2.869  10.821 -2.3490  0.4969 -0.1706
  333MPD2    H3 5056   2.491   2.919  10.992 -0.2641  1.2716  2.4892
  333MPD2     N 5057   2.523   2.490  11.140  0.3709  0.0129  0.6506
  333MPD2    H5 5058   2.571   2.401  11.126 -1.8837 -0.7124 -2.4244
  333MPD2    N1 5059   2.757   2.642  10.762  0.7354  0.0314 -0.2736
  333MPD2    H7 5060   2.785   2.728  10.716 -1.0519  1.1097  0.6429
  334TMC3    C1 5061   2.910   2.525  10.621 -0.9190 -0.1007  0.8912
  334TMC3    C2 5062   3.008   2.429  10.635 -0.3283  0.2842 -0.1822
  334TMC3    C3 5063   3.135   2.458  10.580 -0.2913  0.1240 -0.1853
  334TMC3    C4 5064   2.931   2.643  10.548  0.3164  0.0938  0.1879
  334TMC3    C5 5065   3.045   2.663  10.483  0.4884 -1.1253  0.3075
  334TMC3    C6 5066   3.146   2.576  10.506 -0.4546  0.7218  0.0829
  334TMC3     C 5067   2.805   2.520  10.717  0.9393  0.0577 -0.9372
  334TMC3     O 5068   2.785   2.405  10.760  0.5572  0.1279 -0.2746
  334TMC3     H 5069   2.990   2.343  10.699  1.6696 -1.0939 -1.4711
  334TMC3    H1 5070   2.853   2.716  10.530  0.7011  0.8950  1.6941
  334TMC3    H2 5071   3.242   2.594  10.459  0.0346 -0.5676  0.5914
  334TMC3    C7 5072   3.086   2.797  10.462  0.2611  0.1109 -0.5867
  334TMC3    C8 5073   3.260   2.388  10.626 -0.8169  0.6110  1.1601
  334TMC3    O1 5074   3.200   2.817  10.502  0.0261 -0.1963 -0.1302
  334TMC3    O2 5075   3.242   2.279  10.672 -0.4163  0.2173 -0.0279
  335TMC3    C1 5076   2.849   3.739  17.526 -0.1211  0.0757 -0.5521
  335TMC3    C2 5077   2.786   3.708  17.414 -0.4486  0.3185 -0.8747
  335TMC3    C3 5078   2.854   3.745  17.295  0.7142  0.0917  0.3298
  335TMC3    C4 5079   2.968   3.770  17.536  0.4135 -0.3095  0.4956
  335TMC3    C5 5080   3.040   3.800  17.421  0.2152  0.0129 -0.3533
  335TMC3    C6 5081   2.983   3.788  17.295 -0.7266 -0.6736 -0.7242
  335TMC3     C 5082   2.781   3.713  17.657  0.2334  0.5932  0.0786
  335TMC3     O 5083   2.700   3.624  17.669 -0.4598 -0.3836 -0.0633
  335TMC3     H 5084   2.678   3.695  17.408 -0.7594  2.4322 -0.1017
  335TMC3    H1 5085   3.018   3.776  17.632 -0.9744  0.3814  1.1910
  335TMC3    H2 5086   3.029   3.823  17.204 -0.8654 -1.8754 -1.2614
  335TMC3    C7 5087   3.179   3.820  17.427 -0.3555 -0.5819  0.1429
  335TMC3    C8 5088   2.809   3.689  17.166  0.2013 -0.4638 -0.5101
  335TMC3    O1 5089   3.230   3.870  17.328 -0.2001 -0.0326 -0.5643
  335TMC3    O2 5090   2.875   3.725  17.072 -0.1770  0.6964 -0.2326
  336MPD2     C 5091   2.553   1.272  16.052  0.0647  0.0562  0.3164
  336MPD2    C1 5092   2.552   1.276  15.908 -0.2494 -0.4465  0.4050
  336MPD2    C2 5093   2.555   1.144  15.847 -0.3620 -0.5650  0.0575
  336MPD2    C3 5094   2.571   1.028  15.926  0.4520  0.2032 -0.2212
  336MPD2    C4 5095   2.581   1.040  16.062 -0.5482  0.2008 -0.0269
  336MPD2    C5 5096   2.581   1.158  16.118  0.1354 -0.2770  0.5953
  336MPD2     H 5097   2.536   1.135  15.741  0.0803  0.2959 -0.0968
  336MPD2    H1 5098   2.595   0.954  16.126 -0.1443 -0.0180 -0.4095
  336MPD2    H2 5099   2.545   1.364  16.108  0.2813  0.6760 -0.6812
  336MPD2    H3 5100   2.593   1.168  16.225  1.2042  0.4165  0.4115
  336MPD2     N 5101   2.587   0.899  15.886  0.1854 -0.3765 -0.1703
  336MPD2    H5 5102   2.614   0.832  15.957  0.6909 -1.0316 -0.9704
  336MPD2    N1 5103   2.531   1.392  15.826  0.2573 -0.2851 -0.0425
  336MPD2    H7 5104   2.532   1.384  15.725 -0.1790  0.6176 -0.1215
  337TMC3    C1 5105   2.515   1.625  15.783  0.0784  0.6033 -0.3823
  337TMC3    C2 5106   2.428   1.608  15.682 -0.2616 -0.4313  0.2724
  337TMC3    C3 5107   2.388   1.718  15.609 -0.5938 -0.8538  0.0064
  337TMC3    C4 5108   2.554   1.752  15.823 -0.2350  0.3093  0.4016
  337TMC3    C5 5109   2.519   1.856  15.740  0.3900  0.4740  0.6196
  337TMC3    C6 5110   2.438   1.843  15.635 -0.2078  0.3886 -0.4523
  337TMC3     C 5111   2.535   1.521  15.877 -0.6531 -0.1089 -0.3398
  337TMC3     O 5112   2.572   1.556  15.986  0.4199 -0.1698 -0.0120
  337TMC3     H 5113   2.380   1.513  15.668 -0.2977 -0.3558 -0.1062
  337TMC3    H1 5114   2.630   1.771  15.898 -0.5406  0.7786  0.5946
  337TMC3    H2 5115   2.407   1.922  15.567  0.3386  1.2685  0.3329
  337TMC3    C7 5116   2.572   1.990  15.757  0.6373  0.1195 -0.0529
  337TMC3    C8 5117   2.264   1.697  15.534  0.9891 -0.8051 -0.4969
  337TMC3    O1 5118   2.598   2.020  15.873  0.8103  0.3375  0.2365
  337TMC3    O2 5119   2.185   1.609  15.562  0.8032  0.9276  0.3359
  338MPD2     C 5120   2.642   1.185   0.864  0.0848  0.0916  0.6894
  338MPD2    C1 5121   2.578   1.149   0.749 -0.2334  0.8295  0.3048
  338MPD2    C2 5122   2.447   1.194   0.723  0.0613 -0.3365  0.5877
  338MPD2    C3 5123   2.374   1.265   0.812  0.7024 -0.4311  0.1628
  338MPD2    C4 5124   2.437   1.299   0.922 -0.1705  0.1495 -0.4266
  338MPD2    C5 5125   2.563   1.265   0.950  0.7071 -0.0191  0.1475
  338MPD2     H 5126   2.392   1.180   0.631 -1.3990  0.1733  1.3928
  338MPD2    H1 5127   2.381   1.365   0.988  0.3683 -0.6028  0.7900
  338MPD2    H2 5128   2.745   1.167   0.893  0.1305  3.0352  2.3807
  338MPD2    H3 5129   2.610   1.302   1.041  1.3688 -0.5783  0.0331
  338MPD2     N 5130   2.241   1.301   0.781 -0.0916  0.4513  0.1835
  338MPD2    H5 5131   2.196   1.275   0.693  0.5831 -2.8829  0.8126
  338MPD2    N1 5132   2.633   1.076   0.646  0.3791 -0.7108 -0.5150
  338MPD2    H7 5133   2.571   1.060   0.568 -0.2268 -0.3871 -0.1013
  339TMC3    C1 5134   2.027   1.399   0.794  0.0912  0.6684  0.5909
  339TMC3    C2 5135   1.947   1.304   0.849  0.4525  0.3798  0.4037
  339TMC3    C3 5136   1.876   1.214   0.764  0.4993 -0.0922  0.3737
  339TMC3    C4 5137   2.037   1.409   0.657  1.2929 -0.4150  0.5070
  339TMC3    C5 5138   1.965   1.319   0.581  0.2870  0.0671  0.1555
  339TMC3    C6 5139   1.880   1.225   0.631 -0.2939  0.0682  0.2708
  339TMC3     C 5140   2.155   1.384   0.855 -0.1326  1.2665  1.1759
  339TMC3     O 5141   2.172   1.421   0.969  0.2102  0.7343  0.0828
  339TMC3     H 5142   1.961   1.286   0.955  1.0741  1.6450  0.5438
  339TMC3    H1 5143   2.093   1.494   0.620  3.2413 -2.3095 -0.8890
  339TMC3    H2 5144   1.825   1.152   0.574  0.5436  1.0206 -1.7428
  339TMC3    C7 5145   1.963   1.343   0.439  0.6087  0.0764  0.1433
  339TMC3    C8 5146   1.839   1.088   0.834 -0.3535 -0.0724 -0.7136
  339TMC3    O1 5147   2.020   1.447   0.406 -0.4546 -0.3184  0.3804
  339TMC3    O2 5148   1.798   1.101   0.947  0.4932  0.6311  0.1474
  340MPD2     C 5149   2.400   4.190   9.931  0.4100  0.3453  0.9508
  340MPD2    C1 5150   2.400   4.052   9.929 -0.0805  0.5725 -0.6995
  340MPD2    C2 5151   2.484   3.980  10.014 -0.3669 -0.1459 -0.0723
  340MPD2    C3 5152   2.554   4.050  10.112 -0.0224  0.1337  0.0101
  340MPD2    C4 5153   2.556   4.188  10.112  0.4812  0.3201 -0.4828
  340MPD2    C5 5154   2.483   4.256  10.015 -0.4158  0.8604  0.2284
  340MPD2     H 5155   2.496   3.873  10.005  1.0609 -0.0729  0.9706
  340MPD2    H1 5156   2.612   4.246  10.184  0.6271 -1.1363  0.5564
  340MPD2    H2 5157   2.337   4.246   9.863 -0.2580 -1.4244  0.1148
  340MPD2    H3 5158   2.492   4.363  10.001 -3.1507  1.0435 -0.2216
  340MPD2     N 5159   2.631   3.989  10.216 -0.2460  0.1388  0.2038
  340MPD2    H5 5160   2.689   4.050  10.273  1.3493 -1.1262 -0.0658
  340MPD2    N1 5161   2.321   3.993   9.830 -0.2388  0.2543  0.6183
  340MPD2    H7 5162   2.281   4.048   9.756  2.2412  1.8928  0.5247
  341TMC3    C1 5163   2.211   3.816   9.722  0.7124 -0.1542  0.0825
  341TMC3    C2 5164   2.158   3.694   9.715 -0.5242  0.5730 -0.4062
  341TMC3    C3 5165   2.124   3.629   9.599  0.1786  0.2306  0.5423
  341TMC3    C4 5166   2.231   3.874   9.602 -0.6070  0.6877  0.2293
  341TMC3    C5 5167   2.210   3.809   9.478  0.2271  0.0546  0.3786
  341TMC3    C6 5168   2.145   3.689   9.479 -0.3227 -0.2602  0.2578
  341TMC3     C 5169   2.284   3.859   9.843  0.2113 -0.2390 -0.3378
  341TMC3     O 5170   2.275   3.795   9.948 -0.1446  0.0811  0.0840
  341TMC3     H 5171   2.151   3.642   9.810 -2.9302 -0.7812 -1.3156
  341TMC3    H1 5172   2.280   3.970   9.592  1.6536 -0.2861  2.0289
  341TMC3    H2 5173   2.146   3.626   9.391  5.5797  1.0229 -0.6115
  341TMC3    C7 5174   2.237   3.878   9.350 -0.1054  0.1987 -0.1830
  341TMC3    C8 5175   2.075   3.494   9.605  0.3653 -0.1789  1.0415
  341TMC3    O1 5176   2.314   3.972   9.365 -0.3311  0.5105  0.1993
  341TMC3    O2 5177   2.117   3.412   9.687  0.7024  0.4751 -0.0539
  342MPD2     C 5178   0.962   1.460  17.336 -0.3232  0.7433  0.1987
  342MPD2    C1 5179   0.937   1.498  17.210 -0.2635  0.6984  0.2296
  342MPD2    C2 5180   0.909   1.634  17.187  0.3340 -0.5292 -0.5600
  342MPD2    C3 5181   0.894   1.717  17.293 -0.6044  0.4922  0.3093
  342MPD2    C4 5182   0.910   1.673  17.424  0.1618 -0.2418  0.2353
  342MPD2    C5 5183   0.940   1.543  17.442 -0.9595 -0.0848 -0.3289
  342MPD2     H 5184   0.903   1.679  17.089 -1.9937 -0.0991 -0.2277
  342MPD2    H1 5185   0.891   1.735  17.511  1.0030 -1.9071  1.6029
  342MPD2    H2 5186   1.009   1.365  17.358  0.3608  1.0963  0.2356
  342MPD2    H3 5187   0.964   1.508  17.541  3.8929  2.2921 -0.6888
  342MPD2     N 5188   0.877   1.860  17.283  0.4982 -0.7383  0.2792
  342MPD2    H5 5189   0.865   1.913  17.369  0.6249 -1.6123  0.8348
  342MPD2    N1 5190   0.959   1.407  17.103  0.0229  0.3274 -0.0544
  342MPD2    H7 5191   0.943   1.440  17.008  2.2087 -0.5218 -0.7241
  343TMC3    C1 5192   1.002   1.211  16.992 -0.1996  0.0699  0.2530
  343TMC3    C2 5193   1.104   1.268  16.912 -0.2944  0.6373  0.9617
  343TMC3    C3 5194   1.157   1.191  16.813 -0.3869 -1.0302  0.3253
  343TMC3    C4 5195   0.968   1.075  16.981  0.2498 -0.0357  0.5867
  343TMC3    C5 5196   1.027   1.003  16.884 -0.0340 -0.7067 -0.0120
  343TMC3    C6 5197   1.126   1.058  16.801 -0.0118  0.1863 -0.0628
  343TMC3     C 5198   0.986   1.276  17.120 -0.2047  1.0412 -0.7900
  343TMC3     O 5199   0.980   1.206  17.223  0.3609  0.0817  0.6735
  343TMC3     H 5200   1.141   1.367  16.935 -1.5765  1.6890 -1.5170
  343TMC3    H1 5201   0.886   1.031  17.037 -0.2869 -1.9008 -1.6436
  343TMC3    H2 5202   1.153   1.001  16.713  1.6655 -0.9034  1.1594
  343TMC3    C7 5203   0.992   0.865  16.869  0.6747 -0.1545  0.1817
  343TMC3    C8 5204   1.282   1.236  16.761  0.0230 -0.1727  0.2895
  343TMC3    O1 5205   1.014   0.812  16.762 -0.6792 -0.5093  0.3787
  343TMC3    O2 5206   1.302   1.357  16.768  0.2801  0.0421 -0.2202
  344MPD2     C 5207   1.719   1.388  11.124  0.1255 -0.1801  0.0493
  344MPD2    C1 5208   1.614   1.382  11.041  0.3911 -0.1119  0.2954
  344MPD2    C2 5209   1.609   1.473  10.929 -0.0954  0.5026 -0.3213
  344MPD2    C3 5210   1.702   1.569  10.908 -1.3284 -0.9184  0.0006
  344MPD2    C4 5211   1.816   1.562  10.988  0.4311 -0.2066  0.1483
  344MPD2    C5 5212   1.823   1.469  11.087 -0.2712  0.0211 -0.4307
  344MPD2     H 5213   1.529   1.468  10.856 -0.5645 -2.6937  0.4237
  344MPD2    H1 5214   1.907   1.618  10.968  0.9505 -0.1146  2.7054
  344MPD2    H2 5215   1.715   1.331  11.216  0.7024  0.1727  0.2908
  344MPD2    H3 5216   1.911   1.476  11.150 -0.4449  0.3397 -0.2242
  344MPD2     N 5217   1.709   1.668  10.804  0.0143  0.3559  0.1347
  344MPD2    H5 5218   1.791   1.728  10.807 -0.3033  0.7964 -0.0261
  344MPD2    N1 5219   1.496   1.301  11.067 -0.7789 -0.0765  0.3892
  344MPD2    H7 5220   1.414   1.304  11.007 -1.0821  2.1748  0.9206
  345TMC3    C1 5221   1.631   1.814  10.652  0.0348 -0.1717 -0.4165
  345TMC3    C2 5222   1.726   1.905  10.702 -0.2283  0.0859 -0.3046
  345TMC3    C3 5223   1.736   2.031  10.650 -0.0561 -0.1692  0.4809
  345TMC3    C4 5224   1.550   1.845  10.544 -1.0583 -0.0584  0.0031
  345TMC3    C5 5225   1.564   1.972  10.494 -0.7169  0.7731  0.6901
  345TMC3    C6 5226   1.654   2.062  10.544  0.6364 -0.2050  0.6579
  345TMC3     C 5227   1.614   1.683  10.707  0.5152 -0.2128 -0.0872
  345TMC3     O 5228   1.531   1.606  10.659  0.6491 -0.3120 -0.0075
  345TMC3     H 5229   1.789   1.893  10.790 -1.6357 -3.0030  0.2717
  345TMC3    H1 5230   1.492   1.765  10.500 -1.7070  1.2902 -1.5717
  345TMC3    H2 5231   1.643   2.163  10.504 -2.5951  0.2224  2.5878
  345TMC3    C7 5232   1.504   2.024  10.371 -0.7975 -0.5209  0.0660
  345TMC3    C8 5233   1.776   2.136  10.739 -0.3102  0.3114  0.8385
  345TMC3    O1 5234   1.567   2.107  10.303  0.1275  0.2070  0.2389
  345TMC3    O2 5235   1.764   2.115  10.859 -0.0681 -0.2076  0.3708
  346MPD2     C 5236   1.811   3.328  14.333 -0.6510  0.1930 -0.3709
  346MPD2    C1 5237   1.929   3.345  14.261  0.1024  0.9355 -0.1842
  346MPD2    C2 5238   2.048   3.376  14.326 -0.8874  0.4562 -0.4714
  346MPD2    C3 5239   2.054   3.379  14.467 -0.3065 -0.1708  0.0041
  346MPD2    C4 5240   1.938   3.347  14.540 -0.5448 -0.5080 -0.2989
  346MPD2    C5 5241   1.824   3.324  14.470  0.4071 -0.0570  0.0754
  346MPD2     H 5242   2.128   3.397  14.256 -0.0663  4.1069  1.5259
  346MPD2    H1 5243   1.932   3.346  14.648  2.3025 -2.2709 -0.1460
  346MPD2    H2 5244   1.717   3.297  14.290 -3.2941  3.7409  2.9085
  346MPD2    H3 5245   1.740   3.290  14.529 -1.1432 -2.5228 -3.6174
  346MPD2     N 5246   2.178   3.400  14.534  0.4865  0.6723 -0.0433
  346MPD2    H5 5247   2.253   3.412  14.466  3.0467  0.5481  2.7321
  346MPD2    N1 5248   1.935   3.320  14.120 -0.4141 -0.3616  0.2432
  346MPD2    H7 5249   2.025   3.319  14.074 -0.8161 -1.4442 -0.5179
  347TMC3    C1 5250   2.344   3.369  14.697  0.2019  0.3180  0.2615
  347TMC3    C2 5251   2.423   3.303  14.609  0.2145 -0.1812 -0.0687
  347TMC3    C3 5252   2.557   3.285  14.641 -0.3844  0.2553  0.3181
  347TMC3    C4 5253   2.384   3.415  14.818  0.2849  0.2450 -0.3386
  347TMC3    C5 5254   2.512   3.395  14.853  0.2678 -0.5436 -0.6046
  347TMC3    C6 5255   2.598   3.328  14.767  0.0387 -0.1697 -0.0786
  347TMC3     C 5256   2.204   3.381  14.668  0.0127  0.6412 -0.0214
  347TMC3     O 5257   2.123   3.365  14.760  0.1744  0.3762 -0.4755
  347TMC3     H 5258   2.368   3.245  14.536 -1.3607  1.0024  0.1739
  347TMC3    H1 5259   2.309   3.464  14.879 -2.2499 -2.0049 -1.6187
  347TMC3    H2 5260   2.699   3.298  14.791  0.9808 -0.8359 -4.9301
  347TMC3    C7 5261   2.570   3.469  14.972 -0.8706  0.0112 -0.2693
  347TMC3    C8 5262   2.629   3.188  14.568  0.5086 -0.2854 -0.1046
  347TMC3    O1 5263   2.482   3.528  15.032  0.0658 -0.2853  0.2050
  347TMC3    O2 5264   2.703   3.121  14.632 -0.3636 -0.0510  0.3618
  348MPD2     C 5265   0.823   2.970  12.146 -0.5975  0.0473  0.0545
  348MPD2    C1 5266   0.788   2.915  12.025  0.2770 -0.1530 -0.1537
  348MPD2    C2 5267   0.730   2.993  11.928 -0.2659  0.9053 -0.1326
  348MPD2    C3 5268   0.732   3.134  11.946  0.4634 -0.0675  0.1790
  348MPD2    C4 5269   0.785   3.190  12.059 -0.5809 -0.3876 -0.5306
  348MPD2    C5 5270   0.834   3.107  12.157  0.4775 -0.1417  0.6374
  348MPD2     H 5271   0.705   2.942  11.836  0.6643 -0.7214  0.5227
  348MPD2    H1 5272   0.798   3.296  12.075  0.9979 -0.5949 -0.4306
  348MPD2    H2 5273   0.851   2.911  12.232 -2.0253  2.3629  2.1141
  348MPD2    H3 5274   0.884   3.147  12.245  0.4920  0.3552  0.4071
  348MPD2     N 5275   0.686   3.215  11.842 -0.2278  0.2143  0.0069
  348MPD2    H5 5276   0.720   3.310  11.849  1.6857 -0.6053  1.8780
  348MPD2    N1 5277   0.781   2.776  12.001 -0.1559  0.4171  0.1845
  348MPD2    H7 5278   0.731   2.756  11.915  0.1750 -2.1888  0.6185
  349TMC3    C1 5279   0.751   2.549  12.047  0.6060  0.4349  0.0526
  349TMC3    C2 5280   0.792   2.428  12.102  0.3618  0.4414 -0.6340
  349TMC3    C3 5281   0.734   2.313  12.054 -0.1163 -0.2277 -1.1157
  349TMC3    C4 5282   0.659   2.553  11.942 -0.2046 -0.7591 -0.0977
  349TMC3    C5 5283   0.602   2.432  11.900 -0.0059  0.0785  0.2303
  349TMC3    C6 5284   0.645   2.312  11.949 -0.7260 -0.0001  0.4021
  349TMC3     C 5285   0.826   2.670  12.078  0.5827 -0.4672  0.2247
  349TMC3     O 5286   0.897   2.673  12.174  0.5428 -0.0282 -0.0522
  349TMC3     H 5287   0.873   2.429  12.174  0.5869 -0.9120 -0.8626
  349TMC3    H1 5288   0.606   2.641  11.907  0.6351 -1.0281 -2.0534
  349TMC3    H2 5289   0.590   2.224  11.917  0.1597  0.7918 -3.2622
  349TMC3    C7 5290   0.498   2.447  11.798  0.1533  0.0760  0.4146
  349TMC3    C8 5291   0.772   2.187  12.117  0.1136 -0.2249 -0.3874
  349TMC3    O1 5292   0.432   2.346  11.798  0.4159  0.5239 -0.8767
  349TMC3    O2 5293   0.846   2.200  12.218  0.3760 -0.1757  0.0099
  350MPD2     C 5294   4.582   1.497  10.369 -0.8218 -0.2701 -0.3145
  350MPD2    C1 5295   4.654   1.399  10.297  0.1420  0.1223 -0.6970
  350MPD2    C2 5296   0.045   1.369  10.332 -0.4726 -0.6112  0.9746
  350MPD2    C3 5297   0.102   1.418  10.449  0.1430  0.8058  0.5418
  350MPD2    C4 5298   0.025   1.519  10.512 -0.5094 -0.5847 -0.4057
  350MPD2    C5 5299   4.641   1.563  10.473  0.0818 -0.3312  0.4957
  350MPD2     H 5300   0.104   1.296  10.279 -1.1671  0.2320 -0.9692
  350MPD2    H1 5301   0.061   1.577  10.596  0.6778 -2.8437  0.6461
  350MPD2    H2 5302   4.483   1.535  10.344 -1.3266 -1.5548 -0.2832
  350MPD2    H3 5303   4.609   1.647  10.534 -1.2983 -0.7117  0.3092
  350MPD2     N 5304   0.223   1.364  10.502 -0.0894 -0.1271  0.3257
  350MPD2    H5 5305   0.247   1.280  10.451  2.2734  1.5810 -1.3962
  350MPD2    N1 5306   4.598   1.323  10.186  0.9863  0.6425  0.3772
  350MPD2    H7 5307   4.667   1.264  10.140  0.4709  1.3372 -1.2814
  351TMC3    C1 5308   4.440   1.241  10.026  0.4283 -0.5023  0.1690
  351TMC3    C2 5309   4.540   1.176   9.969  0.4484 -0.6265  0.0178
  351TMC3    C3 5310   4.508   1.087   9.873 -0.5774  0.2350 -0.3055
  351TMC3    C4 5311   4.309   1.231   9.985  0.0008  0.0743  0.2876
  351TMC3    C5 5312   4.288   1.146   9.885  0.5738  0.2282 -0.4576
  351TMC3    C6 5313   4.381   1.065   9.834  0.4257 -0.6932  0.1944
  351TMC3     C 5314   4.468   1.327  10.147 -0.1972  1.0893 -0.7637
  351TMC3     O 5315   4.367   1.357  10.213 -0.1176 -0.2744  0.2472
  351TMC3     H 5316   4.645   1.193   9.990  0.4529 -0.3032 -0.2767
  351TMC3    H1 5317   4.226   1.280  10.034 -0.4520  1.2737 -1.6748
  351TMC3    H2 5318   4.349   0.994   9.759 -1.7561 -1.2072  1.6033
  351TMC3    C7 5319   4.153   1.100   9.874 -0.8058 -0.4969 -0.5691
  351TMC3    C8 5320   4.611   0.984   9.868 -0.6280 -0.0530  0.4825
  351TMC3    O1 5321   4.065   1.188   9.875 -0.0925 -0.1371  0.5852
  351TMC3    O2 5322   4.727   1.026   9.859 -0.5407  0.4086  0.0567
  352MPD2     C 5323   2.539   2.818   1.627  0.2453 -0.2850  0.1658
  352MPD2    C1 5324   2.530   2.791   1.493  0.0739  0.1048  0.3635
  352MPD2    C2 5325   2.602   2.685   1.443  0.3583  0.3808  0.3289
  352MPD2    C3 5326   2.666   2.593   1.531 -0.1979 -0.4557  0.1698
  352MPD2    C4 5327   2.676   2.625   1.665 -0.5985 -0.1545 -0.2143
  352MPD2    C5 5328   2.611   2.737   1.711  0.2395 -0.0930  0.4848
  352MPD2     H 5329   2.594   2.654   1.340 -1.0946  0.5267  0.3919
  352MPD2    H1 5330   2.713   2.562   1.745  1.6278  0.0896 -1.0532
  352MPD2    H2 5331   2.485   2.894   1.683  1.8120  1.4412 -0.7040
  352MPD2    H3 5332   2.624   2.761   1.816  2.1557 -2.3555  0.7725
  352MPD2     N 5333   2.709   2.465   1.490  0.1363 -0.3550 -0.1554
  352MPD2    H5 5334   2.754   2.421   1.569 -0.8296  0.4963  0.8585
  352MPD2    N1 5335   2.459   2.884   1.417 -0.1429  0.1912  0.2886
  352MPD2    H7 5336   2.413   2.961   1.466  0.5415  0.2045  0.9192
  353TMC3    C1 5337   2.753   2.271   1.351 -0.2612  0.4131  0.4295
  353TMC3    C2 5338   2.845   2.211   1.440  1.2239 -0.7301  0.4197
  353TMC3    C3 5339   2.878   2.080   1.418  0.0657  0.5453  0.0246
  353TMC3    C4 5340   2.700   2.203   1.246 -0.5954 -0.0938  0.0504
  353TMC3    C5 5341   2.737   2.069   1.235  0.8606  0.1484  0.3024
  353TMC3    C6 5342   2.821   2.006   1.321  0.5886  0.0527 -0.7523
  353TMC3     C 5343   2.708   2.410   1.359  0.3043 -0.1283  0.7814
  353TMC3     O 5344   2.658   2.454   1.258 -0.1289 -0.3812  0.4497
  353TMC3     H 5345   2.891   2.265   1.521 -0.7001  1.4783  0.0637
  353TMC3    H1 5346   2.636   2.252   1.174  0.9331  2.0032  0.1010
  353TMC3    H2 5347   2.816   1.897   1.320  1.2845  0.0229 -1.2307
  353TMC3    C7 5348   2.671   1.976   1.146 -0.1912 -0.1261 -0.4682
  353TMC3    C8 5349   2.978   2.007   1.490  0.9075  1.0109 -0.5126
  353TMC3    O1 5350   2.730   1.873   1.108  0.8528 -0.0439 -0.0660
  353TMC3    O2 5351   2.990   2.035   1.609 -0.0541 -0.1111  0.2040
  354TMC3    C1 5352   4.135   4.017  13.140  0.4853 -0.3586  0.4679
  354TMC3    C2 5353   4.131   4.146  13.102  0.0232  0.2794  0.1259
  354TMC3    C3 5354   4.136   4.166  12.972  0.1424  0.1170  0.1921
  354TMC3    C4 5355   4.156   3.908  13.050 -0.1948 -0.3328  0.6435
  354TMC3    C5 5356   4.183   3.938  12.917  0.2624 -0.1578 -0.0880
  354TMC3    C6 5357   4.175   4.069  12.883  0.3859 -0.0651  0.2300
  354TMC3     C 5358   4.158   3.994  13.284  0.0829  0.1676 -0.1158
  354TMC3     O 5359   4.156   3.876  13.319 -0.0705 -0.2061  0.3600
  354TMC3     H 5360   4.087   4.212  13.176  1.5615  2.5494 -0.9810
  354TMC3    H1 5361   4.174   3.810  13.093 -2.6546 -0.3366  1.6798
  354TMC3    H2 5362   4.191   4.090  12.778  0.8807  2.4404  0.7966
  354TMC3    C7 5363   4.285   3.853  12.862 -0.0950 -0.3689  0.2957
  354TMC3    C8 5364   4.101   4.298  12.922 -0.9007 -0.0283  0.9602
  354TMC3    O1 5365   4.293   3.737  12.904 -0.4427  0.4018 -0.2575
  354TMC3    O2 5366   4.119   4.314  12.800 -0.2065 -0.2996  0.1519
  355MPD2     C 5367   4.095   0.452  11.396 -0.8465  0.0305 -0.0820
  355MPD2    C1 5368   4.210   0.421  11.319 -0.1873 -0.3577 -0.4862
  355MPD2    C2 5369   4.312   0.361  11.383  0.1460  0.3425 -0.1690
  355MPD2    C3 5370   4.298   0.312  11.509  0.0158 -0.4399  0.3243
  355MPD2    C4 5371   4.185   0.341  11.583  0.0426 -0.1742 -0.1403
  355MPD2    C5 5372   4.088   0.412  11.527  0.4827 -0.2283  0.0304
  355MPD2     H 5373   4.409   0.348  11.337  0.1857 -1.9948  0.5904
  355MPD2    H1 5374   4.164   0.298  11.680  0.4524 -0.8414 -0.3454
  355MPD2    H2 5375   4.012   0.508  11.355  2.9797  4.2590 -1.9844
  355MPD2    H3 5376   3.994   0.432  11.578  1.2536 -0.7775  1.6530
  355MPD2     N 5377   4.410   0.262  11.579 -0.3186 -0.0212  0.1207
  355MPD2    H5 5378   4.387   0.248  11.677 -1.5362  2.2753  0.1724
  355MPD2    N1 5379   4.223   0.491  11.198 -0.3876  0.2981  0.2254
  355MPD2    H7 5380   4.132   0.502  11.155  0.8342 -0.0508 -2.4311
  356TMC3    C1 5381   4.626   0.170  11.603 -1.1796  0.6404  0.0024
  356TMC3    C2 5382   0.017   0.216  11.564  0.2571 -0.3419 -0.0425
  356TMC3    C3 5383   0.107   0.209  11.659 -0.3239  0.0833  0.4376
  356TMC3    C4 5384   4.603   0.122  11.729 -0.4960 -0.1551 -0.6762
  356TMC3    C5 5385   4.716   0.094  11.806  0.0082  0.3518 -0.2480
  356TMC3    C6 5386   0.105   0.141  11.771  0.8075 -0.4828 -0.3785
  356TMC3     C 5387   4.520   0.203  11.521  0.0674 -0.0542  0.2497
  356TMC3     O 5388   4.538   0.173  11.404 -0.1831 -0.3124 -0.0123
  356TMC3     H 5389   0.033   0.263  11.468 -1.4156  0.1663 -0.0736
  356TMC3    H1 5390   4.505   0.082  11.755 -1.1080  0.9933 -1.2354
  356TMC3    H2 5391   0.196   0.113  11.824  1.4302  2.9226  0.3468
  356TMC3    C7 5392   4.686   0.066  11.946  0.4216 -0.6350  0.2771
  356TMC3    C8 5393   0.238   0.238  11.610  0.1949  0.5768  0.2085
  356TMC3    O1 5394   4.579   0.006  11.980 -0.4177 -0.0626 -0.1543
  356TMC3    O2 5395   0.328   0.161  11.620  0.4749 -0.1879 -0.1724
  357MPD2     C 5396   4.334   4.484   1.447 -0.9968 -0.3795  0.0692
  357MPD2    C1 5397   4.307   4.402   1.343  0.2625  0.2227 -0.9191
  357MPD2    C2 5398   4.200   4.312   1.366 -0.2670  0.4192 -0.3679
  357MPD2    C3 5399   4.130   4.313   1.482  0.2233 -0.5852 -0.5994
  357MPD2    C4 5400   4.170   4.383   1.590 -0.0169  0.0826 -0.2599
  357MPD2    C5 5401   4.272   4.473   1.567  0.3209 -0.0665 -0.1625
  357MPD2     H 5402   4.175   4.244   1.285  0.9792  0.2051 -0.5796
  357MPD2    H1 5403   4.128   4.369   1.689 -0.8992 -1.8201 -0.9197
  357MPD2    H2 5404   4.414   4.557   1.437 -0.7274 -0.6188  0.4858
  357MPD2    H3 5405   4.305   4.536   1.649  1.6191  0.9952 -1.4986
  357MPD2     N 5406   4.031   4.211   1.505 -0.8898 -0.4801 -0.0269
  357MPD2    H5 5407   4.005   4.182   1.599 -0.8249  1.0182  0.4538
  357MPD2    N1 5408   4.393   4.405   1.227 -0.2330 -0.2139 -0.2746
  357MPD2    H7 5409   4.453   4.487   1.229 -0.7803  0.1839  0.0089
  358TMC3    C1 5410   4.464   4.365   1.001  0.0388  0.3500  0.2292
  358TMC3    C2 5411   4.419   4.328   0.880 -0.3419  0.3892  0.2007
  358TMC3    C3 5412   4.493   4.366   0.774  0.5892 -0.5831 -0.4362
  358TMC3    C4 5413   4.576   4.438   1.022 -0.4371  0.0286 -1.0198
  358TMC3    C5 5414   4.648   4.473   0.911 -0.2999  0.2530  0.0211
  358TMC3    C6 5415   4.602   4.438   0.786 -0.3109  0.5663  0.1378
  358TMC3     C 5416   4.381   4.322   1.119 -0.1909  0.0980  0.0591
  358TMC3     O 5417   4.295   4.233   1.097 -0.3405  0.2292  0.0381
  358TMC3     H 5418   4.324   4.278   0.872 -0.6083  1.2039 -1.6617
  358TMC3    H1 5419   4.605   4.454   1.125 -3.4136  1.1011 -0.3521
  358TMC3    H2 5420   4.669   4.459   0.703 -2.6441  0.6223 -1.7247
  358TMC3    C7 5421   0.053   4.469   0.946  0.4698 -0.0422 -0.0949
  358TMC3    C8 5422   4.472   4.335   0.635  0.0765 -0.1205 -0.1305
  358TMC3    O1 5423   0.103   4.374   0.888 -0.2367 -0.1865  0.2062
  358TMC3    O2 5424   4.526   4.410   0.553 -0.3808 -0.4378 -0.4010
  359MPD2     C 5425   0.417   3.167  12.080 -0.2602  0.4411  0.2816
  359MPD2    C1 5426   0.312   3.200  11.993 -0.2779  0.0405  0.2164
  359MPD2    C2 5427   0.205   3.113  12.000 -0.3850 -0.9816  0.3114
  359MPD2    C3 5428   0.201   2.996  12.073 -0.1588  0.6935  0.7534
  359MPD2    C4 5429   0.299   2.978  12.173  0.7386  0.0791 -0.9443
  359MPD2    C5 5430   0.409   3.062  12.169 -0.7912  1.0735  0.5154
  359MPD2     H 5431   0.130   3.131  11.924 -0.9364  0.1014  1.1141
  359MPD2    H1 5432   0.298   2.889  12.234 -1.8700  1.7082  1.3762
  359MPD2    H2 5433   0.502   3.234  12.078  1.4880 -1.7644  0.9205
  359MPD2    H3 5434   0.483   3.068  12.248  0.3316  0.3781 -0.4746
  359MPD2     N 5435   0.099   2.901  12.068 -0.5601  0.1756 -0.6201
  359MPD2    H5 5436   0.098   2.829  12.139  3.3567 -0.2560 -0.9863
  359MPD2    N1 5437   0.307   3.307  11.901  0.0317  0.2172 -0.1129
  359MPD2    H7 5438   0.223   3.318  11.845 -0.4027 -0.8573  0.3344
  360TMC3    C1 5439   0.372   3.516  11.791  0.3589 -0.3756 -1.3119
  360TMC3    C2 5440   0.452   3.625  11.795 -0.1062  0.6302 -0.4203
  360TMC3    C3 5441   0.438   3.723  11.698  0.5088  0.5329  0.2509
  360TMC3    C4 5442   0.292   3.493  11.686  0.3792  0.0189  0.8222
  360TMC3    C5 5443   0.261   3.600  11.603  0.4452 -0.0309  0.2837
  360TMC3    C6 5444   0.334   3.715  11.605 -0.3262  0.6081  0.3727
  360TMC3     C 5445   0.398   3.415  11.902 -0.4930  0.4943  0.8975
  360TMC3     O 5446   0.506   3.428  11.968 -0.5327 -0.3916  0.6119
  360TMC3     H 5447   0.506   3.645  11.887  3.5393 -1.9493 -1.9608
  360TMC3    H1 5448   0.241   3.399  11.667  1.7630 -0.9848  2.1021
  360TMC3    H2 5449   0.314   3.802  11.544  0.4479  1.7798  1.7842
  360TMC3    C7 5450   0.181   3.573  11.481  0.5089  0.1736 -0.1305
  360TMC3    C8 5451   0.525   3.843  11.700  0.3017 -0.1029 -0.3113
  360TMC3    O1 5452   0.216   3.619  11.373 -0.3679 -0.4557  0.0132
  360TMC3    O2 5453   0.487   3.939  11.638  0.8600 -0.3348 -0.7359
  361MPD2     C 5454   2.252   2.784  16.557 -0.5410  0.2823  0.0654
  361MPD2    C1 5455   2.185   2.760  16.678 -0.0048  0.4367 -0.2457
  361MPD2    C2 5456   2.195   2.645  16.755 -0.7800  0.3569 -0.1695
  361MPD2    C3 5457   2.267   2.541  16.700  0.4229  0.0074 -0.3651
  361MPD2    C4 5458   2.326   2.559  16.570  0.0049 -0.2568  0.3915
  361MPD2    C5 5459   2.324   2.682  16.507  0.0611  0.4413  0.3923
  361MPD2     H 5460   2.141   2.643  16.849  0.3388  0.4159  0.4765
  361MPD2    H1 5461   2.367   2.477  16.513  0.8396 -0.0088  0.6323
  361MPD2    H2 5462   2.242   2.869  16.490  0.7897  2.4651  2.6182
  361MPD2    H3 5463   2.357   2.691  16.404  1.0156  0.6540  0.7148
  361MPD2     N 5464   2.282   2.414  16.758  0.2134  0.2382 -0.9246
  361MPD2    H5 5465   2.332   2.342  16.706  1.8983 -0.0989  1.1880
  361MPD2    N1 5466   2.083   2.851  16.709 -0.2265 -0.3940 -0.0967
  361MPD2    H7 5467   2.024   2.811  16.781 -2.0045  1.7217 -0.3782
  362TMC3    C1 5468   1.946   3.042  16.690 -0.5471 -0.2575 -0.6875
  362TMC3    C2 5469   1.869   2.979  16.779  0.8438  0.1733 -0.4461
  362TMC3    C3 5470   1.733   2.993  16.751  0.7615 -0.6247  0.3449
  362TMC3    C4 5471   1.898   3.134  16.600 -0.2338 -0.0360  0.2011
  362TMC3    C5 5472   1.762   3.148  16.576  0.0176 -0.0526  0.3227
  362TMC3    C6 5473   1.677   3.081  16.659  0.0381  0.1175  0.6243
  362TMC3     C 5474   2.076   2.986  16.668 -0.0330 -0.3244  0.2623
  362TMC3     O 5475   2.161   3.041  16.599  0.1083 -0.0685 -0.0546
  362TMC3     H 5476   1.899   2.904  16.852  2.9823  0.7950 -0.6622
  362TMC3    H1 5477   1.975   3.182  16.541  0.5901 -1.1065  0.4046
  362TMC3    H2 5478   1.572   3.076  16.633  0.3811  0.7403 -0.8628
  362TMC3    C7 5479   1.704   3.203  16.454  0.2707 -0.1280 -0.3034
  362TMC3    C8 5480   1.654   2.989  16.873 -0.1138  0.1784 -0.0167
  362TMC3    O1 5481   1.597   3.260  16.470 -0.3057  0.5368 -0.6935
  362TMC3    O2 5482   1.716   2.981  16.979  0.2030 -0.2354  0.6483
  363TMC3    C1 5483   1.261   0.652   9.863 -0.0562  0.2885  0.2805
  363TMC3    C2 5484   1.210   0.527   9.854 -0.2128 -0.3770  0.3786
  363TMC3    C3 5485   1.078   0.509   9.888 -0.2709  0.8725 -0.2137
  363TMC3    C4 5486   1.191   0.760   9.911 -0.0411 -0.7632 -0.5736
  363TMC3    C5 5487   1.055   0.741   9.927  0.6630 -0.8457 -0.7185
  363TMC3    C6 5488   0.997   0.615   9.912  1.0314  0.3725  0.8143
  363TMC3     C 5489   1.405   0.654   9.827  0.0328 -0.4053  0.4366
  363TMC3     O 5490   1.474   0.555   9.847 -0.3218  0.2275 -0.5015
  363TMC3     H 5491   1.278   0.448   9.825  2.1797  1.8944 -0.2647
  363TMC3    H1 5492   1.249   0.851   9.922  2.4991 -2.7023  1.9509
  363TMC3    H2 5493   0.889   0.607   9.915  0.7403  2.7385 -2.3242
  363TMC3    C7 5494   0.977   0.859   9.916 -0.4107 -0.8202  0.0160
  363TMC3    C8 5495   1.017   0.386   9.841  0.1161  0.2965  0.0110
  363TMC3    O1 5496   0.853   0.838   9.903  0.1842  0.0683 -0.3175
  363TMC3    O2 5497   1.087   0.313   9.775 -0.2119 -0.0678  0.6816
  364MPD2     C 5498   3.216   4.656   9.992  0.9687 -0.1631 -0.1727
  364MPD2    C1 5499   3.345   4.687   9.935  0.3721 -0.2333  0.4983
  364MPD2    C2 5500   3.447   4.610   9.977  0.2066 -0.4030 -0.8470
  364MPD2    C3 5501   3.441   4.513  10.077  0.5507  0.4206 -0.5655
  364MPD2    C4 5502   3.319   4.482  10.130  0.2801  0.3961 -0.1804
  364MPD2    C5 5503   3.212   4.550  10.083 -0.4982  0.3371  0.2214
  364MPD2     H 5504   3.541   4.627   9.926 -0.2581  2.2847 -0.8153
  364MPD2    H1 5505   3.301   4.406  10.205  4.1580 -2.9915 -2.6507
  364MPD2    H2 5506   3.129   4.714   9.964  2.5607  1.6181 -1.4163
  364MPD2    H3 5507   3.111   4.525  10.113  0.0089 -0.0624  1.5576
  364MPD2     N 5508   3.553   4.437  10.118 -0.1860 -0.1202  0.1465
  364MPD2    H5 5509   3.536   4.356  10.177 -0.6628 -0.7331 -0.8188
  364MPD2    N1 5510   3.362   0.060   9.841 -0.1699  0.3894 -0.5922
  364MPD2    H7 5511   3.287   0.128   9.845  1.4829  2.1933 -0.6951
  365TMC3    C1 5512   3.482   0.232   9.722 -0.1054 -0.6356  0.7619
  365TMC3    C2 5513   3.576   0.266   9.630 -0.2527 -0.4846 -0.6714
  365TMC3    C3 5514   3.594   0.399   9.609 -0.0850 -0.0194  0.3901
  365TMC3    C4 5515   3.411   0.334   9.791 -0.1919  0.4689 -0.2010
  365TMC3    C5 5516   3.443   0.467   9.776 -0.0158  0.2299  0.6807
  365TMC3    C6 5517   3.541   0.500   9.684  0.1733 -0.9848 -0.7293
  365TMC3     C 5518   3.476   0.089   9.766  0.2531  0.1999 -0.3011
  365TMC3     O 5519   3.559   0.011   9.731  0.8515 -0.3240  0.4023
  365TMC3     H 5520   3.602   0.190   9.557 -0.2172 -1.4868  0.3654
  365TMC3    H1 5521   3.327   0.310   9.854  0.6110 -0.5459  0.4958
  365TMC3    H2 5522   3.575   0.602   9.669  0.8286 -1.0992 -0.0172
  365TMC3    C7 5523   3.457   0.552   9.892 -0.9355 -0.2072  0.2509
  365TMC3    C8 5524   3.735   0.430   9.564  0.1661  0.1435  0.3467
  365TMC3    O1 5525   3.491   0.667   9.875  0.2827  0.6083 -0.1647
  365TMC3    O2 5526   3.761   0.545   9.538 -0.0068 -0.4018  0.0206
  366MPD2     C 5527   2.072   0.143  15.129 -0.1542  0.1919 -0.1068
  366MPD2    C1 5528   2.102   0.276  15.101 -0.1601  0.1108  0.1839
  366MPD2    C2 5529   2.200   0.294  15.006 -0.2611 -0.3588  0.0697
  366MPD2    C3 5530   2.261   0.189  14.941 -0.0332 -0.4541  0.6872
  366MPD2    C4 5531   2.236   0.057  14.976 -0.2781 -0.5411  0.0918
  366MPD2    C5 5532   2.139   0.038  15.069  0.6483  0.5879  0.3859
  366MPD2     H 5533   2.231   0.395  14.983 -2.2353  0.1176 -0.5423
  366MPD2    H1 5534   2.300   4.716  14.939 -1.6347 -1.5409 -0.0986
  366MPD2    H2 5535   2.011   0.125  15.217 -0.6051  0.6950 -0.3144
  366MPD2    H3 5536   2.122   4.672  15.092 -0.1322  0.0813 -2.4143
  366MPD2     N 5537   2.365   0.234  14.858  0.6733  0.1821 -0.1705
  366MPD2    H5 5538   2.370   0.335  14.851 -1.3185  0.3503  0.9525
  366MPD2    N1 5539   2.051   0.392  15.171  0.1618 -0.0691 -0.3479
  366MPD2    H7 5540   2.103   0.475  15.145  0.5766  0.7156  3.0041
  367TMC3    C1 5541   1.947   0.525  15.323 -0.1175  0.1953  0.2843
  367TMC3    C2 5542   2.067   0.580  15.346  0.4471  0.3039  0.2209
  367TMC3    C3 5543   2.068   0.715  15.375  0.0249  0.4037 -0.5118
  367TMC3    C4 5544   1.828   0.590  15.329  0.1719 -0.0727 -0.2993
  367TMC3    C5 5545   1.834   0.720  15.370  0.3739 -0.8864  0.2116
  367TMC3    C6 5546   1.956   0.787  15.382 -0.2473  0.1836  0.4345
  367TMC3     C 5547   1.944   0.393  15.266 -0.2183 -0.5563  0.3857
  367TMC3     O 5548   1.867   0.308  15.307 -0.3862 -0.1535 -0.0955
  367TMC3     H 5549   2.156   0.517  15.344 -1.3134 -2.2011  0.4987
  367TMC3    H1 5550   1.735   0.544  15.299  1.4950 -1.9146 -1.5577
  367TMC3    H2 5551   1.950   0.892  15.408  0.6502  0.8767 -2.1615
  367TMC3    C7 5552   1.716   0.801  15.353  0.0417  0.7836 -0.0041
  367TMC3    C8 5553   2.197   0.777  15.378  0.1251 -0.1787 -0.0850
  367TMC3    O1 5554   1.728   0.905  15.415 -0.2918 -0.0408 -0.0460
  367TMC3    O2 5555   2.283   0.727  15.449  0.3284 -0.2819  0.1998
  368MPD2     C 5556   3.953   2.814  13.423  0.0883 -0.2218 -0.0265
  368MPD2    C1 5557   3.931   2.916  13.335 -0.3957 -0.3606  0.3555
  368MPD2    C2 5558   4.038   2.985  13.271 -0.7429  0.5210  0.0741
  368MPD2    C3 5559   4.164   2.928  13.280  0.4024  0.1714 -0.3280
  368MPD2    C4 5560   4.179   2.821  13.366  0.1310 -0.5565  0.0015
  368MPD2    C5 5561   4.078   2.766  13.442 -0.0796  1.1148  0.1006
  368MPD2     H 5562   4.017   3.078  13.219  2.8402  1.5574  0.5271
  368MPD2    H1 5563   4.276   2.773  13.374  0.2257  0.0986  2.8132
  368MPD2    H2 5564   3.886   2.748  13.477 -0.8914  0.8518  0.0698
  368MPD2    H3 5565   4.109   2.681  13.501  0.3363 -0.0486 -1.7985
  368MPD2     N 5566   4.281   2.972  13.210 -0.6000  0.0987  0.1971
  368MPD2    H5 5567   4.365   2.917  13.218 -1.2299 -0.6607  1.6378
  368MPD2    N1 5568   3.800   2.963  13.314  0.1474  0.1468 -0.6907
  368MPD2    H7 5569   3.732   2.922  13.376 -0.3177  0.6276 -0.8788
  369TMC3    C1 5570   3.631   3.085  13.219  0.1247  0.2349  0.4298
  369TMC3    C2 5571   3.620   3.195  13.141 -0.0584  0.3397  0.5626
  369TMC3    C3 5572   3.506   3.198  13.069 -0.0331  0.4861  0.1274
  369TMC3    C4 5573   3.529   2.987  13.224  0.2639  0.3856  0.4132
  369TMC3    C5 5574   3.411   3.009  13.161 -0.1403 -0.3780  0.1180
  369TMC3    C6 5575   3.397   3.120  13.086 -0.1812 -0.0144 -1.1812
  369TMC3     C 5576   3.766   3.046  13.208 -0.7276 -0.4136 -0.4628
  369TMC3     O 5577   3.828   3.071  13.102  0.0797  0.5057 -0.9158
  369TMC3     H 5578   3.711   3.251  13.127 -0.5209  1.4731  2.0904
  369TMC3    H1 5579   3.558   2.895  13.274 -1.7418  0.1593  1.1380
  369TMC3    H2 5580   3.317   3.144  13.017 -0.3277 -2.2581 -1.7933
  369TMC3    C7 5581   3.298   2.916  13.177  0.1069 -0.0255 -0.6337
  369TMC3    C8 5582   3.529   3.233  12.935 -0.1597 -0.0958  0.4948
  369TMC3    O1 5583   3.190   2.949  13.127 -0.2439 -0.4707 -0.0821
  369TMC3    O2 5584   3.438   3.285  12.875  0.7028  0.3753 -0.0915
  370TMC3    C1 5585   3.135   3.289  16.189  0.4566 -0.0843  0.4695
  370TMC3    C2 5586   3.064   3.209  16.274 -0.0647  0.3084  0.5614
  370TMC3    C3 5587   3.007   3.089  16.244  0.3019 -0.5538 -1.1353
  370TMC3    C4 5588   3.167   3.225  16.071 -0.1004 -0.4568 -0.6862
  370TMC3    C5 5589   3.122   3.094  16.049  0.1383  0.3299 -0.6711
  370TMC3    C6 5590   3.034   3.028  16.129 -0.2631  0.5020  0.3410
  370TMC3     C 5591   3.247   3.355  16.258  0.2132  0.3163  0.3880
  370TMC3     O 5592   3.265   3.333  16.374 -0.4430  0.1916 -0.1243
  370TMC3     H 5593   3.066   3.245  16.376  1.6118  1.6900  0.0516
  370TMC3    H1 5594   3.248   3.257  16.006 -0.6885 -0.6951 -1.5330
  370TMC3    H2 5595   2.987   2.934  16.103  0.0021 -0.3685  2.9728
  370TMC3    C7 5596   3.165   3.028  15.927  0.5225 -0.1950 -0.0516
  370TMC3    C8 5597   2.928   3.014  16.335  0.8872 -0.7936 -0.0307
  370TMC3    O1 5598   3.217   3.104  15.846  0.4572 -0.5035  0.0349
  370TMC3    O2 5599   2.913   2.897  16.307 -0.2246 -0.4283 -0.1022
  371TMC3    C1 5600   4.272   1.717  15.167 -0.6127  0.3477 -0.0189
  371TMC3    C2 5601   4.183   1.663  15.252 -0.5266  0.2567 -0.2054
  371TMC3    C3 5602   4.145   1.741  15.362 -0.4646  0.0534  0.0056
  371TMC3    C4 5603   4.326   1.848  15.185 -0.6532  0.0834 -0.7334
  371TMC3    C5 5604   4.290   1.918  15.296  0.3969  0.3454  0.4651
  371TMC3    C6 5605   4.192   1.868  15.378 -0.2973 -0.1318  0.1641
  371TMC3     C 5606   4.363   1.632  15.090 -0.9919  0.4288  0.3988
  371TMC3     O 5607   4.476   1.677  15.069 -0.1042  0.1560 -0.2936
  371TMC3     H 5608   4.137   1.566  15.240 -0.5014  0.2832 -0.5119
  371TMC3    H1 5609   4.409   1.883  15.126 -1.4280  0.9622 -1.3043
  371TMC3    H2 5610   4.157   1.928  15.461  0.7951  1.4584 -0.5369
  371TMC3    C7 5611   4.353   2.048  15.335 -0.2746 -0.5455  0.2229
  371TMC3    C8 5612   4.057   1.676  15.463  0.5536 -0.6389 -0.4215
  371TMC3    O1 5613   4.405   2.119  15.245 -0.1619  0.2372  0.4236
  371TMC3    O2 5614   4.058   1.553  15.474  0.4136  0.1519  0.7424
  372MPD2     C 5615   3.415   3.260  13.401  0.0800  0.1517 -0.0069
  372MPD2    C1 5616   3.502   3.193  13.488 -0.8023  0.0823 -0.1853
  372MPD2    C2 5617   3.457   3.079  13.557 -0.4453  0.0181 -0.2462
  372MPD2    C3 5618   3.329   3.036  13.543 -0.1909 -0.2086  0.1092
  372MPD2    C4 5619   3.249   3.097  13.453  0.3048  0.3884  0.2304
  372MPD2    C5 5620   3.289   3.204  13.386  0.2049  0.4783 -0.3020
  372MPD2     H 5621   3.518   3.018  13.622 -0.3489  0.3967  0.0192
  372MPD2    H1 5622   3.149   3.068  13.423 -0.8277  0.5202  3.9142
  372MPD2    H2 5623   3.446   3.354  13.358 -2.4902  1.4746  1.0653
  372MPD2    H3 5624   3.214   3.245  13.319 -1.5072  1.1641  2.0617
  372MPD2     N 5625   3.292   2.918  13.613  0.1013  0.6298 -0.0513
  372MPD2    H5 5626   3.361   2.876  13.674 -0.0205 -1.8552 -1.6176
  372MPD2    N1 5627   3.633   3.233  13.513 -0.3661  0.8522 -0.0335
  372MPD2    H7 5628   3.691   3.173  13.572 -2.5417  0.5171  1.7845
  373TMC3    C1 5629   3.168   2.728  13.669 -0.2767 -0.9132 -0.3185
  373TMC3    C2 5630   3.267   2.706  13.767  0.1211 -0.5248  0.7902
  373TMC3    C3 5631   3.271   2.574  13.813 -0.2561 -0.4248 -1.0162
  373TMC3    C4 5632   3.074   2.642  13.628 -0.0127  0.4544 -0.4263
  373TMC3    C5 5633   3.081   2.518  13.684  0.5376 -0.1054 -0.0302
  373TMC3    C6 5634   3.185   2.478  13.766  0.8792 -0.9880  0.4584
  373TMC3     C 5635   3.176   2.847  13.594 -0.1722 -0.0464  0.0469
  373TMC3     O 5636   3.088   2.864  13.508  0.3211 -0.2489  0.0529
  373TMC3     H 5637   3.333   2.781  13.808  0.8002 -0.6969  0.0116
  373TMC3    H1 5638   3.003   2.657  13.548 -0.2509 -0.2218 -0.3407
  373TMC3    H2 5639   3.169   2.382  13.815  1.8527 -1.6922 -0.6024
  373TMC3    C7 5640   2.991   2.418  13.638 -0.2449  0.0926 -0.1352
  373TMC3    C8 5641   3.408   2.535  13.848 -0.2097 -0.6872  0.2660
  373TMC3    O1 5642   2.873   2.446  13.648 -0.0644 -0.1300 -0.1246
  373TMC3    O2 5643   3.503   2.612  13.829 -0.4167 -0.0277 -0.0703
  374TMC3    C1 5644   3.813   3.246  10.012 -0.1186  0.1313  0.2131
  374TMC3    C2 5645   3.954   3.266  10.009 -0.3524 -0.3160  0.2551
  374TMC3    C3 5646   4.002   3.350   9.902  0.2273  0.3867  0.7165
  374TMC3    C4 5647   3.734   3.306   9.921 -0.6243  0.0726 -0.0790
  374TMC3    C5 5648   3.784   3.390   9.823 -0.3177 -0.0096 -0.3707
  374TMC3    C6 5649   3.916   3.402   9.804  0.1086 -0.6199 -0.1893
  374TMC3     C 5650   3.764   3.121  10.058 -0.3821  0.2670  0.6456
  374TMC3     O 5651   3.848   3.036  10.083 -0.3271  0.5079 -0.4042
  374TMC3     H 5652   4.017   3.216  10.081 -1.2997 -0.4268  1.0091
  374TMC3    H1 5653   3.627   3.305   9.934 -0.6497  0.1956 -0.2892
  374TMC3    H2 5654   3.962   3.442   9.714  0.2317 -0.8199 -0.2145
  374TMC3    C7 5655   3.685   3.444   9.732  0.1249 -0.4752  0.1792
  374TMC3    C8 5656   4.135   3.399   9.888 -0.6077  0.1177  0.0660
  374TMC3    O1 5657   3.569   3.408   9.733 -0.2039  0.5433 -0.9223
  374TMC3    O2 5658   4.164   3.444   9.777  0.5082  0.2807 -0.4237
  375MPD2     C 5659   4.461   3.609  17.152  0.1108 -0.2445  0.5802
  375MPD2    C1 5660   4.366   3.610  17.046 -0.0958 -0.0822 -0.1329
  375MPD2    C2 5661   4.402   3.575  16.918 -0.5018  0.5041  0.1663
  375MPD2    C3 5662   4.532   3.530  16.898  0.0234  0.2519 -0.2110
  375MPD2    C4 5663   4.621   3.543  17.002 -0.3454 -0.0676  0.5078
  375MPD2    C5 5664   4.590   3.588  17.122  0.0774  0.2027 -0.0857
  375MPD2     H 5665   4.326   3.581  16.842 -0.7578 -2.1957  0.1851
  375MPD2    H1 5666   4.725   3.517  16.982 -0.8293 -2.1197  0.6261
  375MPD2    H2 5667   4.445   3.649  17.252 -0.5023  1.7911 -0.3495
  375MPD2    H3 5668   4.670   3.603  17.194  0.8994  0.2808 -1.0216
  375MPD2     N 5669   4.579   3.491  16.772  0.4125  0.7414  0.0086
  375MPD2    H5 5670   4.679   3.489  16.758  0.5336  0.9193  0.8422
  375MPD2    N1 5671   4.242   3.683  17.045 -0.2932  0.5500 -0.1699
  375MPD2    H7 5672   4.203   3.683  16.951  1.2697 -0.9421 -0.8274
  376TMC3    C1 5673   4.548   3.456  16.536 -0.5749  0.1869  0.6986
  376TMC3    C2 5674   4.688   3.460  16.527  0.3547 -0.8595 -1.0638
  376TMC3    C3 5675   0.006   3.534  16.427 -0.0023  0.1452 -0.3078
  376TMC3    C4 5676   4.479   3.541  16.455 -0.1966  0.8122  0.5026
  376TMC3    C5 5677   4.543   3.617  16.360 -0.3158 -0.5514  0.3546
  376TMC3    C6 5678   4.675   3.613  16.344 -0.3964 -0.2503  0.1531
  376TMC3     C 5679   4.495   3.454  16.671  0.4274 -0.1333 -0.0270
  376TMC3     O 5680   4.375   3.435  16.674 -0.2338 -0.1075  0.2348
  376TMC3     H 5681   0.016   3.408  16.595  0.1910  3.5561  2.4549
  376TMC3    H1 5682   4.373   3.555  16.475  0.4795  4.5092  1.4320
  376TMC3    H2 5683   4.723   3.670  16.265 -2.4151  0.1657 -0.7691
  376TMC3    C7 5684   4.464   3.638  16.237  0.0999 -0.4693  0.9670
  376TMC3    C8 5685   0.136   3.498  16.382 -0.2607  0.6651  0.2055
  376TMC3    O1 5686   4.476   3.750  16.182 -0.9795  0.2882  0.1937
  376TMC3    O2 5687   0.195   3.601  16.348 -0.3880  0.5814  0.0094
  377MPD2     C 5688   2.820   3.122  12.801  0.0733  0.7409 -0.2567
  377MPD2    C1 5689   2.739   3.196  12.720 -0.2068  0.1655  0.0476
  377MPD2    C2 5690   2.600   3.180  12.726  0.1345 -0.1470  0.7272
  377MPD2    C3 5691   2.542   3.095  12.819  0.5435  0.9439 -0.1392
  377MPD2    C4 5692   2.626   3.031  12.908  0.4861  0.3016 -0.8297
  377MPD2    C5 5693   2.758   3.041  12.886  0.3786  0.4024  1.2114
  377MPD2     H 5694   2.534   3.242  12.666  0.8468  1.4221  1.5737
  377MPD2    H1 5695   2.592   2.962  12.983  1.9613 -0.1977 -0.6258
  377MPD2    H2 5696   2.927   3.125  12.785 -0.0962 -1.1958 -1.7902
  377MPD2    H3 5697   2.821   2.984  12.954  2.9119  1.5323 -0.1968
  377MPD2     N 5698   2.409   3.074  12.827  0.0689  0.3561  0.3978
  377MPD2    H5 5699   2.387   3.004  12.897 -0.3245  1.0882  1.0043
  377MPD2    N1 5700   2.806   3.273  12.624 -0.3183 -0.3899 -0.0741
  377MPD2    H7 5701   2.906   3.259  12.619 -0.5778 -2.2798 -0.1258
  378TMC3    C1 5702   2.903   3.494  12.245 -0.6884 -0.8275 -0.0159
  378TMC3    C2 5703   2.802   3.467  12.332 -0.3780  0.0507 -0.3836
  378TMC3    C3 5704   2.852   3.405  12.448  0.1492 -0.1035 -0.2507
  378TMC3    C4 5705   3.036   3.465  12.257  0.1379 -0.0680  0.6321
  378TMC3    C5 5706   3.078   3.399  12.370 -0.6377 -1.2494 -0.3146
  378TMC3    C6 5707   2.985   3.369  12.468 -0.2093  0.2592 -0.2340
  378TMC3     C 5708   2.870   3.485  12.102  0.5981  0.1476  0.4365
  378TMC3     O 5709   2.951   3.447  12.018 -0.3262  0.3551  0.5282
  378TMC3     H 5710   2.698   3.474  12.306 -0.9691 -2.2490  1.3546
  378TMC3    H1 5711   3.105   3.488  12.176 -0.2803 -0.7236  0.0874
  378TMC3    H2 5712   3.027   3.332  12.561  1.4696  1.0829 -0.6758
  378TMC3    C7 5713   3.203   3.335  12.378  0.5202  0.4357 -0.2616
  378TMC3    C8 5714   2.751   3.362  12.536 -0.7884  0.1705  0.6299
  378TMC3    O1 5715   3.237   3.278  12.481  0.1421 -0.2332 -0.7889
  378TMC3    O2 5716   2.638   3.413  12.535 -0.1229 -0.1269  0.3376
  379MPD2     C 5717   3.335   1.001  15.856 -0.0885  0.0219 -0.1100
  379MPD2    C1 5718   3.209   0.965  15.886 -1.2487  0.0342 -0.6817
  379MPD2    C2 5719   3.156   0.912  16.008  0.0222  0.5519 -0.3359
  379MPD2    C3 5720   3.258   0.886  16.103  0.4888  0.3800  0.1075
  379MPD2    C4 5721   3.391   0.910  16.063 -0.1693 -0.3254 -0.4774
  379MPD2    C5 5722   3.432   0.970  15.946 -0.9419 -0.3014  0.3892
  379MPD2     H 5723   3.053   0.892  16.033  0.2285  1.2215  1.0168
  379MPD2    H1 5724   3.470   0.896  16.136 -0.9531  2.5961  0.9150
  379MPD2    H2 5725   3.359   1.058  15.767 -0.8931  0.9613  0.2803
  379MPD2    H3 5726   3.532   1.007  15.927 -0.5823 -1.7537 -0.5342
  379MPD2     N 5727   3.248   0.809  16.221 -0.5700 -0.1560 -0.1095
  379MPD2    H5 5728   3.337   0.787  16.264 -0.9061 -1.9127 -0.3373
  379MPD2    N1 5729   3.123   0.992  15.778 -0.1745 -0.1414 -0.1988
  379MPD2    H7 5730   3.168   1.045  15.703  1.7846  1.7914  2.2971
  380TMC3    C1 5731   2.954   0.953  15.625  0.6387 -0.8133  0.0001
  380TMC3    C2 5732   3.043   0.916  15.538  0.3152  0.4993  0.3313
  380TMC3    C3 5733   3.053   0.977  15.414  0.3902 -0.9922  0.6911
  380TMC3    C4 5734   2.856   1.038  15.597 -0.9419  0.4762 -0.1187
  380TMC3    C5 5735   2.849   1.080  15.469  0.6977 -0.3722  0.7705
  380TMC3    C6 5736   2.942   1.048  15.378  0.5032 -0.0143  0.1249
  380TMC3     C 5737   2.996   0.950  15.768 -0.0603 -0.4266  0.1057
  380TMC3     O 5738   2.913   0.937  15.860 -0.1923 -0.4904  0.3847
  380TMC3     H 5739   3.113   0.846  15.583  0.9266  1.3150  0.6533
  380TMC3    H1 5740   2.793   1.074  15.678 -3.5148 -1.9829 -1.0406
  380TMC3    H2 5741   2.922   1.083  15.278  0.3560  0.2622  0.2515
  380TMC3    C7 5742   2.727   1.145  15.408  0.1515  0.0004  0.7245
  380TMC3    C8 5743   3.179   1.040  15.368  0.2059 -0.4801 -0.3245
  380TMC3    O1 5744   2.749   1.210  15.305  0.4084 -0.3120  0.2549
  380TMC3    O2 5745   3.181   1.131  15.284  0.4497 -0.4297 -0.5101
  381TMC3    C1 5746   2.954   2.301  16.079 -0.6836  0.2108  0.8120
  381TMC3    C2 5747   3.039   2.403  16.085 -0.1345 -0.1806  0.6070
  381TMC3    C3 5748   3.053   2.466  16.207  0.6876 -0.7545  0.4417
  381TMC3    C4 5749   2.872   2.268  16.179  0.1283  0.4074  0.7615
  381TMC3    C5 5750   2.865   2.352  16.289 -0.0149  0.1894  0.0500
  381TMC3    C6 5751   2.959   2.449  16.308  0.9195  0.0219 -0.3804
  381TMC3     C 5752   2.974   2.203  15.971  0.0219  0.5300  1.1741
  381TMC3     O 5753   3.049   2.236  15.880 -0.2083 -0.2558  0.1850
  381TMC3     H 5754   3.108   2.430  16.005  0.4337  0.0977  1.1887
  381TMC3    H1 5755   2.787   2.201  16.172  0.4186  0.0755  0.3970
  381TMC3    H2 5756   2.989   2.495  16.402  0.5140  0.6930 -0.5777
  381TMC3    C7 5757   2.781   2.317  16.396  0.0266  0.0682 -0.4454
  381TMC3    C8 5758   3.176   2.547  16.238 -0.2756 -0.5441 -0.0430
  381TMC3    O1 5759   2.718   2.214  16.392  0.4860 -0.1850 -0.2170
  381TMC3    O2 5760   3.275   2.513  16.176 -0.3814  0.5753 -0.8053
  382MPD2     C 5761   2.423   4.428  17.369 -0.0991 -0.1657 -0.0343
  382MPD2    C1 5762   2.340   4.448  17.260 -0.1195 -0.4953  1.0912
  382MPD2    C2 5763   2.252   4.353  17.226 -0.5158  0.6272 -0.0705
  382MPD2    C3 5764   2.249   4.228  17.290  0.4430  0.2127  0.0986
  382MPD2    C4 5765   2.333   4.205  17.390 -0.0699  0.4188  0.4811
  382MPD2    C5 5766   2.429   4.303  17.428  0.1585 -0.0004 -0.6065
  382MPD2     H 5767   2.191   4.368  17.137 -1.2789 -3.1897 -0.1968
  382MPD2    H1 5768   2.321   4.122  17.458 -0.0223  1.5681  1.9057
  382MPD2    H2 5769   2.487   4.505  17.411  0.4726 -0.9609  0.5477
  382MPD2    H3 5770   2.500   4.275  17.505 -0.1973 -0.3089 -0.3898
  382MPD2     N 5771   2.161   4.118  17.252  0.4433 -0.0418 -0.5737
  382MPD2    H5 5772   2.174   4.031  17.303 -0.0690  0.4469  0.3938
  382MPD2    N1 5773   2.335   4.573  17.190  0.0249  0.4884 -0.5230
  382MPD2    H7 5774   2.272   4.562  17.111  1.3469  0.0580 -1.5115
  383TMC3    C1 5775   1.993   4.004  17.116  0.6384  0.1564  0.5340
  383TMC3    C2 5776   1.949   4.004  16.988 -0.2642 -0.1043  0.1569
  383TMC3    C3 5777   1.925   3.884  16.927  0.1953  0.0944  0.5548
  383TMC3    C4 5778   1.999   3.892  17.193  0.3870 -0.7538 -0.6170
  383TMC3    C5 5779   1.962   3.778  17.128  0.7396  0.2793 -0.0871
  383TMC3    C6 5780   1.937   3.765  16.995 -0.3659 -0.0312 -0.0082
  383TMC3     C 5781   2.053   4.130  17.163 -0.8149 -0.0408  0.2209
  383TMC3     O 5782   2.011   4.229  17.104 -0.0005 -0.2795 -0.7911
  383TMC3     H 5783   1.925   4.096  16.937  0.7246  0.3891  0.5933
  383TMC3    H1 5784   2.019   3.901  17.299  3.0115 -0.6394 -1.1126
  383TMC3    H2 5785   1.899   3.676  16.947  0.6458  0.1100 -1.0778
  383TMC3    C7 5786   1.982   3.651  17.198 -1.3189 -1.0360 -0.5415
  383TMC3    C8 5787   1.842   3.894  16.814 -0.4796  0.1471  0.8194
  383TMC3    O1 5788   1.931   3.558  17.136  0.6696 -0.0247  0.6623
  383TMC3    O2 5789   1.790   4.000  16.807 -0.4988 -0.7372 -0.8387
  384MPD2     C 5790   2.818   0.908  11.444 -0.2182 -0.5233  0.0062
  384MPD2    C1 5791   2.892   0.910  11.564 -0.7608 -0.4316  0.1570
  384MPD2    C2 5792   3.013   0.851  11.563 -0.3392 -0.5088  0.2540
  384MPD2    C3 5793   3.062   0.793  11.448  0.1585 -0.0719  0.6288
  384MPD2    C4 5794   2.991   0.798  11.328  0.6788  1.2320 -0.5873
  384MPD2    C5 5795   2.867   0.857  11.328 -0.2152  0.5910 -0.0269
  384MPD2     H 5796   3.071   0.863  11.654 -1.8241  2.0995  0.8651
  384MPD2    H1 5797   3.031   0.749  11.239  3.3741  1.2376  0.6160
  384MPD2    H2 5798   2.721   0.952  11.425  0.3926  0.9562  0.3980
  384MPD2    H3 5799   2.805   0.845  11.240 -0.4892 -0.2391  0.2737
  384MPD2     N 5800   3.185   0.730  11.445  0.1023  0.2350  0.0326
  384MPD2    H5 5801   3.218   0.685  11.361  0.3260 -0.2579  0.3813
  384MPD2    N1 5802   2.838   0.947  11.690  0.0786 -0.0385  0.2516
  384MPD2    H7 5803   2.895   0.948  11.774  1.4943  0.5017 -0.7114
  385TMC3    C1 5804   3.409   0.662  11.523  0.0790  0.5255  0.3748
  385TMC3    C2 5805   3.394   0.535  11.477 -0.2436 -0.4721 -0.2802
  385TMC3    C3 5806   3.426   0.435  11.559  0.2084 -0.0387  0.7937
  385TMC3    C4 5807   3.477   0.680  11.643  0.1734  0.7634  0.1213
  385TMC3    C5 5808   3.519   0.581  11.719  0.2361 -0.3490 -0.2731
  385TMC3    C6 5809   3.479   0.457  11.682  0.2853  0.1343  0.2278
  385TMC3     C 5810   3.279   0.724  11.549  0.9255  0.2184 -0.5911
  385TMC3     O 5811   3.271   0.776  11.659  0.6127  0.3028  0.4644
  385TMC3     H 5812   3.356   0.510  11.378 -2.6606 -0.8169  0.7392
  385TMC3    H1 5813   3.496   0.782  11.671 -0.9812  0.3273  2.5224
  385TMC3    H2 5814   3.487   0.373  11.750 -0.6705  1.1215  1.5591
  385TMC3    C7 5815   3.514   0.608  11.858 -0.7878 -0.7231  0.2519
  385TMC3    C8 5816   3.428   0.293  11.514 -0.0730  0.2132 -0.1416
  385TMC3    O1 5817   3.565   0.524  11.933 -0.6639  0.2001 -0.2279
  385TMC3    O2 5818   3.409   0.210  11.601 -0.4286  0.0207 -0.5979
  386TMC3    C1 5819   4.142   3.030  11.437  0.1592  0.9398  0.1945
  386TMC3    C2 5820   4.093   2.935  11.350  0.0999 -0.2414 -0.2061
  386TMC3    C3 5821   3.958   2.934  11.325 -0.1181 -0.5316 -0.5675
  386TMC3    C4 5822   4.073   3.130  11.496  0.3349  0.1409  0.1286
  386TMC3    C5 5823   3.939   3.128  11.468 -0.2492  0.0568  0.8117
  386TMC3    C6 5824   3.885   3.035  11.380 -1.0693 -0.1570 -0.1472
  386TMC3     C 5825   4.276   3.001  11.483 -0.0873  0.9990 -0.8063
  386TMC3     O 5826   4.341   3.094  11.534  0.2023  0.6914 -0.1942
  386TMC3     H 5827   4.160   2.872  11.293  3.1427  1.7391  1.1953
  386TMC3    H1 5828   4.115   3.192  11.573 -0.3355 -0.4070  0.9360
  386TMC3    H2 5829   3.781   3.043  11.349 -0.3792  0.8992 -2.2045
  386TMC3    C7 5830   3.850   3.202  11.554 -0.1827 -0.1684 -0.5032
  386TMC3    C8 5831   3.934   2.918  11.182 -0.5629 -0.3743 -0.5343
  386TMC3    O1 5832   3.897   3.242  11.656  0.3721 -0.6323  0.1561
  386TMC3    O2 5833   4.006   2.973  11.103 -0.5717  0.1021 -0.5060
  387MPD2     C 5834   1.149   3.372   9.694 -0.4502 -0.0359  0.0297
  387MPD2    C1 5835   1.188   3.380   9.825  0.1337  0.4205 -0.0747
  387MPD2    C2 5836   1.178   3.269   9.905 -0.0764  0.2481 -0.2038
  387MPD2    C3 5837   1.126   3.154   9.851  0.1319  0.7138 -0.5313
  387MPD2    C4 5838   1.094   3.142   9.718  0.4610 -0.3836  0.3180
  387MPD2    C5 5839   1.100   3.258   9.636  0.1740  0.6893 -0.3427
  387MPD2     H 5840   1.210   3.275  10.009  1.2126 -2.8508 -0.4494
  387MPD2    H1 5841   1.058   3.052   9.670 -1.7398  0.5231  0.2615
  387MPD2    H2 5842   1.149   3.454   9.622 -0.3339  1.0935  1.3149
  387MPD2    H3 5843   1.077   3.245   9.531  1.3667 -0.5876 -0.4562
  387MPD2     N 5844   1.117   3.041   9.939  0.2370  0.5307  0.1203
  387MPD2    H5 5845   1.133   3.068  10.035 -1.6947  1.1307  0.2773
  387MPD2    N1 5846   1.242   3.501   9.881  0.4025  0.4666 -0.6385
  387MPD2    H7 5847   1.264   3.505   9.980  0.7331  2.6320 -0.8040
  388TMC3    C1 5848   1.396   3.670   9.864 -0.2292  0.3545 -1.0625
  388TMC3    C2 5849   1.419   3.804   9.877  0.1884  0.3077 -0.1363
  388TMC3    C3 5850   1.531   3.833   9.941 -0.2091 -0.4105  0.0553
  388TMC3    C4 5851   1.479   3.583   9.917 -0.3038  0.3737  0.4476
  388TMC3    C5 5852   1.582   3.616   9.998  0.4108 -0.8892  0.3660
  388TMC3    C6 5853   1.623   3.746   9.999 -0.6732  0.5681  0.1691
  388TMC3     C 5854   1.272   3.620   9.816 -0.2466 -0.4430 -0.4881
  388TMC3     O 5855   1.218   3.672   9.720 -0.6101  0.5242  0.5633
  388TMC3     H 5856   1.339   3.872   9.851 -0.2709 -0.6964 -1.3435
  388TMC3    H1 5857   1.474   3.483   9.874  1.1607  1.0079 -1.2336
  388TMC3    H2 5858   1.711   3.769  10.058 -0.9444 -0.6102  1.0349
  388TMC3    C7 5859   1.660   3.512  10.063 -0.3249 -0.4914 -0.2509
  388TMC3    C8 5860   1.544   3.977   9.968  0.5250 -0.0684 -0.4897
  388TMC3    O1 5861   1.761   3.548  10.124 -0.2739 -0.4892  0.2177
  388TMC3    O2 5862   1.487   4.057   9.895  0.2921 -0.1940 -0.2896
  389MPD2     C 5863   0.776   1.941  11.177 -0.6102  0.3058 -0.9204
  389MPD2    C1 5864   0.707   1.833  11.131 -0.2654  1.1032 -0.0236
  389MPD2    C2 5865   0.665   1.733  11.218 -0.0933  0.3510  0.0470
  389MPD2    C3 5866   0.681   1.745  11.360 -0.1075 -0.2443  0.3775
  389MPD2    C4 5867   0.743   1.859  11.404 -0.5847 -0.5571  0.4891
  389MPD2    C5 5868   0.797   1.953  11.311 -0.5117 -0.4063 -0.2859
  389MPD2     H 5869   0.635   1.633  11.189 -0.5168  0.4558  0.1225
  389MPD2    H1 5870   0.767   1.869  11.509 -2.6291  0.9143  0.8221
  389MPD2    H2 5871   0.799   2.024  11.112  1.8959  0.9006  0.7562
  389MPD2    H3 5872   0.840   2.044  11.350 -0.2976 -0.8367  0.4932
  389MPD2     N 5873   0.633   1.657  11.461 -0.7509 -0.0537 -0.2634
  389MPD2    H5 5874   0.655   1.676  11.558  0.9609 -0.1556 -0.6342
  389MPD2    N1 5875   0.704   1.823  10.994  0.1642  0.2335  0.4134
  389MPD2    H7 5876   0.761   1.893  10.948 -0.6105  0.8795  0.4363
  390TMC3    C1 5877   0.498   1.481  11.553  0.2628 -0.3472 -0.6465
  390TMC3    C2 5878   0.415   1.378  11.531 -0.6199  0.3380 -0.1334
  390TMC3    C3 5879   0.349   1.315  11.636 -0.6989  0.0359  0.4913
  390TMC3    C4 5880   0.527   1.521  11.681 -0.0365  0.3480 -0.6851
  390TMC3    C5 5881   0.461   1.458  11.784 -0.2355 -0.2619 -0.5165
  390TMC3    C6 5882   0.374   1.353  11.764  0.8673 -0.3629  0.2877
  390TMC3     C 5883   0.539   1.558  11.432 -1.0427  0.2100  0.0430
  390TMC3     O 5884   0.479   1.523  11.331  0.2000 -0.0185 -0.0715
  390TMC3     H 5885   0.411   1.337  11.431  2.3423  1.6756 -0.8231
  390TMC3    H1 5886   0.584   1.611  11.702  0.0917 -0.3596  1.9747
  390TMC3    H2 5887   0.345   1.292  11.849  1.5219 -2.0325 -0.6878
  390TMC3    C7 5888   0.440   1.547  11.896 -0.4786 -0.6268 -0.4528
  390TMC3    C8 5889   0.250   1.218  11.604  0.1150 -0.0365 -0.3264
  390TMC3    O1 5890   0.484   1.659  11.888  0.4494  0.6562 -0.1684
  390TMC3    O2 5891   0.259   1.145  11.504  0.4353  0.0836  0.0808
  391MPD2     C 5892   0.026   3.132  11.351 -0.6422 -0.5958 -0.3006
  391MPD2    C1 5893   0.143   3.170  11.289  0.2104  0.2210  0.8782
  391MPD2    C2 5894   0.135   3.200  11.156 -0.2990 -0.0413  0.7563
  391MPD2    C3 5895   0.023   3.199  11.077 -0.8401 -0.2580 -0.5542
  391MPD2    C4 5896   4.646   3.143  11.131  0.2000 -0.4880 -0.7252
  391MPD2    C5 5897   4.654   3.121  11.274 -0.0978 -0.9518  0.0721
  391MPD2     H 5898   0.224   3.223  11.099 -2.4064  3.0572 -1.3329
  391MPD2    H1 5899   4.548   3.135  11.085 -0.0046 -0.3927 -0.3092
  391MPD2    H2 5900   0.026   3.102  11.456  2.4732 -0.4248 -0.2592
  391MPD2    H3 5901   4.568   3.082  11.327 -0.7665  0.5403  0.0832
  391MPD2     N 5902   0.028   3.253  10.949 -0.0664  0.2282  0.1434
  391MPD2    H5 5903   0.118   3.298  10.935 -0.6390  1.4770  0.4863
  391MPD2    N1 5904   0.263   3.170  11.368 -0.0692  0.2694  0.1077
  391MPD2    H7 5905   0.249   3.159  11.468 -0.4409 -0.4258 -0.0198
  392TMC3    C1 5906   4.709   3.321  10.725  0.1147  0.0924  0.6047
  392TMC3    C2 5907   4.614   3.324  10.628 -0.3915 -0.1432  0.4558
  392TMC3    C3 5908   4.660   3.345  10.504  0.1117  0.5811 -0.1758
  392TMC3    C4 5909   0.102   3.347  10.697 -0.0079 -0.4920 -0.1769
  392TMC3    C5 5910   0.138   3.375  10.570 -0.3093  0.5069  0.1281
  392TMC3    C6 5911   0.050   3.376  10.471 -0.5395  0.5706 -0.2318
  392TMC3     C 5912   4.671   3.251  10.849  0.2709  0.1450  0.6067
  392TMC3     O 5913   4.555   3.208  10.851 -0.1134 -0.4901 -0.7150
  392TMC3     H 5914   4.511   3.297  10.650 -0.9905 -0.0682 -2.3286
  392TMC3    H1 5915   0.175   3.345  10.776 -0.7074 -0.1485  0.4759
  392TMC3    H2 5916   0.084   3.397  10.370 -0.4788  2.6076  0.2186
  392TMC3    C7 5917   0.267   3.434  10.550 -0.3197 -0.0801 -0.0689
  392TMC3    C8 5918   4.556   3.363  10.399 -0.2786 -0.0972 -0.7676
  392TMC3    O1 5919   0.322   3.487  10.641  0.5093 -0.2240 -0.3710
  392TMC3    O2 5920   4.438   3.342  10.427  0.3404 -0.7429 -0.0909
  393TMC3    C1 5921   4.124   1.284  10.557 -0.5695  0.1275  0.0396
  393TMC3    C2 5922   4.042   1.336  10.464 -1.0111  0.2052  0.4750
  393TMC3    C3 5923   4.034   1.271  10.342 -0.2238 -0.2124  0.9298
  393TMC3    C4 5924   4.212   1.189  10.517  0.4515  0.5933 -0.2370
  393TMC3    C5 5925   4.210   1.140  10.386  1.0584 -0.0306 -0.6582
  393TMC3    C6 5926   4.121   1.181  10.294 -0.8441 -0.2325 -0.0803
  393TMC3     C 5927   4.179   1.356  10.666 -0.1124  0.0050  0.2828
  393TMC3     O 5928   4.209   1.301  10.773  0.2030 -0.5914  0.3119
  393TMC3     H 5929   3.973   1.415  10.489 -1.4995 -0.1132  0.1272
  393TMC3    H1 5930   4.273   1.130  10.585  1.2154 -0.5813 -1.9505
  393TMC3    H2 5931   4.119   1.144  10.192  0.2295  0.5139 -0.3612
  393TMC3    C7 5932   4.318   1.065  10.333  0.3997  0.7815  0.1850
  393TMC3    C8 5933   3.917   1.302  10.264 -0.0187  0.5999  0.5653
  393TMC3    O1 5934   4.306   1.015  10.222  0.1041 -0.3116 -0.7776
  393TMC3    O2 5935   3.859   1.410  10.278 -0.2293  0.4927  0.6887
  394TMC3    C1 5936   0.652   1.733  10.783  0.4779  0.6620 -0.0061
  394TMC3    C2 5937   0.544   1.710  10.708  0.0176  0.1365 -0.2908
  394TMC3    C3 5938   0.560   1.741  10.573  0.2236  0.1247  0.4186
  394TMC3    C4 5939   0.775   1.786  10.731 -0.0770 -0.2583 -0.6607
  394TMC3    C5 5940   0.785   1.806  10.598 -0.1887  0.3984  0.3558
  394TMC3    C6 5941   0.673   1.783  10.517 -0.4915 -0.1408  0.4480
  394TMC3     C 5942   0.636   1.726  10.926  0.5079  0.2256  0.3807
  394TMC3     O 5943   0.550   1.655  10.975 -0.1838 -0.0871  0.1160
  394TMC3     H 5944   0.453   1.672  10.753 -0.2903 -0.3501 -1.3316
  394TMC3    H1 5945   0.849   1.813  10.806 -1.1434 -2.2042  1.0908
  394TMC3    H2 5946   0.671   1.826  10.417 -2.4326  1.4069  1.1489
  394TMC3    C7 5947   0.903   1.885  10.555 -0.4728 -0.1894  0.6666
  394TMC3    C8 5948   0.481   1.658  10.481  0.0302 -0.5585  0.0579
  394TMC3    O1 5949   0.887   1.956  10.456 -0.5327  0.1319  0.4948
  394TMC3    O2 5950   0.364   1.687  10.457 -0.2128  0.2454  0.4117
  395TMC3    C1 5951   0.410   3.146  15.598 -0.3479 -0.4618 -0.1263
  395TMC3    C2 5952   0.316   3.054  15.579 -0.3192  0.1330  0.1660
  395TMC3    C3 5953   0.323   2.989  15.459 -0.4047  0.3827 -0.6476
  395TMC3    C4 5954   0.510   3.170  15.512  0.2817  0.0808 -0.4311
  395TMC3    C5 5955   0.534   3.074  15.411 -0.0573 -0.0037 -0.0622
  395TMC3    C6 5956   0.432   2.984  15.383 -0.0436 -0.3831  0.6204
  395TMC3     C 5957   0.369   3.262  15.677  0.0494 -0.5587 -0.0008
  395TMC3     O 5958   0.404   3.373  15.633  0.5520  0.7179 -0.2515
  395TMC3     H 5959   0.237   3.034  15.651 -0.1732  2.7190  1.0447
  395TMC3    H1 5960   0.591   3.240  15.531  0.2221  0.3293 -1.1016
  395TMC3    H2 5961   0.443   2.919  15.296  1.1462  1.0856 -0.3240
  395TMC3    C7 5962   0.596   3.140  15.301 -0.1632  0.0972 -0.3505
  395TMC3    C8 5963   0.214   2.910  15.419  0.3037 -0.5197 -0.2946
  395TMC3    O1 5964   0.610   3.259  15.315 -0.2832 -0.1053 -0.2038
  395TMC3    O2 5965   0.144   2.850  15.503 -0.0960 -0.3908  0.0119
  396MPD2     C 5966   4.717   4.600  16.475 -0.6537  0.3872  1.1520
  396MPD2    C1 5967   0.102   4.575  16.532 -0.5961  0.4655  0.1291
  396MPD2    C2 5968   0.218   4.593  16.458  0.1483  0.0561  0.5577
  396MPD2    C3 5969   0.213   4.654  16.333 -0.3365 -0.0400 -0.6065
  396MPD2    C4 5970   0.093   4.678  16.276 -0.2090 -0.6837 -0.4040
  396MPD2    C5 5971   4.716   4.642  16.343 -0.0419  0.2206  0.0496
  396MPD2     H 5972   0.313   4.570  16.504  0.9418  1.0273 -0.5824
  396MPD2    H1 5973   0.085   4.734  16.183  0.6850  0.5041  0.2364
  396MPD2    H2 5974   4.621   4.572  16.518 -0.8013 -0.3038  0.3761
  396MPD2    H3 5975   4.620   4.665  16.300 -0.5087  0.1402  1.0621
  396MPD2     N 5976   0.336   4.694  16.281 -0.2295 -0.3807  0.0761
  396MPD2    H5 5977   0.413   4.672  16.343 -2.2140 -4.2698  1.1426
  396MPD2    N1 5978   0.103   4.540  16.669  0.1948 -1.0140  0.4502
  396MPD2    H7 5979   0.014   4.556  16.715 -0.5005  2.2626 -2.0884
  397TMC3    C1 5980   0.187   4.529  16.887 -0.1635 -0.2357  0.1497
  397TMC3    C2 5981   0.306   4.560  16.951 -0.0585 -0.1519 -0.4773
  397TMC3    C3 5982   0.328   4.518  17.076  0.3744  0.5891 -0.4773
  397TMC3    C4 5983   0.109   4.429  16.940 -0.2838  0.3029  0.1628
  397TMC3    C5 5984   0.119   4.411  17.072 -0.4256 -0.0114 -0.8424
  397TMC3    C6 5985   0.229   4.457  17.140  0.0617 -0.3979  0.3529
  397TMC3     C 5986   0.206   4.511  16.749  0.3525  0.1215 -0.4912
  397TMC3     O 5987   0.321   4.474  16.716 -0.4278  0.3727 -0.4527
  397TMC3     H 5988   0.388   4.598  16.892 -1.1473  0.6137 -1.4860
  397TMC3    H1 5989   0.029   4.384  16.883  0.2884 -1.5504  0.8286
  397TMC3    H2 5990   0.258   4.440  17.243  1.9841  1.6795  0.1699
  397TMC3    C7 5991   0.081   4.277  17.116  0.5091 -0.2158  0.1411
  397TMC3    C8 5992   0.448   4.433  17.089 -0.5052 -0.0015  0.6829
  397TMC3    O1 5993   0.083   4.194  17.026  0.5294 -0.3860  0.5419
  397TMC3    O2 5994   0.456   4.363  17.188 -0.2442 -0.0590 -0.4744
  398MPD2     C 5995   3.537   1.175  17.625 -0.0352  0.2139 -0.1729
  398MPD2    C1 5996   3.609   1.076  17.688 -0.1340 -0.5124 -0.8932
  398MPD2    C2 5997   3.746   1.075  17.680  0.1426  0.1052 -0.2919
  398MPD2    C3 5998   3.810   1.173  17.607  0.3547  0.1097  0.2557
  398MPD2    C4 5999   3.740   1.275  17.549  0.2098 -0.2591  0.0746
  398MPD2    C5 6000   3.603   1.272  17.547  0.3258 -0.5185 -0.4155
  398MPD2     H 6001   3.813   1.005  17.728  1.1451  0.1672 -1.6098
  398MPD2    H1 6002   3.790   1.358  17.500 -0.5602  0.2023  0.0710
  398MPD2    H2 6003   3.430   1.177  17.640  0.0498 -0.8612  0.6048
  398MPD2    H3 6004   3.549   1.350  17.495  0.7814 -0.8090 -1.3151
  398MPD2     N 6005   3.955   1.168  17.594  0.1007  0.0640  0.5494
  398MPD2    H5 6006   3.990   1.083  17.637  1.2187 -0.0780 -0.6457
  398MPD2    N1 6007   3.549   0.977   0.018  0.2742  0.2092  0.2030
  398MPD2    H7 6008   3.618   0.911   0.052 -1.2226  0.0305  2.8872
  399TMC3    C1 6009   3.377   0.827   0.105  0.3039  0.8131  0.0074
  399TMC3    C2 6010   3.472   0.735   0.134 -0.0304 -0.6249  0.6558
  399TMC3    C3 6011   3.437   0.604   0.161 -0.2474 -0.1197 -0.2165
  399TMC3    C4 6012   3.246   0.793   0.093  0.2018 -0.0305  0.1123
  399TMC3    C5 6013   3.211   0.659   0.117 -0.7662 -0.0175 -0.0886
  399TMC3    C6 6014   3.308   0.561   0.150 -0.2590  0.3250  0.5239
  399TMC3     C 6015   3.415   0.957   0.045 -0.9772  0.1641  0.4518
  399TMC3     O 6016   3.322   1.011  17.736  0.1643  0.4692 -0.6295
  399TMC3     H 6017   3.577   0.759   0.132 -0.2257  0.3636  2.1250
  399TMC3    H1 6018   3.173   0.869   0.070  1.9245  1.6517  0.2237
  399TMC3    H2 6019   3.272   0.460   0.141  0.0174  0.3862 -1.2883
  399TMC3    C7 6020   3.099   0.607   0.044  0.7386  0.3742 -0.2655
  399TMC3    C8 6021   3.536   0.508   0.174  0.0962  0.2739 -0.0591
  399TMC3    O1 6022   3.061   0.494   0.074  0.3075  0.9986  0.4361
  399TMC3    O2 6023   3.654   0.537   0.158 -0.0475 -0.6631  0.6412
  400TMC3    C1 6024   2.143   4.139  16.699 -0.0349 -0.1838  0.0352
  400TMC3    C2 6025   2.045   4.149  16.607  0.0219  0.8067 -0.6648
  400TMC3    C3 6026   2.002   4.276  16.585  0.1077 -0.5352 -0.0967
  400TMC3    C4 6027   2.181   4.237  16.782  0.0960 -0.4602 -0.4445
  400TMC3    C5 6028   2.134   4.357  16.756  0.0404  0.2537  0.5283
  400TMC3    C6 6029   2.050   4.376  16.655 -0.3249  0.3720 -0.3083
  400TMC3     C 6030   2.200   4.000  16.722 -0.5253  0.6309 -0.3768
  400TMC3     O 6031   2.154   3.906  16.658  0.4382  0.4466 -0.1444
  400TMC3     H 6032   2.030   4.064  16.542  0.4228  1.8371 -2.1114
  400TMC3    H1 6033   2.246   4.235  16.868 -1.5006  0.0244  0.7792
  400TMC3    H2 6034   2.030   4.479  16.627  0.8802  1.4830  2.8927
  400TMC3    C7 6035   2.096   4.454  16.866 -0.0571  0.0773 -0.1480
  400TMC3    C8 6036   1.868   4.298  16.537 -0.1370 -0.6481  0.5753
  400TMC3    O1 6037   2.188   4.499  16.937 -0.1604 -0.0971  0.2529
  400TMC3    O2 6038   1.820   4.401  16.583  0.3295  0.0074  0.3069
  401MPD2     C 6039   1.365   3.028   1.098 -0.3077  0.2851 -0.2825
  401MPD2    C1 6040   1.351   3.015   0.961 -0.2400 -0.0482  0.9476
  401MPD2    C2 6041   1.228   3.014   0.906 -0.6483  0.8697  0.2788
  401MPD2    C3 6042   1.110   3.011   0.981 -0.4114 -0.0336 -0.6965
  401MPD2    C4 6043   1.122   3.030   1.120  0.1903  0.5629 -0.4061
  401MPD2    C5 6044   1.248   3.046   1.177  0.2368  0.6303  0.1856
  401MPD2     H 6045   1.217   3.021   0.798  0.7578 -0.6452  0.0406
  401MPD2    H1 6046   1.036   3.032   1.186 -0.5497  1.4047 -1.3990
  401MPD2    H2 6047   1.461   3.051   1.142 -2.2209  1.3073  3.3635
  401MPD2    H3 6048   1.260   3.064   1.283  0.6744  1.0142  0.0702
  401MPD2     N 6049   0.988   2.980   0.911  0.5008 -0.7560  0.2887
  401MPD2    H5 6050   0.994   2.968   0.810 -1.1622 -0.8899  0.2054
  401MPD2    N1 6051   1.462   3.003   0.874  0.0348  0.1833 -0.5711
  401MPD2    H7 6052   1.428   2.998   0.778  0.0348  0.5989 -0.5938
  402TMC3    C1 6053   0.762   2.901   0.882  0.5098  0.3890 -0.8891
  402TMC3    C2 6054   0.723   2.772   0.904 -0.4935 -0.9150 -0.3820
  402TMC3    C3 6055   0.697   2.685   0.798  0.4055 -0.4093  0.3223
  402TMC3    C4 6056   0.775   2.945   0.753 -0.3760 -0.0507  0.1909
  402TMC3    C5 6057   0.776   2.851   0.649 -0.2143  0.2568 -0.6918
  402TMC3    C6 6058   0.733   2.719   0.669  0.0489  0.3995  0.0985
  402TMC3     C 6059   0.869   2.938   0.971  0.3993  0.5706 -0.3622
  402TMC3     O 6060   0.861   2.908   1.089 -0.4068 -0.0528 -0.5889
  402TMC3     H 6061   0.696   2.751   1.007  1.7760 -1.1391  0.1571
  402TMC3    H1 6062   0.804   3.049   0.737 -0.5276  0.0627  0.6510
  402TMC3    H2 6063   0.757   2.640   0.599 -1.2984  0.6013 -0.5791
  402TMC3    C7 6064   0.876   2.883   0.543  0.4042 -0.4061  0.7123
  402TMC3    C8 6065   0.690   2.542   0.822 -0.2024  0.3571 -0.6175
  402TMC3    O1 6066   0.965   2.951   0.592 -0.1534  0.2959 -0.2625
  402TMC3    O2 6067   0.732   2.499   0.926  0.3457 -0.2696  0.5062
  403MPD2     C 6068   2.521   1.205  13.221  0.2275 -0.0209  0.1745
  403MPD2    C1 6069   2.528   1.111  13.328  0.4682 -0.1710 -0.0635
  403MPD2    C2 6070   2.625   1.142  13.424  0.3071 -0.1967 -0.3544
  403MPD2    C3 6071   2.705   1.252  13.409 -0.0283  0.4576  0.2140
  403MPD2    C4 6072   2.676   1.351  13.317  0.5975 -0.1741  0.4983
  403MPD2    C5 6073   2.586   1.322  13.215 -0.4891  0.0713 -1.0133
  403MPD2     H 6074   2.652   1.071  13.501 -2.2229 -2.3847 -1.4967
  403MPD2    H1 6075   2.732   1.444  13.316 -0.2210  0.3061  0.0047
  403MPD2    H2 6076   2.454   1.178  13.140  0.5650 -0.2631 -0.0241
  403MPD2    H3 6077   2.588   1.386  13.128  3.1300  0.3001 -0.7428
  403MPD2     N 6078   2.817   1.255  13.500  0.1492 -0.3961 -0.8326
  403MPD2    H5 6079   2.821   1.175  13.562  1.0455  0.7234  0.5428
  403MPD2    N1 6080   2.456   0.990  13.327 -0.1288 -0.2282  0.3195
  403MPD2    H7 6081   2.390   0.970  13.252 -0.1635  5.3759 -1.1007
  404TMC3    C1 6082   2.393   0.775  13.401 -0.2744 -0.1259 -0.6015
  404TMC3    C2 6083   2.463   0.673  13.464 -0.1903  0.1517  0.1154
  404TMC3    C3 6084   2.521   0.569  13.398 -0.4453  0.2761 -0.0800
  404TMC3    C4 6085   2.379   0.763  13.263  0.4458  0.1963  0.1479
  404TMC3    C5 6086   2.456   0.667  13.197 -0.1926 -0.0625 -0.0634
  404TMC3    C6 6087   2.531   0.576  13.260 -0.0995 -0.1188 -0.0887
  404TMC3     C 6088   2.456   0.900  13.434 -0.3229  0.0398 -0.4120
  404TMC3     O 6089   2.519   0.897  13.539  0.2617 -0.8150 -0.4245
  404TMC3     H 6090   2.463   0.676  13.573  0.4012 -1.2888  0.1594
  404TMC3    H1 6091   2.306   0.822  13.208  1.2096  1.5214  0.5533
  404TMC3    H2 6092   2.594   0.503  13.209 -2.0778 -1.5732 -0.4720
  404TMC3    C7 6093   2.507   0.712  13.068 -0.2937  0.4489  0.1919
  404TMC3    C8 6094   2.635   0.500  13.463 -0.1988  0.2970 -0.2074
  404TMC3    O1 6095   2.513   0.833  13.048 -0.2792  0.2070 -0.1038
  404TMC3    O2 6096   2.727   0.466  13.392 -0.1284 -0.1364 -0.0122
  405MPD2     C 6097   3.492   1.452  14.522 -0.5220  0.7256 -0.1818
  405MPD2    C1 6098   3.433   1.345  14.583 -0.5353  0.4713  0.2640
  405MPD2    C2 6099   3.339   1.267  14.516 -0.6513 -0.0651 -0.2160
  405MPD2    C3 6100   3.302   1.292  14.390 -0.2417  0.1843  0.3276
  405MPD2    C4 6101   3.360   1.400  14.327 -0.8682 -0.0580 -0.3973
  405MPD2    C5 6102   3.453   1.477  14.389  0.3283 -0.5171 -0.4100
  405MPD2     H 6103   3.281   1.191  14.567 -2.5196  0.2792 -1.8238
  405MPD2    H1 6104   3.337   1.419  14.222  0.7464  0.2658 -0.6884
  405MPD2    H2 6105   3.561   1.519  14.572  0.4135 -1.2235  1.1564
  405MPD2    H3 6106   3.490   1.568  14.344  1.1192 -0.2406  0.8021
  405MPD2     N 6107   3.208   1.204  14.322 -0.5540 -0.0541  0.4970
  405MPD2    H5 6108   3.191   1.118  14.373 -4.2057  0.3580 -0.0702
  405MPD2    N1 6109   3.443   1.311  14.719  0.2391 -0.2075  0.3757
  405MPD2    H7 6110   3.368   1.258  14.762 -2.5170  2.4390 -1.2511
  406TMC3    C1 6111   2.822   1.074  14.128 -0.6513 -0.2871  0.5680
  406TMC3    C2 6112   2.820   0.986  14.241 -0.1011  0.0459 -0.4979
  406TMC3    C3 6113   2.944   0.949  14.285  0.1253 -0.3494 -0.0685
  406TMC3    C4 6114   2.935   1.149  14.104 -0.2502 -0.0051 -0.4165
  406TMC3    C5 6115   3.056   1.115  14.162 -0.5244 -0.0463 -0.0094
  406TMC3    C6 6116   3.062   1.002  14.243  0.1949 -0.2784  0.7328
  406TMC3     C 6117   2.704   1.144  14.087  0.5396  0.1911  0.3150
  406TMC3     O 6118   2.697   1.209  13.986 -0.1474  0.4360  0.2577
  406TMC3     H 6119   2.729   0.930  14.260 -0.8996  2.0640  1.6607
  406TMC3    H1 6120   2.928   1.239  14.045  1.5508  0.9357  0.7752
  406TMC3    H2 6121   3.155   0.955  14.274 -0.3209 -0.9521  1.2479
  406TMC3    C7 6122   3.144   1.224  14.200 -1.2755  0.3558  0.0377
  406TMC3    C8 6123   2.926   0.873  14.407  0.8635  0.0837  0.5838
  406TMC3    O1 6124   3.147   1.317  14.119  0.1034 -0.1294  0.7724
  406TMC3    O2 6125   2.839   0.786  14.409 -0.0874 -0.1785 -0.5674
  407MPD2     C 6126   0.597   2.926   9.469  0.1262 -0.1112 -0.2972
  407MPD2    C1 6127   0.691   2.886   9.559 -0.3377  0.3184  0.0204
  407MPD2    C2 6128   0.720   2.962   9.675  0.3527 -0.1296  0.4770
  407MPD2    C3 6129   0.666   3.088   9.688 -0.2466 -0.1252  0.4002
  407MPD2    C4 6130   0.580   3.130   9.591  0.4266 -0.0269 -0.2923
  407MPD2    C5 6131   0.550   3.048   9.489  0.2185  0.5468  0.4977
  407MPD2     H 6132   0.791   2.918   9.744 -0.5275  0.0606  1.5116
  407MPD2    H1 6133   0.526   3.224   9.588  0.1037 -0.2396 -1.1122
  407MPD2    H2 6134   0.577   2.873   9.376  0.9765 -2.1707  0.6804
  407MPD2    H3 6135   0.479   3.074   9.411  0.7564 -1.8179 -0.7928
  407MPD2     N 6136   0.719   3.175   9.784  0.6828 -0.3179  0.9553
  407MPD2    H5 6137   0.701   3.274   9.770  0.5974 -0.7416 -1.9518
  407MPD2    N1 6138   0.760   2.766   9.543 -0.1656  0.1286  0.6894
  407MPD2    H7 6139   0.836   2.742   9.606  1.6228  0.1395 -1.4766
  408TMC3    C1 6140   0.881   2.602   9.429  0.2026  0.4522  0.5840
  408TMC3    C2 6141   0.989   2.648   9.501  0.3418 -0.0210  0.1219
  408TMC3    C3 6142   1.089   2.562   9.520 -0.4861  0.0490 -0.5695
  408TMC3    C4 6143   0.872   2.472   9.381 -0.0107  0.1918  0.6610
  408TMC3    C5 6144   0.973   2.390   9.412 -0.4618  0.8209 -0.5432
  408TMC3    C6 6145   1.086   2.428   9.484 -0.0507  0.5433 -0.0254
  408TMC3     C 6146   0.760   2.685   9.436  0.0657 -0.0238 -0.6071
  408TMC3     O 6147   0.658   2.650   9.381  0.2166 -0.1934 -0.2854
  408TMC3     H 6148   1.006   2.747   9.542  1.2252 -0.0183 -0.2282
  408TMC3    H1 6149   0.779   2.440   9.337  2.3678 -0.1034 -4.1075
  408TMC3    H2 6150   1.176   2.369   9.492 -2.3676 -3.1249 -1.0905
  408TMC3    C7 6151   0.968   2.256   9.361 -0.6182 -0.1825 -0.3712
  408TMC3    C8 6152   1.206   2.602   9.590  0.9256 -0.0512 -0.0879
  408TMC3    O1 6153   1.022   2.167   9.430 -0.3521 -0.6374 -0.5569
  408TMC3    O2 6154   1.278   2.515   9.644  0.1062 -0.5331  0.4701
  409MPD2     C 6155   0.672   3.447  17.056  0.2090 -0.5183  0.0036
  409MPD2    C1 6156   0.734   3.392  16.945  0.4866  0.0316  0.8052
  409MPD2    C2 6157   0.819   3.473  16.876 -0.3823  0.5163 -0.6246
  409MPD2    C3 6158   0.846   3.602  16.918  0.2959  0.0780 -0.2093
  409MPD2    C4 6159   0.774   3.664  17.020  0.5615  0.2562 -0.3410
  409MPD2    C5 6160   0.686   3.583  17.082  0.9548  0.3061  0.0567
  409MPD2     H 6161   0.872   3.435  16.789 -0.6167  0.4893 -0.7545
  409MPD2    H1 6162   0.780   3.768  17.050 -1.2968  0.5814 -1.1101
  409MPD2    H2 6163   0.605   3.390  17.120  0.5619 -0.7258  0.1859
  409MPD2    H3 6164   0.638   3.605  17.176  0.2316 -3.6442  0.6289
  409MPD2     N 6165   0.942   3.672  16.837 -0.5336  0.0746 -0.0739
  409MPD2    H5 6166   0.958   3.622  16.749 -0.8470 -1.7478  0.9078
  409MPD2    N1 6167   0.710   3.260  16.902  0.4035  0.1026  0.2516
  409MPD2    H7 6168   0.759   3.232  16.818  0.1996 -1.0514  0.5159
  410TMC3    C1 6169   1.030   3.848  16.745  0.0076 -0.1653 -0.6567
  410TMC3    C2 6170   1.139   3.933  16.746 -0.7694  0.2331 -0.2104
  410TMC3    C3 6171   1.189   3.976  16.622  0.3948  0.4120 -0.1539
  410TMC3    C4 6172   0.951   3.832  16.640  0.0538  0.0678  0.5439
  410TMC3    C5 6173   1.003   3.871  16.521  0.7679 -0.1327 -0.3840
  410TMC3    C6 6174   1.125   3.934  16.506  0.5462  0.2264 -0.0376
  410TMC3     C 6175   1.004   3.786  16.865  0.0324  0.2081 -0.0950
  410TMC3     O 6176   1.015   3.846  16.971  0.5274  0.5588  0.7137
  410TMC3     H 6177   1.178   3.974  16.839 -0.9125  1.5191 -0.7169
  410TMC3    H1 6178   0.860   3.773  16.636  0.3249 -0.2881 -0.3919
  410TMC3    H2 6179   1.170   3.942  16.408  0.4310 -2.3359 -0.3048
  410TMC3    C7 6180   0.917   3.850  16.408  0.3044 -0.0761 -0.4848
  410TMC3    C8 6181   1.339   3.974  16.621 -0.6329 -0.8080 -0.2086
  410TMC3    O1 6182   0.809   3.794  16.426 -0.5490 -0.0069  0.0909
  410TMC3    O2 6183   1.395   4.042  16.702  0.6057  0.1598  0.6268
  411MPD2     C 6184   0.996   4.057  13.774 -0.5296 -0.2725  0.5010
  411MPD2    C1 6185   0.971   4.087  13.903  0.4538  0.1024 -0.1619
  411MPD2    C2 6186   0.990   3.993  14.002  0.6727 -0.0932 -0.1230
  411MPD2    C3 6187   1.016   3.862  13.964  0.5076  0.2365 -0.6299
  411MPD2    C4 6188   1.017   3.825  13.832  0.6298  0.7578 -0.8773
  411MPD2    C5 6189   1.024   3.924  13.742  0.8057 -0.2671  0.1997
  411MPD2     H 6190   0.975   4.019  14.106 -1.2105 -1.5722 -0.0298
  411MPD2    H1 6191   1.044   3.726  13.798 -1.0514  0.1929 -0.5448
  411MPD2    H2 6192   0.986   4.134  13.699 -1.2412 -0.2041  0.6640
  411MPD2    H3 6193   1.042   3.895  13.640  0.3661  0.2625 -0.0299
  411MPD2     N 6194   1.028   3.754  14.057 -0.5356 -1.0318 -0.1187
  411MPD2    H5 6195   1.021   3.658  14.025  1.3968 -0.8509 -1.0683
  411MPD2    N1 6196   0.930   4.219  13.933  0.7818 -0.0198 -0.2971
  411MPD2    H7 6197   0.911   4.278  13.853 -1.5317  1.4239  1.3122
  412TMC3    C1 6198   0.998   3.653  14.263  0.0415  0.2956  0.1433
  412TMC3    C2 6199   0.873   3.691  14.318  0.4411 -0.2134 -0.3353
  412TMC3    C3 6200   0.759   3.623  14.289  0.6023 -0.5748  0.3689
  412TMC3    C4 6201   1.004   3.534  14.193  0.9879  0.5163  0.1802
  412TMC3    C5 6202   0.893   3.458  14.181  0.8386 -0.3661  0.8442
  412TMC3    C6 6203   0.772   3.502  14.217  0.3671  0.0110 -0.8631
  412TMC3     C 6204   1.055   3.771  14.191  0.2255 -0.4248  0.1112
  412TMC3     O 6205   1.087   3.871  14.260 -0.3567 -0.0935  0.4865
  412TMC3     H 6206   0.866   3.789  14.364 -0.8942 -0.0615 -0.8789
  412TMC3    H1 6207   1.098   3.499  14.152  0.1138 -1.0460 -0.4849
  412TMC3    H2 6208   0.686   3.436  14.220 -0.4943  1.2317  1.4388
  412TMC3    C7 6209   0.885   3.444  14.037  0.3484  0.3668  0.4166
  412TMC3    C8 6210   0.657   3.702  14.242  0.7891 -0.4654 -0.1638
  412TMC3    O1 6211   0.978   3.392  13.984 -0.2795 -0.4133 -0.9999
  412TMC3    O2 6212   0.680   3.816  14.209  0.1148  0.1439 -0.3699
  413MPD2     C 6213   2.626   2.979  15.742 -0.0291  0.1207 -0.4800
  413MPD2    C1 6214   2.628   2.945  15.610  0.0990 -0.0547 -0.0163
  413MPD2    C2 6215   2.728   2.863  15.560  0.1962 -0.1674 -0.6757
  413MPD2    C3 6216   2.833   2.818  15.642  0.2450 -0.4995 -0.0088
  413MPD2    C4 6217   2.825   2.846  15.777  0.1412 -0.0970 -0.5878
  413MPD2    C5 6218   2.725   2.929  15.821 -0.2179  0.7026  0.0548
  413MPD2     H 6219   2.734   2.833  15.456  1.1006  0.4293 -0.7990
  413MPD2    H1 6220   2.893   2.803  15.849  0.2236  2.3291  0.7985
  413MPD2    H2 6221   2.541   3.022  15.793 -0.1114 -2.9609  1.9805
  413MPD2    H3 6222   2.719   2.961  15.925 -1.2437 -1.8449  0.7717
  413MPD2     N 6223   2.925   2.725  15.588 -0.3299 -0.1013 -0.2393
  413MPD2    H5 6224   2.929   2.721  15.487 -0.3769  0.3300 -0.2581
  413MPD2    N1 6225   2.517   2.973  15.537 -0.4601  0.8082 -0.0625
  413MPD2    H7 6226   2.441   3.023  15.583 -0.5947  1.9207 -1.4602
  414TMC3    C1 6227   3.087   2.564  15.573 -0.2831  0.5369 -0.7102
  414TMC3    C2 6228   3.114   2.433  15.601 -0.0258  0.1794  0.1400
  414TMC3    C3 6229   3.136   2.355  15.487  0.0139 -0.1898  0.9087
  414TMC3    C4 6230   3.104   2.619  15.447  0.2389  0.3513 -0.2200
  414TMC3    C5 6231   3.124   2.530  15.344  0.4341  0.2561  0.2300
  414TMC3    C6 6232   3.137   2.403  15.359  0.3493  0.1418 -0.1985
  414TMC3     C 6233   3.007   2.641  15.667  0.1272 -0.3683  0.4848
  414TMC3     O 6234   3.001   2.605  15.787 -0.3116  0.0513  0.4110
  414TMC3     H 6235   3.091   2.382  15.694  1.8181 -2.7817 -1.0632
  414TMC3    H1 6236   3.098   2.726  15.434 -0.7556  0.4157  0.7245
  414TMC3    H2 6237   3.162   2.334  15.279  0.8026 -0.0260  0.0890
  414TMC3    C7 6238   3.196   2.588  15.233  0.0138 -0.0920 -0.3736
  414TMC3    C8 6239   3.192   2.225  15.506 -0.0986  0.3154  0.1516
  414TMC3    O1 6240   3.283   2.670  15.255  0.4677 -0.1541 -0.1126
  414TMC3    O2 6241   3.211   2.143  15.417  0.2170 -1.2875  0.5570
  415TMC3    C1 6242   3.024   0.668  10.054  0.5695  0.7166  0.3248
  415TMC3    C2 6243   3.095   0.669   9.943 -0.0169  0.5915 -0.0097
  415TMC3    C3 6244   3.025   0.625   9.830  0.2345  0.0764 -0.7804
  415TMC3    C4 6245   2.901   0.618  10.063  0.1427  0.8744  0.0286
  415TMC3    C5 6246   2.846   0.562   9.957  1.1133  0.7879  0.5950
  415TMC3    C6 6247   2.901   0.576   9.835  0.2432 -0.2081 -0.0307
  415TMC3     C 6248   3.088   0.692  10.179 -0.0579 -0.1800 -0.1296
  415TMC3     O 6249   3.028   0.645  10.273 -0.1317  0.2333  0.1343
  415TMC3     H 6250   3.201   0.689   9.941  0.1826 -0.4446 -0.1709
  415TMC3    H1 6251   2.848   0.631  10.157  0.1914 -2.5962  0.5618
  415TMC3    H2 6252   2.845   0.542   9.749  2.2030 -0.4429 -1.2105
  415TMC3    C7 6253   2.710   0.513   9.953  0.2839  0.5127  0.4472
  415TMC3    C8 6254   3.089   0.611   9.701 -1.3190  0.0459  0.0717
  415TMC3    O1 6255   2.638   0.520   9.855 -0.5598  0.4219 -0.0570
  415TMC3    O2 6256   3.037   0.537   9.619  0.1689 -0.1536 -0.1795
  416MPD2     C 6257   4.668   4.221  11.388 -0.3733  1.5115  0.0005
  416MPD2    C1 6258   4.583   4.262  11.292 -0.4330 -0.0284  0.0284
  416MPD2    C2 6259   4.571   4.187  11.172  0.8526  0.6548  0.2579
  416MPD2    C3 6260   4.623   4.055  11.173  0.1932 -0.4894  0.2161
  416MPD2    C4 6261   4.687   4.016  11.287  0.3436  0.8339 -0.2352
  416MPD2    C5 6262   4.727   4.095  11.390 -0.7084 -0.2329  0.2784
  416MPD2     H 6263   4.508   4.238  11.099  0.8143 -0.3514 -0.4147
  416MPD2    H1 6264   0.012   3.928  11.285 -0.3018  0.3395  0.7202
  416MPD2    H2 6265   4.689   4.280  11.477 -2.6735  3.5380 -0.7919
  416MPD2    H3 6266   0.061   4.067  11.465 -1.4255 -0.9541  0.6991
  416MPD2     N 6267   4.607   3.964  11.068  0.1590 -0.9708 -0.9038
  416MPD2    H5 6268   4.655   3.875  11.082  3.7209  1.0809  0.0935
  416MPD2    N1 6269   4.522   4.391  11.319 -0.5399  0.0965 -0.0276
  416MPD2    H7 6270   4.550   4.429  11.409 -0.5360  0.7567 -0.3109
  417TMC3    C1 6271   4.388   4.582  11.298 -0.1881 -0.0715 -0.2887
  417TMC3    C2 6272   4.351   4.579  11.432 -0.2264 -0.5417 -0.2444
  417TMC3    C3 6273   4.252   4.669  11.473 -0.8136  0.1173  0.7700
  417TMC3    C4 6274   4.313   4.655  11.206  0.1067  0.2448  0.1010
  417TMC3    C5 6275   4.205   4.724  11.252 -0.0295  0.5116 -0.1874
  417TMC3    C6 6276   4.179   0.004  11.385  0.8933  0.1784 -0.0622
  417TMC3     C 6277   4.428   4.452  11.237  0.0885 -0.1957 -0.5196
  417TMC3     O 6278   4.361   4.405  11.148 -0.4898  0.6023  0.2277
  417TMC3     H 6279   4.408   4.513  11.496 -1.9049 -0.9733  0.7969
  417TMC3    H1 6280   4.332   4.648  11.100 -1.1648  0.0676 -0.1136
  417TMC3    H2 6281   4.093   0.062  11.417 -0.1818 -0.9879 -0.8596
  417TMC3    C7 6282   4.157   0.081  11.157 -0.1442 -0.4639 -0.4503
  417TMC3    C8 6283   4.211   4.675  11.611  0.0449 -1.0906 -0.4667
  417TMC3    O1 6284   4.229   0.104  11.062  0.0492  0.3657  0.4143
  417TMC3    O2 6285   4.138   0.025  11.653 -0.2130 -0.1331 -0.2311
  418TMC3    C1 6286   4.200   0.987  17.377  0.0302  0.2893  0.0371
  418TMC3    C2 6287   4.161   1.118  17.377 -0.1225  0.2469 -0.5805
  418TMC3    C3 6288   4.159   1.184  17.495 -0.3921 -0.3849  0.3704
  418TMC3    C4 6289   4.240   0.926  17.496  0.2572 -0.3144  0.4525
  418TMC3    C5 6290   4.243   0.999  17.606 -0.5415 -0.3237  0.4082
  418TMC3    C6 6291   4.190   1.117  17.614 -0.3685 -0.0447  0.0220
  418TMC3     C 6292   4.229   0.916  17.254  0.3270  0.1925  0.2027
  418TMC3     O 6293   4.265   0.983  17.160 -0.0585 -1.5838  0.0185
  418TMC3     H 6294   4.121   1.167  17.290  0.1997 -1.1928 -1.5375
  418TMC3    H1 6295   4.295   0.833  17.489 -1.3314 -1.4710  3.0059
  418TMC3    H2 6296   4.191   1.183  17.701 -2.3391 -1.4886  1.1429
  418TMC3    C7 6297   4.257   0.918  17.727  0.3267 -0.0328  0.0560
  418TMC3    C8 6298   4.027   1.240  17.506  0.9771 -0.4273  0.1170
  418TMC3    O1 6299   4.239   0.797  17.718 -0.1551  0.2009 -0.6418
  418TMC3    O2 6300   3.998   1.325  17.426  0.1081  0.7641 -0.0698
  419MPD2     C 6301   2.509   4.220  12.513 -0.7695 -0.1712 -1.1468
  419MPD2    C1 6302   2.374   4.220  12.533 -0.8398 -0.0400  0.6264
  419MPD2    C2 6303   2.319   4.337  12.592 -0.1725 -0.0636 -0.2956
  419MPD2    C3 6304   2.390   4.454  12.616  0.0504 -0.5707 -0.5350
  419MPD2    C4 6305   2.529   4.446  12.595 -0.0785  0.0159  0.2377
  419MPD2    C5 6306   2.579   4.332  12.546 -0.1858  0.7730  0.2518
  419MPD2     H 6307   2.211   4.343  12.599 -0.2083  1.0170 -1.7565
  419MPD2    H1 6308   2.591   4.532  12.617  0.1706  0.1062 -0.8515
  419MPD2    H2 6309   2.559   4.132  12.476 -0.5575 -0.3153 -0.4975
  419MPD2    H3 6310   2.687   4.323  12.540 -0.3887  0.2164 -2.6108
  419MPD2     N 6311   2.331   4.568  12.668 -0.6694 -0.5698  0.5187
  419MPD2    H5 6312   2.230   4.567  12.663 -0.5687  0.9867 -2.0667
  419MPD2    N1 6313   2.288   4.111  12.510 -0.3367 -0.4541 -0.2656
  419MPD2    H7 6314   2.189   4.117  12.531 -0.3226 -3.2715  0.6945
  420TMC3    C1 6315   2.284   0.002  12.818 -0.0187  1.0310  0.2431
  420TMC3    C2 6316   2.172   0.045  12.757  0.9832 -0.4338  0.8364
  420TMC3    C3 6317   2.068   0.075  12.836 -0.5535  0.2062 -0.3780
  420TMC3    C4 6318   2.298   0.002  12.953  1.1387 -0.7988  0.0812
  420TMC3    C5 6319   2.193   0.044  13.029 -0.0705  0.3767  0.1020
  420TMC3    C6 6320   2.078   0.086  12.971  0.2855 -0.3309  0.4118
  420TMC3     C 6321   2.386   4.663  12.756 -0.3703 -0.4435 -0.3378
  420TMC3     O 6322   2.498   4.658  12.811  0.4165  0.4173  0.1061
  420TMC3     H 6323   2.160   0.022  12.651  1.2739 -0.9875  0.9241
  420TMC3    H1 6324   2.387   4.696  12.995  0.8111 -0.0737  1.5498
  420TMC3    H2 6325   1.997   0.113  13.038  2.3888  3.3009  1.4783
  420TMC3    C7 6326   2.200   0.007  13.168  0.2543 -0.7324 -0.2877
  420TMC3    C8 6327   1.938   0.113  12.771 -0.3117  0.0984  0.4134
  420TMC3    O1 6328   2.286   4.661  13.192  0.4024 -0.0277  0.1267
  420TMC3    O2 6329   1.951   0.159  12.658 -0.3873 -0.0804  0.7503
  421TMC3    C1 6330   2.993   1.352  13.613 -0.4848  0.0400  0.5804
  421TMC3    C2 6331   3.023   1.471  13.673 -0.6168 -0.7058 -0.1474
  421TMC3    C3 6332   3.133   1.478  13.755  0.1301 -0.4123  0.1841
  421TMC3    C4 6333   3.069   1.246  13.644  0.3445 -0.5880 -0.6624
  421TMC3    C5 6334   3.176   1.251  13.726 -0.1346  0.0930  0.4079
  421TMC3    C6 6335   3.213   1.370  13.784  0.8315 -0.0613 -0.7296
  421TMC3     C 6336   2.904   1.356  13.505 -0.3475  0.2982 -0.1869
  421TMC3     O 6337   2.905   1.463  13.440 -0.4948 -0.1288 -0.1669
  421TMC3     H 6338   2.964   1.559  13.652 -0.0450 -0.9310 -2.8213
  421TMC3    H1 6339   3.055   1.166  13.572  0.6220  0.2696 -1.6799
  421TMC3    H2 6340   3.289   1.389  13.858  2.0623  0.2441 -2.0835
  421TMC3    C7 6341   3.277   1.143  13.740  0.0956 -0.2451 -0.6427
  421TMC3    C8 6342   3.205   1.601  13.747  0.3169  0.5376 -0.4591
  421TMC3    O1 6343   3.376   1.176  13.807  0.1475  0.2405  0.9656
  421TMC3    O2 6344   3.330   1.601  13.751  0.5773  0.0789 -0.4050
  422TMC3    C1 6345   1.022   2.435  12.502  0.8415  0.1073  0.7694
  422TMC3    C2 6346   1.051   2.453  12.633 -0.4526 -0.7950 -0.4528
  422TMC3    C3 6347   0.951   2.433  12.733  0.1038 -0.1455 -0.2851
  422TMC3    C4 6348   0.897   2.406  12.461  0.3483  0.5144 -0.1720
  422TMC3    C5 6349   0.805   2.375  12.562  0.2913  0.8676 -0.0893
  422TMC3    C6 6350   0.826   2.403  12.695  0.2315 -0.7458  0.0821
  422TMC3     C 6351   1.141   2.425  12.414  0.2215 -0.2870  0.7022
  422TMC3     O 6352   1.246   2.480  12.450  0.1291 -0.3781 -0.4871
  422TMC3     H 6353   1.154   2.475  12.661 -0.1081 -0.2598 -2.1668
  422TMC3    H1 6354   0.865   2.377  12.362 -0.1185 -0.9599  0.4122
  422TMC3    H2 6355   0.760   2.373  12.775 -1.0183 -0.9487 -1.0231
  422TMC3    C7 6356   0.675   2.323  12.521  0.2874  0.5073  0.3548
  422TMC3    C8 6357   0.961   2.542  12.824 -0.5975 -0.2395 -0.2225
  422TMC3    O1 6358   0.636   2.330  12.405  0.3436  0.2451  0.6422
  422TMC3    O2 6359   1.058   2.615  12.806  0.1608  0.3648  0.1665
  423MPD2     C 6360   2.525   3.282   0.715 -0.5850 -0.0942  0.5785
  423MPD2    C1 6361   2.493   3.151   0.717  0.1592 -0.5752  0.3726
  423MPD2    C2 6362   2.516   3.068   0.614 -0.5664  0.6545 -0.2903
  423MPD2    C3 6363   2.568   3.122   0.499  0.3073 -0.2408  0.6127
  423MPD2    C4 6364   2.603   3.252   0.490  0.6265 -0.0938 -0.0204
  423MPD2    C5 6365   2.584   3.336   0.600  0.2271  0.0465  0.1564
  423MPD2     H 6366   2.474   2.969   0.623 -1.3866  0.9243 -1.0953
  423MPD2    H1 6367   2.638   3.292   0.395  1.2595 -1.4993 -0.3734
  423MPD2    H2 6368   2.495   3.355   0.790 -1.4372  1.7803 -1.6033
  423MPD2    H3 6369   2.586   3.445   0.598 -0.4143  0.0343 -1.1258
  423MPD2     N 6370   2.583   3.048   0.378 -0.3299 -0.2485  0.3581
  423MPD2    H5 6371   2.597   3.108   0.298 -4.3887  0.5926  0.2618
  423MPD2    N1 6372   2.425   3.104   0.837 -0.6379 -0.2016  0.1474
  423MPD2    H7 6373   2.433   3.006   0.862  1.0508 -0.2073 -0.4036
  424TMC3    C1 6374   2.305   3.104   1.040 -0.1210  0.2936 -0.1143
  424TMC3    C2 6375   2.377   3.003   1.096  0.1841 -0.7163  0.8701
  424TMC3    C3 6376   2.365   2.980   1.230  0.6485 -1.0759  1.3113
  424TMC3    C4 6377   2.208   3.169   1.122  0.3004  0.0204  0.0169
  424TMC3    C5 6378   2.202   3.136   1.256 -0.1995 -0.5498  0.2500
  424TMC3    C6 6379   2.287   3.049   1.315  0.2617  0.1276  0.5893
  424TMC3     C 6380   2.327   3.167   0.911  0.1905 -0.1865  0.8014
  424TMC3     O 6381   2.286   3.279   0.893  0.0877  0.3528 -0.4517
  424TMC3     H 6382   2.442   2.945   1.032 -1.6358  0.2010 -1.7892
  424TMC3    H1 6383   2.156   3.254   1.079  2.2669  0.7858 -0.8585
  424TMC3    H2 6384   2.262   3.019   1.417 -0.4858 -1.3792 -0.0329
  424TMC3    C7 6385   2.081   3.159   1.335  0.9717  0.5601  0.1741
  424TMC3    C8 6386   2.449   2.875   1.282  0.4638 -0.7453  0.6381
  424TMC3    O1 6387   2.094   3.168   1.454 -0.0222 -0.3925  0.2482
  424TMC3    O2 6388   2.487   2.790   1.204  0.6806  0.0388 -0.3497
  425MPD2     C 6389   1.113   2.546  16.565  0.0527 -0.2703  0.4831
  425MPD2    C1 6390   1.138   2.415  16.572 -0.2887 -0.4023  0.3774
  425MPD2    C2 6391   1.082   2.349  16.677  0.1224  0.2381  0.7839
  425MPD2    C3 6392   1.010   2.411  16.779 -0.2086  0.5394  0.1928
  425MPD2    C4 6393   0.997   2.547  16.777 -0.5815 -0.0642  0.5085
  425MPD2    C5 6394   1.039   2.611  16.661  0.6000 -0.4154 -0.5119
  425MPD2     H 6395   1.097   2.242  16.672  0.4647  0.2971  0.5489
  425MPD2    H1 6396   0.944   2.611  16.847 -0.2873 -0.5790  1.2015
  425MPD2    H2 6397   1.137   2.596  16.472 -4.1789 -1.2951 -1.1525
  425MPD2    H3 6398   1.028   2.718  16.648  1.1456 -0.4600 -1.3854
  425MPD2     N 6399   0.950   2.335  16.877 -0.2721 -0.1909  0.3617
  425MPD2    H5 6400   0.952   2.234  16.864  1.9728  0.3056 -3.0143
  425MPD2    N1 6401   1.222   2.350  16.474 -0.0796  0.2766  0.2493
  425MPD2    H7 6402   1.269   2.422  16.420  0.6931 -0.6175 -0.2561
  426TMC3    C1 6403   1.296   2.190  16.318 -0.7884 -0.1980 -0.1481
  426TMC3    C2 6404   1.309   2.061  16.278  0.3286 -0.2240  0.0297
  426TMC3    C3 6405   1.422   2.022  16.216  0.0594  0.0739 -0.3591
  426TMC3    C4 6406   1.394   2.278  16.284  0.2413  0.3862  0.5797
  426TMC3    C5 6407   1.499   2.235  16.208 -0.2307 -0.6820 -0.7630
  426TMC3    C6 6408   1.507   2.111  16.163 -0.5691  0.1413  0.4959
  426TMC3     C 6409   1.220   2.217  16.440  0.9105  0.4715 -0.3536
  426TMC3     O 6410   1.181   2.121  16.503 -0.0692 -0.1996  0.0594
  426TMC3     H 6411   1.235   1.993  16.319 -0.3421  0.2948 -0.3165
  426TMC3    H1 6412   1.393   2.384  16.304  1.8361  0.2580  1.3012
  426TMC3    H2 6413   1.582   2.082  16.090 -1.3858 -0.9627  0.0968
  426TMC3    C7 6414   1.626   2.295  16.235 -0.4745 -0.1228  0.1693
  426TMC3    C8 6415   1.448   1.871  16.202 -0.0204  0.2427 -0.4526
  426TMC3    O1 6416   1.709   2.306  16.152  0.0969 -0.1217 -0.6186
  426TMC3    O2 6417   1.553   1.839  16.148  0.7969 -0.5878  0.3475
  427MPD2     C 6418   0.122   4.552  14.463  0.1121  0.0479  0.2705
  427MPD2    C1 6419   0.063   4.431  14.506  0.4601 -0.1213 -0.6301
  427MPD2    C2 6420   4.666   4.428  14.523  0.2086 -0.0521  0.1006
  427MPD2    C3 6421   4.585   4.534  14.483  0.0685  0.1772 -0.6902
  427MPD2    C4 6422   4.644   4.645  14.420 -0.0548 -0.0922 -0.6083
  427MPD2    C5 6423   0.043   4.656  14.419  0.2267  0.6012 -0.3272
  427MPD2     H 6424   4.624   4.334  14.559 -0.7300  0.6399  0.8192
  427MPD2    H1 6425   4.597   4.731  14.374  1.8135  0.9354 -0.5531
  427MPD2    H2 6426   0.229   4.559  14.446  0.6612 -0.0901  3.7124
  427MPD2    H3 6427   0.089   0.007  14.379  0.2222  0.8952  0.3178
  427MPD2     N 6428   4.447   4.534  14.510  0.5107  0.3856 -0.1541
  427MPD2    H5 6429   4.396   4.614  14.474 -0.8256  0.3698  1.6924
  427MPD2    N1 6430   0.136   4.317  14.541  0.5500  0.9797 -0.1123
  427MPD2    H7 6431   0.090   4.245  14.596  0.3054  0.0321 -1.5498
  428TMC3    C1 6432   0.327   4.205  14.631  0.5792 -0.2628 -0.1956
  428TMC3    C2 6433   0.245   4.150  14.729  0.4952  0.5798  0.1729
  428TMC3    C3 6434   0.310   4.083  14.830  0.4139  0.8002 -0.4655
  428TMC3    C4 6435   0.467   4.203  14.633 -0.5981 -0.3232 -0.1534
  428TMC3    C5 6436   0.522   4.129  14.739  0.7994 -0.4549 -0.3031
  428TMC3    C6 6437   0.445   4.075  14.843 -0.2032 -0.4646 -0.2758
  428TMC3     C 6438   0.272   4.305  14.533  0.2487  0.3027  1.7448
  428TMC3     O 6439   0.353   4.369  14.469 -0.0841  0.5404  0.2190
  428TMC3     H 6440   0.139   4.168  14.741  0.1254 -1.8629  0.6795
  428TMC3    H1 6441   0.522   4.265  14.564 -0.5884  0.3175  0.4344
  428TMC3    H2 6442   0.486   4.024  14.928 -1.6607 -0.0411  0.6873
  428TMC3    C7 6443   0.651   4.172  14.790  0.3091  0.1461 -0.0059
  428TMC3    C8 6444   0.239   4.046  14.946  0.9307 -0.4281 -0.8261
  428TMC3    O1 6445   0.679   4.165  14.908  0.0833 -0.1030 -0.6790
  428TMC3    O2 6446   0.302   4.039  15.049 -0.0690 -0.0196 -0.0499
  429MPD2     C 6447   0.900   4.050  17.352 -0.0766  0.7514 -0.1630
  429MPD2    C1 6448   0.973   3.998  17.249  0.6804 -0.7071  0.1605
  429MPD2    C2 6449   1.038   4.089  17.157  0.3484 -0.7234 -0.5534
  429MPD2    C3 6450   1.015   4.228  17.159 -0.5542  0.8956 -0.2501
  429MPD2    C4 6451   0.937   4.279  17.260  0.3769 -1.3763  0.3864
  429MPD2    C5 6452   0.886   4.190  17.355  0.3113  0.0113  0.2530
  429MPD2     H 6453   1.111   4.043  17.092 -0.4241 -1.2187 -1.0751
  429MPD2    H1 6454   0.911   4.385  17.266 -1.6354 -1.9582  2.0690
  429MPD2    H2 6455   0.865   3.981  17.428  1.3259 -2.1019 -2.1173
  429MPD2    H3 6456   0.841   4.220  17.449 -0.4533 -2.2656  0.6118
  429MPD2     N 6457   1.064   4.304  17.049  0.0224  0.2107 -0.2043
  429MPD2    H5 6458   1.127   4.252  16.989 -1.9715 -0.3106 -1.8350
  429MPD2    N1 6459   1.009   3.861  17.240 -0.7987  0.5850  0.2184
  429MPD2    H7 6460   1.061   3.832  17.158 -0.5919  0.6948  0.3101
  430TMC3    C1 6461   1.156   4.492  16.949  0.4131  0.2911 -0.1944
  430TMC3    C2 6462   1.154   4.479  16.813  0.2065  0.4881 -0.0606
  430TMC3    C3 6463   1.241   4.566  16.749  0.0459 -0.5090 -0.7937
  430TMC3    C4 6464   1.220   4.590  17.020 -0.6272  0.0353 -0.6918
  430TMC3    C5 6465   1.308   4.668  16.956 -0.7009  0.3655  0.0139
  430TMC3    C6 6466   1.320   4.662  16.816 -0.1470  0.1332  0.1515
  430TMC3     C 6467   1.052   4.441  17.035  0.0797 -0.3343  0.3330
  430TMC3     O 6468   0.994   4.518  17.113  0.0725 -0.2553 -0.5449
  430TMC3     H 6469   1.111   4.394  16.761  0.5989 -0.1320  0.6469
  430TMC3    H1 6470   1.229   4.592  17.128 -0.5590  1.5696 -0.7279
  430TMC3    H2 6471   1.400   4.708  16.760  0.5713 -1.2238  0.0726
  430TMC3    C7 6472   1.429   4.689  17.039  0.1996  0.7322 -1.2531
  430TMC3    C8 6473   1.219   4.576  16.602 -0.3719  0.6794  0.5765
  430TMC3    O1 6474   1.415   4.736  17.152  1.1247  1.2382 -0.2240
  430TMC3    O2 6475   1.161   4.483  16.549 -0.2044  0.8210  0.4552
  431MPD2     C 6476   2.076   4.688  12.428 -1.4802  0.3969 -0.2310
  431MPD2    C1 6477   2.170   4.630  12.353  0.0325 -0.3470 -0.0959
  431MPD2    C2 6478   2.158   4.493  12.323 -0.0314 -0.8328 -0.0715
  431MPD2    C3 6479   2.036   4.431  12.340 -0.5453  0.3737 -0.1293
  431MPD2    C4 6480   1.941   4.495  12.420  0.7554  0.3719 -0.0974
  431MPD2    C5 6481   1.965   4.622  12.461 -0.0087  0.1651  0.2759
  431MPD2     H 6482   2.240   4.435  12.281  1.1248  0.4999  0.3598
  431MPD2    H1 6483   1.857   4.436  12.456  0.4090  0.1557 -1.2541
  431MPD2    H2 6484   2.067   0.050  12.468  1.6587  0.9085 -0.8275
  431MPD2    H3 6485   1.896   4.682  12.518  1.0188  0.5748  1.0908
  431MPD2     N 6486   2.008   4.297  12.299  0.2770 -0.1007 -0.2716
  431MPD2    H5 6487   1.941   4.244  12.354 -1.1048  1.8345 -0.1140
  431MPD2    N1 6488   2.292   4.692  12.350 -0.8071 -0.1551  0.0633
  431MPD2    H7 6489   2.286   0.045  12.392  1.9570 -0.2944  0.7670
  432TMC3    C1 6490   2.064   4.076  12.216 -0.8710 -0.1418  0.1410
  432TMC3    C2 6491   2.114   4.019  12.104  0.1829 -0.5814 -0.0466
  432TMC3    C3 6492   2.200   3.913  12.128 -0.4997 -0.0526 -0.0477
  432TMC3    C4 6493   2.094   4.029  12.343  0.2957 -0.3277 -0.3201
  432TMC3    C5 6494   2.203   3.942  12.363  0.1089  0.3070  0.2743
  432TMC3    C6 6495   2.242   3.876  12.250  1.0500  0.4921  0.3780
  432TMC3     C 6496   2.080   4.221  12.204  0.4327 -0.0788 -0.4278
  432TMC3     O 6497   2.155   4.262  12.118  0.0762 -0.3749  1.0432
  432TMC3     H 6498   2.109   4.066  12.007  1.0653  0.7515  0.5644
  432TMC3    H1 6499   2.063   4.092  12.425 -1.2953 -2.5292  0.7571
  432TMC3    H2 6500   2.325   3.807  12.257  0.5267  0.0029  1.6587
  432TMC3    C7 6501   2.318   3.993  12.437  0.3588 -0.3424 -0.5714
  432TMC3    C8 6502   2.299   3.898  12.018  0.2371 -0.2664 -0.3086
  432TMC3    O1 6503   2.428   3.951  12.398 -0.0051 -0.5319 -0.2267
  432TMC3    O2 6504   2.412   3.903  12.054  0.1841 -0.4237 -0.1013
  433MPD2     C 6505   1.330   3.785  10.989  0.2073 -1.0485 -0.0665
  433MPD2    C1 6506   1.225   3.726  11.061  0.1248  0.7111  0.0829
  433MPD2    C2 6507   1.236   3.706  11.200 -0.1552 -0.9094  0.1441
  433MPD2    C3 6508   1.362   3.727  11.255 -0.0862  0.7115 -0.3174
  433MPD2    C4 6509   1.467   3.781  11.184 -0.3087  0.2090  0.4239
  433MPD2    C5 6510   1.447   3.816  11.056 -0.3774  0.6439 -0.3840
  433MPD2     H 6511   1.152   3.675  11.262 -1.5758 -0.1666 -1.3835
  433MPD2    H1 6512   1.561   3.789  11.237  1.2875  2.4569 -2.7811
  433MPD2    H2 6513   1.329   3.818  10.886  0.4939 -1.8435 -0.3230
  433MPD2    H3 6514   1.531   3.850  10.997 -0.8442 -1.6094 -2.3727
  433MPD2     N 6515   1.365   3.707  11.398  0.1264  0.3325  0.1744
  433MPD2    H5 6516   1.277   3.674  11.436  0.9252 -1.1164  0.7517
  433MPD2    N1 6517   1.102   3.692  10.993 -0.1947 -0.2784  0.4289
  433MPD2    H7 6518   1.090   3.700  10.893  0.4127 -2.0437  0.2151
  434TMC3    C1 6519   0.887   3.589  10.961 -0.5664  0.2312  0.1618
  434TMC3    C2 6520   0.791   3.515  11.021  0.0059 -1.1656  0.0353
  434TMC3    C3 6521   0.709   3.432  10.941  0.3883 -0.5155 -0.3206
  434TMC3    C4 6522   0.908   3.592  10.822 -0.9444  0.2633  0.6552
  434TMC3    C5 6523   0.810   3.528  10.748  0.3701  0.2165 -0.9993
  434TMC3    C6 6524   0.717   3.446  10.807  0.7615 -0.3850  0.5116
  434TMC3     C 6525   1.000   3.616  11.049 -0.2698  0.1554  0.2722
  434TMC3     O 6526   0.995   3.581  11.163 -0.1462  0.0590  0.2698
  434TMC3     H 6527   0.783   3.501  11.128 -1.2186 -0.0176  0.1029
  434TMC3    H1 6528   0.998   3.626  10.771 -1.5350  0.6519 -0.1240
  434TMC3    H2 6529   0.651   3.380  10.752  1.2188 -1.2125  0.9475
  434TMC3    C7 6530   0.859   3.459  10.627  0.1253  0.1251 -0.4023
  434TMC3    C8 6531   0.735   3.297  10.985 -0.2841  0.2094  0.4746
  434TMC3    O1 6532   0.888   3.521  10.526 -0.4862  0.5513  0.1339
  434TMC3    O2 6533   0.843   3.284  11.042  0.0988 -0.4659 -0.0227
  435MPD2     C 6534   3.280   3.294  15.312 -0.5013 -0.3295  0.6475
  435MPD2    C1 6535   3.218   3.285  15.436 -0.4344 -0.6552  0.5685
  435MPD2    C2 6536   3.287   3.219  15.540 -1.1177 -0.2126  0.2948
  435MPD2    C3 6537   3.419   3.180  15.528  0.4223 -0.0595  0.7233
  435MPD2    C4 6538   3.480   3.187  15.405 -0.9073  0.0498 -0.1834
  435MPD2    C5 6539   3.413   3.241  15.292  0.2848  0.1193 -0.3688
  435MPD2     H 6540   3.243   3.217  15.639  0.6895  0.6194  1.1202
  435MPD2    H1 6541   3.577   3.148  15.376 -0.6641  0.5125  0.0205
  435MPD2    H2 6542   3.230   3.339  15.227 -0.8522  0.6573  1.3706
  435MPD2    H3 6543   3.459   3.245  15.194  2.1377  1.3332  0.5410
  435MPD2     N 6544   3.481   3.134  15.643 -0.3758 -0.2592  0.0812
  435MPD2    H5 6545   3.412   3.101  15.711  0.5410 -1.1001  0.6017
  435MPD2    N1 6546   3.084   3.324  15.460 -0.3236 -0.0288 -0.3731
  435MPD2    H7 6547   3.048   3.311  15.553 -3.0523  1.8611 -1.1907
  436TMC3    C1 6548   2.722   3.399  15.609  0.2381 -0.2078 -0.0290
  436TMC3    C2 6549   2.846   3.407  15.543  0.6258 -1.1333 -0.0557
  436TMC3    C3 6550   2.857   3.385  15.409  0.8526  0.3790 -0.1913
  436TMC3    C4 6551   2.605   3.381  15.534  0.2976  0.7397  1.2054
  436TMC3    C5 6552   2.625   3.342  15.402  0.1013 -0.1347 -0.8042
  436TMC3    C6 6553   2.743   3.361  15.335 -0.4329  0.2465 -0.4827
  436TMC3     C 6554   2.723   3.370  15.753 -0.1443  0.2345  0.1623
  436TMC3     O 6555   2.833   3.349  15.800  0.1099 -0.5080  0.2172
  436TMC3     H 6556   2.934   3.433  15.600  1.8077 -1.1922 -1.8480
  436TMC3    H1 6557   2.512   3.364  15.588 -0.2210  0.7546  0.3108
  436TMC3    H2 6558   2.744   3.356  15.226  1.5109 -1.3458 -0.3939
  436TMC3    C7 6559   2.513   3.293  15.324  0.6018 -0.6223 -0.4510
  436TMC3    C8 6560   2.991   3.357  15.360  0.1634  0.1500  0.1437
  436TMC3    O1 6561   2.404   3.337  15.360 -0.0603 -0.3077  0.2382
  436TMC3    O2 6562   3.006   3.350  15.238 -0.6899 -0.0770 -0.1181
  437TMC3    C1 6563   1.072   0.556  13.076 -0.8067 -0.1861  0.4875
  437TMC3    C2 6564   0.956   0.622  13.103  0.5129 -0.2724 -0.1078
  437TMC3    C3 6565   0.911   0.710  13.008  0.2535 -0.3476  0.9306
  437TMC3    C4 6566   1.137   0.573  12.960 -0.0546  0.0715  0.0879
  437TMC3    C5 6567   1.093   0.667  12.870  0.4241 -0.1807  0.3080
  437TMC3    C6 6568   0.982   0.743  12.896 -0.1255  0.3604  0.2938
  437TMC3     C 6569   1.115   0.448  13.158 -0.3802 -0.6289 -0.0289
  437TMC3     O 6570   1.183   0.364  13.096  0.6601 -0.3535 -0.0405
  437TMC3     H 6571   0.889   0.583  13.178  0.2738  0.7713  0.2189
  437TMC3    H1 6572   1.217   0.507  12.927  0.7571  0.3480  1.5238
  437TMC3    H2 6573   0.926   0.792  12.818  0.4919 -0.3429 -0.5818
  437TMC3    C7 6574   1.187   0.713  12.767  1.0070 -0.2165 -0.2336
  437TMC3    C8 6575   0.778   0.764  13.032 -0.0230  0.1915  0.2247
  437TMC3    O1 6576   1.148   0.811  12.706  0.0077 -0.3249 -0.4937
  437TMC3    O2 6577   0.714   0.711  13.120 -0.2839 -0.0753 -0.3180
  438MPD2     C 6578   4.169   1.016  16.211  0.0474  0.0665 -0.5315
  438MPD2    C1 6579   4.218   0.887  16.240  0.3203 -0.1962 -0.2823
  438MPD2    C2 6580   4.186   0.838  16.363  0.0385  0.4858 -0.4412
  438MPD2    C3 6581   4.105   0.902  16.452 -0.0560 -0.2576 -0.0854
  438MPD2    C4 6582   4.049   1.021  16.419 -0.1985  0.4445  0.1923
  438MPD2    C5 6583   4.080   1.076  16.296  0.5454  0.3509  0.1133
  438MPD2     H 6584   4.241   0.746  16.376  0.8483  0.8812 -1.0882
  438MPD2    H1 6585   3.985   1.080  16.483  2.4124  2.1656  1.1907
  438MPD2    H2 6586   4.182   1.071  16.118 -0.1638  1.7822  0.4554
  438MPD2    H3 6587   4.045   1.172  16.263  0.4824  0.8065  1.4812
  438MPD2     N 6588   4.070   0.864  16.579 -0.1065  0.8759  0.1076
  438MPD2    H5 6589   4.003   0.923  16.627 -0.9604  0.4881 -0.6112
  438MPD2    N1 6590   4.313   0.818  16.163 -0.1038  0.2850 -0.5596
  438MPD2    H7 6591   4.364   0.738  16.198 -1.2135 -0.1544  0.0576
  439TMC3    C1 6592   4.449   0.798  15.968  0.0970 -0.7047  0.1873
  439TMC3    C2 6593   4.444   0.813  15.833 -0.7532 -0.1052 -0.3087
  439TMC3    C3 6594   4.558   0.763  15.761 -0.1120  0.1035  0.6137
  439TMC3    C4 6595   4.555   0.743  16.034 -0.2803 -0.6734 -0.7840
  439TMC3    C5 6596   4.663   0.713  15.964 -0.5474 -0.3840 -0.2660
  439TMC3    C6 6597   4.671   0.719  15.827 -0.0211  0.2117  0.3804
  439TMC3     C 6598   4.344   0.864  16.041  0.3656  0.1404  0.7335
  439TMC3     O 6599   4.282   0.945  15.970  1.0234 -0.4497 -0.2848
  439TMC3     H 6600   4.351   0.842  15.786 -0.5307 -0.3107 -0.8729
  439TMC3    H1 6601   4.547   0.733  16.142 -0.6845 -1.1732 -0.8584
  439TMC3    H2 6602   0.017   0.691  15.764 -2.0674 -2.3362 -1.2433
  439TMC3    C7 6603   0.040   0.646  16.025 -0.5494 -0.1645  0.0639
  439TMC3    C8 6604   4.555   0.806  15.622  0.4629  0.0128 -0.3599
  439TMC3    O1 6605   0.023   0.601  16.138 -0.1135  0.2830 -0.6244
  439TMC3    O2 6606   4.471   0.890  15.600  0.0311 -0.1210  0.0334
  440MPD2     C 6607   3.060   1.611  14.820 -0.3571  0.8485  0.2272
  440MPD2    C1 6608   3.072   1.654  14.950  0.2774 -0.0602 -0.0122
  440MPD2    C2 6609   3.201   1.686  15.000  0.9226 -0.6207 -0.1006
  440MPD2    C3 6610   3.314   1.665  14.920  0.1634 -0.0565  0.7391
  440MPD2    C4 6611   3.298   1.612  14.796  0.2304 -0.4199 -0.0595
  440MPD2    C5 6612   3.171   1.593  14.742  0.8190 -0.6294 -0.1441
  440MPD2     H 6613   3.207   1.712  15.105 -0.1555 -0.0292 -0.1865
  440MPD2    H1 6614   3.377   1.601  14.722 -0.6015 -1.3782 -0.7905
  440MPD2    H2 6615   2.961   1.586  14.782  0.1740  0.0447 -0.6286
  440MPD2    H3 6616   3.154   1.551  14.643 -1.8223  0.7801 -0.2787
  440MPD2     N 6617   3.441   1.694  14.969 -0.1508  0.4933  0.1137
  440MPD2    H5 6618   3.519   1.657  14.915 -2.4408 -0.5130 -2.4582
  440MPD2    N1 6619   2.964   1.652  15.041 -0.3284  0.3147 -0.2281
  440MPD2    H7 6620   2.987   1.679  15.136  0.9653  0.4748 -0.5904
  441TMC3    C1 6621   3.595   1.709  15.155  0.2684  0.1305 -0.2641
  441TMC3    C2 6622   3.637   1.777  15.260 -0.7864  0.5997 -0.0798
  441TMC3    C3 6623   3.694   1.720  15.372 -0.1521  0.2480  0.4502
  441TMC3    C4 6624   3.626   1.582  15.145  0.2185 -0.6185  0.1682
  441TMC3    C5 6625   3.680   1.516  15.253 -0.4019  0.1051  0.0025
  441TMC3    C6 6626   3.711   1.582  15.368 -0.1605 -0.4818 -0.2746
  441TMC3     C 6627   3.469   1.750  15.093  0.7994  0.5487  0.2681
  441TMC3     O 6628   3.396   1.820  15.161  0.1320 -0.5967 -0.0123
  441TMC3     H 6629   3.599   1.879  15.261 -1.2090  0.4320  2.9376
  441TMC3    H1 6630   3.595   1.526  15.058  0.7223 -1.2090  0.3665
  441TMC3    H2 6631   3.748   1.532  15.457 -2.9949  3.5221  3.1903
  441TMC3    C7 6632   3.612   1.388  15.259 -0.9634  0.2469  0.2246
  441TMC3    C8 6633   3.641   1.761  15.501  0.1647 -0.3443 -0.2423
  441TMC3    O1 6634   3.499   1.396  15.207  0.6549 -0.3785  0.4284
  441TMC3    O2 6635   3.619   1.666  15.572 -0.9797  0.4963 -0.3910
  442MPD2     C 6636   1.061   2.127  16.045  0.4615  0.3044  0.1797
  442MPD2    C1 6637   1.003   2.060  16.147  0.4031  0.0719 -0.3877
  442MPD2    C2 6638   0.994   1.922  16.146 -0.2078 -0.0167 -0.2448
  442MPD2    C3 6639   1.041   1.850  16.039 -0.4167  1.2342  0.2909
  442MPD2    C4 6640   1.109   1.915  15.937  0.2574 -0.1238 -0.2848
  442MPD2    C5 6641   1.105   2.054  15.941 -0.1369  0.4772  0.5098
  442MPD2     H 6642   0.934   1.870  16.221  1.6961 -0.3343  1.0711
  442MPD2    H1 6643   1.148   1.863  15.850  2.7789 -1.2442  1.5298
  442MPD2    H2 6644   1.076   2.234  16.035 -0.8892  0.3244 -1.7804
  442MPD2    H3 6645   1.153   2.109  15.861  1.8561 -2.5606 -0.3662
  442MPD2     N 6646   1.042   1.708  16.031 -1.0176 -0.3257  0.4141
  442MPD2    H5 6647   1.101   1.665  15.961 -0.5932  0.2894  0.3928
  442MPD2    N1 6648   0.940   2.131  16.257  0.1278 -0.0709  0.2982
  442MPD2    H7 6649   0.911   2.071  16.333 -1.2331  1.6163  1.1107
  443TMC3    C1 6650   0.846   2.295  16.403  0.3027  0.1775 -0.2400
  443TMC3    C2 6651   0.827   2.429  16.436 -0.0401 -0.3305  0.3548
  443TMC3    C3 6652   0.737   2.463  16.535 -0.5877 -0.2664  0.5586
  443TMC3    C4 6653   0.783   2.193  16.478 -0.1707  0.1926 -0.0324
  443TMC3    C5 6654   0.693   2.241  16.580 -0.7809 -0.4843 -0.0820
  443TMC3    C6 6655   0.673   2.373  16.610  0.4193  0.3558  0.7278
  443TMC3     C 6656   0.914   2.266  16.274  0.0894  0.2849  0.5601
  443TMC3     O 6657   0.952   2.363  16.213  0.5325  0.0512 -0.3279
  443TMC3     H 6658   0.869   2.512  16.380 -1.9087  0.0079 -0.5452
  443TMC3    H1 6659   0.784   2.089  16.448  1.0332 -0.5378  2.5915
  443TMC3    H2 6660   0.589   2.415  16.664 -1.8691 -2.5701 -0.5847
  443TMC3    C7 6661   0.645   2.142  16.673 -0.0229 -0.6955 -0.4175
  443TMC3    C8 6662   0.685   2.591  16.552  0.3831  0.1759  0.0123
  443TMC3    O1 6663   0.658   2.023  16.647 -0.0967 -0.2736 -0.4116
  443TMC3    O2 6664   0.693   2.628  16.668  0.1861 -0.3365  0.1800
  444MPD2     C 6665   1.565   1.257  16.699  0.0295  0.0458  0.2500
  444MPD2    C1 6666   1.495   1.142  16.684  0.1613  0.0200 -0.4649
  444MPD2    C2 6667   1.559   1.028  16.652 -0.1924 -0.2868 -0.8263
  444MPD2    C3 6668   1.691   1.022  16.613 -0.7623  0.3260 -0.2450
  444MPD2    C4 6669   1.755   1.144  16.608  0.1635  0.0184  0.5975
  444MPD2    C5 6670   1.691   1.262  16.644 -0.5140 -0.5484  1.1656
  444MPD2     H 6671   1.510   0.931  16.652 -1.5496  0.4075  0.2693
  444MPD2    H1 6672   1.850   1.157  16.558  0.2807  1.2836  1.1485
  444MPD2    H2 6673   1.517   1.349  16.731 -0.3049 -0.8883  2.4566
  444MPD2    H3 6674   1.744   1.356  16.655  0.0156 -0.9570  2.1385
  444MPD2     N 6675   1.748   0.902  16.570  0.1101  0.4912  0.5109
  444MPD2    H5 6676   1.696   0.815  16.560  1.7021 -0.3516 -0.4496
  444MPD2    N1 6677   1.360   1.132  16.723  0.2174 -0.4741 -0.5674
  444MPD2    H7 6678   1.325   1.038  16.734 -1.3936 -0.0134 -1.7519
  445TMC3    C1 6679   1.929   0.768  16.501 -0.7720 -0.0373 -0.4550
  445TMC3    C2 6680   1.842   0.683  16.439  0.2510 -0.5572 -0.3663
  445TMC3    C3 6681   1.893   0.557  16.419 -0.3335  0.3348 -0.4158
  445TMC3    C4 6682   2.054   0.721  16.545 -0.0466  0.4598  0.0173
  445TMC3    C5 6683   2.094   0.597  16.506  0.7111  0.0173  0.2926
  445TMC3    C6 6684   2.016   0.505  16.442  0.2225  0.1990  0.0477
  445TMC3     C 6685   1.885   0.890  16.557  0.9490 -0.0084  0.1209
  445TMC3     O 6686   1.971   0.974  16.576  0.4978 -0.4167 -0.4208
  445TMC3     H 6687   1.741   0.714  16.412  0.6161 -0.0170 -1.1026
  445TMC3    H1 6688   2.118   0.794  16.592  0.8972  0.0652 -0.6665
  445TMC3    H2 6689   2.057   0.409  16.413  1.1998  0.7504 -0.4045
  445TMC3    C7 6690   2.237   0.572  16.531 -0.7337 -0.4284 -0.2302
  445TMC3    C8 6691   1.794   0.462  16.369 -0.1240 -0.5274  0.3105
  445TMC3    O1 6692   2.297   0.648  16.601  0.7457 -1.0971  0.1843
  445TMC3    O2 6693   1.706   0.499  16.292 -0.1411 -1.0058  0.0525
  446MPD2     C 6694   0.737   2.966  11.496 -0.0700 -0.1653  1.0358
  446MPD2    C1 6695   0.708   3.018  11.374  0.6255 -0.9262  0.1004
  446MPD2    C2 6696   0.778   3.127  11.330 -0.4536 -0.1394  0.7657
  446MPD2    C3 6697   0.893   3.170  11.395 -0.1328 -0.4938 -0.2956
  446MPD2    C4 6698   0.916   3.120  11.526 -0.1704 -0.7569  0.0986
  446MPD2    C5 6699   0.835   3.023  11.574 -0.2304  0.3361 -0.0216
  446MPD2     H 6700   0.742   3.170  11.238 -2.2568  0.1980  1.6147
  446MPD2    H1 6701   0.994   3.143  11.597 -1.4764  0.6065  1.0878
  446MPD2    H2 6702   0.671   2.898  11.549 -0.1284 -0.7468  0.2115
  446MPD2    H3 6703   0.845   2.972  11.669 -0.4511 -1.0239 -0.7352
  446MPD2     N 6704   0.983   3.262  11.328  0.1171  0.1774 -0.6352
  446MPD2    H5 6705   0.961   3.287  11.232  0.7396 -0.0352 -0.8335
  446MPD2    N1 6706   0.605   2.967  11.289  0.4915 -0.1301 -0.5226
  446MPD2    H7 6707   0.562   3.026  11.218 -2.8717  2.6895  3.8428
  447TMC3    C1 6708   1.210   3.309  11.262 -0.7598  0.3159  0.4737
  447TMC3    C2 6709   1.175   3.330  11.126 -0.2408  0.2883  0.0788
  447TMC3    C3 6710   1.270   3.349  11.033  0.6160 -0.2692 -0.2931
  447TMC3    C4 6711   1.347   3.296  11.289 -0.5214  0.1652  0.3773
  447TMC3    C5 6712   1.440   3.315  11.190  0.4087  0.2655  0.1372
  447TMC3    C6 6713   1.405   3.334  11.060  0.2168  0.4880 -0.0763
  447TMC3     C 6714   1.112   3.285  11.371 -0.4779  0.4325  0.2132
  447TMC3     O 6715   1.157   3.269  11.484  0.1686 -0.1841  0.5961
  447TMC3     H 6716   1.071   3.337  11.098 -0.4689 -1.1127  0.5943
  447TMC3    H1 6717   1.374   3.270  11.391 -2.2903  0.3021  0.8960
  447TMC3    H2 6718   1.475   3.345  10.978 -0.0655  0.7107 -0.2864
  447TMC3    C7 6719   1.575   3.253  11.202 -0.1534  0.2454  0.3502
  447TMC3    C8 6720   1.219   3.328  10.901 -0.6740 -1.3294  0.3809
  447TMC3    O1 6721   1.653   3.269  11.106 -0.3155  0.5627  1.2735
  447TMC3    O2 6722   1.114   3.386  10.863 -0.1593  0.3438 -0.7893
  448TMC3    C1 6723   3.838   2.582  16.984  0.0682  0.4599  0.1156
  448TMC3    C2 6724   3.840   2.489  16.885 -0.1617 -0.3104 -0.6568
  448TMC3    C3 6725   3.950   2.432  16.826  0.3791  0.5684  0.1777
  448TMC3    C4 6726   3.965   2.630  17.018 -0.4676 -0.6864 -0.0318
  448TMC3    C5 6727   4.079   2.570  16.967 -0.1163 -0.0154 -0.3159
  448TMC3    C6 6728   4.073   2.476  16.870 -0.0084 -0.0829  0.1189
  448TMC3     C 6729   3.741   2.562  17.088  0.4399  0.6213 -0.2631
  448TMC3     O 6730   3.690   2.453  17.102  0.5258  0.2385  0.4900
  448TMC3     H 6731   3.742   2.452  16.858 -0.8390  2.2842 -1.7694
  448TMC3    H1 6732   3.978   2.701  17.099 -0.5319 -0.4933 -0.1908
  448TMC3    H2 6733   4.158   2.437  16.815 -0.7767  1.4723 -2.1967
  448TMC3    C7 6734   4.199   2.554  17.046  0.9733  0.7040 -0.0496
  448TMC3    C8 6735   3.931   2.284  16.823 -0.6582  0.2421  0.6596
  448TMC3    O1 6736   4.237   2.652  17.108 -0.1574 -0.6022 -0.0111
  448TMC3    O2 6737   4.005   2.225  16.897  0.3369 -0.3448 -0.3116
  449MPD2     C 6738   0.159   0.601  13.793  0.2716  0.0162  0.2180
  449MPD2    C1 6739   0.034   0.653  13.764  0.5046 -0.1752  0.4330
  449MPD2    C2 6740   4.668   0.568  13.724 -0.1634 -0.5451 -0.8951
  449MPD2    C3 6741   4.697   0.434  13.738  0.4233  0.2384  0.2980
  449MPD2    C4 6742   0.076   0.387  13.784  0.3022  0.1432  0.5395
  449MPD2    C5 6743   0.180   0.463  13.808 -0.5408 -0.7745  0.1539
  449MPD2     H 6744   4.572   0.607  13.693 -1.7151 -3.9342 -0.3015
  449MPD2    H1 6745   0.092   0.281  13.798 -2.7926 -0.4236 -0.2008
  449MPD2    H2 6746   0.245   0.663  13.814  0.4418  0.0696 -0.6607
  449MPD2    H3 6747   0.276   0.416  13.825  0.0550  0.5929  0.6450
  449MPD2     N 6748   4.599   0.350  13.689 -0.4500 -0.1905 -0.0569
  449MPD2    H5 6749   4.521   0.398  13.644  0.3368  1.1898  0.0463
  449MPD2    N1 6750   0.002   0.790  13.775 -0.5262 -0.3422 -0.0196
  449MPD2    H7 6751   4.645   0.816  13.755 -0.1913  1.8405  1.1934
  450TMC3    C1 6752   0.019   1.013  13.772  0.1218  0.3596  0.1826
  450TMC3    C2 6753   0.063   1.088  13.673 -0.6743  0.2413 -0.2456
  450TMC3    C3 6754   4.714   1.140  13.583 -0.4551 -0.0162  0.5685
  450TMC3    C4 6755   4.622   1.001  13.799 -0.4097 -0.1336 -0.9205
  450TMC3    C5 6756   4.537   1.034  13.690  0.2725  0.1088 -0.2042
  450TMC3    C6 6757   4.586   1.097  13.578 -0.3558 -0.7353  0.5324
  450TMC3     C 6758   0.092   0.892  13.797 -0.2414  0.4566 -0.1970
  450TMC3     O 6759   0.212   0.891  13.774 -0.1869 -0.3730  0.1119
  450TMC3     H 6760   0.166   1.121  13.668  0.0483 -2.1844 -1.5992
  450TMC3    H1 6761   4.601   0.945  13.890 -1.1463  1.8646  0.1478
  450TMC3    H2 6762   4.520   1.124  13.496 -2.4715  1.3252  2.8774
  450TMC3    C7 6763   4.448   0.919  13.664  0.4193 -0.0990  0.3588
  450TMC3    C8 6764   0.016   1.238  13.482 -0.0437  0.3976 -0.4171
  450TMC3    O1 6765   4.455   0.827  13.739 -0.5185 -0.0027 -0.2259
  450TMC3    O2 6766   4.665   1.299  13.427  0.1679  0.0882 -0.7417
  451MPD2     C 6767   1.796   4.107   0.935  0.4927 -0.3230 -0.2222
  451MPD2    C1 6768   1.829   4.199   0.837 -0.5842 -0.7837 -0.5396
  451MPD2    C2 6769   1.932   4.175   0.755  0.7151 -0.2899 -0.4696
  451MPD2    C3 6770   2.014   4.062   0.764 -0.0192  0.0692  0.4724
  451MPD2    C4 6771   1.967   3.967   0.849 -0.1986  0.7107 -0.6800
  451MPD2    C5 6772   1.864   3.988   0.935 -0.1477  0.4822 -0.6193
  451MPD2     H 6773   1.955   4.247   0.677  0.7025  0.7975  0.5263
  451MPD2    H1 6774   2.016   3.870   0.855 -1.6847  0.0192  0.3253
  451MPD2    H2 6775   1.713   4.110   1.004  0.0827 -0.5311 -0.7075
  451MPD2    H3 6776   1.842   3.911   1.009  0.1335  0.7539 -0.2459
  451MPD2     N 6777   2.132   4.038   0.694  1.0887  0.2690  0.4196
  451MPD2    H5 6778   2.175   3.946   0.696  1.4496  0.4952  2.7377
  451MPD2    N1 6779   1.745   4.314   0.819  0.1218  0.3285 -0.1501
  451MPD2    H7 6780   1.669   4.310   0.887 -0.4876  2.0328 -0.7306
  452TMC3    C1 6781   2.298   4.082   0.544  0.6479  0.1498 -0.7966
  452TMC3    C2 6782   2.291   3.955   0.496 -0.5603 -0.4970 -0.1840
  452TMC3    C3 6783   2.384   3.920   0.400  0.0414 -0.0517 -0.2088
  452TMC3    C4 6784   2.391   4.176   0.501  0.2503  0.1008 -0.2712
  452TMC3    C5 6785   2.469   4.139   0.392 -0.2125  0.4851  0.3244
  452TMC3    C6 6786   2.471   4.008   0.345  0.7707 -0.0876  0.1465
  452TMC3     C 6787   2.190   4.138   0.613 -0.2605  0.4244 -0.5812
  452TMC3     O 6788   2.168   4.261   0.621  0.4257 -0.4244 -0.0583
  452TMC3     H 6789   2.211   3.883   0.511  0.1115 -1.5722 -1.7994
  452TMC3    H1 6790   2.382   4.280   0.530  0.0573  0.0558 -0.1653
  452TMC3    H2 6791   2.510   3.990   0.245  0.6275 -0.7294  0.2098
  452TMC3    C7 6792   2.528   4.245   0.315 -0.5531 -0.3099 -0.2802
  452TMC3    C8 6793   2.338   3.812   0.321  0.0461 -0.5531  0.5989
  452TMC3    O1 6794   2.472   4.353   0.311  0.6210  0.0971  0.7389
  452TMC3    O2 6795   2.320   3.841   0.203 -0.2783  0.5302  0.6005
  453TMC3    C1 6796   2.654   1.383  12.304  0.3757  0.0322  0.2712
  453TMC3    C2 6797   2.570   1.285  12.254  0.5150 -0.1605  0.2540
  453TMC3    C3 6798   2.432   1.310  12.273  0.2180 -0.1576 -0.9845
  453TMC3    C4 6799   2.609   1.495  12.366 -0.6947 -0.4128 -0.1144
  453TMC3    C5 6800   2.477   1.497  12.398 -0.1311  0.2656 -0.5601
  453TMC3    C6 6801   2.384   1.408  12.350  0.6903 -0.3737 -0.6654
  453TMC3     C 6802   2.786   1.399  12.246 -0.6248  0.2054  0.4360
  453TMC3     O 6803   2.872   1.314  12.254  0.1518  0.8108 -0.2322
  453TMC3     H 6804   2.607   1.196  12.206 -1.2557 -1.0018  0.4604
  453TMC3    H1 6805   2.675   1.573  12.401  0.4693 -1.9294  1.0835
  453TMC3    H2 6806   2.277   1.414  12.370  1.1069  0.7984  1.1140
  453TMC3    C7 6807   2.424   1.616  12.461  0.0042 -0.1767 -0.0291
  453TMC3    C8 6808   2.328   1.223  12.222  0.2669  0.0237  0.0626
  453TMC3    O1 6809   2.305   1.643  12.459 -0.1601 -0.0406 -0.2564
  453TMC3    O2 6810   2.225   1.209  12.293  0.2419  0.2372 -0.0597
  454MPD2     C 6811   2.349   0.868  16.161 -0.1225  0.5220 -0.4124
  454MPD2    C1 6812   2.280   0.981  16.117  0.7337  0.5477 -0.3026
  454MPD2    C2 6813   2.257   1.094  16.202  1.6906  0.2162  1.0066
  454MPD2    C3 6814   2.282   1.069  16.331  0.1703 -0.4806 -0.5373
  454MPD2    C4 6815   2.348   0.959  16.377  0.7591 -0.8076 -0.3231
  454MPD2    C5 6816   2.390   0.859  16.292 -0.8419  0.2930  0.2530
  454MPD2     H 6817   2.244   1.192  16.158 -1.0385 -0.3057  0.6823
  454MPD2    H1 6818   2.376   0.942  16.481  0.9529  1.6864  0.0141
  454MPD2    H2 6819   2.358   0.779  16.101  1.2693  1.1944 -1.2006
  454MPD2    H3 6820   2.448   0.774  16.326 -0.9956  0.7585  1.6592
  454MPD2     N 6821   2.235   1.156  16.435 -0.0918  0.5498  0.0130
  454MPD2    H5 6822   2.277   1.144  16.526  0.0618  1.0080  0.0004
  454MPD2    N1 6823   2.224   0.995  15.987  0.5297  0.3919  0.5211
  454MPD2    H7 6824   2.191   1.088  15.963 -1.3705 -0.6682 -0.9659
  455TMC3    C1 6825   2.034   1.234  16.323  0.0709 -0.1277 -0.1724
  455TMC3    C2 6826   1.940   1.338  16.306 -0.2846 -0.5942 -0.6603
  455TMC3    C3 6827   1.814   1.306  16.261  0.2376  0.8606  0.3711
  455TMC3    C4 6828   1.988   1.109  16.303 -0.3204 -0.3576  0.4620
  455TMC3    C5 6829   1.868   1.082  16.247  0.1485  0.3120  0.3110
  455TMC3    C6 6830   1.768   1.176  16.234  0.7988  0.6173 -0.2240
  455TMC3     C 6831   2.139   1.254  16.423 -0.5132  0.0660  0.3094
  455TMC3     O 6832   2.110   1.330  16.515 -0.2325 -0.1465  0.0307
  455TMC3     H 6833   1.975   1.436  16.337 -2.1697 -0.8360  2.1978
  455TMC3    H1 6834   2.054   1.026  16.327 -2.7521 -2.0838  1.1349
  455TMC3    H2 6835   1.673   1.156  16.186 -0.4396  2.8602  1.3268
  455TMC3    C7 6836   1.845   0.964  16.169  0.1918 -0.3215 -0.0570
  455TMC3    C8 6837   1.721   1.413  16.254 -0.0771 -0.1124 -0.4972
  455TMC3    O1 6838   1.733   0.957  16.121  0.1631 -0.0047 -0.5518
  455TMC3    O2 6839   1.762   1.526  16.282 -0.2723  0.4955  0.5978
  456MPD2     C 6840   4.249   1.472  16.144  0.3444 -0.0139 -0.3241
  456MPD2    C1 6841   4.313   1.370  16.214 -0.0024  0.1073 -0.0767
  456MPD2    C2 6842   4.321   1.375  16.351 -0.6103 -0.6877 -0.4114
  456MPD2    C3 6843   4.245   1.470  16.419  0.3759  0.7455  0.3144
  456MPD2    C4 6844   4.170   1.555  16.343 -0.3063 -0.2457  0.1488
  456MPD2    C5 6845   4.176   1.560  16.211 -0.6680 -0.2348 -0.6897
  456MPD2     H 6846   4.372   1.298  16.408  0.1854  1.2270  1.4521
  456MPD2    H1 6847   4.097   1.622  16.388  0.1229  0.2950  0.0368
  456MPD2    H2 6848   4.246   1.476  16.035  0.0418  1.5414 -0.2626
  456MPD2    H3 6849   4.110   1.630  16.160  1.6521  2.0471 -0.5366
  456MPD2     N 6850   4.243   1.468  16.561  0.0691  0.2253  0.2352
  456MPD2    H5 6851   4.311   1.412  16.612 -1.1139 -0.5162  1.0283
  456MPD2    N1 6852   4.392   1.283  16.136 -0.0512  0.7116  0.5729
  456MPD2    H7 6853   4.372   1.286  16.036 -1.7653 -0.0018  0.8858
  457TMC3    C1 6854   4.162   1.508  16.778  0.1914 -0.4531  0.0310
  457TMC3    C2 6855   4.045   1.555  16.840  0.2339 -0.8648 -0.4926
  457TMC3    C3 6856   4.050   1.650  16.939  1.4634  0.0804  0.3915
  457TMC3    C4 6857   4.280   1.552  16.819  0.1194 -0.2566 -0.2102
  457TMC3    C5 6858   4.276   1.640  16.924  0.1358  0.2595 -0.6950
  457TMC3    C6 6859   4.167   1.698  16.987 -0.1964 -0.7515 -0.0598
  457TMC3     C 6860   4.138   1.516  16.638 -0.0406  0.2198 -0.1112
  457TMC3     O 6861   4.029   1.558  16.608  0.1553 -0.2763 -0.4703
  457TMC3     H 6862   3.955   1.499  16.820 -0.5314  0.6035 -1.1488
  457TMC3    H1 6863   4.376   1.538  16.771 -0.2851 -0.7385 -0.8757
  457TMC3    H2 6864   4.162   1.784  17.053  1.9595  0.0689 -0.9540
  457TMC3    C7 6865   4.399   1.706  16.974  0.2298  1.2844 -0.0844
  457TMC3    C8 6866   3.953   1.757  16.912  0.1913  0.6071 -0.1403
  457TMC3    O1 6867   4.385   1.819  17.017  0.1041 -0.3604 -0.2360
  457TMC3    O2 6868   3.938   1.844  17.007 -0.3010  0.4072 -0.0368
  458MPD2     C 6869   1.632   0.705  12.514  0.8241  0.2922  0.4794
  458MPD2    C1 6870   1.660   0.650  12.640  1.1575  0.5632  0.0802
  458MPD2    C2 6871   1.553   0.637  12.725 -0.0097  0.3745 -0.9546
  458MPD2    C3 6872   1.420   0.672  12.682 -0.0590 -0.0095 -0.2140
  458MPD2    C4 6873   1.396   0.729  12.557  0.1923 -0.4225 -0.0986
  458MPD2    C5 6874   1.502   0.743  12.473  0.2882 -0.3354 -0.0425
  458MPD2     H 6875   1.567   0.594  12.823  2.2572  1.5892 -0.7380
  458MPD2    H1 6876   1.294   0.751  12.528  0.7586  1.5071 -0.6696
  458MPD2    H2 6877   1.714   0.703  12.443  1.4729  0.3705  1.2144
  458MPD2    H3 6878   1.486   0.786  12.374 -0.9187 -3.1816 -1.0774
  458MPD2     N 6879   1.318   0.655  12.772 -0.1622 -0.4617 -0.4684
  458MPD2    H5 6880   1.343   0.605  12.857  0.8649  0.5965 -0.1526
  458MPD2    N1 6881   1.796   0.610  12.676 -0.0216 -0.2986 -0.3105
  458MPD2    H7 6882   1.871   0.625  12.609 -0.6040  0.8218 -0.7123
  459TMC3    C1 6883   1.982   0.509  12.792  0.1293 -0.3334  0.2191
  459TMC3    C2 6884   2.056   0.497  12.678  0.5716  0.1630 -0.1582
  459TMC3    C3 6885   2.181   0.446  12.691 -0.1172 -0.2446  0.2919
  459TMC3    C4 6886   2.035   0.482  12.915  0.3545  0.5696  0.1458
  459TMC3    C5 6887   2.167   0.434  12.924 -0.1949 -0.0332 -0.3447
  459TMC3    C6 6888   2.241   0.412  12.807  0.2890  0.6133 -0.1369
  459TMC3     C 6889   1.834   0.547  12.789 -0.0048  0.4904 -0.3783
  459TMC3     O 6890   1.769   0.521  12.889  1.3073 -0.1053  0.0273
  459TMC3     H 6891   2.011   0.487  12.579 -1.6295  2.0114  0.6536
  459TMC3    H1 6892   1.977   0.506  13.004 -1.4327 -0.3556 -0.7584
  459TMC3    H2 6893   2.345   0.383  12.802 -0.0692 -0.7786  0.3980
  459TMC3    C7 6894   2.231   0.399  13.050 -0.3914 -0.0063 -0.3507
  459TMC3    C8 6895   2.234   0.389  12.564  0.1517 -0.1992  0.3566
  459TMC3    O1 6896   2.345   0.348  13.047  0.0041 -0.2856  0.8813
  459TMC3    O2 6897   2.236   0.263  12.546  0.1088  0.5618  0.1626
  460MPD2     C 6898   1.422   3.150  10.636 -0.3427 -0.3674 -0.4708
  460MPD2    C1 6899   1.316   3.228  10.687 -1.0614  0.0827 -0.0867
  460MPD2    C2 6900   1.212   3.266  10.605 -0.1094 -0.3907  0.4361
  460MPD2    C3 6901   1.212   3.229  10.471  0.0785  0.3013 -0.5538
  460MPD2    C4 6902   1.326   3.154  10.425  0.3228 -0.0644  0.1483
  460MPD2    C5 6903   1.429   3.119  10.502 -0.0076 -0.4357 -0.7897
  460MPD2     H 6904   1.129   3.321  10.648  0.6987  0.6925  0.6212
  460MPD2    H1 6905   1.335   3.120  10.322 -2.8823 -3.1223  0.8735
  460MPD2    H2 6906   1.493   3.102  10.702 -0.3988  1.1049  0.6687
  460MPD2    H3 6907   1.517   3.069  10.462 -0.5636 -0.4570 -1.9919
  460MPD2     N 6908   1.096   3.256  10.389  0.2255  0.5126  0.0269
  460MPD2    H5 6909   1.024   3.310  10.437  0.4410  0.2629  0.6329
  460MPD2    N1 6910   1.309   3.257  10.822  0.9472 -0.4559 -0.1591
  460MPD2    H7 6911   1.382   3.216  10.879 -1.2710 -1.1331  2.1975
  461TMC3    C1 6912   0.954   3.258  10.201  0.1976 -0.6078 -0.5835
  461TMC3    C2 6913   0.894   3.175  10.114 -0.0732  0.8632 -0.3516
  461TMC3    C3 6914   0.838   3.230   9.996  0.0592 -0.3527  0.0816
  461TMC3    C4 6915   0.970   3.391  10.183  0.4080 -0.4271 -0.2690
  461TMC3    C5 6916   0.926   3.439  10.063 -0.4758  0.1368  0.2611
  461TMC3    C6 6917   0.861   3.362   9.973 -1.1179 -0.4395  0.0184
  461TMC3     C 6918   1.074   3.207  10.266 -0.2487 -0.0083 -0.2798
  461TMC3     O 6919   1.143   3.138  10.191 -0.6639 -0.8494  0.2265
  461TMC3     H 6920   0.901   3.067  10.120 -1.3458  0.7619 -0.7308
  461TMC3    H1 6921   1.026   3.453  10.252 -0.7178  0.4623 -0.1572
  461TMC3    H2 6922   0.822   3.411   9.885 -0.7922  2.4187  1.4463
  461TMC3    C7 6923   0.952   3.580  10.030 -0.3316  0.0143 -0.0737
  461TMC3    C8 6924   0.771   3.137   9.907  0.1918  0.1270 -0.1569
  461TMC3    O1 6925   0.904   3.617   9.924 -0.3604  0.1769 -0.0946
  461TMC3    O2 6926   0.759   3.025   9.952 -0.3008  0.0468 -0.3137
  462TMC3    C1 6927   1.654   4.014  17.496  0.0178 -0.1046 -0.8436
  462TMC3    C2 6928   1.609   4.031  17.369  0.2928  0.3035 -0.2800
  462TMC3    C3 6929   1.478   4.036  17.346  0.1169 -0.0475  0.1009
  462TMC3    C4 6930   1.569   3.996  17.596 -0.1587  0.2487  0.0751
  462TMC3    C5 6931   1.436   3.983  17.566 -0.0632  0.6644 -0.1825
  462TMC3    C6 6932   1.387   4.018  17.440 -0.6666 -0.6826 -0.6750
  462TMC3     C 6933   1.784   4.076  17.524 -0.1068  0.6250  0.0775
  462TMC3     O 6934   1.855   4.102  17.429  0.1109 -0.0353  0.4914
  462TMC3     H 6935   1.680   4.047  17.289 -0.6321  0.1066 -1.1433
  462TMC3    H1 6936   1.603   3.949  17.688 -2.5710  0.4383  1.0568
  462TMC3    H2 6937   1.287   3.986  17.413 -0.9872  0.5140 -0.8907
  462TMC3    C7 6938   1.373   3.868  17.629  0.0285 -0.0215  0.0330
  462TMC3    C8 6939   1.437   3.984  17.221 -0.6898  0.5008 -0.2148
  462TMC3    O1 6940   1.440   3.773  17.671 -0.2789  0.0142  0.3013
  462TMC3    O2 6941   1.336   4.028  17.177  0.5493  0.0443  0.4970
  463MPD2     C 6942   3.029   2.044   2.131 -0.3964  0.1936 -0.1112
  463MPD2    C1 6943   3.028   2.046   1.996 -0.6480  0.4226  0.1324
  463MPD2    C2 6944   3.150   2.044   1.927  0.0075 -0.1341 -0.2856
  463MPD2    C3 6945   3.270   2.032   1.994 -0.2180  0.3443 -0.6737
  463MPD2    C4 6946   3.270   2.029   2.129 -0.4491 -0.5680 -0.6577
  463MPD2    C5 6947   3.153   2.042   2.198 -0.4025  0.1079 -0.4840
  463MPD2     H 6948   3.154   2.034   1.819 -0.6359 -0.5092 -0.2766
  463MPD2    H1 6949   3.358   2.018   2.190 -1.1791  1.7609  0.8138
  463MPD2    H2 6950   2.942   2.031   2.195 -2.6959  2.5154 -2.7410
  463MPD2    H3 6951   3.176   2.036   2.304 -2.4416  0.5069 -0.0127
  463MPD2     N 6952   3.388   2.023   1.930 -0.3384 -0.2027 -0.1758
  463MPD2    H5 6953   3.464   2.002   1.993 -2.3641 -2.0465  1.6441
  463MPD2    N1 6954   2.909   2.046   1.921  0.1858  0.3361  0.8466
  463MPD2    H7 6955   2.920   2.031   1.821 -0.8703  0.8089  0.6628
  464TMC3    C1 6956   2.693   2.084   1.859  1.0508  0.4474 -0.4786
  464TMC3    C2 6957   2.588   2.180   1.859 -0.1952  0.6668 -0.1028
  464TMC3    C3 6958   2.509   2.187   1.749  0.0491  0.1166 -0.4478
  464TMC3    C4 6959   2.705   1.987   1.759  0.0721  0.8124 -0.1408
  464TMC3    C5 6960   2.609   1.990   1.666 -0.6776  0.6340  0.7542
  464TMC3    C6 6961   2.516   2.091   1.654  0.2431 -0.3162 -0.0791
  464TMC3     C 6962   2.783   2.073   1.972  0.0398 -0.2267  0.2015
  464TMC3     O 6963   2.765   2.137   2.072  0.1899  0.8719 -0.0656
  464TMC3     H 6964   2.592   2.254   1.938 -1.5441 -0.5777  1.1433
  464TMC3    H1 6965   2.780   1.910   1.773 -0.8266 -0.3275 -1.5983
  464TMC3    H2 6966   2.454   2.094   1.565 -0.0637  0.1179  0.1485
  464TMC3    C7 6967   2.608   1.888   1.560 -0.6764 -0.7141  0.1158
  464TMC3    C8 6968   2.421   2.298   1.722 -0.4947  0.4456 -0.3455
  464TMC3    O1 6969   2.710   1.824   1.545  0.1106  0.3568 -0.4134
  464TMC3    O2 6970   2.397   2.318   1.601 -0.6762 -0.3472 -0.1833
  465MPD2     C 6971   3.707   0.995  16.431  0.3691  0.0486 -0.1066
  465MPD2    C1 6972   3.596   1.015  16.511 -0.0145  0.8291 -0.6560
  465MPD2    C2 6973   3.485   1.076  16.452  0.1832  0.6925  0.2136
  465MPD2    C3 6974   3.496   1.124  16.323 -0.2067 -0.2143 -0.5626
  465MPD2    C4 6975   3.603   1.093  16.240 -0.1121 -0.5268  0.0144
  465MPD2    C5 6976   3.710   1.023  16.301 -0.3599 -0.1152 -0.0016
  465MPD2     H 6977   3.393   1.080  16.509 -1.1588 -1.0504 -1.8082
  465MPD2    H1 6978   3.598   1.121  16.135  0.0266 -0.1744  0.1054
  465MPD2    H2 6979   3.782   0.921  16.454 -1.4954 -1.8369 -0.0172
  465MPD2    H3 6980   3.796   0.989  16.244 -0.2849 -2.0401  1.2379
  465MPD2     N 6981   3.379   1.203  16.283  0.2627  0.3030  0.5524
  465MPD2    H5 6982   3.311   1.215  16.357 -0.1933 -2.8605  0.6341
  465MPD2    N1 6983   3.584   0.968  16.643  0.1770 -0.0098  0.5419
  465MPD2    H7 6984   3.498   0.967  16.696  0.2722  0.7884  0.7223
  466TMC3    C1 6985   3.028   1.394  16.250 -0.0891  0.2455  0.1685
  466TMC3    C2 6986   3.049   1.529  16.229  0.1189  0.0546 -0.0659
  466TMC3    C3 6987   3.165   1.571  16.168 -0.6068  0.3473 -1.0663
  466TMC3    C4 6988   3.129   1.299  16.227  0.8269 -0.1210  0.0386
  466TMC3    C5 6989   3.240   1.347  16.162 -0.5364  0.1500 -0.2019
  466TMC3    C6 6990   3.253   1.475  16.125 -0.1632 -0.2574  0.7135
  466TMC3     C 6991   2.911   1.354  16.333 -0.0183 -0.6682 -0.0188
  466TMC3     O 6992   2.848   1.438  16.391  0.1347 -0.3018 -0.0838
  466TMC3     H 6993   2.976   1.606  16.253 -0.8716 -0.2760 -2.0176
  466TMC3    H1 6994   3.120   1.191  16.238  0.3482  0.1010  1.8049
  466TMC3    H2 6995   3.351   1.503  16.086 -0.5514 -0.3416 -0.3307
  466TMC3    C7 6996   3.353   1.259  16.154  0.0980  0.6059 -0.7743
  466TMC3    C8 6997   3.199   1.711  16.152  0.4877 -0.4632  0.3576
  466TMC3    O1 6998   3.437   1.279  16.063 -0.3140  0.0970 -0.2952
  466TMC3    O2 6999   3.275   1.730  16.057 -0.0396  0.8998 -0.0261
  467TMC3    C1 7000   4.177   4.539  13.601 -0.3461  0.5191 -0.4676
  467TMC3    C2 7001   4.119   4.614  13.504 -0.2220 -0.2627  0.1381
  467TMC3    C3 7002   3.982   4.623  13.519 -0.1256  0.3032 -0.0829
  467TMC3    C4 7003   4.117   4.468  13.704  0.3637  0.6190 -0.0421
  467TMC3    C5 7004   3.980   4.476  13.712 -0.6488 -0.1612  0.8423
  467TMC3    C6 7005   3.917   4.556  13.622  0.2042 -0.2598 -0.2217
  467TMC3     C 7006   4.324   4.538  13.606  0.4729  0.2164 -0.2134
  467TMC3     O 7007   4.388   4.553  13.712  0.2683  0.2457  0.6527
  467TMC3     H 7008   4.159   4.672  13.421  1.2465  1.2984  1.9517
  467TMC3    H1 7009   4.180   4.428  13.782 -0.6879  0.3079  0.6388
  467TMC3    H2 7010   3.811   4.572  13.627  0.1818  0.9848 -4.3031
  467TMC3    C7 7011   3.918   4.483  13.846 -0.1918  0.2919  0.6086
  467TMC3    C8 7012   3.904   4.710  13.443 -0.4494 -0.0474  0.0632
  467TMC3    O1 7013   3.804   4.516  13.863  0.3031  0.0940 -0.2885
  467TMC3    O2 7014   3.960   0.078  13.422 -0.1001 -0.1212 -0.3423
  468MPD2     C 7015   3.118   3.273  10.263 -0.0878  0.1250  0.2257
  468MPD2    C1 7016   3.193   3.205  10.357 -0.1262 -0.8962 -0.9037
  468MPD2    C2 7017   3.159   3.079  10.393 -0.3037  0.1453 -0.0735
  468MPD2    C3 7018   3.056   3.010  10.334 -0.1532 -0.0926 -0.2290
  468MPD2    C4 7019   2.987   3.073  10.234 -0.1290  0.0867 -0.2830
  468MPD2    C5 7020   3.013   3.211  10.207  0.5170  0.0361 -0.1707
  468MPD2     H 7021   3.206   3.034  10.480  1.5946 -0.8312 -1.5987
  468MPD2    H1 7022   2.903   3.025  10.185 -1.7455  2.4001  0.2052
  468MPD2    H2 7023   3.138   3.375  10.232  1.5424 -0.3173 -0.1407
  468MPD2    H3 7024   2.962   3.263  10.127  0.7305 -1.4072 -1.2368
  468MPD2     N 7025   3.019   2.874  10.370  1.0154 -0.0773 -0.0338
  468MPD2    H5 7026   2.945   2.832  10.315  0.1036  0.7764  0.5483
  468MPD2    N1 7027   3.301   3.264  10.434 -0.8124 -0.3581  0.4117
  468MPD2    H7 7028   3.340   3.213  10.513 -1.1695 -0.5274  0.4789
  469TMC3    C1 7029   3.472   3.410  10.499  0.7622  0.2205 -0.2487
  469TMC3    C2 7030   3.545   3.301  10.521  0.5084 -0.0494  0.1175
  469TMC3    C3 7031   3.604   3.290  10.647  0.4658  0.6397  0.0031
  469TMC3    C4 7032   3.488   3.527  10.580  0.1875  0.1476  0.8279
  469TMC3    C5 7033   3.553   3.512  10.695  0.0599  0.6124 -0.3838
  469TMC3    C6 7034   3.616   3.397  10.737  0.0869  0.0323 -0.2660
  469TMC3     C 7035   3.353   3.393  10.417  0.5697 -0.5361  0.7483
  469TMC3     O 7036   3.311   3.489  10.352  0.4527 -0.1541 -0.3493
  469TMC3     H 7037   3.537   3.220  10.450  3.2014 -0.3701  0.1515
  469TMC3    H1 7038   3.422   3.611  10.563 -3.2640 -2.4299  1.4748
  469TMC3    H2 7039   3.637   3.379  10.842 -1.8629 -1.8335 -0.1855
  469TMC3    C7 7040   3.530   3.626  10.785  0.0616 -0.7517 -0.6391
  469TMC3    C8 7041   3.563   3.169  10.698  0.1524  1.3220 -0.2478
  469TMC3    O1 7042   3.477   3.728  10.744 -0.0542 -0.1290 -0.2123
  469TMC3    O2 7043   3.458   3.117  10.655 -0.3730  0.1318  0.4013
  470TMC3    C1 7044   0.722   4.446   0.323  0.7058 -0.5349 -0.0201
  470TMC3    C2 7045   0.687   4.569   0.377 -0.1129  0.1976  0.0106
  470TMC3    C3 7046   0.706   4.580   0.514  0.5011  0.2052  0.4615
  470TMC3    C4 7047   0.760   4.343   0.402 -0.3373  0.4152  0.2319
  470TMC3    C5 7048   0.753   4.350   0.539  0.1728 -0.1070  0.3405
  470TMC3    C6 7049   0.743   4.477   0.595 -0.5985 -0.4000 -0.7243
  470TMC3     C 7050   0.689   4.423   0.184  0.5986  0.1289  0.0048
  470TMC3     O 7051   0.662   4.523   0.122 -0.2675 -0.3264 -0.3340
  470TMC3     H 7052   0.665   4.650   0.310  0.5240  0.9719  0.7390
  470TMC3    H1 7053   0.789   4.249   0.357 -1.5937 -0.1282  0.5546
  470TMC3    H2 7054   0.753   4.494   0.702  0.2296  0.7969 -0.9858
  470TMC3    C7 7055   0.793   4.232   0.615  0.5117  0.3225  0.1334
  470TMC3    C8 7056   0.711   4.714   0.558  0.0399  0.1838  0.4371
  470TMC3    O1 7057   0.833   4.136   0.555 -0.5720 -0.1939  0.0343
  470TMC3    O2 7058   0.786   4.735   0.655  0.0289  0.0602  0.0556
  471MPD2     C 7059   1.166   0.129  16.177  0.1623 -0.2536 -0.2228
  471MPD2    C1 7060   1.160   4.731  16.192  0.3973 -0.5490  0.3531
  471MPD2    C2 7061   1.192   4.673  16.318 -0.2789  0.4144  0.6063
  471MPD2    C3 7062   1.227   0.012  16.425  0.6638 -0.1847 -0.2482
  471MPD2    C4 7063   1.239   0.148  16.409 -0.9630  0.3642  0.3959
  471MPD2    C5 7064   1.195   0.200  16.293  0.3261  0.3842 -0.4960
  471MPD2     H 7065   1.187   4.566  16.333 -4.9608  0.5215 -0.0361
  471MPD2    H1 7066   1.271   0.220  16.484 -0.3601  0.0516  0.4366
  471MPD2    H2 7067   1.124   0.184  16.094  0.5481 -0.7838 -0.7710
  471MPD2    H3 7068   1.185   0.308  16.290  1.0627  0.4577 -0.2097
  471MPD2     N 7069   1.246   4.706  16.555 -0.7703  0.0070 -0.3759
  471MPD2    H5 7070   1.269   0.046  16.616 -0.1036 -0.9260  0.5876
  471MPD2    N1 7071   1.124   4.643  16.084 -0.6772 -0.5361 -0.0257
  471MPD2    H7 7072   1.119   4.543  16.097  0.2929 -0.7527 -1.1880
  472TMC3    C1 7073   1.047   4.587  15.863  0.2179 -0.2352 -0.9711
  472TMC3    C2 7074   0.940   4.627  15.790  0.1747  0.0968  0.4968
  472TMC3    C3 7075   0.863   4.528  15.735  0.1949 -0.3445  0.1727
  472TMC3    C4 7076   1.088   4.463  15.881 -0.1743 -0.2612 -0.7204
  472TMC3    C5 7077   1.009   4.366  15.827  0.3591 -0.2347  0.4686
  472TMC3    C6 7078   0.900   4.401  15.748 -0.9549 -0.0283  0.0326
  472TMC3     C 7079   1.083   4.688  15.962 -0.8900  0.1117 -0.5489
  472TMC3     O 7080   1.076   0.065  15.921  0.8120 -0.2007  0.7199
  472TMC3     H 7081   0.890   4.722  15.806 -0.2729 -0.2433  1.1331
  472TMC3    H1 7082   1.176   4.434  15.938 -0.3525 -1.3184 -0.9825
  472TMC3    H2 7083   0.843   4.323  15.699  0.1520 -0.6736 -0.2198
  472TMC3    C7 7084   1.019   4.235  15.886 -0.0737 -1.0055  0.2144
  472TMC3    C8 7085   0.725   4.547  15.754  0.3549  0.2721 -0.1325
  472TMC3    O1 7086   1.123   4.204  15.947 -0.2180  0.5100 -0.5094
  472TMC3    O2 7087   0.675   4.650  15.719 -0.5529 -0.2085  0.0664
  473MPD2     C 7088   1.345   2.141  14.046 -0.0173  0.1056 -0.9318
  473MPD2    C1 7089   1.267   2.241  13.990 -0.5193 -0.2125 -0.0070
  473MPD2    C2 7090   1.328   2.357  13.949  0.0759  0.3988 -0.0847
  473MPD2    C3 7091   1.465   2.368  13.955  0.4232  1.0233  0.4825
  473MPD2    C4 7092   1.539   2.263  14.018  0.5819  0.3061  0.3245
  473MPD2    C5 7093   1.479   2.150  14.058  0.1815 -0.3463 -0.6901
  473MPD2     H 7094   1.265   2.439  13.915  0.3958 -0.1315 -1.9671
  473MPD2    H1 7095   1.647   2.268  14.019  0.6036 -0.0033 -0.5313
  473MPD2    H2 7096   1.300   2.044  14.065 -0.4597  0.4593 -0.1431
  473MPD2    H3 7097   1.526   2.059  14.094  0.2554 -1.0007 -2.4291
  473MPD2     N 7098   1.529   2.491  13.926  0.2611  0.3038  0.8813
  473MPD2    H5 7099   1.629   2.495  13.943  0.0548  1.6148  1.8020
  473MPD2    N1 7100   1.130   2.223  13.973 -0.6619  0.5817 -0.3199
  473MPD2    H7 7101   1.082   2.307  13.941  0.4580  2.5000  3.1055
  474TMC3    C1 7102   1.552   2.717  13.836 -0.8293  0.1976  0.4225
  474TMC3    C2 7103   1.530   2.805  13.727  0.6042 -0.4689  1.0656
  474TMC3    C3 7104   1.611   2.918  13.717  0.2994  0.0112 -0.2355
  474TMC3    C4 7105   1.653   2.737  13.931  1.0984  0.3303 -0.4075
  474TMC3    C5 7106   1.733   2.847  13.907  0.5653  0.1348 -0.5851
  474TMC3    C6 7107   1.718   2.936  13.803 -0.3002  0.0401 -0.1006
  474TMC3     C 7108   1.478   2.590  13.843  0.1598  0.8402  0.3212
  474TMC3     O 7109   1.373   2.594  13.776 -0.0204  0.4939  0.4154
  474TMC3     H 7110   1.447   2.785  13.661  1.2581  2.0302 -0.5237
  474TMC3    H1 7111   1.646   2.677  14.021  1.8621  4.3278  2.3190
  474TMC3    H2 7112   1.780   3.024  13.805  0.9930 -0.8846  0.2056
  474TMC3    C7 7113   1.821   2.889  14.012  0.3821  0.5526  0.0102
  474TMC3    C8 7114   1.565   3.052  13.671 -0.0488 -0.2360  0.6642
  474TMC3    O1 7115   1.927   2.946  13.975 -0.9310 -0.2549 -0.0431
  474TMC3    O2 7116   1.642   3.147  13.686  0.0970  0.3177 -0.0713
  475MPD2     C 7117   0.065   0.937  10.308 -0.0184  0.2772  0.5432
  475MPD2    C1 7118   0.045   1.002  10.425 -0.1905 -0.8781 -0.2043
  475MPD2    C2 7119   4.658   1.046  10.460  0.2264  0.0714 -0.6717
  475MPD2    C3 7120   4.553   1.025  10.378  0.1893 -1.2208 -0.8992
  475MPD2    C4 7121   4.570   0.946  10.263  0.2905  0.2619  0.0508
  475MPD2    C5 7122   4.696   0.911  10.226 -0.1961  0.2492  0.0332
  475MPD2     H 7123   4.642   1.097  10.555 -2.4420 -0.0255 -1.0832
  475MPD2    H1 7124   4.497   0.906  10.194 -1.1126  0.4162  1.4629
  475MPD2    H2 7125   0.164   0.899  10.285 -0.9394 -1.3367 -0.7578
  475MPD2    H3 7126   4.711   0.850  10.138  0.0782 -0.4117  0.5330
  475MPD2     N 7127   4.425   1.068  10.418 -0.7704  0.6598 -0.2173
  475MPD2    H5 7128   4.417   1.132  10.496 -0.0507  1.1216 -0.5235
  475MPD2    N1 7129   0.144   1.014  10.524  0.4792 -0.5957  0.1892
  475MPD2    H7 7130   0.108   1.039  10.616  1.0804  0.4101  0.1613
  476TMC3    C1 7131   0.351   1.061  10.622  0.0779  0.1426  0.2302
  476TMC3    C2 7132   0.399   1.186  10.602  0.5484 -0.0248 -0.5653
  476TMC3    C3 7133   0.367   1.289  10.684 -0.7019 -0.0356  0.0375
  476TMC3    C4 7134   0.279   1.033  10.736 -0.3862 -0.2042  0.5966
  476TMC3    C5 7135   0.256   1.135  10.824  1.0064 -0.1355  0.9403
  476TMC3    C6 7136   0.309   1.261  10.804 -0.6196 -0.2444  0.1920
  476TMC3     C 7137   0.282   1.007  10.506 -0.0278  0.3682  0.3990
  476TMC3     O 7138   0.324   1.018  10.395  0.1680 -0.5281 -0.1299
  476TMC3     H 7139   0.427   1.195  10.498 -1.6379  0.7841 -1.0798
  476TMC3    H1 7140   0.234   0.936  10.754 -0.7330  0.1156  1.4433
  476TMC3    H2 7141   0.300   1.339  10.879 -0.2069 -0.9654  0.9928
  476TMC3    C7 7142   0.114   1.145  10.862 -0.0095 -0.0772  0.5464
  476TMC3    C8 7143   0.293   1.398  10.620 -0.0592 -0.0154  0.0252
  476TMC3    O1 7144   0.039   1.064  10.807  0.4714 -0.5772  0.0778
  476TMC3    O2 7145   0.275   1.494  10.693  0.0123 -0.2373  0.0914
  477MPD2     C 7146   1.097   2.078  11.512  0.4760  0.1216 -0.3668
  477MPD2    C1 7147   1.208   2.167  11.520 -0.1752 -0.2655 -0.1905
  477MPD2    C2 7148   1.297   2.145  11.621  0.9695  0.3827 -0.1701
  477MPD2    C3 7149   1.288   2.045  11.713 -0.0224 -0.3066  0.1515
  477MPD2    C4 7150   1.187   1.950  11.695 -0.0422 -0.2209  0.1012
  477MPD2    C5 7151   1.088   1.964  11.595  0.0594 -0.0760 -0.1464
  477MPD2     H 7152   1.377   2.218  11.622  1.4730 -0.1267 -2.2189
  477MPD2    H1 7153   1.193   1.867  11.765 -0.2636  1.8680  2.6132
  477MPD2    H2 7154   1.027   2.086  11.430 -1.1884  1.8701  1.2230
  477MPD2    H3 7155   1.017   1.882  11.599  0.7810 -0.6311  1.4856
  477MPD2     N 7156   1.378   2.041  11.825  0.4461 -0.1756  0.0903
  477MPD2    H5 7157   1.454   2.107  11.829 -0.3645  0.8115 -0.7277
  477MPD2    N1 7158   1.233   2.280  11.434  0.4229  0.0386 -0.1763
  477MPD2    H7 7159   1.315   2.330  11.466  1.0034 -1.9260  1.4291
  478TMC3    C1 7160   1.168   2.467  11.308  0.0609  0.5614  0.4725
  478TMC3    C2 7161   1.214   2.556  11.400 -0.2682 -0.3916  0.6217
  478TMC3    C3 7162   1.174   2.689  11.394  0.0009 -0.5954  0.8014
  478TMC3    C4 7163   1.085   2.517  11.209  0.4789 -0.1875 -0.0817
  478TMC3    C5 7164   1.055   2.649  11.195  0.0926  0.9081  0.4690
  478TMC3    C6 7165   1.091   2.736  11.293  0.5356 -0.1135 -0.2906
  478TMC3     C 7166   1.148   2.327  11.339  0.9295 -0.1854 -0.4136
  478TMC3     O 7167   1.054   2.267  11.296 -0.6393 -0.4374  0.2499
  478TMC3     H 7168   1.257   2.526  11.495  0.5295  0.8928  0.6630
  478TMC3    H1 7169   1.057   2.451  11.128 -1.5654 -0.0838  0.5389
  478TMC3    H2 7170   1.068   2.842  11.291 -0.6315 -0.2980  2.5649
  478TMC3    C7 7171   0.951   2.681  11.092  0.1136 -0.3405  0.0976
  478TMC3    C8 7172   1.144   2.738  11.524 -0.0291  0.3275  0.7217
  478TMC3    O1 7173   0.892   2.588  11.039 -0.2853 -0.1361 -0.6044
  478TMC3    O2 7174   1.080   2.658  11.593  0.1505 -0.1875  0.1223
  479MPD2     C 7175   0.901   4.315  14.567 -0.3389 -0.3963 -0.5550
  479MPD2    C1 7176   0.855   4.260  14.687  0.1555  0.0441  0.3910
  479MPD2    C2 7177   0.941   4.273  14.798 -0.1493  0.1460 -0.5820
  479MPD2    C3 7178   1.058   4.345  14.796  0.4957  0.3018 -0.1138
  479MPD2    C4 7179   1.089   4.411  14.677  0.0314  0.0682 -0.2815
  479MPD2    C5 7180   1.020   4.386  14.563 -0.8140 -0.1509  0.3211
  479MPD2     H 7181   0.913   4.215  14.885 -0.3381  0.5893 -0.3477
  479MPD2    H1 7182   1.171   4.482  14.682 -0.6360  0.7218  1.4766
  479MPD2    H2 7183   0.831   4.330  14.485  0.3707 -0.0341 -1.0918
  479MPD2    H3 7184   1.044   4.436  14.471 -0.1212 -0.1336  0.5157
  479MPD2     N 7185   1.137   4.364  14.908 -0.2579  0.4706 -0.1984
  479MPD2    H5 7186   1.235   4.391  14.894 -0.2083  0.9629  1.1142
  479MPD2    N1 7187   0.730   4.213  14.682 -0.0274 -0.8083  0.3082
  479MPD2    H7 7188   0.679   4.215  14.595 -0.9020 -3.0765  0.7637
  480TMC3    C1 7189   0.804   4.340  15.248  0.2623  0.0417  0.3456
  480TMC3    C2 7190   0.713   4.406  15.173  0.5694 -0.4228 -0.0889
  480TMC3    C3 7191   0.752   4.475  15.058 -0.3666 -0.7898  0.3376
  480TMC3    C4 7192   0.928   4.323  15.200  0.8072  0.0160 -0.6213
  480TMC3    C5 7193   0.968   4.380  15.078 -0.4147  0.1005  0.8349
  480TMC3    C6 7194   0.886   4.467  15.014  0.2573  0.3253 -0.5241
  480TMC3     C 7195   0.756   4.240  15.347 -0.0555 -0.1326 -0.0090
  480TMC3     O 7196   0.823   4.137  15.365  0.2646 -0.6006  0.2057
  480TMC3     H 7197   0.610   4.395  15.204  1.0711 -0.0466  1.7561
  480TMC3    H1 7198   0.990   4.261  15.263  1.5078  0.3065 -1.0338
  480TMC3    H2 7199   0.932   4.531  14.939 -0.3421  2.6923  1.1194
  480TMC3    C7 7200   1.096   4.336  15.038  0.3297 -0.2313  0.2863
  480TMC3    C8 7201   0.647   4.515  14.971  0.1627 -0.0961 -0.5728
  480TMC3    O1 7202   1.165   4.302  15.132  0.1944 -0.1831  0.1021
  480TMC3    O2 7203   0.530   4.509  15.005 -0.0650  0.4327  0.4667
  481MPD2     C 7204   2.665   4.220  14.218  0.3394  0.6550 -0.3846
  481MPD2    C1 7205   2.534   4.173  14.221  0.3301 -0.9963  0.0530
  481MPD2    C2 7206   2.493   4.091  14.324  0.3135 -0.2878 -0.4200
  481MPD2    C3 7207   2.580   4.068  14.420 -0.6362  0.5160  0.0559
  481MPD2    C4 7208   2.713   4.112  14.425 -0.6887 -0.4526 -0.1628
  481MPD2    C5 7209   2.754   4.180  14.315 -0.2334  0.5861 -0.3504
  481MPD2     H 7210   2.395   4.044  14.320  0.9263 -1.5798 -0.0296
  481MPD2    H1 7211   2.784   4.083  14.501 -1.2602  2.8579  1.6381
  481MPD2    H2 7212   2.708   4.259  14.126  0.6252  0.8689 -0.1580
  481MPD2    H3 7213   2.860   4.200  14.308  0.4994 -2.1263  2.8639
  481MPD2     N 7214   2.543   3.994  14.533 -0.0556  0.4212  0.7302
  481MPD2    H5 7215   2.614   3.978  14.604 -1.8107 -2.3648  1.8589
  481MPD2    N1 7216   2.452   4.206  14.112 -0.2045 -1.1101  0.6256
  481MPD2    H7 7217   2.482   4.271  14.040  1.4270  0.0095  2.3083
  482TMC3    C1 7218   2.262   4.202  13.972 -0.0283  0.2446  0.0120
  482TMC3    C2 7219   2.204   4.114  13.889  0.2883 -0.5126  0.5637
  482TMC3    C3 7220   2.159   4.163  13.774  0.0134  0.4821  0.2236
  482TMC3    C4 7221   2.275   4.332  13.945  0.7517  0.2040  0.5204
  482TMC3    C5 7222   2.228   4.374  13.824  0.1784  0.7356  0.7556
  482TMC3    C6 7223   2.156   4.296  13.737 -0.2148 -0.8710 -0.0889
  482TMC3     C 7224   2.327   4.147  14.089  0.2657  0.0491 -0.8746
  482TMC3     O 7225   2.272   4.050  14.139  0.7042 -0.2605 -0.0624
  482TMC3     H 7226   2.187   4.012  13.921 -0.1930 -0.9849 -1.1946
  482TMC3    H1 7227   2.315   4.399  14.020  1.7859 -0.9225  0.9650
  482TMC3    H2 7228   2.119   4.324  13.639 -1.7127 -0.3147  0.6413
  482TMC3    C7 7229   2.242   4.513  13.788  0.2507  0.3895 -0.0291
  482TMC3    C8 7230   2.122   4.055  13.688  0.3710  0.3535 -0.5438
  482TMC3    O1 7231   2.267   4.591  13.878 -0.6570  0.4292 -0.1967
  482TMC3    O2 7232   2.188   3.952  13.700 -0.0453 -0.0643  0.4573
  483TMC3    C1 7233   1.676   2.940   0.802  0.2029 -0.7097 -0.3274
  483TMC3    C2 7234   1.645   2.983   0.675 -0.4363 -0.3651 -0.2423
  483TMC3    C3 7235   1.718   2.949   0.564  0.1448  0.4846 -0.0168
  483TMC3    C4 7236   1.759   2.835   0.814  0.5419 -0.5227 -0.2298
  483TMC3    C5 7237   1.823   2.788   0.703  0.1439  0.2710 -0.5914
  483TMC3    C6 7238   1.815   2.855   0.581  0.7390 -0.4844 -0.6990
  483TMC3     C 7239   1.592   2.967   0.920 -0.7198  0.1475 -0.0309
  483TMC3     O 7240   1.638   2.955   1.034  0.1780 -0.5471 -0.0669
  483TMC3     H 7241   1.582   3.071   0.663 -0.6200 -0.7002 -1.6784
  483TMC3    H1 7242   1.765   2.789   0.912  2.2992  2.5695  1.1161
  483TMC3    H2 7243   1.876   2.817   0.501  0.7369 -1.2222 -0.3536
  483TMC3    C7 7244   1.815   2.644   0.690  0.3573 -0.1560  0.5516
  483TMC3    C8 7245   1.655   2.966   0.435 -0.5269 -0.7341 -0.0010
  483TMC3    O1 7246   1.785   2.620   0.578 -0.5144  0.0754 -0.3778
  483TMC3    O2 7247   1.533   2.980   0.432 -0.3140  0.0575 -0.1668
  484MPD2     C 7248   2.267   0.369  12.272  0.1664  0.1944  0.7573
  484MPD2    C1 7249   2.307   0.478  12.346 -0.1569 -0.4325  0.0196
  484MPD2    C2 7250   2.381   0.584  12.288 -0.2904  0.2311  0.3119
  484MPD2    C3 7251   2.416   0.583  12.152 -0.0394  0.6308  0.0545
  484MPD2    C4 7252   2.372   0.477  12.079 -1.5324  0.5809 -0.6176
  484MPD2    C5 7253   2.299   0.371  12.133  0.4865  0.4282  0.0044
  484MPD2     H 7254   2.418   0.657  12.359 -0.4985 -0.2824  0.9512
  484MPD2    H1 7255   2.396   0.469  11.974  0.2543 -1.8138 -0.0195
  484MPD2    H2 7256   2.193   0.296  12.305 -0.4361  1.4040  2.0913
  484MPD2    H3 7257   2.267   0.291  12.069 -0.7216  1.5997 -0.8503
  484MPD2     N 7258   2.508   0.670  12.091  0.0883 -0.7166 -0.5753
  484MPD2    H5 7259   2.529   0.659  11.992  0.0260  0.3409 -0.7126
  484MPD2    N1 7260   2.277   0.488  12.487  0.4151 -0.2945 -0.2921
  484MPD2    H7 7261   2.297   0.576  12.533  1.2965 -0.4587 -0.3610
  485TMC3    C1 7262   2.666   0.836  12.065 -0.4549  0.4684 -0.3436
  485TMC3    C2 7263   2.776   0.903  12.116  0.5522 -0.3541  0.0750
  485TMC3    C3 7264   2.843   0.992  12.038 -0.0699 -0.0131  0.1910
  485TMC3    C4 7265   2.627   0.874  11.937 -0.2374 -0.0228  0.1159
  485TMC3    C5 7266   2.689   0.972  11.861  0.1494 -0.1140  0.1838
  485TMC3    C6 7267   2.797   1.037  11.916  0.3346  0.9608  0.5714
  485TMC3     C 7268   2.578   0.768  12.159 -0.2126  0.3102 -0.1355
  485TMC3     O 7269   2.584   0.794  12.277 -0.2044 -0.1076 -0.0784
  485TMC3     H 7270   2.800   0.891  12.221 -0.8001  1.4015  0.5914
  485TMC3    H1 7271   2.533   0.830  11.907 -0.2034  0.4154 -0.6376
  485TMC3    H2 7272   2.855   1.113  11.866  0.9373  0.1153 -0.0110
  485TMC3    C7 7273   2.703   0.949  11.720  0.7013  0.4466 -0.5616
  485TMC3    C8 7274   2.981   0.946  12.014  0.3212 -0.5898  0.3388
  485TMC3    O1 7275   2.608   0.897  11.664 -0.1078 -0.3215 -0.1778
  485TMC3    O2 7276   3.019   0.950  11.900 -0.1731 -0.0447  0.2222
  486MPD2     C 7277   4.535   4.432  12.699  0.7250 -0.1815  0.6338
  486MPD2    C1 7278   4.653   4.500  12.693 -0.7312 -1.3306  0.5476
  486MPD2    C2 7279   4.661   4.622  12.756 -0.4182 -1.0302  0.2276
  486MPD2    C3 7280   4.561   4.669  12.836  0.2391  0.0252 -0.2775
  486MPD2    C4 7281   4.446   4.597  12.828  0.1812 -0.1017 -0.0300
  486MPD2    C5 7282   4.433   4.480  12.761  0.0967  0.4000 -0.1279
  486MPD2     H 7283   0.010   4.683  12.738 -0.3024 -1.1233  0.4809
  486MPD2    H1 7284   4.357   4.626  12.882  1.2622  3.2404 -0.0782
  486MPD2    H2 7285   4.519   4.331  12.664 -1.0645 -0.8631  3.3681
  486MPD2    H3 7286   4.340   4.424  12.762 -0.0100  0.5754 -0.1364
  486MPD2     N 7287   4.569   0.058  12.904 -0.1485 -0.3552  0.5565
  486MPD2    H5 7288   4.649   0.121  12.899 -1.4081  1.2943  1.2311
  486MPD2    N1 7289   0.022   4.437  12.621 -0.0008  0.6729 -0.3113
  486MPD2    H7 7290   4.735   4.348  12.580  0.1861  0.0085  1.0057
  487TMC3    C1 7291   0.230   4.354  12.568  0.7413 -0.7772  0.7494
  487TMC3    C2 7292   0.171   4.264  12.483 -0.0125  0.3803  0.7294
  487TMC3    C3 7293   0.185   4.132  12.499 -0.3653  0.0307 -0.1404
  487TMC3    C4 7294   0.320   4.310  12.664  0.4926  0.1247 -0.4010
  487TMC3    C5 7295   0.334   4.175  12.679 -0.4142 -0.3410 -0.3617
  487TMC3    C6 7296   0.273   4.083  12.587  0.1789  1.0161 -0.1709
  487TMC3     C 7297   0.156   4.469  12.623  0.0708  0.2549  0.2555
  487TMC3     O 7298   0.211   4.557  12.683  0.4504  0.2050  0.2478
  487TMC3     H 7299   0.098   4.305  12.414 -0.7514 -4.4425 -1.4293
  487TMC3    H1 7300   0.363   4.374  12.740 -0.5157  2.8617 -2.1536
  487TMC3    H2 7301   0.278   3.979  12.619 -0.3491 -0.1985 -4.1170
  487TMC3    C7 7302   0.318   4.147  12.822  0.0799  0.1343  0.7493
  487TMC3    C8 7303   0.051   4.088  12.524 -0.1144 -0.0160 -0.2748
  487TMC3    O1 7304   0.366   4.222  12.905  0.1898 -0.0117  0.6469
  487TMC3    O2 7305   4.703   4.172  12.537 -0.3693  0.2047 -0.2268
  488MPD2     C 7306   0.386   1.471  16.193 -0.1993 -0.1233  0.3257
  488MPD2    C1 7307   0.428   1.576  16.277  0.0659 -0.4421  0.0438
  488MPD2    C2 7308   0.411   1.563  16.409 -0.1621  0.1500 -0.3065
  488MPD2    C3 7309   0.348   1.454  16.470 -0.0731 -0.7265  0.1552
  488MPD2    C4 7310   0.319   1.347  16.383 -0.6861  0.4050  0.0658
  488MPD2    C5 7311   0.341   1.358  16.248  0.2339  0.2295 -0.9909
  488MPD2     H 7312   0.435   1.643  16.478 -0.6089  0.4538 -0.5078
  488MPD2    H1 7313   0.289   1.256  16.434  0.5189  0.0219  0.0985
  488MPD2    H2 7314   0.386   1.474  16.085  1.0772 -1.0599  0.3077
  488MPD2    H3 7315   0.312   1.288  16.170  3.1191  0.5583 -2.3736
  488MPD2     N 7316   0.309   1.461  16.609  0.0035  0.0684 -0.4379
  488MPD2    H5 7317   0.333   1.545  16.660 -0.8991  0.4644 -0.6758
  488MPD2    N1 7318   0.488   1.700  16.227  0.2553  0.0642 -0.0790
  488MPD2    H7 7319   0.523   1.767  16.294  1.3416 -1.2516  0.6660
  489TMC3    C1 7320   0.233   1.410  16.819  0.6069  0.0760  0.5962
  489TMC3    C2 7321   0.263   1.541  16.841  0.3676 -0.0271 -0.1267
  489TMC3    C3 7322   0.358   1.572  16.935 -0.2467  0.4409  0.8623
  489TMC3    C4 7323   0.311   1.319  16.887  0.0688 -0.2776 -0.1525
  489TMC3    C5 7324   0.409   1.352  16.980 -0.9565 -0.2360  0.2672
  489TMC3    C6 7325   0.437   1.482  17.005  0.6364 -0.1529 -0.4990
  489TMC3     C 7326   0.236   1.372  16.678 -0.7787 -0.0289 -0.0243
  489TMC3     O 7327   0.197   1.263  16.641  0.2493 -0.3711  0.0436
  489TMC3     H 7328   0.202   1.620  16.798  0.8844 -0.9187 -2.4854
  489TMC3    H1 7329   0.292   1.214  16.865  1.1827 -0.7788  1.2846
  489TMC3    H2 7330   0.513   1.521  17.073  0.0693  1.5966 -0.8673
  489TMC3    C7 7331   0.473   1.238  17.053 -0.6292 -0.3824 -0.1432
  489TMC3    C8 7332   0.418   1.699  16.906 -0.0346  1.1728 -0.2521
  489TMC3    O1 7333   0.453   1.124  17.012  0.1557  0.3974  0.2316
  489TMC3    O2 7334   0.425   1.716  16.785  0.5147  0.2413  0.3282
  490MPD2     C 7335   1.648   0.584  16.828  0.3309 -0.9920 -0.0299
  490MPD2    C1 7336   1.539   0.657  16.873  0.3798  0.1187 -0.7972
  490MPD2    C2 7337   1.557   0.785  16.918  0.4825 -0.4290  0.3911
  490MPD2    C3 7338   1.685   0.835  16.924  0.0679  0.4039 -0.6736
  490MPD2    C4 7339   1.795   0.762  16.890  0.3615 -0.0695 -0.7975
  490MPD2    C5 7340   1.773   0.632  16.846  0.4621  0.0155  0.0812
  490MPD2     H 7341   1.468   0.846  16.927  1.0646  0.6742 -1.4088
  490MPD2    H1 7342   1.896   0.795  16.909  0.5977  0.5477 -3.0893
  490MPD2    H2 7343   1.633   0.482  16.794 -0.0175 -0.5654 -1.1441
  490MPD2    H3 7344   1.865   0.575  16.833  1.0400  0.9090  0.2766
  490MPD2     N 7345   1.713   0.962  16.977 -0.7359 -0.2727 -0.3228
  490MPD2    H5 7346   1.812   0.977  16.994 -0.8805  1.0495 -0.6439
  490MPD2    N1 7347   1.417   0.587  16.868  0.6992  0.1264 -0.1655
  490MPD2    H7 7348   1.422   0.494  16.826  1.1445 -0.2340  0.6760
  491TMC3    C1 7349   1.227   0.505  16.953  0.6123 -0.0059 -0.8605
  491TMC3    C2 7350   1.213   0.467  17.086  0.0120  0.7867  0.2124
  491TMC3    C3 7351   1.186   0.333  17.109  0.1785  0.1709  0.0413
  491TMC3    C4 7352   1.200   0.436  16.842  0.2587  0.7411  0.4438
  491TMC3    C5 7353   1.162   0.311  16.875  0.0548 -0.3965 -0.2199
  491TMC3    C6 7354   1.167   0.249  17.004 -0.5969  0.6328 -0.3073
  491TMC3     C 7355   1.301   0.625  16.937 -0.0055 -0.1286 -0.6260
  491TMC3     O 7356   1.301   0.699  17.035  0.0265 -0.6703  0.2525
  491TMC3     H 7357   1.238   0.537  17.164  2.0645 -0.3862  0.6219
  491TMC3    H1 7358   1.188   0.478  16.743 -0.8851 -0.7870 -0.0637
  491TMC3    H2 7359   1.152   0.142  17.014  0.5388  0.6167  1.2382
  491TMC3    C7 7360   1.101   0.243  16.767  0.7541  0.3227  0.3779
  491TMC3    C8 7361   1.193   0.292  17.248 -0.1998  0.2464  0.5818
  491TMC3    O1 7362   1.116   0.292  16.657 -0.0893 -0.1200  0.1399
  491TMC3    O2 7363   1.241   0.363  17.334 -0.5407  0.1412 -0.3629
  492MPD2     C 7364   1.102   1.270  11.726  0.6823  0.1762  0.2054
  492MPD2    C1 7365   1.087   1.151  11.672  0.7073  0.4546 -0.0810
  492MPD2    C2 7366   1.025   1.046  11.736 -0.2706  0.5975 -0.2873
  492MPD2    C3 7367   0.994   1.055  11.867  0.0800 -0.6428 -1.0436
  492MPD2    C4 7368   1.026   1.176  11.934  0.7070  0.1261 -0.0560
  492MPD2    C5 7369   1.066   1.286  11.859  0.2374 -0.2269  0.6198
  492MPD2     H 7370   1.006   0.954  11.680  3.6063 -0.5636  0.2705
  492MPD2    H1 7371   0.997   1.187  12.038 -2.2580 -2.6738 -0.5686
  492MPD2    H2 7372   1.148   1.356  11.680 -0.9899  0.9530 -0.0070
  492MPD2    H3 7373   1.080   1.380  11.910 -2.6844 -0.7845  2.4661
  492MPD2     N 7374   0.946   0.941  11.943  0.2213  0.5638 -0.3065
  492MPD2    H5 7375   0.949   0.953  12.043  0.0444  1.0227 -0.3595
  492MPD2    N1 7376   1.130   1.143  11.537  0.3511  0.4727  0.3179
  492MPD2    H7 7377   1.166   1.228  11.495 -2.2857  1.2669 -0.3632
  493TMC3    C1 7378   1.162   1.075  11.318  0.3641 -0.2518  0.2520
  493TMC3    C2 7379   1.268   1.166  11.309  0.1182  0.2686 -0.2168
  493TMC3    C3 7380   1.340   1.182  11.189  0.2200  0.2036 -0.1030
  493TMC3    C4 7381   1.129   1.002  11.207 -0.0041  0.5939  0.5792
  493TMC3    C5 7382   1.185   1.035  11.086 -1.1010  1.4045  0.5241
  493TMC3    C6 7383   1.294   1.116  11.080 -0.9126  0.1110  0.0704
  493TMC3     C 7384   1.103   1.040  11.446 -0.3306  0.6527 -0.0231
  493TMC3     O 7385   1.039   0.940  11.450  0.3874  0.1682 -0.5858
  493TMC3     H 7386   1.305   1.219  11.397  1.0201  0.0865 -0.4945
  493TMC3    H1 7387   1.036   0.946  11.206  1.8700 -2.5464  1.1054
  493TMC3    H2 7388   1.353   1.126  10.989  0.8804 -0.7311  1.1274
  493TMC3    C7 7389   1.157   0.959  10.974  0.3078  0.5807  0.5731
  493TMC3    C8 7390   1.474   1.225  11.183 -0.5527  0.7292 -0.8839
  493TMC3    O1 7391   1.170   1.011  10.862 -0.1689 -0.4934  0.3274
  493TMC3    O2 7392   1.546   1.203  11.279  0.7990 -1.3529 -0.0221
  494TMC3    C1 7393   2.160   2.546   0.482 -0.8375 -0.8266  0.7396
  494TMC3    C2 7394   2.130   2.422   0.450  0.3171 -0.7060 -0.0940
  494TMC3    C3 7395   2.140   2.390   0.317 -0.9945  0.0371  0.2788
  494TMC3    C4 7396   2.167   2.646   0.388  0.1018  0.6482  0.4193
  494TMC3    C5 7397   2.174   2.612   0.255 -0.9580 -0.3866 -0.1090
  494TMC3    C6 7398   2.168   2.483   0.218 -0.5031  0.1222  0.1231
  494TMC3     C 7399   2.172   2.584   0.621 -0.3366  0.2910 -0.3214
  494TMC3     O 7400   2.152   2.699   0.653 -0.5114 -0.3471  0.1584
  494TMC3     H 7401   2.106   2.350   0.527 -1.3804 -0.9723 -0.8779
  494TMC3    H1 7402   2.185   2.748   0.419  0.5214  0.2344  1.5510
  494TMC3    H2 7403   2.194   2.453   0.117 -0.0967  1.2327 -0.0927
  494TMC3    C7 7404   2.203   2.708   0.153  0.4242  0.4974 -0.0260
  494TMC3    C8 7405   2.156   2.252   0.280  0.2600  0.3451 -0.4196
  494TMC3    O1 7406   2.183   2.662   0.042 -0.1058  0.6452  0.5863
  494TMC3    O2 7407   2.169   2.180   0.378 -0.1439 -0.0462  0.3386
  495TMC3    C1 7408   0.854   4.399  14.059 -0.3170 -0.7364 -0.0260
  495TMC3    C2 7409   0.762   4.439  13.970 -0.0453 -0.1820 -0.0818
  495TMC3    C3 7410   0.683   4.549  14.000 -0.7718  0.5136  0.2199
  495TMC3    C4 7411   0.875   4.481  14.170  0.0215 -0.1502  0.6533
  495TMC3    C5 7412   0.798   4.590  14.198  0.2361  0.5902 -0.3027
  495TMC3    C6 7413   0.700   4.615  14.109  0.2392 -0.7184  1.0663
  495TMC3     C 7414   0.926   4.276  14.056  0.2495 -0.2620 -0.0344
  495TMC3     O 7415   0.964   4.240  14.168 -0.1061 -0.2474  0.2450
  495TMC3     H 7416   0.733   4.361  13.900 -2.1478  1.0680 -0.5958
  495TMC3    H1 7417   0.940   4.456  14.252  2.8180  2.0848 -0.8692
  495TMC3    H2 7418   0.634   4.694  14.139  0.9503  1.0284 -1.9228
  495TMC3    C7 7419   0.795   4.617  14.345  0.3366  0.8583  0.0268
  495TMC3    C8 7420   0.549   4.552  13.953 -0.0020  0.2081 -0.2946
  495TMC3    O1 7421   0.895   4.626  14.415  0.6266  0.6220  0.2535
  495TMC3    O2 7422   0.466   4.624  14.016  0.6373 -0.0042 -0.5168
  496MPD2     C 7423   2.571   0.257  15.326 -0.1402  0.2019  0.2363
  496MPD2    C1 7424   2.626   0.154  15.399  0.9191 -0.2170 -0.3062
  496MPD2    C2 7425   2.533   0.060  15.449 -0.1683  0.5004 -0.4484
  496MPD2    C3 7426   2.400   0.070  15.424 -0.1170 -0.1134 -0.2590
  496MPD2    C4 7427   2.353   0.168  15.343  0.1340  0.5004 -0.0500
  496MPD2    C5 7428   2.442   0.260  15.294 -0.7128 -0.1766 -0.0778
  496MPD2     H 7429   2.571   4.715  15.506  0.5667  2.2308  1.6018
  496MPD2    H1 7430   2.256   0.173  15.296 -0.0130 -1.7000  0.0180
  496MPD2    H2 7431   2.634   0.330  15.278 -1.1966 -0.2938 -1.8931
  496MPD2    H3 7432   2.411   0.324  15.213  2.0601 -1.8517 -2.4615
  496MPD2     N 7433   2.309   4.711  15.467 -0.0815  0.3830  0.7196
  496MPD2    H5 7434   2.224   4.693  15.414 -1.0581  1.0532  2.0683
  496MPD2    N1 7435   2.764   0.156  15.422  0.3566  0.0339  0.7474
  496MPD2    H7 7436   2.823   0.232  15.390  0.9660 -1.0215 -0.5953
  497TMC3    C1 7437   2.248   4.520  15.597  0.3609  0.6472 -0.0286
  497TMC3    C2 7438   2.214   4.459  15.481  0.2892  0.1864  0.3828
  497TMC3    C3 7439   2.218   4.321  15.474  0.4209 -0.1298 -0.0560
  497TMC3    C4 7440   2.287   4.450  15.700 -0.0705 -0.7919  0.1037
  497TMC3    C5 7441   2.308   4.310  15.691  0.4831 -0.2802  1.0574
  497TMC3    C6 7442   2.278   4.246  15.576  0.4550 -0.2743 -0.0070
  497TMC3     C 7443   2.324   4.644  15.584  0.4136  0.8246 -0.3367
  497TMC3     O 7444   2.398   4.660  15.684 -0.7693 -0.9662 -0.2382
  497TMC3     H 7445   2.189   4.514  15.391  0.3015  1.0734  0.9231
  497TMC3    H1 7446   2.302   4.501  15.794  0.1568  2.9153 -1.9524
  497TMC3    H2 7447   2.289   4.138  15.570 -0.8313 -0.3575 -0.8269
  497TMC3    C7 7448   2.397   4.240  15.782  0.0281 -0.0918  0.8525
  497TMC3    C8 7449   2.195   4.257  15.345 -0.3688  0.4652 -0.4219
  497TMC3    O1 7450   2.393   4.118  15.797 -0.0393  0.2023 -0.0611
  497TMC3    O2 7451   2.208   4.323  15.245  0.3638  0.1107 -0.6683
  498MPD2     C 7452   3.453   0.764   9.386 -0.8058  1.3125  0.8203
  498MPD2    C1 7453   3.460   0.836   9.504  0.2070  0.5943  0.3498
  498MPD2    C2 7454   3.370   0.816   9.607 -0.0884 -0.1218  0.3065
  498MPD2    C3 7455   3.278   0.709   9.591 -0.0713  0.1074  0.2261
  498MPD2    C4 7456   3.264   0.650   9.468  0.8501 -0.6734 -0.4773
  498MPD2    C5 7457   3.354   0.672   9.368  0.5034 -0.3847  0.4649
  498MPD2     H 7458   3.385   0.877   9.696 -0.4632  2.9493 -1.7314
  498MPD2    H1 7459   3.184   0.580   9.446  0.9152 -0.4879 -1.3275
  498MPD2    H2 7460   3.519   0.783   9.303 -0.3711  1.7331  1.2637
  498MPD2    H3 7461   3.332   0.623   9.273  0.7637 -0.1052  0.2598
  498MPD2     N 7462   3.202   0.687   9.705 -0.1682 -0.2428  0.0811
  498MPD2    H5 7463   3.207   0.744   9.789  0.5218  3.2948 -2.3394
  498MPD2    N1 7464   3.566   0.935   9.523 -0.2346 -0.3917 -0.0509
  498MPD2    H7 7465   3.572   0.965   9.619  1.5021 -0.2863 -0.1934
  499TMC3    C1 7466   3.765   1.057   9.491  0.2461  0.2753  0.2888
  499TMC3    C2 7467   3.904   1.044   9.466  0.0233  0.7067  0.1595
  499TMC3    C3 7468   3.993   1.129   9.526 -0.5877  0.1281  0.5521
  499TMC3    C4 7469   3.718   1.144   9.591  0.0169 -0.4636 -0.3824
  499TMC3    C5 7470   3.816   1.218   9.653  0.9363 -0.3111 -0.6504
  499TMC3    C6 7471   3.946   1.219   9.617  0.3630  1.2580  0.4423
  499TMC3     C 7472   3.675   0.957   9.439 -1.0193  0.3891  0.6679
  499TMC3     O 7473   3.693   0.915   9.325  0.1447  0.5457 -0.1499
  499TMC3     H 7474   3.934   0.976   9.387 -2.4496 -1.5054  1.1166
  499TMC3    H1 7475   3.613   1.155   9.617  0.5749 -1.0739  2.1371
  499TMC3    H2 7476   4.023   1.282   9.659  1.7281 -0.5524  0.6422
  499TMC3    C7 7477   3.760   1.329   9.740 -0.5173  0.1525  0.2314
  499TMC3    C8 7478   4.135   1.095   9.520 -0.2139  0.2895  0.3544
  499TMC3    O1 7479   3.657   1.381   9.698  0.0533  0.1001 -0.1463
  499TMC3    O2 7480   4.208   1.190   9.531  0.5745  0.0640  0.0699
  500MPD2     C 7481   0.387   2.309  10.297  0.3815 -0.1177  0.1378
  500MPD2    C1 7482   0.384   2.431  10.368  0.4203  0.0578 -0.0031
  500MPD2    C2 7483   0.266   2.504  10.366  0.3265 -0.5476 -0.4316
  500MPD2    C3 7484   0.161   2.475  10.283 -0.0796 -0.3416 -0.0428
  500MPD2    C4 7485   0.169   2.361  10.208 -0.3856  0.1003  0.0182
  500MPD2    C5 7486   0.278   2.274  10.216 -0.5091  0.2038  0.7855
  500MPD2     H 7487   0.250   2.586  10.435  0.5375 -0.6168 -0.3015
  500MPD2    H1 7488   0.096   2.347  10.130  0.3565  0.0352 -0.6600
  500MPD2    H2 7489   0.473   2.243  10.298  0.4575 -0.0109  0.5027
  500MPD2    H3 7490   0.284   2.187  10.151  0.4058 -1.2721  2.8695
  500MPD2     N 7491   0.037   2.540  10.277  0.0529  0.3014  0.2454
  500MPD2    H5 7492   4.705   2.501  10.216 -0.6069 -3.4701  3.4176
  500MPD2    N1 7493   0.485   2.472  10.459 -0.2896 -0.1073  0.4818
  500MPD2    H7 7494   0.473   2.556  10.515  0.6841  0.4995 -0.2191
  501TMC3    C1 7495   0.687   2.476  10.567  0.4527  0.5527  0.2213
  501TMC3    C2 7496   0.695   2.610  10.564  0.5328 -0.2710 -0.5328
  501TMC3    C3 7497   0.797   2.676  10.624 -0.7070 -0.1131 -1.2206
  501TMC3    C4 7498   0.775   2.409  10.644 -0.7628  0.7944 -0.1802
  501TMC3    C5 7499   0.875   2.473  10.706  0.0385 -0.0925 -0.5847
  501TMC3    C6 7500   0.892   2.611  10.694 -0.2287 -0.1662  0.1446
  501TMC3     C 7501   0.592   2.397  10.491  0.1788  0.2341  0.1027
  501TMC3     O 7502   0.623   2.282  10.465  0.2374  0.0855  0.0734
  501TMC3     H 7503   0.631   2.661  10.493 -0.9854 -0.3778  0.7582
  501TMC3    H1 7504   0.758   2.303  10.659  0.1187  0.5069 -1.1884
  501TMC3    H2 7505   0.962   2.669  10.752 -0.2477 -0.8739  0.8852
  501TMC3    C7 7506   0.968   2.390  10.773 -0.5500 -0.2592 -0.1534
  501TMC3    C8 7507   0.827   2.813  10.600 -0.0576  0.5716 -0.2462
  501TMC3    O1 7508   0.921   2.282  10.806 -0.1518  0.0329 -0.0320
  501TMC3    O2 7509   0.927   2.861  10.644 -0.3844  0.4538  0.5681
  502TMC3    C1 7510   0.093   0.349  14.232  0.3862 -0.2868 -0.3076
  502TMC3    C2 7511   0.064   0.456  14.157 -0.2729  0.1330  0.2365
  502TMC3    C3 7512   4.686   0.528  14.187 -0.4139  0.4941 -0.9540
  502TMC3    C4 7513   0.011   0.295  14.325  0.8608 -0.7155  0.3339
  502TMC3    C5 7514   4.637   0.367  14.353 -0.4781  0.0054  0.4283
  502TMC3    C6 7515   4.609   0.487  14.286  0.0024 -0.0946 -0.2518
  502TMC3     C 7516   0.236   0.320  14.246  0.0124  0.2162 -0.7271
  502TMC3     O 7517   0.312   0.352  14.153  0.3659 -0.3545 -0.0660
  502TMC3     H 7518   0.136   0.482  14.080  0.4954 -3.1966 -0.1458
  502TMC3    H1 7519   0.030   0.200  14.374  0.4154 -0.0198  1.8478
  502TMC3    H2 7520   4.517   0.541  14.304  0.0786 -0.1899  0.3969
  502TMC3    C7 7521   4.568   0.330  14.478 -0.3495  0.2480 -0.6593
  502TMC3    C8 7522   4.698   0.671  14.181  0.2867  0.0731 -0.0758
  502TMC3    O1 7523   4.574   0.214  14.511  0.2402  0.0637 -0.0387
  502TMC3    O2 7524   4.599   0.742  14.189  0.0387 -0.2426  0.4603
  503MPD2     C 7525   2.420   1.676  16.658  0.1689  0.4637 -0.1074
  503MPD2    C1 7526   2.385   1.691  16.792  0.3903 -1.3331  0.5923
  503MPD2    C2 7527   2.346   1.579  16.868  0.6321 -0.3279  0.2640
  503MPD2    C3 7528   2.328   1.457  16.816  0.3615  0.4856  0.1092
  503MPD2    C4 7529   2.351   1.444  16.678 -0.1267  0.4383 -0.3026
  503MPD2    C5 7530   2.403   1.547  16.608  0.2355 -0.0556 -0.4478
  503MPD2     H 7531   2.340   1.590  16.975  1.3040 -0.4298  0.3171
  503MPD2    H1 7532   2.343   1.354  16.618 -1.0746  0.3470 -0.0390
  503MPD2    H2 7533   2.464   1.755  16.597 -0.4979  0.8117 -0.1373
  503MPD2    H3 7534   2.429   1.526  16.505 -2.0380 -4.3008 -0.1490
  503MPD2     N 7535   2.319   1.351  16.904 -0.6594 -0.6615 -0.1848
  503MPD2    H5 7536   2.314   1.372  17.003 -3.6047 -1.6574 -0.1316
  503MPD2    N1 7537   2.379   1.819  16.858  0.1074 -0.0544 -0.3114
  503MPD2    H7 7538   2.332   1.823  16.948 -2.1431 -3.8514 -1.3200
  504TMC3    C1 7539   2.353   1.133  16.979 -0.0925  0.2005  0.7944
  504TMC3    C2 7540   2.347   1.185  17.107 -0.5646 -0.5192  0.6125
  504TMC3    C3 7541   2.411   1.129  17.211  0.5551  0.6541  0.1671
  504TMC3    C4 7542   2.442   1.037  16.954 -0.0460  0.0212 -0.3579
  504TMC3    C5 7543   2.511   0.985  17.060 -0.2594 -0.2252 -0.5367
  504TMC3    C6 7544   2.497   1.026  17.188 -0.1591  0.7934 -0.1836
  504TMC3     C 7545   2.338   1.219  16.867  0.2505 -0.5634 -0.2697
  504TMC3     O 7546   2.366   1.176  16.757  0.5196  0.7457  0.0300
  504TMC3     H 7547   2.261   1.246  17.131 -0.9974 -0.0691 -2.0986
  504TMC3    H1 7548   2.458   0.992  16.857  2.7205  1.2987 -0.4828
  504TMC3    H2 7549   2.552   0.971  17.264 -2.5337 -1.8569 -0.4035
  504TMC3    C7 7550   2.628   0.908  17.020  0.3101  0.2143 -0.3301
  504TMC3    C8 7551   2.439   1.215  17.322  0.6758 -0.0280 -0.5741
  504TMC3    O1 7552   2.621   0.842  16.913 -0.3631  0.3246  0.0173
  504TMC3    O2 7553   2.409   1.329  17.295 -0.4632  0.3388 -0.1041
  505MPD2     C 7554   2.459   0.622  10.873 -0.6359 -0.4382 -0.7476
  505MPD2    C1 7555   2.532   0.503  10.881  0.7409  0.3234 -0.1083
  505MPD2    C2 7556   2.667   0.509  10.910 -0.5238  0.1898 -0.0066
  505MPD2    C3 7557   2.730   0.625  10.939 -0.1464 -0.5979 -0.6266
  505MPD2    C4 7558   2.653   0.744  10.941  0.4189  0.3087  0.5921
  505MPD2    C5 7559   2.523   0.737  10.912  0.4725  0.1980 -0.6686
  505MPD2     H 7560   2.729   0.420  10.916  0.8165  1.2392  1.8150
  505MPD2    H1 7561   2.693   0.837  10.979  1.9814  0.4800 -1.4297
  505MPD2    H2 7562   2.358   0.623  10.835 -0.2921  0.1872 -1.6603
  505MPD2    H3 7563   2.472   0.833  10.920 -0.1646 -0.1623 -0.4143
  505MPD2     N 7564   2.867   0.612  10.974 -0.6215  0.0813  0.5528
  505MPD2    H5 7565   2.906   0.519  10.978  2.3141  1.2896 -0.0531
  505MPD2    N1 7566   2.466   0.376  10.867  0.6139  0.3432  0.0725
  505MPD2    H7 7567   2.366   0.369  10.847  0.6101 -0.1619  0.2836
  506TMC3    C1 7568   2.451   0.145  10.823  0.7374  0.7016 -0.0987
  506TMC3    C2 7569   2.407   0.165  10.696 -0.9255 -0.3267  0.4765
  506TMC3    C3 7570   2.436   0.072  10.597  0.0552 -0.2557  0.2697
  506TMC3    C4 7571   2.518   0.031  10.851  0.3996  0.6033 -0.1806
  506TMC3    C5 7572   2.541   4.677  10.751 -0.1826 -0.3703  0.5293
  506TMC3    C6 7573   2.486   4.687  10.628 -0.4921  0.3825  0.5051
  506TMC3     C 7574   2.530   0.253  10.868  0.0815 -0.0869  0.0621
  506TMC3     O 7575   2.648   0.220  10.883 -0.6245  0.0473  0.2127
  506TMC3     H 7576   2.360   0.259  10.669  0.0057 -0.0625 -0.2115
  506TMC3    H1 7577   2.568   0.020  10.947 -0.9120 -0.2425  0.4160
  506TMC3    H2 7578   2.505   4.618  10.547 -2.0209 -1.1983  1.5089
  506TMC3    C7 7579   2.659   4.609  10.765  0.3152  0.2825 -0.0026
  506TMC3    C8 7580   2.392   0.096  10.460 -0.4720 -0.0706  0.3375
  506TMC3    O1 7581   2.666   4.495  10.721 -0.1036 -0.4116 -0.0927
  506TMC3    O2 7582   2.302   0.035  10.409  0.1758  0.3631 -0.6720
  507TMC3    C1 7583   3.557   1.067  15.028 -1.1061 -0.0243  0.1769
  507TMC3    C2 7584   3.424   1.065  15.058 -0.0355  0.2698  0.1915
  507TMC3    C3 7585   3.338   1.165  15.017 -0.3581  0.3144  0.2941
  507TMC3    C4 7586   3.608   1.181  14.969 -0.3679  0.1434  1.1285
  507TMC3    C5 7587   3.526   1.283  14.930  0.5539 -0.1368  0.0125
  507TMC3    C6 7588   3.386   1.276  14.953  0.0778 -0.4123  0.1315
  507TMC3     C 7589   3.658   0.994  15.100  0.5877  0.4764 -0.1404
  507TMC3     O 7590   3.777   1.032  15.090 -0.0203 -0.5661 -0.5414
  507TMC3     H 7591   3.380   0.992  15.125 -0.5019  1.8720  1.6093
  507TMC3    H1 7592   3.715   1.189  14.948  0.0208  0.4818  3.2755
  507TMC3    H2 7593   3.322   1.362  14.937  1.5888  0.8278  0.7594
  507TMC3    C7 7594   3.549   1.337  14.797  0.4276  0.1727 -0.6035
  507TMC3    C8 7595   3.211   1.110  14.950 -0.1892  0.9586  0.0091
  507TMC3    O1 7596   3.651   1.401  14.774 -0.6205  0.2696 -0.8519
  507TMC3    O2 7597   3.157   1.187  14.873  0.1152  0.7638 -0.0446
  508MPD2     C 7598   4.218   3.400  16.126 -0.6129 -0.5983  0.2867
  508MPD2    C1 7599   4.285   3.516  16.125  0.1152  0.1998 -0.6309
  508MPD2    C2 7600   4.259   3.605  16.023 -1.0428  0.3905 -0.0643
  508MPD2    C3 7601   4.174   3.569  15.922 -0.2449 -0.1954 -0.3544
  508MPD2    C4 7602   4.115   3.448  15.921 -0.4001  0.1380  0.0089
  508MPD2    C5 7603   4.128   3.368  16.028  0.3808 -0.5049 -0.0464
  508MPD2     H 7604   4.310   3.700  16.028 -0.7674  0.1959  0.7220
  508MPD2    H1 7605   4.056   3.412  15.838 -0.3564  0.2633 -0.0769
  508MPD2    H2 7606   4.220   3.339  16.215 -2.0093  0.0686  0.7690
  508MPD2    H3 7607   4.065   3.280  16.033  3.2653 -2.7675 -3.0119
  508MPD2     N 7608   4.161   3.657  15.816 -0.0573 -0.1793 -0.4582
  508MPD2    H5 7609   4.215   3.743  15.820 -1.2344  0.5246  0.5742
  508MPD2    N1 7610   4.379   3.534  16.221 -0.4508 -0.0327 -0.1068
  508MPD2    H7 7611   4.401   3.451  16.275 -0.0767  0.3565  0.3455
  509TMC3    C1 7612   4.021   3.891  15.437  0.4117 -0.1328  0.0781
  509TMC3    C2 7613   4.143   3.958  15.435  0.4565  0.0693  0.6225
  509TMC3    C3 7614   4.247   3.905  15.513  0.6481  0.2783  0.2196
  509TMC3    C4 7615   4.000   3.791  15.529  0.1563  0.3994 -0.2834
  509TMC3    C5 7616   4.105   3.750  15.607  0.9118  0.2218  1.0637
  509TMC3    C6 7617   4.237   3.796  15.601  0.7370 -0.1749 -0.5323
  509TMC3     C 7618   3.907   3.969  15.389  0.0498 -0.0891  0.3411
  509TMC3     O 7619   3.803   3.980  15.451 -0.2340 -0.0614 -0.0072
  509TMC3     H 7620   4.162   4.050  15.382  0.0911  0.2458  0.8051
  509TMC3    H1 7621   3.899   3.755  15.538  1.4931 -2.8899  1.4421
  509TMC3    H2 7622   4.314   3.764  15.670 -1.5113  0.9585  2.5167
  509TMC3    C7 7623   4.085   3.642  15.704  0.5606  0.3600  0.1731
  509TMC3    C8 7624   4.341   3.997  15.568  0.4988  0.1619  0.0724
  509TMC3    O1 7625   4.001   3.562  15.672 -0.1198 -0.2005 -0.1363
  509TMC3    O2 7626   4.380   3.983  15.684 -0.0337  0.1313 -0.0473
  510MPD2     C 7627   1.952   0.101  14.657  0.3385  0.1145  0.7226
  510MPD2    C1 7628   2.030   4.727  14.672  0.2267 -0.2404  0.5341
  510MPD2    C2 7629   2.154   4.714  14.606 -0.1403 -0.3122  0.8100
  510MPD2    C3 7630   2.198   0.069  14.515 -0.8919  0.1812 -0.0750
  510MPD2    C4 7631   2.121   0.185  14.502  0.5815 -0.2372 -0.6660
  510MPD2    C5 7632   2.000   0.202  14.570  0.3385 -0.2311  0.2784
  510MPD2     H 7633   2.222   4.637  14.642  0.0691  0.3388  1.8135
  510MPD2    H1 7634   2.158   0.263  14.437  0.5519  0.3186 -0.0126
  510MPD2    H2 7635   1.865   0.119  14.719 -0.1086 -0.6948  0.3234
  510MPD2    H3 7636   1.944   0.292  14.550 -1.8515 -1.2590  1.7762
  510MPD2     N 7637   2.326   0.048  14.454  0.4328 -0.3472 -0.7305
  510MPD2    H5 7638   2.367   4.698  14.482  3.8843  1.1645 -1.1277
  510MPD2    N1 7639   1.990   4.633  14.772  0.4941  0.1021  0.3238
  510MPD2    H7 7640   1.918   4.654  14.840  0.7890 -2.3779  1.3682
  511TMC3    C1 7641   1.962   4.419  14.869 -0.1138  0.1135 -0.1670
  511TMC3    C2 7642   1.907   4.477  14.983  0.0865 -0.0099 -0.8109
  511TMC3    C3 7643   1.805   4.412  15.052  0.0714 -0.1351  0.2465
  511TMC3    C4 7644   1.908   4.300  14.834 -0.5430 -0.7260 -0.1529
  511TMC3    C5 7645   1.823   4.232  14.914  0.0918  0.1888 -0.3270
  511TMC3    C6 7646   1.772   4.286  15.027 -0.6218  0.5682  0.2704
  511TMC3     C 7647   2.021   4.499  14.762 -0.3086  0.0686 -0.6049
  511TMC3     O 7648   2.072   4.433  14.671  0.6685 -0.1472 -0.4019
  511TMC3     H 7649   1.931   4.578  15.012 -0.2138  0.7311 -3.0909
  511TMC3    H1 7650   1.946   4.255  14.742  0.2472 -1.2294  0.4229
  511TMC3    H2 7651   1.696   4.230  15.080 -1.0099  0.0310 -0.8521
  511TMC3    C7 7652   1.773   4.103  14.860 -0.6101  0.5068 -0.1751
  511TMC3    C8 7653   1.749   4.488  15.162  0.4919  0.1554  0.2339
  511TMC3    O1 7654   1.802   4.077  14.744 -0.3535 -0.6045 -0.5302
  511TMC3    O2 7655   1.826   4.563  15.218  0.2163 -0.0517  0.1169
  512TMC3    C1 7656   1.283   4.325  13.164 -0.1861  0.2604  0.1769
  512TMC3    C2 7657   1.366   4.374  13.255 -0.0521  0.2417  0.8251
  512TMC3    C3 7658   1.486   4.307  13.286  0.2018  0.3657  1.0431
  512TMC3    C4 7659   1.312   4.203  13.101  0.0715 -0.0660 -0.4813
  512TMC3    C5 7660   1.428   4.146  13.138 -0.1471  0.2437 -0.3054
  512TMC3    C6 7661   1.517   4.194  13.230  0.0109 -0.0004  0.4055
  512TMC3     C 7662   1.163   4.397  13.139  0.2528 -0.0696 -0.0188
  512TMC3     O 7663   1.161   4.513  13.182  0.3718  0.1333 -0.3302
  512TMC3     H 7664   1.327   4.456  13.315  1.4774 -0.2190  2.4455
  512TMC3    H1 7665   1.238   4.152  13.040  0.3665 -1.4640  0.3218
  512TMC3    H2 7666   1.590   4.127  13.274 -0.6454 -0.4980  0.7258
  512TMC3    C7 7667   1.445   4.009  13.093 -0.4342  0.3526 -0.3494
  512TMC3    C8 7668   1.554   4.334  13.410 -0.1062  0.3279 -0.5762
  512TMC3    O1 7669   1.504   3.917  13.153  0.0772 -0.6295 -0.9863
  512TMC3    O2 7670   1.623   4.250  13.462 -0.0016 -0.1225 -0.1206
  513MPD2     C 7671   2.545   4.139  12.970 -0.0916 -0.4532 -0.3144
  513MPD2    C1 7672   2.683   4.133  12.986 -0.6799 -0.0248 -0.8332
  513MPD2    C2 7673   2.727   4.202  13.099 -0.7111  0.1153 -0.5092
  513MPD2    C3 7674   2.652   4.274  13.180  0.8242  0.0347 -0.0394
  513MPD2    C4 7675   2.516   4.285  13.164  0.6357  0.1046  0.3627
  513MPD2    C5 7676   2.462   4.203  13.061 -1.0165  0.7743 -1.2480
  513MPD2     H 7677   2.834   4.198  13.113 -0.8287  1.2957  0.8090
  513MPD2    H1 7678   2.446   4.349  13.216  0.9268 -0.0752  0.9708
  513MPD2    H2 7679   2.498   4.091  12.885 -1.5713  1.9513 -0.8581
  513MPD2    H3 7680   2.355   4.192  13.047 -1.3459  0.3314  1.7865
  513MPD2     N 7681   2.730   4.355  13.271  0.0137 -0.5473 -0.2511
  513MPD2    H5 7682   2.831   4.346  13.269  0.2027  1.3346  1.0740
  513MPD2    N1 7683   2.765   4.061  12.893 -0.1465 -0.2950  0.2482
  513MPD2    H7 7684   2.866   4.066  12.902 -0.2069  0.1786  0.6779
  514TMC3    C1 7685   2.851   3.964  12.721  0.1070  0.0482 -0.0279
  514TMC3    C2 7686   2.859   4.027  12.596  0.1928 -0.2423 -0.0958
  514TMC3    C3 7687   2.978   4.078  12.561  0.4352  0.6898  0.5252
  514TMC3    C4 7688   2.965   3.942  12.798 -0.6037  0.6432  0.3083
  514TMC3    C5 7689   3.073   4.022  12.767 -0.4956  0.2541  0.3806
  514TMC3    C6 7690   3.088   4.088  12.646 -0.1344  0.2638  0.3616
  514TMC3     C 7691   2.728   3.985  12.791 -0.1351 -0.1911  0.3172
  514TMC3     O 7692   2.621   3.962  12.736  0.3392 -0.1611  0.5484
  514TMC3     H 7693   2.766   4.042  12.541  1.3928  0.9544 -1.7953
  514TMC3    H1 7694   2.953   3.897  12.896  1.9368  0.5024  0.5499
  514TMC3    H2 7695   3.183   4.131  12.616 -0.9271  2.5876  1.1683
  514TMC3    C7 7696   3.116   4.091  12.889 -0.4686  0.5354  0.2977
  514TMC3    C8 7697   2.991   4.120  12.423  0.2603  0.1150 -0.2855
  514TMC3    O1 7698   3.032   4.097  12.978  0.0815  0.2970  0.0050
  514TMC3    O2 7699   2.888   4.108  12.360 -0.8100 -0.0112  0.1064
  515MPD2     C 7700   1.013   1.838  14.738 -0.6945  0.3211 -0.5418
  515MPD2    C1 7701   0.980   1.715  14.792 -0.1837 -1.0780 -0.6021
  515MPD2    C2 7702   1.049   1.669  14.905  0.3115 -0.3352  0.3561
  515MPD2    C3 7703   1.150   1.752  14.958  0.8167  0.0245 -0.1221
  515MPD2    C4 7704   1.180   1.869  14.895  0.4111  0.5445 -0.0061
  515MPD2    C5 7705   1.109   1.917  14.791 -0.1185 -0.0404 -0.5629
  515MPD2     H 7706   1.022   1.575  14.950  0.6283 -0.2959  0.6286
  515MPD2    H1 7707   1.256   1.934  14.936  0.9065  1.2341 -2.0480
  515MPD2    H2 7708   0.964   1.881  14.651  0.3687  1.7792 -0.4115
  515MPD2    H3 7709   1.123   2.015  14.746  1.3193 -0.5226 -1.1679
  515MPD2     N 7710   1.246   1.719  15.052  0.9513 -0.2176  0.2933
  515MPD2    H5 7711   1.331   1.775  15.052 -0.9793  2.7142  0.8599
  515MPD2    N1 7712   0.870   1.638  14.743 -0.6614  0.2584 -0.2203
  515MPD2    H7 7713   0.840   1.558  14.798 -0.8594  0.0952 -0.5675
  516TMC3    C1 7714   0.708   1.557  14.605  0.0438  0.7152 -0.9581
  516TMC3    C2 7715   0.605   1.575  14.532 -0.5172 -0.4715  0.0729
  516TMC3    C3 7716   0.553   1.473  14.456  0.1282 -0.3886  0.1549
  516TMC3    C4 7717   0.768   1.440  14.608 -0.0473  0.1676  0.6999
  516TMC3    C5 7718   0.705   1.330  14.551 -0.1439  0.0368 -0.5816
  516TMC3    C6 7719   0.593   1.345  14.473 -0.2639  0.0927  0.0204
  516TMC3     C 7720   0.794   1.667  14.633  0.3175 -0.1847  0.2896
  516TMC3     O 7721   0.775   1.772  14.572 -0.3570  0.4255  0.1777
  516TMC3     H 7722   0.577   1.678  14.511  0.3764  0.2596  2.5724
  516TMC3    H1 7723   0.870   1.422  14.640  0.7886  0.2842 -1.8964
  516TMC3    H2 7724   0.543   1.272  14.410 -0.0402 -0.6365  0.6971
  516TMC3    C7 7725   0.751   1.197  14.584 -0.3897  0.6561 -0.7599
  516TMC3    C8 7726   0.454   1.494  14.353 -0.3675 -0.3765 -0.4349
  516TMC3    O1 7727   0.870   1.190  14.620  0.1545  0.1805 -0.2198
  516TMC3    O2 7728   0.457   1.422  14.251 -0.7146  0.2954 -0.4604
  517MPD2     C 7729   0.629   2.484  17.619 -0.2235  0.3296 -1.2372
  517MPD2    C1 7730   0.722   2.516  17.526 -0.2257 -0.8236 -0.0907
  517MPD2    C2 7731   0.785   2.634  17.539  0.5067 -0.6266  0.3079
  517MPD2    C3 7732   0.770   2.719  17.639  0.1752 -0.4496  0.0393
  517MPD2    C4 7733   0.664   2.692  17.727 -0.2042 -0.0044  0.1224
  517MPD2    C5 7734   0.600   2.572  17.718  0.3928 -0.4398 -0.2619
  517MPD2     H 7735   0.852   2.668  17.460  1.4537 -1.5252  0.7201
  517MPD2    H1 7736   0.640   2.761   0.055 -1.1248  0.2838 -0.3890
  517MPD2    H2 7737   0.563   2.398  17.615  0.3316 -0.1685  0.3781
  517MPD2    H3 7738   0.515   2.549   0.028  0.1308 -0.9076 -0.7863
  517MPD2     N 7739   0.847   2.830  17.652  0.6183  0.0750  1.0652
  517MPD2    H5 7740   0.823   2.894  17.727  2.7141 -2.2767  3.7313
  517MPD2    N1 7741   0.748   2.425  17.419 -0.6425  0.4399  0.1328
  517MPD2    H7 7742   0.811   2.460  17.348 -0.2491  0.3913  0.4568
  518TMC3    C1 7743   0.725   2.249  17.276  0.5327  0.4414  0.4303
  518TMC3    C2 7744   0.756   2.116  17.279 -0.1836 -0.1077  0.0963
  518TMC3    C3 7745   0.834   2.069  17.183  0.3846  0.0368 -0.1853
  518TMC3    C4 7746   0.764   2.332  17.174  0.4792  0.6069 -0.0846
  518TMC3    C5 7747   0.843   2.282  17.074 -0.2177  0.0151  0.2579
  518TMC3    C6 7748   0.876   2.153  17.080 -0.5892  0.2063 -0.1283
  518TMC3     C 7749   0.686   2.309  17.401 -0.0988 -0.4661 -0.2482
  518TMC3     O 7750   0.632   2.237  17.482  0.4581  0.2542  0.2376
  518TMC3     H 7751   0.712   2.056  17.357 -0.1844 -0.8335 -0.4602
  518TMC3    H1 7752   0.730   2.435  17.177  2.0582  1.1000  1.3262
  518TMC3    H2 7753   0.947   2.116  17.007 -0.1229 -0.9516  0.9082
  518TMC3    C7 7754   0.886   2.383  16.981 -0.1079  0.0906 -0.2402
  518TMC3    C8 7755   0.885   1.934  17.171  0.3271  0.3060  0.5931
  518TMC3    O1 7756   0.871   2.499  17.018  0.1586 -0.1161 -0.1457
  518TMC3    O2 7757   0.920   1.901  17.059 -0.3221 -0.4914  0.3996
  519MPD2     C 7758   1.899   1.230  14.641  0.3679  0.8937 -0.1368
  519MPD2    C1 7759   1.860   1.239  14.509 -0.2625  0.6908 -0.3970
  519MPD2    C2 7760   1.936   1.174  14.413  0.2572 -0.1774  0.3231
  519MPD2    C3 7761   2.046   1.093  14.447 -0.5657 -0.2162  0.0441
  519MPD2    C4 7762   2.076   1.078  14.579 -0.2376 -0.3850  0.4540
  519MPD2    C5 7763   1.994   1.139  14.674 -0.0755 -0.0657  0.0958
  519MPD2     H 7764   1.899   1.174  14.311 -0.1442  1.0276  0.4698
  519MPD2    H1 7765   2.163   1.018  14.606 -0.0651 -0.3981 -0.1435
  519MPD2    H2 7766   1.830   1.278  14.709 -0.1640  0.8170 -0.6155
  519MPD2    H3 7767   2.009   1.133  14.781  1.0493 -1.6163 -0.1376
  519MPD2     N 7768   2.128   1.029  14.354  0.0442 -0.1357  0.2419
  519MPD2    H5 7769   2.207   0.972  14.383  0.9323  0.5888 -0.7736
  519MPD2    N1 7770   1.740   1.308  14.476 -0.1198  0.2821 -0.9932
  519MPD2    H7 7771   1.684   1.343  14.554  0.3024 -1.3983  0.0617
  520TMC3    C1 7772   2.189   0.939  14.134  0.4914  0.1757 -0.3441
  520TMC3    C2 7773   2.152   0.922  14.005  0.2689 -0.7193  0.9656
  520TMC3    C3 7774   2.226   0.839  13.921 -0.2066 -0.1193  0.2310
  520TMC3    C4 7775   2.296   0.869  14.186  0.6937 -0.2366 -0.0180
  520TMC3    C5 7776   2.372   0.789  14.104  0.6748 -0.2363  0.1706
  520TMC3    C6 7777   2.337   0.770  13.970 -0.0179 -0.0561 -0.2532
  520TMC3     C 7778   2.096   1.012  14.220  1.0217 -0.0832  0.0500
  520TMC3     O 7779   2.002   1.056  14.156  0.0290  0.3837  0.0714
  520TMC3     H 7780   2.067   0.972  13.959  0.1107 -0.4907  1.5025
  520TMC3    H1 7781   2.339   0.876  14.286  1.5861  0.6130 -0.4604
  520TMC3    H2 7782   2.390   0.691  13.918  0.1152 -1.3384  1.8218
  520TMC3    C7 7783   2.515   0.769  14.138  0.0900 -0.0598  0.6599
  520TMC3    C8 7784   2.177   0.803  13.790 -0.0617 -0.0566 -0.1013
  520TMC3    O1 7785   2.543   0.747  14.254  0.4483 -0.1909  0.0085
  520TMC3    O2 7786   2.255   0.759  13.711  0.4546  0.1042  0.1483
  521MPD2     C 7787   3.432   3.705  17.657 -0.2408  0.2349  0.1937
  521MPD2    C1 7788   3.379   3.770  17.549  0.4366 -0.0071 -1.1702
  521MPD2    C2 7789   3.471   3.820  17.455 -0.4144 -1.1495  0.0272
  521MPD2    C3 7790   3.609   3.822  17.471  0.1958  0.3345 -0.1517
  521MPD2    C4 7791   3.652   3.753  17.583 -0.3093  0.1163  0.4729
  521MPD2    C5 7792   3.567   3.694  17.670  0.0322  0.3875  0.2319
  521MPD2     H 7793   3.431   3.851  17.359 -0.4225  0.4019  0.5229
  521MPD2    H1 7794   3.757   3.731  17.591 -0.0503  1.2877  0.3700
  521MPD2    H2 7795   3.375   3.659  17.737  0.3169 -0.7882 -0.0078
  521MPD2    H3 7796   3.605   3.640   0.004 -1.0381 -1.3624 -0.3993
  521MPD2     N 7797   3.683   3.879  17.366 -0.0070  0.0745 -0.5633
  521MPD2    H5 7798   3.636   3.936  17.297  1.4084  1.9281  0.0168
  521MPD2    N1 7799   3.237   3.767  17.539  0.5342  0.4393  0.8764
  521MPD2    H7 7800   3.179   3.715  17.604 -0.8119 -0.4350 -1.0365
  522TMC3    C1 7801   3.874   3.889  17.222  0.5917  1.0150  0.1832
  522TMC3    C2 7802   4.007   3.883  17.219  0.4382  0.3814  0.1334
  522TMC3    C3 7803   4.062   3.813  17.116 -0.1184  0.2581  0.8598
  522TMC3    C4 7804   3.799   3.853  17.113  0.7059  0.0572  0.6056
  522TMC3    C5 7805   3.857   3.779  17.011 -0.4092  0.3245  0.4815
  522TMC3    C6 7806   3.987   3.763  17.016  0.4765  0.1348  0.0644
  522TMC3     C 7807   3.819   3.852  17.352 -0.2471  0.7634 -0.4417
  522TMC3     O 7808   3.891   3.775  17.416 -0.2750  0.0523  0.4282
  522TMC3     H 7809   4.052   3.892  17.318 -1.9620  1.8100  1.0884
  522TMC3    H1 7810   3.691   3.857  17.121  0.7888  1.4009  1.2364
  522TMC3    H2 7811   4.031   3.715  16.930 -0.5864  0.5725 -0.7219
  522TMC3    C7 7812   3.776   3.719  16.908 -0.1405 -1.1807  0.3436
  522TMC3    C8 7813   4.193   3.760  17.144  0.1794  0.5566  0.0101
  522TMC3    O1 7814   3.825   3.628  16.843  0.0095 -0.0236 -0.1645
  522TMC3    O2 7815   4.225   3.765  17.264 -0.0307 -0.1239 -0.1132
  523MPD2     C 7816   1.201   3.809  10.185  0.8707 -0.8342 -0.6080
  523MPD2    C1 7817   1.091   3.775  10.106  0.2270 -0.2472 -0.3122
  523MPD2    C2 7818   1.055   3.869  10.006  0.2609  0.1909  0.0740
  523MPD2    C3 7819   1.120   3.992   9.995  0.6059  0.9671  0.2035
  523MPD2    C4 7820   1.224   4.025  10.080 -0.6342 -0.0062 -0.6887
  523MPD2    C5 7821   1.268   3.931  10.170 -0.1226  0.0985  0.1626
  523MPD2     H 7822   0.984   3.848   9.926  0.0021  1.3676 -0.0066
  523MPD2    H1 7823   1.288   4.112  10.068 -0.6995 -0.0278 -1.1809
  523MPD2    H2 7824   1.244   3.739  10.256 -0.8040 -0.8462  0.3868
  523MPD2    H3 7825   1.362   3.951  10.221  0.5920 -0.7208 -0.8309
  523MPD2     N 7826   1.081   4.094   9.913 -0.2635  0.0589  0.4020
  523MPD2    H5 7827   1.136   4.179   9.916 -0.4284  0.2947 -2.8276
  523MPD2    N1 7828   1.036   3.644  10.119 -0.0720 -0.3399  0.4618
  523MPD2    H7 7829   1.063   3.587  10.199  0.9210 -1.9130 -0.9979
  524TMC3    C1 7830   0.973   4.230   9.758  0.2360  0.1713  0.0659
  524TMC3    C2 7831   1.091   4.257   9.698  0.5205  0.0066 -0.5250
  524TMC3    C3 7832   1.093   4.375   9.622 -0.4662 -0.0470  0.4614
  524TMC3    C4 7833   0.860   4.308   9.749 -0.7632 -0.5418  0.1276
  524TMC3    C5 7834   0.873   4.425   9.682  0.1265  0.3038  0.3268
  524TMC3    C6 7835   0.982   4.457   9.605  0.0225  0.0927  0.4796
  524TMC3     C 7836   0.964   4.113   9.844  0.0181  0.1206  0.3359
  524TMC3     O 7837   0.865   4.038   9.836 -0.2789 -0.0718  0.6065
  524TMC3     H 7838   1.144   4.169   9.662  3.3672  1.6551 -0.3379
  524TMC3    H1 7839   0.784   4.278   9.820 -1.7607  0.6682 -0.4297
  524TMC3    H2 7840   0.984   4.552   9.552 -1.0524  0.2877  0.7799
  524TMC3    C7 7841   0.779   4.531   9.710 -0.3051  0.6902  0.2171
  524TMC3    C8 7842   1.217   4.404   9.563 -0.1528 -0.2326 -0.0408
  524TMC3    O1 7843   0.685   4.483   9.771  0.2399  0.1386 -0.0824
  524TMC3    O2 7844   1.221   4.488   9.473 -0.3010 -0.0397 -0.3022
  525MPD2     C 7845   3.446   0.744  14.216  0.2409  0.4271 -0.3521
  525MPD2    C1 7846   3.583   0.767  14.220 -0.3915  0.3619  0.3440
  525MPD2    C2 7847   3.631   0.872  14.140 -0.3202  0.0059  0.4657
  525MPD2    C3 7848   3.543   0.957  14.075 -0.0976 -0.2668  0.0014
  525MPD2    C4 7849   3.405   0.933  14.074  0.5654 -0.1935  0.0011
  525MPD2    C5 7850   3.362   0.824  14.143 -0.4232 -0.1955  0.8277
  525MPD2     H 7851   3.737   0.893  14.134  0.3553 -2.9780  2.0448
  525MPD2    H1 7852   3.332   0.998  14.028  1.9064  0.1871 -1.5978
  525MPD2    H2 7853   3.400   0.662  14.272 -0.1785  0.9245  0.0304
  525MPD2    H3 7854   3.259   0.789  14.142  0.0166 -1.3247 -2.2001
  525MPD2     N 7855   3.586   1.077  14.016  0.3020 -0.1385  0.2613
  525MPD2    H5 7856   3.517   1.141  13.978 -0.8255  0.6465  3.6786
  525MPD2    N1 7857   3.669   0.675  14.278  0.0768 -0.6589 -0.3522
  525MPD2    H7 7858   3.767   0.685  14.255 -0.3766  0.4496 -1.8009
  526TMC3    C1 7859   3.737   0.470  14.382 -0.1115  0.5974  0.0649
  526TMC3    C2 7860   3.747   0.405  14.508 -0.8085 -0.7995  0.5302
  526TMC3    C3 7861   3.859   0.338  14.533  0.2531 -0.7526 -0.1860
  526TMC3    C4 7862   3.834   0.456  14.284 -0.4831 -0.6125  0.1360
  526TMC3    C5 7863   3.939   0.377  14.322 -0.3499 -0.8188  0.1245
  526TMC3    C6 7864   3.959   0.322  14.441 -0.8151 -0.2038  0.4636
  526TMC3     C 7865   3.640   0.580  14.373 -0.9579 -0.2885  0.6639
  526TMC3     O 7866   3.538   0.589  14.444  0.4429 -0.1527  0.0612
  526TMC3     H 7867   3.684   0.435  14.590 -0.4518 -2.2646  1.3482
  526TMC3    H1 7868   3.821   0.506  14.189 -0.1197 -0.6237  0.0816
  526TMC3    H2 7869   4.052   0.277  14.474 -1.1785 -1.2355  0.0580
  526TMC3    C7 7870   4.051   0.377  14.228  0.0549 -0.2316  0.8471
  526TMC3    C8 7871   3.902   0.373  14.665  0.3689 -0.2934 -0.1261
  526TMC3    O1 7872   4.056   0.465  14.144 -0.0538  1.0268  0.2947
  526TMC3    O2 7873   3.889   0.490  14.699  0.0072  0.6037 -0.4856
  527MPD2     C 7874   1.616   3.354   1.356  0.6014  0.5030  1.0272
  527MPD2    C1 7875   1.636   3.306   1.228  0.4589  0.7594  0.7863
  527MPD2    C2 7876   1.755   3.245   1.197  0.0966 -0.1250  0.5095
  527MPD2    C3 7877   1.850   3.224   1.295  0.1124 -0.3415 -0.2514
  527MPD2    C4 7878   1.832   3.284   1.425  0.3931  0.2143 -0.3276
  527MPD2    C5 7879   1.709   3.346   1.459  0.1885 -0.5315  0.3823
  527MPD2     H 7880   1.764   3.219   1.092 -0.0253 -1.7471  0.9066
  527MPD2    H1 7881   1.898   3.278   1.511 -0.2814  2.2294  0.3188
  527MPD2    H2 7882   1.524   3.405   1.382  1.7333  3.0012  0.0695
  527MPD2    H3 7883   1.679   3.388   1.554  0.3332 -0.3995  0.3707
  527MPD2     N 7884   1.978   3.177   1.251 -0.3614 -0.0470 -0.0185
  527MPD2    H5 7885   1.994   3.180   1.151  1.0758 -1.9553  0.1770
  527MPD2    N1 7886   1.540   3.311   1.122 -0.2339 -0.3344 -0.3177
  527MPD2    H7 7887   1.570   3.275   1.032  0.9566 -1.6645  0.6021
  528TMC3    C1 7888   1.349   3.395   1.014  0.3423  0.1214  0.0829
  528TMC3    C2 7889   1.406   3.365   0.892 -0.2127  0.6524 -0.3635
  528TMC3    C3 7890   1.315   3.378   0.789 -0.5263 -0.2912  0.6827
  528TMC3    C4 7891   1.228   3.459   1.028  0.0174 -0.1575  0.1137
  528TMC3    C5 7892   1.170   3.503   0.916  0.5244  0.2940 -0.1284
  528TMC3    C6 7893   1.196   3.442   0.797  1.3133  0.4914  0.0342
  528TMC3     C 7894   1.415   3.352   1.136 -0.5835 -1.0083 -0.4476
  528TMC3     O 7895   1.353   3.363   1.244  0.1433 -0.1572  0.8310
  528TMC3     H 7896   1.505   3.321   0.884  0.7305  3.2869 -2.8332
  528TMC3    H1 7897   1.195   3.480   1.129  1.1703  1.5212  0.1514
  528TMC3    H2 7898   1.134   3.472   0.713  0.2971 -0.3039  0.5024
  528TMC3    C7 7899   1.045   3.578   0.929 -0.2804 -0.3417  0.2600
  528TMC3    C8 7900   1.363   3.316   0.658  0.0261 -0.2316  0.1363
  528TMC3    O1 7901   0.972   3.594   0.830 -0.2545  0.1409  0.3277
  528TMC3    O2 7902   1.480   3.313   0.636 -0.1918 -0.5042  0.0869
  529MPD2     C 7903   4.570   0.979  17.449 -0.4504 -0.4034 -0.6441
  529MPD2    C1 7904   4.574   1.065  17.551 -0.7634  0.2806 -0.2783
  529MPD2    C2 7905   4.564   1.198  17.530 -0.2495 -0.1458 -0.3498
  529MPD2    C3 7906   4.516   1.237  17.397 -0.1600 -0.3803 -0.2079
  529MPD2    C4 7907   4.514   1.144  17.297  0.2977 -0.0608  0.8058
  529MPD2    C5 7908   4.543   1.015  17.320  0.4116 -0.2556  0.1810
  529MPD2     H 7909   4.570   1.269  17.612  2.9128 -0.0142 -0.6929
  529MPD2    H1 7910   4.481   1.177  17.199  0.9037  0.4920  0.7839
  529MPD2    H2 7911   4.581   0.871  17.453  0.6781 -0.3177 -1.0946
  529MPD2    H3 7912   4.555   0.944  17.239  0.7538  0.9645 -0.8447
  529MPD2     N 7913   4.466   1.362  17.371 -0.2367  0.2008 -0.6158
  529MPD2    H5 7914   4.399   1.374  17.296 -2.5594  0.6068  1.5186
  529MPD2    N1 7915   4.593   1.017  17.682 -0.3436 -0.2213 -0.1893
  529MPD2    H7 7916   4.581   1.089  17.753 -2.5300  1.8638 -2.6700
  530TMC3    C1 7917   4.615   0.870   0.109  0.1414  0.3542  0.2955
  530TMC3    C2 7918   4.621   0.976   0.191  0.2277 -0.5495  0.4602
  530TMC3    C3 7919   4.602   0.969   0.326 -0.1317 -0.0190  0.6577
  530TMC3    C4 7920   4.577   0.756   0.173 -0.3969  0.7211 -0.3611
  530TMC3    C5 7921   4.555   0.744   0.310 -0.0954  0.4362 -0.2461
  530TMC3    C6 7922   4.578   0.852   0.390  0.0028 -0.2474  0.1358
  530TMC3     C 7923   4.596   0.887  17.721  0.1034 -0.0848  0.1568
  530TMC3     O 7924   4.599   0.779  17.662 -0.4496  0.2746  0.2995
  530TMC3     H 7925   4.643   1.077   0.158 -2.0480 -0.3276 -0.3699
  530TMC3    H1 7926   4.560   0.665   0.117 -0.4078  1.4516 -1.5341
  530TMC3    H2 7927   4.557   0.856   0.496 -0.9089  1.3750 -0.0995
  530TMC3    C7 7928   4.506   0.615   0.357 -1.4070 -0.0080  0.1808
  530TMC3    C8 7929   4.625   1.087   0.409  0.6856  0.3090  0.4996
  530TMC3    O1 7930   4.507   0.515   0.284  0.3820 -0.1999 -0.3287
  530TMC3    O2 7931   4.607   1.197   0.363  0.2463  0.3362  0.7731
  531MPD2     C 7932   3.406   4.424  13.154 -0.3082 -0.0202  0.3320
  531MPD2    C1 7933   3.275   4.375  13.179 -1.0881  0.5895 -0.2571
  531MPD2    C2 7934   3.222   4.286  13.087 -0.7512  0.4989  0.1083
  531MPD2    C3 7935   3.289   4.247  12.971 -0.3655 -0.3622 -0.6681
  531MPD2    C4 7936   3.413   4.288  12.951  0.3762 -0.0568 -0.0340
  531MPD2    C5 7937   3.473   4.374  13.044 -0.3753 -0.3295  0.1305
  531MPD2     H 7938   3.121   4.247  13.100 -0.0312 -0.7054  2.0359
  531MPD2    H1 7939   3.474   4.257  12.866  1.8363 -0.7135  1.2632
  531MPD2    H2 7940   3.453   4.498  13.218  0.2904  1.3577 -1.6761
  531MPD2    H3 7941   3.574   4.413  13.032 -0.1842 -1.0908 -0.7773
  531MPD2     N 7942   3.237   4.148  12.879  0.6740 -0.0025  0.2930
  531MPD2    H5 7943   3.301   4.113  12.809  0.2881  0.7607 -0.4447
  531MPD2    N1 7944   3.203   4.435  13.281 -0.1938 -0.4678  0.6905
  531MPD2    H7 7945   3.240   4.512  13.335  0.9722 -0.1471 -0.5885
  532TMC3    C1 7946   3.015   4.492  13.405  0.6545 -0.7256 -0.0080
  532TMC3    C2 7947   2.897   4.518  13.345 -0.1277 -0.3552  0.1019
  532TMC3    C3 7948   2.787   4.514  13.425  0.4347 -0.1128 -0.4845
  532TMC3    C4 7949   3.044   4.481  13.538  0.1081 -0.2667 -0.1741
  532TMC3    C5 7950   2.931   4.480  13.618  0.4264  0.3138  0.3832
  532TMC3    C6 7951   2.802   4.487  13.561 -0.2084 -0.0605  0.3470
  532TMC3     C 7952   3.077   4.396  13.321 -0.3520  0.2863 -0.0562
  532TMC3     O 7953   3.012   4.303  13.277  0.2844  0.0310  0.6894
  532TMC3     H 7954   2.879   4.521  13.238 -0.4974 -0.6880  0.1514
  532TMC3    H1 7955   3.144   4.469  13.578  0.5166 -0.3645 -1.2134
  532TMC3    H2 7956   2.718   4.482  13.629 -1.3059 -1.4905 -1.0967
  532TMC3    C7 7957   2.936   4.413  13.754  0.7465  0.0366 -0.0167
  532TMC3    C8 7958   2.679   4.450  13.353  0.2431  0.0051 -0.1918
  532TMC3    O1 7959   2.837   4.353  13.789 -0.3068 -0.1018 -0.0431
  532TMC3    O2 7960   2.563   4.472  13.379  0.1632 -0.3388 -0.4771
  533TMC3    C1 7961   3.699   1.258  13.961 -0.2001 -0.4866  0.8928
  533TMC3    C2 7962   3.800   1.302  13.886  0.0553 -0.1546  0.6834
  533TMC3    C3 7963   3.809   1.433  13.868  0.2007  0.0973 -0.2315
  533TMC3    C4 7964   3.622   1.341  14.039  0.3326  0.1756 -0.0637
  533TMC3    C5 7965   3.650   1.476  14.031 -0.5722 -0.3388 -0.0241
  533TMC3    C6 7966   3.728   1.525  13.934  0.6514  0.3660  0.2166
  533TMC3     C 7967   3.711   1.125  14.005  0.8938  0.1140  0.0008
  533TMC3     O 7968   3.826   1.076  14.022  0.6582 -0.5959  0.2116
  533TMC3     H 7969   3.859   1.232  13.829  0.0390  0.3757  0.0145
  533TMC3    H1 7970   3.563   1.305  14.122  0.9339 -2.1679 -0.6297
  533TMC3    H2 7971   3.758   1.629  13.934  0.9602  0.2773 -0.2049
  533TMC3    C7 7972   3.694   1.542  14.151  0.8096  0.1333 -0.0940
  533TMC3    C8 7973   3.935   1.490  13.822 -0.1274 -0.4736  0.7973
  533TMC3    O1 7974   3.693   1.664  14.161  0.2599  0.6041 -0.4317
  533TMC3    O2 7975   3.923   1.582  13.740 -0.2117 -0.1394  0.7833
  534MPD2     C 7976   2.531   1.660   1.390  0.0424  0.4493 -0.3363
  534MPD2    C1 7977   2.440   1.763   1.414  0.5297  0.3652 -0.2053
  534MPD2    C2 7978   2.321   1.768   1.335 -1.1976  0.2388 -0.1991
  534MPD2    C3 7979   2.289   1.666   1.255 -0.5376 -0.1542  0.4450
  534MPD2    C4 7980   2.373   1.561   1.246  0.0607 -0.4295  0.4932
  534MPD2    C5 7981   2.490   1.557   1.311  0.2045  0.1914  0.5661
  534MPD2     H 7982   2.261   1.858   1.342 -0.2859  0.8374 -0.0773
  534MPD2    H1 7983   2.359   1.475   1.182  2.5919  0.1420 -0.7962
  534MPD2    H2 7984   2.624   1.638   1.442 -1.4366 -2.0226  1.2088
  534MPD2    H3 7985   2.562   1.479   1.291  0.3415  0.2522  0.8189
  534MPD2     N 7986   2.164   1.653   1.179  0.2588 -0.3063  0.0359
  534MPD2    H5 7987   2.158   1.570   1.121 -0.2041  1.3973 -2.3476
  534MPD2    N1 7988   2.485   1.879   1.498  0.7802 -0.1605 -0.4631
  534MPD2    H7 7989   2.412   1.946   1.518 -1.1471 -3.0597  2.3796
  535TMC3    C1 7990   1.947   1.707   1.109  0.3699 -0.0462  0.7854
  535TMC3    C2 7991   1.824   1.739   1.162  0.3409 -1.1102 -0.1077
  535TMC3    C3 7992   1.713   1.709   1.084 -0.0432 -0.3598  0.7680
  535TMC3    C4 7993   1.966   1.665   0.983 -0.1476 -0.5721 -0.2083
  535TMC3    C5 7994   1.852   1.634   0.913 -0.2803 -0.2990 -0.2775
  535TMC3    C6 7995   1.727   1.635   0.966 -0.3661  0.6067 -0.2066
  535TMC3     C 7996   2.065   1.749   1.180 -0.3608  0.0190  0.0862
  535TMC3     O 7997   2.053   1.850   1.247  0.3432 -0.3561  0.7559
  535TMC3     H 7998   1.815   1.775   1.264  2.9258 -0.3568 -0.1243
  535TMC3    H1 7999   2.067   1.652   0.944  0.9040  1.1054  1.9666
  535TMC3    H2 8000   1.640   1.604   0.911  0.4312 -0.0256 -1.1138
  535TMC3    C7 8001   1.851   1.687   0.781  0.4125  0.0934  0.4702
  535TMC3    C8 8002   1.584   1.768   1.099  0.1794 -0.0365  0.4064
  535TMC3    O1 8003   1.790   1.628   0.692  0.4146  0.2196 -0.4607
  535TMC3    O2 8004   1.511   1.750   1.006 -0.1235  0.1032 -0.4949
  536MPD2     C 8005   0.944   0.374  15.686 -0.6040  0.3487  0.1285
  536MPD2    C1 8006   0.818   0.325  15.698  0.0936  1.5759 -0.8899
  536MPD2    C2 8007   0.734   0.341  15.590 -0.1208 -0.3864  0.5089
  536MPD2    C3 8008   0.785   0.378  15.467 -0.1862  0.3209  0.1910
  536MPD2    C4 8009   0.918   0.405  15.459  0.5313  0.2194  0.1212
  536MPD2    C5 8010   1.000   0.405  15.570  0.3305 -0.4050  0.2232
  536MPD2     H 8011   0.629   0.317  15.598  0.0013 -0.1801  2.6203
  536MPD2    H1 8012   0.973   0.430  15.369 -0.4263  0.3533 -0.4241
  536MPD2    H2 8013   1.010   0.361  15.772 -2.2135 -1.1911  1.1296
  536MPD2    H3 8014   1.102   0.440  15.561  0.7116 -1.7994 -0.8081
  536MPD2     N 8015   0.697   0.387  15.356  0.6431  0.2282  0.6246
  536MPD2    H5 8016   0.599   0.365  15.371  0.1327  1.8212 -0.4365
  536MPD2    N1 8017   0.782   0.267  15.820 -0.3384 -0.6733 -0.9267
  536MPD2    H7 8018   0.862   0.265  15.883 -0.3976  2.7623 -0.7642
  537TMC3    C1 8019   0.637   0.183  15.986 -0.1143  0.5715 -1.0662
  537TMC3    C2 8020   0.738   0.172  16.079  1.0417 -1.0327  0.1167
  537TMC3    C3 8021   0.714   0.098  16.194  0.1068 -0.2786 -0.0339
  537TMC3    C4 8022   0.514   0.130  16.013 -0.5913  0.4304  0.0757
  537TMC3    C5 8023   0.493   0.065  16.126  0.1848 -0.3186  0.2938
  537TMC3    C6 8024   0.589   0.041  16.219  0.6109 -0.0972  0.1109
  537TMC3     C 8025   0.655   0.240  15.851 -0.2915  0.2862  0.7351
  537TMC3     O 8026   0.550   0.246  15.788 -0.8817 -0.1107  0.1596
  537TMC3     H 8027   0.832   0.226  16.079  1.8395 -2.3399 -3.4644
  537TMC3    H1 8028   0.434   0.160  15.947  0.1877  2.8906  0.2318
  537TMC3    H2 8029   0.564   4.738  16.316 -1.8701  0.3510 -0.3269
  537TMC3    C7 8030   0.354   0.030  16.161 -0.2105  0.4587 -0.2669
  537TMC3    C8 8031   0.811   0.109  16.304  0.6611 -0.6587 -0.6859
  537TMC3    O1 8032   0.268   0.068  16.088 -0.2103  0.3034 -0.3962
  537TMC3    O2 8033   0.888   0.201  16.311  0.0906  0.2397 -0.2662
  538TMC3    C1 8034   1.882   3.549  10.923  0.4364  0.2333 -1.3868
  538TMC3    C2 8035   1.949   3.471  10.834  0.8100  0.3303 -0.4786
  538TMC3    C3 8036   1.873   3.405  10.732 -0.5177 -0.0166  0.0134
  538TMC3    C4 8037   1.743   3.565  10.909 -0.2583  0.2341 -0.5629
  538TMC3    C5 8038   1.675   3.504  10.811 -0.4525 -0.8266  0.6353
  538TMC3    C6 8039   1.739   3.423  10.720  1.0531  0.4202 -0.4411
  538TMC3     C 8040   1.957   3.631  11.019 -0.2700  0.7997 -0.9344
  538TMC3     O 8041   1.893   3.724  11.065 -0.2560  0.3014  0.5768
  538TMC3     H 8042   2.057   3.464  10.831  0.7079 -0.9725 -0.9934
  538TMC3    H1 8043   1.691   3.644  10.962 -0.5184 -0.5041  0.2862
  538TMC3    H2 8044   1.674   3.386  10.641 -0.0115  2.7356 -0.6694
  538TMC3    C7 8045   1.579   3.588  10.747  0.5210  0.3183  0.4590
  538TMC3    C8 8046   1.936   3.366  10.609  0.2271  0.1522 -0.3251
  538TMC3    O1 8047   1.482   3.532  10.697 -0.2347  0.2952  0.4890
  538TMC3    O2 8048   1.887   3.275  10.542 -0.4580 -0.2219  0.0974
  539MPD2     C 8049   1.123   2.892  11.775  0.1997 -0.2573 -0.7724
  539MPD2    C1 8050   1.198   2.930  11.667 -0.6532 -0.1034 -0.4950
  539MPD2    C2 8051   1.262   3.051  11.675 -0.0492 -0.1372 -0.0671
  539MPD2    C3 8052   1.249   3.127  11.787  0.2866 -0.0951 -0.5367
  539MPD2    C4 8053   1.174   3.094  11.895  0.0784 -0.0612  0.3272
  539MPD2    C5 8054   1.113   2.972  11.882  0.6767 -0.5617 -0.3980
  539MPD2     H 8055   1.329   3.087  11.596  1.0882  0.3959  1.1383
  539MPD2    H1 8056   1.157   3.145  11.988 -1.1745 -0.6416  0.4178
  539MPD2    H2 8057   1.070   2.798  11.778 -1.7063  0.8146 -1.0867
  539MPD2    H3 8058   1.050   2.931  11.960  1.4332  1.8046  1.4550
  539MPD2     N 8059   1.304   3.252  11.798 -1.1144 -0.5398  0.5278
  539MPD2    H5 8060   1.269   3.303  11.879  2.1552 -0.8181  2.1034
  539MPD2    N1 8061   1.205   2.856  11.548  0.6069 -0.1210  0.5397
  539MPD2    H7 8062   1.266   2.897  11.477 -0.1439  0.9987  0.5331
  540TMC3    C1 8063   1.386   3.455  11.716  0.3789 -0.2127  0.3342
  540TMC3    C2 8064   1.470   3.519  11.634 -1.2698 -0.3884 -0.8807
  540TMC3    C3 8065   1.449   3.645  11.598  0.3072  0.2905 -0.3552
  540TMC3    C4 8066   1.288   3.529  11.774  0.1311 -0.3165 -0.2821
  540TMC3    C5 8067   1.273   3.662  11.754  0.1516  0.3406 -0.6533
  540TMC3    C6 8068   1.351   3.721  11.657  0.7179  0.0605  0.4145
  540TMC3     C 8069   1.386   3.310  11.704 -0.0118 -0.4304 -0.6092
  540TMC3     O 8070   1.472   3.254  11.636 -0.2703 -0.0088  0.6577
  540TMC3     H 8071   1.546   3.456  11.589  0.8655  1.3659  0.2518
  540TMC3    H1 8072   1.223   3.479  11.845 -0.4917  1.9329  0.6955
  540TMC3    H2 8073   1.333   3.825  11.629 -1.5215 -0.4126  0.0584
  540TMC3    C7 8074   1.151   3.721  11.811  0.9393 -0.7640  0.4529
  540TMC3    C8 8075   1.477   3.672  11.465  0.0460 -0.9555  0.1040
  540TMC3    O1 8076   1.076   3.652  11.881 -0.2629  0.0653 -0.0467
  540TMC3    O2 8077   1.582   3.627  11.419  0.1437  0.3040 -0.3438
  541MPD2     C 8078   4.031   4.609  13.100  0.4930 -0.3182  0.4838
  541MPD2    C1 8079   4.067   4.534  12.989 -0.6134  0.3546  0.4686
  541MPD2    C2 8080   4.101   4.596  12.865 -0.0415  0.6234  0.2841
  541MPD2    C3 8081   4.091   4.729  12.864  0.4447 -0.2353 -0.3912
  541MPD2    C4 8082   4.055   0.058  12.971  0.6662  0.5283  0.3158
  541MPD2    C5 8083   4.024   0.003  13.091 -0.0111  0.3617 -0.0357
  541MPD2     H 8084   4.133   4.545  12.775  1.3722 -0.5855  1.4724
  541MPD2    H1 8085   4.050   0.167  12.972 -1.6777  0.4124  0.4509
  541MPD2    H2 8086   4.009   4.563  13.196  0.8778 -0.7035  0.3886
  541MPD2    H3 8087   4.015   0.068  13.177  1.3009 -0.3076  0.5929
  541MPD2     N 8088   4.122   0.062  12.747  0.3296  0.1689  0.1967
  541MPD2    H5 8089   4.116   0.162  12.759 -0.2931  0.1809 -0.2138
  541MPD2    N1 8090   4.067   4.395  13.012 -0.0174 -0.0217 -0.2927
  541MPD2    H7 8091   4.039   4.368  13.106 -0.2907 -0.7204 -0.5724
  542TMC3    C1 8092   4.190   0.105  12.509 -0.0911 -0.1540 -0.6358
  542TMC3    C2 8093   4.204   0.051  12.388  0.9514 -0.2985 -0.5297
  542TMC3    C3 8094   4.245   0.124  12.281 -0.3622  0.3556  0.4400
  542TMC3    C4 8095   4.203   0.238  12.532  0.2482  0.1077 -0.7465
  542TMC3    C5 8096   4.231   0.317  12.426 -0.2919 -0.7588  1.2041
  542TMC3    C6 8097   4.258   0.257  12.303 -0.2869 -0.2226  0.1286
  542TMC3     C 8098   4.160   0.011  12.620  0.2205 -0.5884 -0.1828
  542TMC3     O 8099   4.144   4.633  12.579  0.6077  0.1727 -0.4190
  542TMC3     H 8100   4.170   4.689  12.371 -0.7469 -0.0023  1.1413
  542TMC3    H1 8101   4.191   0.275  12.633 -2.3435 -2.5779 -0.0659
  542TMC3    H2 8102   4.307   0.308  12.221 -2.1154  1.5488  0.1428
  542TMC3    C7 8103   4.244   0.464  12.443 -0.4452  0.4670  0.1010
  542TMC3    C8 8104   4.236   0.068  12.149 -0.0703 -0.0117  0.5921
  542TMC3    O1 8105   4.242   0.504  12.559 -0.1235 -0.1909 -0.1268
  542TMC3    O2 8106   4.212   0.147  12.057  0.4060  0.0756  0.2821
  543TMC3    C1 8107   4.086   0.744  16.781 -0.1569 -0.0553  0.2271
  543TMC3    C2 8108   4.081   0.614  16.823  0.8616 -0.7083  0.1804
  543TMC3    C3 8109   4.010   0.587  16.941  0.4296 -0.2029  0.6703
  543TMC3    C4 8110   4.043   0.848  16.855 -0.1134 -0.1504  0.6426
  543TMC3    C5 8111   3.981   0.817  16.972  0.0756 -0.3333 -0.2381
  543TMC3    C6 8112   3.955   0.691  17.013 -0.7281 -0.0849 -0.6020
  543TMC3     C 8113   4.137   0.764  16.648  0.3245  0.0656  0.4530
  543TMC3     O 8114   4.211   0.676  16.600  0.0544 -0.3764 -0.2072
  543TMC3     H 8115   4.142   0.536  16.778  0.5092 -2.5747  2.9585
  543TMC3    H1 8116   4.062   0.949  16.819 -0.6683 -0.4677 -0.5122
  543TMC3    H2 8117   3.891   0.675  17.099  1.3226  0.4719  1.0286
  543TMC3    C7 8118   3.918   0.926  17.055 -0.3057  1.2031 -0.2618
  543TMC3    C8 8119   3.987   0.447  16.980  0.5280 -1.2087 -0.0135
  543TMC3    O1 8120   3.890   0.891  17.166 -0.1105 -0.2071 -0.1894
  543TMC3    O2 8121   4.029   0.363  16.905  0.1108 -0.0683 -0.1504
  544MPD2     C 8122   3.722   0.055  17.173 -0.1648 -0.4268  0.3190
  544MPD2    C1 8123   3.777   0.069  17.047 -0.1568  0.2437  0.0181
  544MPD2    C2 8124   3.848   0.192  17.019  0.0181 -0.2572  0.2387
  544MPD2    C3 8125   3.848   0.298  17.111 -0.4711  0.4213 -0.4701
  544MPD2    C4 8126   3.802   0.281  17.235 -0.1051  0.0359 -0.0364
  544MPD2    C5 8127   3.739   0.164  17.264 -0.0860 -0.5474 -0.3999
  544MPD2     H 8128   3.885   0.206  16.919 -0.0046  0.5764  0.3502
  544MPD2    H1 8129   3.793   0.352  17.316  2.1682  2.7132 -2.1315
  544MPD2    H2 8130   3.673   4.701  17.202  0.4625 -0.9734 -0.3639
  544MPD2    H3 8131   3.704   0.151  17.366  0.1870 -0.6960 -0.3242
  544MPD2     N 8132   3.901   0.427  17.085 -0.9244 -0.7794  0.4178
  544MPD2    H5 8133   3.887   0.506  17.147 -2.1744  0.2118 -1.1358
  544MPD2    N1 8134   3.766   4.701  16.955  0.3165  0.4368  0.3202
  544MPD2    H7 8135   3.728   4.613  16.989  0.4050  0.6821  1.0316
  545TMC3    C1 8136   3.801   4.581  16.746  0.6528 -0.1516 -0.2922
  545TMC3    C2 8137   3.766   4.591  16.615  0.2864  0.4750  0.6389
  545TMC3    C3 8138   3.830   4.510  16.522  0.3347 -0.0901 -0.1528
  545TMC3    C4 8139   3.898   4.495  16.786 -0.2484 -0.4920  0.1860
  545TMC3    C5 8140   3.960   4.418  16.697 -1.0294  0.1035  0.6339
  545TMC3    C6 8141   3.923   4.419  16.561 -0.4146  0.1686 -0.1774
  545TMC3     C 8142   3.790   4.713  16.816  0.5144  0.1036  0.8110
  545TMC3     O 8143   3.837   0.064  16.753  0.1955  0.0630  0.5082
  545TMC3     H 8144   3.693   4.664  16.584  1.7497  1.1224 -1.2583
  545TMC3    H1 8145   3.906   4.480  16.893 -0.4767  2.6436  0.6505
  545TMC3    H2 8146   3.984   4.365  16.489 -1.2639 -0.0574 -0.7233
  545TMC3    C7 8147   4.059   4.325  16.737 -0.3313 -0.2831  0.4302
  545TMC3    C8 8148   3.797   4.526  16.378  0.9202 -0.2992  0.1907
  545TMC3    O1 8149   4.072   4.228  16.664  0.2021  0.0132  0.2879
  545TMC3    O2 8150   3.743   4.631  16.346  0.6450 -0.3254  0.1073
  546MPD2     C 8151   0.855   0.409  17.031 -0.1206  0.3686 -0.2499
  546MPD2    C1 8152   0.841   0.468  16.906 -0.1292  0.0412  0.5018
  546MPD2    C2 8153   0.880   0.600  16.887  0.3659 -0.2186 -0.3982
  546MPD2    C3 8154   0.915   0.666  17.003 -0.4146  0.7902  0.3377
  546MPD2    C4 8155   0.914   0.613  17.130 -0.4242  0.0823  0.6180
  546MPD2    C5 8156   0.887   0.482  17.139  0.2908 -0.1856 -0.5648
  546MPD2     H 8157   0.868   0.645  16.789  0.3692  0.6168 -0.0201
  546MPD2    H1 8158   0.933   0.677  17.215 -0.2934 -1.4863  1.7624
  546MPD2    H2 8159   0.831   0.305  17.051 -2.0028  0.7778 -0.3608
  546MPD2    H3 8160   0.889   0.437  17.238  1.0172  1.7091  0.2798
  546MPD2     N 8161   0.957   0.804  16.988 -0.4724  0.1577  0.4792
  546MPD2    H5 8162   0.952   0.857  17.074 -0.6656  1.9313 -0.6335
  546MPD2    N1 8163   0.779   0.390  16.803  0.6065 -0.2188 -0.0849
  546MPD2    H7 8164   0.734   0.310  16.846  0.2424 -0.6372 -1.2453
  547TMC3    C1 8165   0.648   0.337  16.606  0.5768  0.0384  0.0076
  547TMC3    C2 8166   0.593   0.386  16.494  0.0150  0.2569 -1.2485
  547TMC3    C3 8167   0.487   0.322  16.434 -0.0263 -0.1414 -0.2607
  547TMC3    C4 8168   0.606   0.218  16.661  0.6793 -0.0469  0.3418
  547TMC3    C5 8169   0.490   0.161  16.608  0.4762  0.1135  0.5570
  547TMC3    C6 8170   0.430   0.212  16.489 -0.2063 -0.2334 -0.0156
  547TMC3     C 8171   0.746   0.422  16.679 -0.2926 -0.2324 -0.0228
  547TMC3     O 8172   0.766   0.533  16.625  0.0940 -0.1572  0.2055
  547TMC3     H 8173   0.624   0.484  16.463  0.8098  0.3463 -0.1775
  547TMC3    H1 8174   0.659   0.172  16.744  0.0504 -0.6872  0.3862
  547TMC3    H2 8175   0.337   0.169  16.453  0.9722 -1.3811 -1.6711
  547TMC3    C7 8176   0.405   0.125  16.717  0.6449  0.0195 -0.1463
  547TMC3    C8 8177   0.420   0.384  16.322  0.1261  0.2164  0.2822
  547TMC3    O1 8178   0.456   0.075  16.812  0.3630  0.4271 -0.3677
  547TMC3    O2 8179   0.307   0.342  16.299  0.7947  0.1921 -0.0194
  548MPD2     C 8180   0.223   1.317  12.681  0.9773 -0.5167 -0.4908
  548MPD2    C1 8181   0.143   1.234  12.757 -0.3653 -0.1069  0.9177
  548MPD2    C2 8182   0.160   1.096  12.746 -0.2852  0.0067  0.3825
  548MPD2    C3 8183   0.248   1.047  12.661  0.4832  0.5968  0.7021
  548MPD2    C4 8184   0.337   1.138  12.598 -0.2814  0.6187 -0.0592
  548MPD2    C5 8185   0.326   1.275  12.606 -0.6772  0.4488 -0.2863
  548MPD2     H 8186   0.094   1.027  12.798  0.8297 -1.3474 -0.0083
  548MPD2    H1 8187   0.423   1.100  12.543  0.5031  1.0941  0.8351
  548MPD2    H2 8188   0.205   1.424  12.685 -0.1994 -0.7067 -0.5639
  548MPD2    H3 8189   0.398   1.339  12.557 -2.2520  0.8846 -2.0487
  548MPD2     N 8190   0.266   0.907  12.660  0.2772 -0.0991  0.0956
  548MPD2    H5 8191   0.200   0.852  12.713  1.5558 -0.9827  0.7489
  548MPD2    N1 8192   0.044   1.298  12.835 -0.6689  0.1122  0.1633
  548MPD2    H7 8193   0.016   1.394  12.817  1.6900  0.5504 -1.0369
  549TMC3    C1 8194   4.593   1.304  12.990  0.3511  0.3639  0.0848
  549TMC3    C2 8195   4.518   1.377  12.901 -0.0572  0.2267 -0.0571
  549TMC3    C3 8196   4.390   1.411  12.948 -0.0781 -0.8777  0.1748
  549TMC3    C4 8197   4.555   1.259  13.115  0.3089 -0.5680 -0.1480
  549TMC3    C5 8198   4.425   1.275  13.149 -0.2693  0.7950  0.1233
  549TMC3    C6 8199   4.340   1.344  13.059  0.1256  0.4545  0.3722
  549TMC3     C 8200   4.707   1.230  12.931  0.4387 -0.6608  1.1009
  549TMC3     O 8201   4.727   1.118  12.975  0.0292 -0.2616 -0.1011
  549TMC3     H 8202   4.558   1.401  12.804  1.7953 -4.4969 -0.4452
  549TMC3    H1 8203   4.621   1.209  13.185  3.0508  2.9039 -0.3004
  549TMC3    H2 8204   4.232   1.346  13.073  0.4124 -2.2078  3.0568
  549TMC3    C7 8205   4.362   1.151  13.205 -0.3163  0.4737 -0.6409
  549TMC3    C8 8206   4.293   1.427  12.848  0.2312 -0.7917 -0.4307
  549TMC3    O1 8207   4.427   1.075  13.277 -0.0750  0.3698  0.2690
  549TMC3    O2 8208   4.206   1.345  12.836  0.2602 -0.1754  0.1856
  550TMC3    C1 8209   3.914   4.399  11.863 -0.9415  0.3593 -0.7753
  550TMC3    C2 8210   3.809   4.448  11.938 -0.2676  0.6851  0.4477
  550TMC3    C3 8211   3.728   4.545  11.886  0.1140  0.7417  0.8760
  550TMC3    C4 8212   3.919   4.433  11.733 -0.3160  0.2926 -0.1826
  550TMC3    C5 8213   3.829   4.518  11.681 -0.3173  0.3254  0.1004
  550TMC3    C6 8214   3.734   4.581  11.753  0.3430  0.4752  0.3342
  550TMC3     C 8215   3.948   4.260  11.900  0.4460  0.3020 -0.4019
  550TMC3     O 8216   3.986   4.220  12.009 -0.5746 -0.2782 -0.3828
  550TMC3     H 8217   3.794   4.403  12.035 -1.5381  2.4426  1.0686
  550TMC3    H1 8218   3.998   4.403  11.666  0.2222  0.0511  0.5592
  550TMC3    H2 8219   3.668   4.654  11.708  1.9134  1.4217 -0.4522
  550TMC3    C7 8220   3.783   4.467  11.552 -0.2572  0.2521  0.5172
  550TMC3    C8 8221   3.618   4.610  11.963  0.3857  0.2388 -0.4683
  550TMC3    O1 8222   3.841   4.490  11.449 -0.7148 -0.0845  0.3240
  550TMC3    O2 8223   3.539   4.685  11.905 -0.0780 -0.1318  0.2200
  551TMC3    C1 8224   1.450   2.207  13.399 -0.1551  0.1868 -0.6720
  551TMC3    C2 8225   1.521   2.195  13.285 -0.1727 -0.0596 -0.0217
  551TMC3    C3 8226   1.642   2.261  13.284  0.2051 -0.9139  0.1285
  551TMC3    C4 8227   1.503   2.268  13.509 -0.4790  0.4251 -0.2122
  551TMC3    C5 8228   1.623   2.324  13.501 -0.7862  0.2555  0.5300
  551TMC3    C6 8229   1.694   2.323  13.388 -0.3062  0.5365  0.1355
  551TMC3     C 8230   1.310   2.238  13.381  0.4946  0.0277 -0.0986
  551TMC3     O 8231   1.276   2.341  13.440  0.0669 -0.1709  0.2621
  551TMC3     H 8232   1.484   2.143  13.198 -1.2555 -0.1613  0.4924
  551TMC3    H1 8233   1.440   2.278  13.596 -0.1004 -0.0975  0.1196
  551TMC3    H2 8234   1.796   2.361  13.381 -0.7684  1.1447 -3.2694
  551TMC3    C7 8235   1.681   2.368  13.622  0.5202  0.3668  0.2200
  551TMC3    C8 8236   1.701   2.275  13.157 -0.8243 -0.1748  0.7486
  551TMC3    O1 8237   1.698   2.294  13.715 -0.2898 -0.0182 -0.2426
  551TMC3    O2 8238   1.696   2.179  13.081 -0.2250  0.1470  0.1312
  552MPD2     C 8239   3.085   4.055  14.502 -0.1819 -0.1979 -0.4262
  552MPD2    C1 8240   3.201   3.992  14.458  0.2456 -0.1820  0.3519
  552MPD2    C2 8241   3.321   4.028  14.509  0.5605  0.9878  0.2400
  552MPD2    C3 8242   3.322   4.122  14.611  0.6557 -0.1915  0.7613
  552MPD2    C4 8243   3.207   4.184  14.655  0.2474 -0.7057  0.4089
  552MPD2    C5 8244   3.092   4.148  14.599 -0.2476  1.2843  0.0582
  552MPD2     H 8245   3.414   3.978  14.486 -0.6454 -1.1816  0.0297
  552MPD2    H1 8246   3.222   4.256  14.735  1.8658  0.9107 -1.3801
  552MPD2    H2 8247   2.980   4.035  14.484 -0.1537 -1.3034  0.6631
  552MPD2    H3 8248   3.003   4.193  14.640  0.7705  1.0213  2.5785
  552MPD2     N 8249   3.438   4.147  14.684  0.3422  0.1519 -1.0508
  552MPD2    H5 8250   3.441   4.208  14.765 -1.8641 -0.1415 -0.7420
  552MPD2    N1 8251   3.194   3.890  14.361 -0.1053 -0.2615  0.8162
  552MPD2    H7 8252   3.279   3.836  14.349 -0.6515 -0.6269 -1.3285
  553TMC3    C1 8253   3.098   3.740  14.221  0.3139 -0.1766 -0.6103
  553TMC3    C2 8254   3.116   3.772  14.093 -0.1705  0.1308  0.2169
  553TMC3    C3 8255   3.210   3.701  14.017  0.0895  0.3250 -0.0132
  553TMC3    C4 8256   3.176   3.642  14.276  0.5665  0.0072 -0.1756
  553TMC3    C5 8257   3.281   3.591  14.202 -0.2662  0.4853  0.2217
  553TMC3    C6 8258   3.301   3.619  14.072  0.5787 -0.1310  0.9051
  553TMC3     C 8259   3.077   3.852  14.301  0.3821  0.7836 -0.2831
  553TMC3     O 8260   2.971   3.916  14.277 -0.5991 -0.6097 -0.2613
  553TMC3     H 8261   3.067   3.857  14.045  1.0318  1.3204  1.1094
  553TMC3    H1 8262   3.164   3.624  14.382  2.0092  3.5270  0.5894
  553TMC3    H2 8263   3.372   3.568  14.008  0.0059  0.2043  0.0016
  553TMC3    C7 8264   3.376   3.515  14.281  0.2127  0.5887 -0.3670
  553TMC3    C8 8265   3.288   3.794  13.935  0.3539  0.1810  0.8669
  553TMC3    O1 8266   3.337   3.452  14.379  0.5877 -0.2503  0.4976
  553TMC3    O2 8267   3.407   3.813  13.978  0.5932  0.5517  0.4596
  554TMC3    C1 8268   0.550   3.249  11.650 -0.1676 -0.0823 -0.0008
  554TMC3    C2 8269   0.464   3.196  11.557 -0.5188 -0.0520 -0.5783
  554TMC3    C3 8270   0.456   3.257  11.435 -0.0973  0.1749 -0.7990
  554TMC3    C4 8271   0.619   3.366  11.629  0.6696 -0.3804  0.4098
  554TMC3    C5 8272   0.592   3.437  11.512 -0.5873  0.6093  0.6512
  554TMC3    C6 8273   0.519   3.374  11.416  0.2915 -0.1682  0.2934
  554TMC3     C 8274   0.586   3.165  11.760  0.6014 -0.1469  0.5810
  554TMC3     O 8275   0.520   3.058  11.773 -0.2480  0.5119 -0.0234
  554TMC3     H 8276   0.418   3.099  11.574 -1.3276  0.2869 -0.8637
  554TMC3    H1 8277   0.677   3.415  11.706  0.2961  0.3923  0.2044
  554TMC3    H2 8278   0.507   3.412  11.315  2.4285 -1.4545 -0.4332
  554TMC3    C7 8279   0.669   3.552  11.491 -0.1038 -0.4038  0.0464
  554TMC3    C8 8280   0.386   3.202  11.326  0.1557 -0.3760 -0.2712
  554TMC3    O1 8281   0.747   3.582  11.580 -0.1272  0.0456 -0.2323
  554TMC3    O2 8282   0.434   3.214  11.211 -0.1043 -0.6366  0.1082
  555TMC3    C1 8283   4.430   2.939  15.276  0.5964 -0.0481  0.2531
  555TMC3    C2 8284   4.402   2.999  15.395 -0.0149  0.1794  0.0454
  555TMC3    C3 8285   4.381   2.916  15.500 -0.4609 -1.2010 -0.3843
  555TMC3    C4 8286   4.449   2.801  15.267  0.3570  1.2364 -0.0524
  555TMC3    C5 8287   4.435   2.728  15.379  0.1495 -0.0457 -0.2518
  555TMC3    C6 8288   4.400   2.778  15.494  0.3949 -0.1864  0.2411
  555TMC3     C 8289   4.446   3.019  15.156  0.8109 -0.1672 -0.4236
  555TMC3     O 8290   4.461   3.139  15.179 -0.7859  0.0042 -0.4012
  555TMC3     H 8291   4.372   3.102  15.414 -0.2039  0.2333 -0.5395
  555TMC3    H1 8292   4.476   2.750  15.175  0.4499  0.5939  0.3332
  555TMC3    H2 8293   4.347   2.714  15.565 -0.8741 -0.1846 -0.6999
  555TMC3    C7 8294   4.465   2.587  15.370 -0.5326  0.4422 -0.9376
  555TMC3    C8 8295   4.342   2.978  15.626  0.2132  0.2021  0.5111
  555TMC3    O1 8296   4.448   2.527  15.264  0.3654 -0.0066  0.4419
  555TMC3    O2 8297   4.286   3.084  15.628  0.5021  0.0140  0.2152
  556MPD2     C 8298   2.205   4.583  10.853 -0.2222 -0.3268  0.3309
  556MPD2    C1 8299   2.190   4.447  10.875  0.2200  0.0559  0.0374
  556MPD2    C2 8300   2.173   4.363  10.765  0.2926 -0.3944 -0.4637
  556MPD2    C3 8301   2.167   4.407  10.632  0.4524  0.0133  0.1202
  556MPD2    C4 8302   2.181   4.545  10.614  0.2800 -0.5315  0.1266
  556MPD2    C5 8303   2.198   4.626  10.721 -0.0486  0.2527 -0.2823
  556MPD2     H 8304   2.163   4.255  10.771  2.9680 -0.6623 -0.4751
  556MPD2    H1 8305   2.181   4.598  10.519 -1.2186  0.5685  0.7567
  556MPD2    H2 8306   2.221   4.665  10.922  2.7652 -0.9813  0.4517
  556MPD2    H3 8307   2.196   4.733  10.703  2.5312  0.7635  2.5310
  556MPD2     N 8308   2.174   4.312  10.525  0.5152  0.4517 -0.7348
  556MPD2    H5 8309   2.179   4.216  10.555  0.1447  0.9530  0.9247
  556MPD2    N1 8310   2.194   4.390  11.003  0.0441 -0.6943  0.5307
  556MPD2    H7 8311   2.227   4.453  11.075  1.0172 -1.2203  0.5460
  557TMC3    C1 8312   2.201   4.245  10.295  0.0198  0.7121 -0.5456
  557TMC3    C2 8313   2.119   4.246  10.184  0.3152  0.3870  0.0952
  557TMC3    C3 8314   2.085   4.133  10.117  0.0807 -0.2582 -0.0375
  557TMC3    C4 8315   2.250   4.126  10.338 -0.0084 -0.5251  0.4583
  557TMC3    C5 8316   2.223   4.014  10.268  0.3139 -0.2181 -0.3039
  557TMC3    C6 8317   2.137   4.013  10.159  0.0460 -0.3372  0.8897
  557TMC3     C 8318   2.174   4.355  10.390  0.0762  0.1025 -0.2525
  557TMC3     O 8319   2.132   4.458  10.348 -0.3174 -0.0784 -0.3983
  557TMC3     H 8320   2.084   4.342  10.147 -0.2495  0.0115 -0.3358
  557TMC3    H1 8321   2.313   4.114  10.425 -1.7230  0.9114  1.8766
  557TMC3    H2 8322   2.128   3.923  10.100  2.3346 -0.4364  0.6824
  557TMC3    C7 8323   2.217   3.885  10.339  0.2417 -0.1685 -0.1812
  557TMC3    C8 8324   2.036   4.157   9.983 -0.0913 -0.3894 -0.0535
  557TMC3    O1 8325   2.211   3.887  10.461 -0.0546 -0.2078 -0.4730
  557TMC3    O2 8326   2.064   4.262   9.926 -0.0445 -0.0288 -0.2265
  558TMC3    C1 8327   4.600   2.678  10.325  0.0697  0.2574 -0.3983
  558TMC3    C2 8328   4.503   2.667  10.427  0.0020 -0.1912  0.1408
  558TMC3    C3 8329   4.372   2.695  10.389 -0.9466 -0.3230 -0.4537
  558TMC3    C4 8330   4.566   2.694  10.192 -0.0101  0.1971  0.1248
  558TMC3    C5 8331   4.434   2.703  10.161  0.1324  0.9466 -0.0693
  558TMC3    C6 8332   4.339   2.710  10.256 -0.2763  0.1461  0.4807
  558TMC3     C 8333   4.734   2.644  10.358 -0.0863 -1.1923  0.9437
  558TMC3     O 8334   0.055   2.702  10.449  0.3657  0.5662  0.1140
  558TMC3     H 8335   4.524   2.653  10.533  2.3970 -2.5220 -0.6378
  558TMC3    H1 8336   4.632   2.734  10.116 -0.8484 -0.7618 -1.1152
  558TMC3    H2 8337   4.237   2.738  10.233  0.4195  0.9756 -1.5336
  558TMC3    C7 8338   4.393   2.703  10.025  0.2487 -0.1591  0.1857
  558TMC3    C8 8339   4.259   2.646  10.467 -0.2549  0.7425 -0.0515
  558TMC3    O1 8340   4.475   2.745   9.941  0.5965  0.1843 -0.5618
  558TMC3    O2 8341   4.145   2.667  10.424  0.1190  1.0136 -0.1254
  559MPD2     C 8342   4.642   2.991  10.580 -0.6232  0.1179 -0.1522
  559MPD2    C1 8343   4.576   2.923  10.690 -0.4785  0.1320 -0.2920
  559MPD2    C2 8344   4.641   2.887  10.806 -0.6197 -0.0746 -0.5098
  559MPD2    C3 8345   0.041   2.923  10.815 -0.1041  0.3241 -0.7120
  559MPD2    C4 8346   0.113   2.981  10.708  0.1238 -0.5846 -0.1075
  559MPD2    C5 8347   0.039   3.020  10.600  0.4935 -0.1561 -0.5819
  559MPD2     H 8348   4.586   2.853  10.893 -1.1484  1.3557 -0.2866
  559MPD2    H1 8349   0.217   3.011  10.704  0.2470 -0.9815  0.1504
  559MPD2    H2 8350   4.590   3.051  10.506 -1.2981 -2.3558 -1.6782
  559MPD2    H3 8351   0.086   3.086  10.528 -0.8977  1.5064  0.0540
  559MPD2     N 8352   0.105   2.892  10.938 -0.4487 -0.4400  0.5955
  559MPD2    H5 8353   0.063   2.820  10.996  1.6583 -0.0158  2.6353
  559MPD2    N1 8354   4.431   2.908  10.688 -0.4090 -0.5475  0.2342
  559MPD2    H7 8355   4.384   2.940  10.604  1.5728  1.3350 -0.1621
  560TMC3    C1 8356   0.287   2.851  11.082  0.4590  0.5772  0.5627
  560TMC3    C2 8357   0.243   2.719  11.082  0.1811  0.2462  0.1919
  560TMC3    C3 8358   0.327   2.627  11.129 -0.0605 -0.0168 -0.4609
  560TMC3    C4 8359   0.406   2.895  11.127 -0.0882  0.3622  0.0081
  560TMC3    C5 8360   0.473   2.800  11.196  0.8424  0.2094 -0.4930
  560TMC3    C6 8361   0.445   2.664  11.193 -0.0633 -0.6445 -0.2354
  560TMC3     C 8362   0.227   2.939  10.984  0.3130 -0.1053  1.0256
  560TMC3     O 8363   0.297   3.029  10.939  0.1842  0.2033  0.6684
  560TMC3     H 8364   0.161   2.688  11.018  1.4520  1.1489 -1.9032
  560TMC3    H1 8365   0.433   2.999  11.115 -3.4165  1.2382  0.1289
  560TMC3    H2 8366   0.505   2.595  11.250  1.6481  0.9055 -0.1582
  560TMC3    C7 8367   0.576   2.832  11.296  0.5664 -0.2385  0.2040
  560TMC3    C8 8368   0.277   2.494  11.142 -0.0606 -0.2446 -0.2190
  560TMC3    O1 8369   0.634   2.744  11.355 -0.0476  0.4940  0.1685
  560TMC3    O2 8370   0.162   2.475  11.101  0.0414 -0.1990 -0.1824
  561TMC3    C1 8371   2.321   2.150  11.291 -0.4145  0.0571 -1.3025
  561TMC3    C2 8372   2.268   2.161  11.418  0.8002  0.8397 -0.1814
  561TMC3    C3 8373   2.265   2.284  11.481 -0.6342  0.2598  0.3784
  561TMC3    C4 8374   2.391   2.248  11.236  0.0463 -0.7717 -0.0494
  561TMC3    C5 8375   2.398   2.367  11.303  0.2307 -0.4710 -0.0231
  561TMC3    C6 8376   2.335   2.388  11.421  0.0024 -0.3293 -0.2170
  561TMC3     C 8377   2.297   2.026  11.228 -0.0429  0.7280 -0.5955
  561TMC3     O 8378   2.196   1.964  11.260  0.2657 -0.2954 -0.3643
  561TMC3     H 8379   2.240   2.071  11.473 -0.0910 -0.0302 -2.0651
  561TMC3    H1 8380   2.429   2.239  11.135  0.3617 -1.4822  0.1309
  561TMC3    H2 8381   2.330   2.485  11.469 -0.2122  0.7700 -2.4975
  561TMC3    C7 8382   2.421   2.494  11.233  0.3609 -0.9943  0.0348
  561TMC3    C8 8383   2.247   2.298  11.621 -0.2762 -0.0391  0.5581
  561TMC3    O1 8384   2.343   2.582  11.264 -0.2026 -0.1586  0.2085
  561TMC3    O2 8385   2.326   2.383  11.664  0.3099  0.1770  0.1351
  562TMC3    C1 8386   4.002   2.889  16.535 -0.4590  0.3221  1.2072
  562TMC3    C2 8387   3.980   3.005  16.473  0.8465  0.2256 -0.1344
  562TMC3    C3 8388   3.953   2.999  16.337 -0.5676  0.4104  0.3130
  562TMC3    C4 8389   3.990   2.763  16.482 -0.1800  0.3874 -0.1056
  562TMC3    C5 8390   3.962   2.768  16.349 -0.1173  0.2209  0.0562
  562TMC3    C6 8391   3.942   2.879  16.276  0.5138 -0.4881  0.7672
  562TMC3     C 8392   4.042   2.895  16.670 -0.2097  0.8082 -0.4785
  562TMC3     O 8393   3.993   2.815  16.749  0.5047 -0.3790  0.1485
  562TMC3     H 8394   3.970   3.101  16.522  0.1027 -0.3857  0.9163
  562TMC3    H1 8395   4.012   2.671  16.534 -0.0362  1.5266  1.8416
  562TMC3    H2 8396   3.921   2.883  16.169 -0.7423  1.6064  1.0866
  562TMC3    C7 8397   3.983   2.643  16.269  0.0497  0.0190  0.9544
  562TMC3    C8 8398   3.879   3.108  16.281  0.6244  0.0074  0.1821
  562TMC3    O1 8399   3.947   2.661  16.152  0.1759  0.0830  0.1342
  562TMC3    O2 8400   3.798   3.082  16.190 -0.2244  0.3033  0.1896
  563MPD2     C 8401   1.838   4.410  15.561 -0.7304 -1.0238 -0.0592
  563MPD2    C1 8402   1.889   4.438  15.686  0.0354 -0.6563 -0.1837
  563MPD2    C2 8403   1.955   4.341  15.755 -0.2512  0.3688 -0.3960
  563MPD2    C3 8404   1.970   4.216  15.695 -0.1570  0.3172 -0.6038
  563MPD2    C4 8405   1.906   4.187  15.580  0.4923  0.3977  0.2211
  563MPD2    C5 8406   1.847   4.286  15.513  0.0807 -0.0044 -0.0406
  563MPD2     H 8407   1.992   4.358  15.856  0.8700  1.8652 -1.0655
  563MPD2    H1 8408   1.912   4.086  15.541 -0.6424 -0.2240  1.6529
  563MPD2    H2 8409   1.774   4.486  15.518  0.1979 -0.6300 -0.7410
  563MPD2    H3 8410   1.797   4.261  15.421 -0.6593  1.3862 -0.0151
  563MPD2     N 8411   2.029   4.112  15.775  0.2344  0.0150 -0.0621
  563MPD2    H5 8412   2.062   4.140  15.867 -0.9290 -0.6617  0.5481
  563MPD2    N1 8413   1.856   4.560  15.742  0.1263  0.1875  0.1851
  563MPD2    H7 8414   1.776   4.610  15.706 -1.5450 -3.8941 -1.7735
  564TMC3    C1 8415   1.839   4.624  15.964 -0.1274  0.0702  0.1332
  564TMC3    C2 8416   1.705   4.627  15.934  0.1454 -1.1137 -0.0433
  564TMC3    C3 8417   1.609   4.566  16.010 -0.2081 -0.3300 -0.5429
  564TMC3    C4 8418   1.876   4.537  16.062 -0.3676  0.6510  0.4934
  564TMC3    C5 8419   1.782   4.474  16.140  0.3220 -0.5967  0.5354
  564TMC3    C6 8420   1.646   4.488  16.120  0.0499  0.0358 -0.0881
  564TMC3     C 8421   1.926   4.607  15.849  0.3147 -0.0199  0.2589
  564TMC3     O 8422   2.044   4.607  15.871 -0.3643 -0.1517 -0.3873
  564TMC3     H 8423   1.674   4.682  15.846 -0.0554  0.2414  0.8668
  564TMC3    H1 8424   1.979   4.512  16.080 -0.4112 -2.1460 -3.1298
  564TMC3    H2 8425   1.566   4.443  16.177  0.1150 -0.5627 -0.4627
  564TMC3    C7 8426   1.808   4.328  16.162 -0.2559  0.3572  0.0881
  564TMC3    C8 8427   1.492   4.506  15.945 -0.2044  0.2032  0.0199
  564TMC3    O1 8428   1.922   4.306  16.187 -0.1264 -0.1003  0.1850
  564TMC3    O2 8429   1.426   4.436  16.020  0.6004 -0.1483 -0.5437
  565TMC3    C1 8430   2.019   0.919  10.357  0.2185 -0.4398  0.5047
  565TMC3    C2 8431   1.945   0.843  10.446  0.5601  0.2134 -0.0821
  565TMC3    C3 8432   1.882   0.725  10.405 -0.0688 -1.0116  0.2661
  565TMC3    C4 8433   2.053   0.864  10.236  0.0200 -0.3751 -0.6839
  565TMC3    C5 8434   1.994   0.735  10.206  0.4807  0.5376 -0.6182
  565TMC3    C6 8435   1.905   0.669  10.283 -0.4465 -0.0693  0.0027
  565TMC3     C 8436   2.069   1.058  10.388 -0.8456 -0.3100  0.0378
  565TMC3     O 8437   2.152   1.101  10.306  0.7385 -0.2434  0.3764
  565TMC3     H 8438   1.915   0.889  10.539 -2.2521  2.4731 -2.1220
  565TMC3    H1 8439   2.123   0.916  10.172  3.0388 -3.0813  0.4588
  565TMC3    H2 8440   1.870   0.568  10.265 -1.5080  0.7636 -2.5293
  565TMC3    C7 8441   2.011   0.673  10.078  0.4616 -0.1635  0.0402
  565TMC3    C8 8442   1.802   0.660  10.507  0.5584 -0.0808 -0.5732
  565TMC3    O1 8443   1.925   0.609  10.025 -0.1483 -0.1969 -0.0827
  565TMC3    O2 8444   1.817   0.693  10.623 -0.0256  0.2604 -0.1127
  566MPD2     C 8445   3.732   2.157  13.996  1.1113 -0.5106  0.2488
  566MPD2    C1 8446   3.757   2.285  13.947 -0.1451 -0.0517  0.5070
  566MPD2    C2 8447   3.654   2.377  13.924 -0.8783 -0.0488 -0.8477
  566MPD2    C3 8448   3.527   2.328  13.921 -0.8000 -0.8991 -0.3994
  566MPD2    C4 8449   3.503   2.199  13.971 -0.1414 -0.7300  0.0107
  566MPD2    C5 8450   3.605   2.111  14.010 -0.4117  0.2790  0.1488
  566MPD2     H 8451   3.674   2.477  13.889  1.4669 -0.1289  0.2693
  566MPD2    H1 8452   3.406   2.150  13.974 -0.1690 -0.6477  0.5636
  566MPD2    H2 8453   3.812   2.086  14.016  2.2031  0.9683  1.1285
  566MPD2    H3 8454   3.583   2.008  14.036  0.7427 -0.2553 -1.0114
  566MPD2     N 8455   3.410   2.400  13.878  0.5627  0.2089 -0.5014
  566MPD2    H5 8456   3.320   2.352  13.883  0.4027  0.4899 -0.6560
  566MPD2    N1 8457   3.893   2.321  13.937  0.5354 -0.0645  0.1179
  566MPD2    H7 8458   3.964   2.255  13.967 -1.8562 -1.3020  3.0246
  567TMC3    C1 8459   4.091   2.456  13.948  0.0090 -0.1053  0.1528
  567TMC3    C2 8460   4.164   2.525  13.860  1.1160 -0.3546  1.3921
  567TMC3    C3 8461   4.301   2.522  13.861  1.5388  0.2639 -0.0321
  567TMC3    C4 8462   4.150   2.373  14.042 -0.6900  0.6773  0.3501
  567TMC3    C5 8463   4.282   2.380  14.044 -0.3761 -0.3670  0.1165
  567TMC3    C6 8464   4.360   2.444  13.958  0.7763  1.0637  0.5680
  567TMC3     C 8465   3.943   2.455  13.920 -0.8499  0.3635 -0.0302
  567TMC3     O 8466   3.884   2.553  13.879  0.4513 -0.0624 -0.5322
  567TMC3     H 8467   4.097   2.562  13.784 -0.7751  0.8944  3.6744
  567TMC3    H1 8468   4.085   2.331  14.116 -1.8437  0.7548 -0.6224
  567TMC3    H2 8469   4.468   2.440  13.974  0.6751  1.8665  1.4389
  567TMC3    C7 8470   4.346   2.343  14.171  0.1528  0.2090 -0.0540
  567TMC3    C8 8471   4.384   2.623  13.807 -0.4154 -0.0729 -0.0981
  567TMC3    O1 8472   4.465   2.313  14.162 -0.4068  0.7955  0.1689
  567TMC3    O2 8473   4.507   2.620  13.806  0.9591 -0.3048  0.6560
  568MPD2     C 8474   1.863   3.219  16.126  0.2224 -0.0260  0.0551
  568MPD2    C1 8475   1.777   3.262  16.224  0.5347 -0.1835 -0.1045
  568MPD2    C2 8476   1.688   3.360  16.204  0.3202  1.1095  0.4368
  568MPD2    C3 8477   1.681   3.442  16.092  0.0817  0.0135 -0.1832
  568MPD2    C4 8478   1.774   3.406  15.996 -0.1410  0.4563  0.8089
  568MPD2    C5 8479   1.852   3.295  16.011  0.3725  0.6100  0.4638
  568MPD2     H 8480   1.620   3.384  16.285 -1.0941 -2.6922  0.3724
  568MPD2    H1 8481   1.775   3.453  15.898 -2.8906  1.7477  1.3675
  568MPD2    H2 8482   1.938   3.141  16.132 -0.9779 -1.0825  1.2925
  568MPD2    H3 8483   1.905   3.255  15.925  0.1993 -1.2487  1.2201
  568MPD2     N 8484   1.582   3.535  16.061 -0.0658  0.5794 -0.0390
  568MPD2    H5 8485   1.503   3.552  16.122 -0.2261 -1.1833  0.2329
  568MPD2    N1 8486   1.793   3.198  16.348  0.0159  0.3374  0.5104
  568MPD2    H7 8487   1.880   3.149  16.367  1.8264  3.4384  0.2563
  569TMC3    C1 8488   1.446   3.688  15.949 -0.3150  0.4975  0.3233
  569TMC3    C2 8489   1.415   3.743  16.069 -0.3577 -0.0746  0.1251
  569TMC3    C3 8490   1.332   3.856  16.074  0.8938 -0.0342 -0.5343
  569TMC3    C4 8491   1.394   3.738  15.831 -0.0384  0.6766 -0.6190
  569TMC3    C5 8492   1.314   3.846  15.840 -0.3901 -0.2166  0.2686
  569TMC3    C6 8493   1.281   3.906  15.960  0.1210 -0.8779  0.4374
  569TMC3     C 8494   1.560   3.591  15.939 -0.1395 -0.2261  0.2365
  569TMC3     O 8495   1.621   3.587  15.832 -0.0179  0.0360  0.1136
  569TMC3     H 8496   1.464   3.718  16.162  0.1322  0.4170 -0.0007
  569TMC3    H1 8497   1.412   3.700  15.731 -0.6294  1.1192 -0.8939
  569TMC3    H2 8498   1.196   3.973  15.959 -0.6708 -1.9173 -1.3514
  569TMC3    C7 8499   1.331   3.932  15.726 -0.6330 -0.2280  0.3991
  569TMC3    C8 8500   1.339   3.957  16.170  0.7697 -0.0487 -0.2355
  569TMC3    O1 8501   1.349   3.880  15.615 -0.9874 -0.1282 -0.0610
  569TMC3    O2 8502   1.232   4.008  16.196 -0.2905  0.3764  0.2588
  570TMC3    C1 8503   0.584   1.857  16.062  0.0272  0.1558 -0.3686
  570TMC3    C2 8504   0.660   1.861  15.946  0.2829  0.2606  0.3767
  570TMC3    C3 8505   0.693   1.989  15.900 -0.1923 -0.4084  0.5316
  570TMC3    C4 8506   0.557   1.971  16.138 -0.2413  0.1563 -0.5896
  570TMC3    C5 8507   0.580   2.088  16.080 -1.3628 -0.2501  0.1457
  570TMC3    C6 8508   0.656   2.101  15.964  0.2844  0.1278 -0.0123
  570TMC3     C 8509   0.524   1.724  16.093 -0.4877  0.1229  0.5815
  570TMC3     O 8510   0.523   1.642  15.999 -0.3998  0.2650  0.3573
  570TMC3     H 8511   0.710   1.773  15.905 -1.6417 -0.0409 -1.3386
  570TMC3    H1 8512   0.491   1.956  16.223 -0.5012 -0.4726 -0.9025
  570TMC3    H2 8513   0.678   2.196  15.917 -3.3364  0.4962 -1.0201
  570TMC3    C7 8514   0.565   2.209  16.160  0.3601 -0.7428  0.2744
  570TMC3    C8 8515   0.796   2.013  15.803 -0.2348  0.5679  0.4941
  570TMC3    O1 8516   0.552   2.190  16.280 -0.2008  0.0465 -0.0055
  570TMC3    O2 8517   0.840   2.127  15.795 -0.3611 -0.1603 -0.3252
  571MPD2     C 8518   2.842   3.728   0.802 -1.2689 -0.0910 -0.6146
  571MPD2    C1 8519   2.916   3.640   0.734  0.4259  0.2483  0.4275
  571MPD2    C2 8520   3.035   3.683   0.684 -0.3046 -0.3358  0.0245
  571MPD2    C3 8521   3.076   3.819   0.695 -0.6262 -0.0878 -0.1604
  571MPD2    C4 8522   2.981   3.906   0.742  0.3430 -0.7128 -0.1265
  571MPD2    C5 8523   2.863   3.858   0.800  0.3679 -0.1248 -0.1406
  571MPD2     H 8524   3.110   3.619   0.639  0.3812 -0.0239  0.7269
  571MPD2    H1 8525   2.998   4.013   0.748 -0.0291 -0.5695 -1.6661
  571MPD2    H2 8526   2.752   3.693   0.852 -0.6179 -0.7090  0.1238
  571MPD2    H3 8527   2.799   3.932   0.847  0.2418  0.0455 -0.5733
  571MPD2     N 8528   3.204   3.866   0.662  0.2552  0.4770  0.2945
  571MPD2    H5 8529   3.220   3.965   0.651  1.4392  0.2341 -0.1572
  571MPD2    N1 8530   2.893   3.495   0.730 -0.8592  0.3044  0.1105
  571MPD2    H7 8531   2.822   3.458   0.792  0.8535 -2.0252  0.6827
  572TMC3    C1 8532   3.445   3.837   0.631  0.3762  0.1390  0.2173
  572TMC3    C2 8533   3.550   3.769   0.689  0.6356 -0.3543  0.9457
  572TMC3    C3 8534   3.671   3.826   0.665 -0.1078  0.0712  0.7006
  572TMC3    C4 8535   3.456   3.943   0.547  0.0650 -0.2110 -0.3177
  572TMC3    C5 8536   3.580   3.990   0.522 -0.3082 -0.0039  0.8903
  572TMC3    C6 8537   3.691   3.930   0.577 -0.0623 -0.0305  0.0598
  572TMC3     C 8538   3.316   3.785   0.674 -0.3273  0.2347 -0.9001
  572TMC3     O 8539   3.324   3.683   0.740  0.4233  0.2139 -0.3128
  572TMC3     H 8540   3.535   3.701   0.772  0.1523 -0.8601  0.4475
  572TMC3    H1 8541   3.372   3.990   0.499  0.2107 -1.4968 -1.8230
  572TMC3    H2 8542   3.792   3.968   0.568  0.2197 -0.4508  1.5483
  572TMC3    C7 8543   3.589   4.088   0.415 -1.4801 -0.7350 -0.6312
  572TMC3    C8 8544   3.767   3.827   0.779 -0.0149  0.0823  0.2225
  572TMC3    O1 8545   3.490   4.141   0.369 -0.0738  0.1083  0.3613
  572TMC3    O2 8546   3.829   3.931   0.795  0.6122 -0.0210 -0.3569
  573MPD2     C 8547   4.260   4.063   0.523  0.1080  0.9157 -0.0257
  573MPD2    C1 8548   4.345   4.167   0.507  0.6633 -0.5428 -0.1558
  573MPD2    C2 8549   4.380   4.214   0.379 -0.0539 -0.0221 -0.3204
  573MPD2    C3 8550   4.322   4.157   0.269  0.1446  0.5075 -0.1608
  573MPD2    C4 8551   4.227   4.058   0.284  0.4556  0.8336 -0.2938
  573MPD2    C5 8552   4.194   4.021   0.410  0.2200 -0.9302 -0.5168
  573MPD2     H 8553   4.455   4.292   0.380 -2.2698  2.0808  2.5516
  573MPD2    H1 8554   4.182   4.002   0.202  1.3845  1.1845 -1.0403
  573MPD2    H2 8555   4.225   4.025   0.618 -2.1997  3.0217 -0.0503
  573MPD2    H3 8556   4.128   3.938   0.428  0.5843 -0.9325  0.8091
  573MPD2     N 8557   4.353   4.206   0.130  0.0028 -0.2186  0.0527
  573MPD2    H5 8558   4.308   4.169   0.047 -2.9303 -2.1080  2.4804
  573MPD2    N1 8559   4.391   4.226   0.623 -0.1055  0.1412 -0.0418
  573MPD2    H7 8560   4.393   4.169   0.707  3.5182 -1.1821 -1.0161
  574TMC3    C1 8561   4.460   4.343  17.714  0.2917 -0.1877  0.5188
  574TMC3    C2 8562   4.414   4.270  17.611  0.2265  0.5465 -0.1284
  574TMC3    C3 8563   4.437   4.310  17.483  0.2741  0.6774  0.3862
  574TMC3    C4 8564   4.555   4.444  17.687 -0.0000 -0.2453 -0.1305
  574TMC3    C5 8565   4.592   4.470  17.561 -0.2181 -0.0109 -0.4844
  574TMC3    C6 8566   4.531   4.407  17.458 -0.3716 -0.0081 -0.2369
  574TMC3     C 8567   4.430   4.321   0.101 -0.1941  0.4322 -0.1639
  574TMC3     O 8568   4.471   4.405   0.185  0.0209  0.2988 -0.6949
  574TMC3     H 8569   4.344   4.188  17.618  1.5339 -0.3719  2.0350
  574TMC3    H1 8570   4.609   4.491   0.016 -0.6155  0.5617 -0.1843
  574TMC3    H2 8571   4.559   4.425  17.355  1.0993  1.6429  0.4582
  574TMC3    C7 8572   4.724   4.518  17.527  0.1394  0.3265  0.1040
  574TMC3    C8 8573   4.393   4.224  17.378  0.0457 -0.0222  0.4188
  574TMC3    O1 8574   0.018   4.497  17.407  0.1908  0.2306  0.3325
  574TMC3    O2 8575   4.387   4.103  17.405 -0.2863 -0.6651 -0.1846
  575TMC3    C1 8576   1.654   0.386  11.309  0.5058  0.4779  0.7834
  575TMC3    C2 8577   1.655   0.252  11.329  0.0022  0.3003  0.1239
  575TMC3    C3 8578   1.668   0.163  11.226  0.4331  0.7594  0.8896
  575TMC3    C4 8579   1.643   0.432  11.179  0.3411 -0.0182  0.8071
  575TMC3    C5 8580   1.642   0.338  11.078 -0.0826 -0.3212  0.7854
  575TMC3    C6 8581   1.676   0.206  11.095 -0.0508  0.8458  0.0725
  575TMC3     C 8582   1.598   0.465  11.418 -0.7789 -0.3159 -0.2844
  575TMC3     O 8583   1.557   0.408  11.517  0.2630  0.6483  0.2900
  575TMC3     H 8584   1.655   0.213  11.430  1.4051  0.0646  0.0286
  575TMC3    H1 8585   1.615   0.535  11.162  4.7039  0.7905 -1.2882
  575TMC3    H2 8586   1.704   0.141  11.013  0.1487  1.1646 -0.1122
  575TMC3    C7 8587   1.658   0.393  10.945  0.7806 -0.0692  0.9833
  575TMC3    C8 8588   1.652   0.020  11.252  0.0504  0.1506 -0.3253
  575TMC3    O1 8589   1.722   0.494  10.935  0.2352  0.2413 -0.3180
  575TMC3    O2 8590   1.582   4.701  11.169  0.3035  0.3024  0.3319
  576MPD2     C 8591   1.266   2.149  12.666  0.3795 -1.0263 -0.1431
  576MPD2    C1 8592   1.364   2.228  12.608 -0.1860  0.3128 -0.1323
  576MPD2    C2 8593   1.412   2.332  12.676  0.4581  0.3586  0.2807
  576MPD2    C3 8594   1.366   2.368  12.803 -0.2654 -0.1598 -0.5431
  576MPD2    C4 8595   1.267   2.288  12.852 -0.1002  0.5218 -0.5881
  576MPD2    C5 8596   1.214   2.180  12.787  0.3984  0.3699 -0.0331
  576MPD2     H 8597   1.483   2.393  12.621 -0.4635 -0.0549 -1.3557
  576MPD2    H1 8598   1.228   2.299  12.953 -0.3000 -3.3991 -0.2358
  576MPD2    H2 8599   1.228   2.060  12.618 -1.0052 -0.6880  0.3220
  576MPD2    H3 8600   1.133   2.121  12.826  0.9853 -1.1015 -1.0660
  576MPD2     N 8601   1.428   2.480  12.876  0.0135  0.1752  0.2573
  576MPD2    H5 8602   1.503   2.530  12.830  0.9956 -0.7506  0.8414
  576MPD2    N1 8603   1.411   2.198  12.477 -0.6838  0.3152  1.0242
  576MPD2    H7 8604   1.487   2.262  12.455  0.3890 -1.1923  0.3725
  577TMC3    C1 8605   1.420   2.102  12.263  0.4507  0.0994  0.0458
  577TMC3    C2 8606   1.545   2.156  12.252 -0.3474 -0.4827  0.1202
  577TMC3    C3 8607   1.605   2.137  12.131 -0.2104 -0.1143  0.0038
  577TMC3    C4 8608   1.359   2.027  12.163  0.4126  0.7651 -0.1054
  577TMC3    C5 8609   1.433   2.012  12.051  0.2618  0.6239 -0.0587
  577TMC3    C6 8610   1.553   2.070  12.028  0.2194 -0.4736  0.0756
  577TMC3     C 8611   1.354   2.112  12.388  0.7244  0.2082 -0.7890
  577TMC3     O 8612   1.251   2.050  12.399  0.0660 -0.1542  0.1557
  577TMC3     H 8613   1.598   2.198  12.337 -1.0138  0.0990  0.2484
  577TMC3    H1 8614   1.257   1.993  12.165  0.5034  0.4737 -0.6497
  577TMC3    H2 8615   1.618   2.040  11.947 -0.0968  1.4787 -0.8955
  577TMC3    C7 8616   1.358   1.962  11.941 -0.1931 -0.0491 -0.0802
  577TMC3    C8 8617   1.742   2.185  12.128  1.0379 -0.4610 -0.1518
  577TMC3    O1 8618   1.272   1.877  11.964 -0.3620  0.0185 -0.3355
  577TMC3    O2 8619   1.796   2.199  12.238 -0.8346  0.4266 -0.6345
  578MPD2     C 8620   0.519   2.313   0.597 -0.5127 -0.3033 -0.4411
  578MPD2    C1 8621   0.597   2.343   0.705 -0.0469 -0.4111 -0.4312
  578MPD2    C2 8622   0.650   2.239   0.776  0.1165  0.3144 -0.4143
  578MPD2    C3 8623   0.626   2.103   0.738 -0.2036  0.2879 -0.7806
  578MPD2    C4 8624   0.549   2.081   0.633  0.4908 -0.2695 -0.0827
  578MPD2    C5 8625   0.494   2.181   0.556 -0.9959 -0.5141  0.5101
  578MPD2     H 8626   0.708   2.272   0.861  0.8300 -0.3127 -0.6506
  578MPD2    H1 8627   0.516   1.983   0.601 -2.0130  0.1995  1.0504
  578MPD2    H2 8628   0.492   2.396   0.532  0.2648 -0.5334 -1.0620
  578MPD2    H3 8629   0.455   2.164   0.456 -1.2681 -0.5929  0.6284
  578MPD2     N 8630   0.675   2.002   0.826 -0.2273  0.3782 -0.3838
  578MPD2    H5 8631   0.713   2.031   0.915 -2.3811  2.3554 -0.0948
  578MPD2    N1 8632   0.619   2.483   0.725 -0.7115 -0.2045 -0.0339
  578MPD2    H7 8633   0.575   2.550   0.663 -0.3971  0.3509  0.3431
  579TMC3    C1 8634   0.735   1.780   0.897 -0.0850 -0.4819 -0.4764
  579TMC3    C2 8635   0.776   1.825   1.021  0.0845  0.3332 -0.8424
  579TMC3    C3 8636   0.864   1.750   1.090  0.0193 -0.2499  0.0249
  579TMC3    C4 8637   0.768   1.659   0.839  0.7139  0.4923 -0.4295
  579TMC3    C5 8638   0.848   1.580   0.919  0.0396  0.4417 -0.3347
  579TMC3    C6 8639   0.907   1.623   1.035 -0.1017 -0.6173 -0.6196
  579TMC3     C 8640   0.672   1.869   0.801  0.4079 -0.0041 -0.6292
  579TMC3     O 8641   0.622   1.822   0.702  0.3432 -0.2708  0.2363
  579TMC3     H 8642   0.757   1.927   1.050 -0.7082 -0.0457 -0.0065
  579TMC3    H1 8643   0.734   1.633   0.739 -0.1528  0.7416 -0.1935
  579TMC3    H2 8644   0.977   1.558   1.086 -0.2392 -0.1758  0.1302
  579TMC3    C7 8645   0.894   1.450   0.876 -0.8696 -0.5726  0.1257
  579TMC3    C8 8646   0.940   1.818   1.198 -0.2052  0.5636  0.0378
  579TMC3    O1 8647   0.995   1.407   0.929 -0.1938  0.1665 -0.4274
  579TMC3    O2 8648   0.887   1.916   1.252 -0.1805 -0.2269  0.8209
  580TMC3    C1 8649   4.330   1.357  12.419 -0.2596  0.4372 -0.2477
  580TMC3    C2 8650   4.415   1.450  12.374 -0.6564  0.2835 -0.3794
  580TMC3    C3 8651   4.547   1.436  12.412  0.1225 -0.3699 -0.1311
  580TMC3    C4 8652   4.364   1.263  12.510 -0.0976  0.2244 -0.5007
  580TMC3    C5 8653   4.496   1.261  12.554 -0.2990  0.6765 -0.5206
  580TMC3    C6 8654   4.592   1.333  12.491 -0.3347  0.1972 -0.7013
  580TMC3     C 8655   4.230   1.301  12.334  0.0418 -0.9450  0.7067
  580TMC3     O 8656   4.141   1.232  12.391 -0.4946  0.2539  0.0575
  580TMC3     H 8657   4.384   1.532  12.310 -2.1032  1.3473  1.6992
  580TMC3    H1 8658   4.309   1.173  12.534 -2.1396  1.0114 -2.1438
  580TMC3    H2 8659   4.694   1.339  12.529 -1.0829 -0.8388  1.4573
  580TMC3    C7 8660   4.545   1.133  12.603  0.1445 -0.5673 -0.8920
  580TMC3    C8 8661   4.626   1.550  12.377  0.0027 -0.2502 -0.1063
  580TMC3    O1 8662   4.493   1.097  12.706 -0.1989  0.2945  0.8320
  580TMC3    O2 8663   4.570   1.660  12.364 -0.1615  0.0729  0.2958
  581MPD2     C 8664   2.182   0.555  14.306  0.0272  0.8595 -0.5946
  581MPD2    C1 8665   2.182   0.582  14.441 -0.3065 -0.4913  0.3869
  581MPD2    C2 8666   2.084   0.657  14.499 -1.0695  0.2475  0.9078
  581MPD2    C3 8667   1.980   0.695  14.420  0.2879  0.5768 -0.2527
  581MPD2    C4 8668   1.980   0.665  14.280  0.0399  0.3099 -0.1814
  581MPD2    C5 8669   2.081   0.592  14.226  0.0852  0.0049 -0.0419
  581MPD2     H 8670   2.083   0.677  14.605 -0.7881 -0.9516  1.1432
  581MPD2    H1 8671   1.902   0.700  14.213 -0.0171  3.1835  1.3642
  581MPD2    H2 8672   2.264   0.500  14.262 -1.9299 -2.5476  0.0768
  581MPD2    H3 8673   2.088   0.573  14.119  0.8931  2.9060 -0.4936
  581MPD2     N 8674   1.867   0.753  14.485  0.0271 -0.5804 -0.0106
  581MPD2    H5 8675   1.868   0.760  14.586 -1.2272  0.0477 -0.0544
  581MPD2    N1 8676   2.290   0.525  14.509  0.3527  0.4209  0.1495
  581MPD2    H7 8677   2.353   0.465  14.458 -1.3600 -0.1124 -1.3594
  582TMC3    C1 8678   2.451   0.476  14.667 -0.4541  0.1862  0.4799
  582TMC3    C2 8679   2.536   0.522  14.762 -0.2468  0.0343 -0.0460
  582TMC3    C3 8680   2.621   0.429  14.817 -0.0790  0.0764  0.0561
  582TMC3    C4 8681   2.438   0.340  14.636  0.3510 -0.0708  0.7390
  582TMC3    C5 8682   2.524   0.246  14.697 -0.4288 -0.2566  1.0283
  582TMC3    C6 8683   2.623   0.297  14.776 -0.2072  0.1080  0.4137
  582TMC3     C 8684   2.330   0.555  14.637 -0.8291 -0.3016 -0.4596
  582TMC3     O 8685   2.306   0.655  14.706 -0.4591  0.0541  0.2498
  582TMC3     H 8686   2.545   0.628  14.779 -0.6723 -0.0752  0.8712
  582TMC3    H1 8687   2.358   0.294  14.579  4.1270 -1.6925 -3.1597
  582TMC3    H2 8688   2.693   0.225  14.817  2.1940  2.4692  0.4320
  582TMC3    C7 8689   2.439   0.159  14.771  0.0263  0.2532 -0.9379
  582TMC3    C8 8690   2.685   0.470  14.940  0.9059  0.9055  0.1431
  582TMC3    O1 8691   2.437   0.038  14.753  0.3296  0.1950 -0.1390
  582TMC3    O2 8692   2.635   0.563  15.003 -0.1784  0.3616  0.3985
  583MPD2     C 8693   2.707   2.278  16.668 -0.2244  0.1377  0.4554
  583MPD2    C1 8694   2.712   2.405  16.611 -0.0889  0.2117  0.0902
  583MPD2    C2 8695   2.669   2.509  16.689 -0.9867  0.0036 -0.6123
  583MPD2    C3 8696   2.622   2.491  16.817  0.6838 -0.0081 -0.3597
  583MPD2    C4 8697   2.634   2.366  16.870  0.7574 -0.5174 -0.2795
  583MPD2    C5 8698   2.673   2.257  16.798 -0.0945 -0.4928 -0.1317
  583MPD2     H 8699   2.657   2.605  16.639  2.0194  0.9242  0.4340
  583MPD2    H1 8700   2.592   2.344  16.967  0.4557  0.0018 -0.2912
  583MPD2    H2 8701   2.736   2.184  16.622  0.8155  0.8203 -0.2607
  583MPD2    H3 8702   2.662   2.156  16.837 -0.4715 -1.0087 -1.5907
  583MPD2     N 8703   2.566   2.601  16.894  0.5090 -0.4143 -0.2140
  583MPD2    H5 8704   2.568   2.694  16.853 -0.5886 -0.6146 -0.6993
  583MPD2    N1 8705   2.779   2.421  16.485  0.3891 -0.4913 -0.6291
  583MPD2    H7 8706   2.814   2.512  16.456  1.4063  0.4682  3.7324
  584TMC3    C1 8707   2.454   2.715  17.081  0.3757  0.2987 -0.1062
  584TMC3    C2 8708   2.454   2.836  17.010  0.0308 -0.3602  0.0008
  584TMC3    C3 8709   2.433   2.956  17.080 -0.2654  1.5515 -0.3671
  584TMC3    C4 8710   2.437   2.717  17.215  0.0966 -0.8781  0.3677
  584TMC3    C5 8711   2.418   2.836  17.284 -0.5909 -0.3003 -0.2674
  584TMC3    C6 8712   2.413   2.959  17.219  0.5058 -0.5053  0.6270
  584TMC3     C 8713   2.512   2.590  17.023 -1.3619  0.1087  0.1978
  584TMC3     O 8714   2.507   2.495  17.101 -0.6840  0.0867  0.2415
  584TMC3     H 8715   2.472   2.841  16.903  1.6158  2.7109  0.4025
  584TMC3    H1 8716   2.448   2.624  17.270  0.0949 -1.0054  0.1519
  584TMC3    H2 8717   2.380   3.056  17.254  1.2366  0.7723 -2.2341
  584TMC3    C7 8718   2.390   2.831  17.427  0.1125  0.0356  0.2277
  584TMC3    C8 8719   2.448   3.074  17.002 -0.6555  0.0574  0.2191
  584TMC3    O1 8720   2.414   2.723  17.482 -0.2247 -0.3946  0.4763
  584TMC3    O2 8721   2.419   3.069  16.882 -0.0854  0.1909  0.0258
  585MPD2     C 8722   1.565   1.380   0.180  0.1425 -0.0312 -0.2136
  585MPD2    C1 8723   1.599   1.447   0.066  0.0522  0.2024 -0.2789
  585MPD2    C2 8724   1.637   1.375  17.707  0.2838 -0.0374 -0.2622
  585MPD2    C3 8725   1.634   1.236  17.690 -1.2653 -0.1103 -0.5331
  585MPD2    C4 8726   1.600   1.174   0.057  0.7616 -0.3887 -0.4488
  585MPD2    C5 8727   1.571   1.244   0.175 -0.0620 -0.3750 -0.6561
  585MPD2     H 8728   1.666   1.434  17.621 -2.3139  2.2555  0.4148
  585MPD2    H1 8729   1.602   1.066   0.056 -1.6461 -0.4576  0.9464
  585MPD2    H2 8730   1.551   1.435   0.273  1.3819  0.3892 -0.2724
  585MPD2    H3 8731   1.542   1.184   0.260 -0.8559 -1.6161 -1.8066
  585MPD2     N 8732   1.653   1.163  17.568 -0.5590 -0.0444  0.1856
  585MPD2    H5 8733   1.665   1.062  17.571  0.2027 -0.0155 -2.0601
  585MPD2    N1 8734   1.604   1.587   0.071 -0.1174 -0.2511 -0.6855
  585MPD2    H7 8735   1.592   1.636   0.159 -0.2935  0.6681 -1.2231
  586TMC3    C1 8736   1.713   1.138  17.340 -0.1066  0.3015 -0.4452
  586TMC3    C2 8737   1.846   1.097  17.340 -0.3858  0.0375 -0.0417
  586TMC3    C3 8738   1.909   1.101  17.220  0.1697 -0.5765  0.1521
  586TMC3    C4 8739   1.648   1.162  17.227 -0.1785 -0.1383 -0.5472
  586TMC3    C5 8740   1.705   1.148  17.107 -0.2689 -0.2177 -0.3900
  586TMC3    C6 8741   1.835   1.120  17.104  0.4939 -0.1695  0.2629
  586TMC3     C 8742   1.659   1.226  17.446 -0.0578 -0.4868  0.2257
  586TMC3     O 8743   1.623   1.335  17.408  0.2741 -0.0638  0.2021
  586TMC3     H 8744   1.889   1.083  17.438 -1.6380 -1.2437  0.3246
  586TMC3    H1 8745   1.543   1.189  17.232 -0.0043  0.4002  0.1240
  586TMC3    H2 8746   1.885   1.107  17.009  0.4168  0.9849  0.0699
  586TMC3    C7 8747   1.631   1.069  17.019  0.0898  0.3634  0.6526
  586TMC3    C8 8748   2.008   0.992  17.205 -0.1456 -0.0580 -0.1856
  586TMC3    O1 8749   1.509   1.072  17.015 -0.7381  0.3194  0.0600
  586TMC3    O2 8750   1.991   0.913  17.114 -0.1833 -0.1783  0.4020
  587TMC3    C1 8751   3.943   0.328  15.853  0.4204  0.3381  0.0532
  587TMC3    C2 8752   3.949   0.365  15.984  0.2638 -0.6905  0.5018
  587TMC3    C3 8753   4.069   0.393  16.041  0.2419  0.1613  0.5949
  587TMC3    C4 8754   4.052   0.339  15.775  0.0236 -0.1431 -0.2335
  587TMC3    C5 8755   4.171   0.371  15.835 -0.0894 -0.4849 -0.5717
  587TMC3    C6 8756   4.183   0.391  15.969  0.2296 -0.4952 -0.5217
  587TMC3     C 8757   3.816   0.287  15.794 -0.1474  0.0356 -1.0078
  587TMC3     O 8758   3.801   0.310  15.674  0.6497  0.2389 -0.3179
  587TMC3     H 8759   3.859   0.359  16.043 -1.2674 -0.5770 -1.8198
  587TMC3    H1 8760   4.057   0.310  15.671 -2.2465 -1.5027  0.0458
  587TMC3    H2 8761   4.277   0.413  16.017 -0.0203 -1.5339  0.4399
  587TMC3    C7 8762   4.277   0.401  15.749 -0.1192  0.6856 -0.1298
  587TMC3    C8 8763   4.076   0.411  16.185 -0.4299  0.0509 -0.2154
  587TMC3    O1 8764   4.240   0.432  15.636  0.1914 -0.5966  0.2572
  587TMC3    O2 8765   4.189   0.383  16.239 -0.2589 -0.3013  0.1638
  588TMC3    C1 8766   1.133   2.814  10.005  0.2234 -0.2662 -0.1350
  588TMC3    C2 8767   1.125   2.685   9.956 -0.3321  0.1930 -0.0188
  588TMC3    C3 8768   1.216   2.594  10.001  0.3097  0.0476  0.1497
  588TMC3    C4 8769   1.233   2.850  10.086  0.4284 -0.6726 -0.2339
  588TMC3    C5 8770   1.332   2.765  10.112  0.2424 -0.6627  0.6748
  588TMC3    C6 8771   1.320   2.633  10.083  0.0300 -0.3911 -0.0546
  588TMC3     C 8772   1.075   2.912   9.907 -0.4038 -0.2685  0.5716
  588TMC3     O 8773   1.019   2.874   9.807  0.1555  0.1501  0.0516
  588TMC3     H 8774   1.049   2.650   9.887 -1.0534  2.6334 -0.4269
  588TMC3    H1 8775   1.232   2.952  10.122 -0.2672 -0.4692 -0.8376
  588TMC3    H2 8776   1.412   2.582  10.111  2.4881  3.9945 -0.0370
  588TMC3    C7 8777   1.461   2.815  10.136 -0.9340  0.2295 -0.1689
  588TMC3    C8 8778   1.171   2.456  10.012  0.1900 -0.4057 -0.9124
  588TMC3    O1 8779   1.536   2.755  10.208  0.4738  0.2863  0.2798
  588TMC3    O2 8780   1.065   2.435   9.952 -0.4675 -0.5229  0.2230
  589TMC3    C1 8781   0.679   0.606   1.189  0.4898 -0.1238 -0.1773
  589TMC3    C2 8782   0.767   0.536   1.270 -0.3808 -0.4804 -0.3802
  589TMC3    C3 8783   0.836   0.433   1.222  0.2938  0.1771  0.0533
  589TMC3    C4 8784   0.654   0.557   1.060 -0.1377  0.1684  0.2171
  589TMC3    C5 8785   0.717   0.434   1.021  0.4216  0.0969  0.3342
  589TMC3    C6 8786   0.815   0.379   1.096  0.2196 -0.6335  0.1855
  589TMC3     C 8787   0.619   0.733   1.225 -0.5478  0.6523  0.7007
  589TMC3     O 8788   0.533   0.779   1.149  0.6223 -0.2650 -0.7780
  589TMC3     H 8789   0.803   0.580   1.362 -2.1629  0.7568 -0.2621
  589TMC3    H1 8790   0.600   0.623   0.994  1.6681  1.7519  0.3273
  589TMC3    H2 8791   0.853   0.287   1.054 -1.3718 -0.4884 -1.5624
  589TMC3    C7 8792   0.713   0.396   0.883  0.4835 -0.4599  0.7876
  589TMC3    C8 8793   0.951   0.374   1.300 -0.4486 -0.6522 -0.1946
  589TMC3    O1 8794   0.796   0.316   0.844 -0.4711 -0.4919  0.1791
  589TMC3    O2 8795   0.970   0.420   1.412  0.6355 -0.3137  0.2428
  590MPD2     C 8796   0.315   3.173  16.342 -0.3487  0.2746  0.1893
  590MPD2    C1 8797   0.273   3.300  16.316 -0.1484 -0.1273 -0.1975
  590MPD2    C2 8798   0.336   3.370  16.211  0.0157  0.2502  0.3323
  590MPD2    C3 8799   0.436   3.309  16.142  0.6306 -0.1136 -0.2235
  590MPD2    C4 8800   0.469   3.175  16.168  0.1989 -0.2575 -0.0830
  590MPD2    C5 8801   0.416   3.117  16.278  0.3488  0.0615  0.4339
  590MPD2     H 8802   0.302   3.472  16.196 -1.7165 -0.1464  1.5769
  590MPD2    H1 8803   0.554   3.132  16.118  0.1805 -0.5003  0.0970
  590MPD2    H2 8804   0.256   3.120  16.415  0.2264  3.1911  2.7901
  590MPD2    H3 8805   0.456   3.026  16.321 -0.8996 -1.0162 -0.7228
  590MPD2     N 8806   0.498   3.392  16.047 -0.0206 -0.0056  0.6256
  590MPD2    H5 8807   0.458   3.485  16.036 -0.1268 -0.2643 -1.1248
  590MPD2    N1 8808   0.168   3.365  16.385 -0.8438  0.3537  0.1801
  590MPD2    H7 8809   0.109   3.307  16.445 -1.3056  0.5903 -0.0405
  591TMC3    C1 8810   0.656   3.469  15.888  0.2485  0.3398  0.4797
  591TMC3    C2 8811   0.747   3.429  15.790 -0.7322 -0.0844 -0.3941
  591TMC3    C3 8812   0.765   3.514  15.681 -0.3728  0.0708  0.1261
  591TMC3    C4 8813   0.582   3.585  15.875  0.0107  0.2763  0.0852
  591TMC3    C5 8814   0.609   3.664  15.767 -0.2424  0.5872 -0.4588
  591TMC3    C6 8815   0.701   3.630  15.668 -0.4203  0.0014  0.4236
  591TMC3     C 8816   0.609   3.362  15.973 -0.0938 -0.4788 -0.3701
  591TMC3     O 8817   0.670   3.255  15.973 -0.0658  0.0129 -0.1479
  591TMC3     H 8818   0.802   3.335  15.796  0.9778  1.1530  3.6927
  591TMC3    H1 8819   0.514   3.616  15.953 -0.3121 -0.1303 -0.0330
  591TMC3    H2 8820   0.730   3.694  15.586  1.2856 -2.6908 -1.1028
  591TMC3    C7 8821   0.537   3.793  15.764  0.4438 -0.3149  0.0346
  591TMC3    C8 8822   0.821   3.443  15.569  0.2252 -0.9040 -0.5490
  591TMC3    O1 8823   0.440   3.822  15.836  0.0649 -0.5369 -0.3261
  591TMC3    O2 8824   0.853   3.324  15.576 -0.1176  0.2428  0.8801
  592MPD2     C 8825   0.595   0.568  11.489 -0.1900 -0.1720 -0.1564
  592MPD2    C1 8826   0.483   0.640  11.540 -0.0068  1.2732 -0.5137
  592MPD2    C2 8827   0.361   0.581  11.561 -0.0047 -0.1346  0.4447
  592MPD2    C3 8828   0.353   0.446  11.547 -0.4370  0.6661 -0.3865
  592MPD2    C4 8829   0.458   0.376  11.496 -0.9324 -0.1461  0.3881
  592MPD2    C5 8830   0.577   0.440  11.464  0.2892 -0.4232  0.1237
  592MPD2     H 8831   0.270   0.622  11.603  0.3126 -2.9521  3.8549
  592MPD2    H1 8832   0.441   0.274  11.464  2.1620 -0.0743 -1.4892
  592MPD2    H2 8833   0.690   0.618  11.471  0.9622 -1.7325  1.6414
  592MPD2    H3 8834   0.646   0.377  11.410 -0.2129 -0.6544 -0.2521
  592MPD2     N 8835   0.239   0.371  11.578  0.1651  0.0935 -0.0067
  592MPD2    H5 8836   0.155   0.422  11.603 -0.0620  0.6707 -1.9312
  592MPD2    N1 8837   0.503   0.772  11.578  0.1400  0.4797  0.2341
  592MPD2    H7 8838   0.594   0.810  11.558 -0.5549  1.2714 -1.4416
  593TMC3    C1 8839   0.476   0.978  11.695 -0.0139  1.0281 -0.2980
  593TMC3    C2 8840   0.487   0.988  11.835  0.7043  0.8708  0.4420
  593TMC3    C3 8841   0.578   1.083  11.876  0.5540 -0.3463 -0.6331
  593TMC3    C4 8842   0.557   1.035  11.606 -0.1192 -0.0517  0.4264
  593TMC3    C5 8843   0.652   1.133  11.656 -0.3175 -0.0209  0.5331
  593TMC3    C6 8844   0.654   1.160  11.790  0.4967  0.1964  0.4448
  593TMC3     C 8845   0.415   0.845  11.656 -0.5121 -0.2666 -0.1495
  593TMC3     O 8846   0.313   0.810  11.711  0.1796 -0.1044  0.4080
  593TMC3     H 8847   0.431   0.923  11.902  1.4284  1.4380  1.5954
  593TMC3    H1 8848   0.542   1.022  11.500  0.9385  2.7742 -0.0732
  593TMC3    H2 8849   0.736   1.224  11.820 -0.5498  1.4670  0.5503
  593TMC3    C7 8850   0.730   1.214  11.568  0.3919  0.3657  0.1291
  593TMC3    C8 8851   0.601   1.071  12.022 -0.3785  0.2113  0.4943
  593TMC3    O1 8852   0.773   1.319  11.615 -0.1184  0.3411  0.6873
  593TMC3    O2 8853   0.576   0.965  12.071  0.1760 -0.4528  0.4716
  594MPD2     C 8854   4.257   3.839  14.572  0.5217 -0.4962  0.0497
  594MPD2    C1 8855   4.203   3.965  14.578 -0.0818 -0.5337  0.4416
  594MPD2    C2 8856   4.259   4.071  14.505 -0.0697 -0.5393  0.3043
  594MPD2    C3 8857   4.348   4.040  14.405  0.3960 -0.3102 -0.5017
  594MPD2    C4 8858   4.377   3.903  14.380 -0.2308  0.1774  0.2586
  594MPD2    C5 8859   4.341   3.809  14.471  0.2101 -0.2733  0.0544
  594MPD2     H 8860   4.237   4.176  14.523  0.3161 -0.5206  0.6755
  594MPD2    H1 8861   4.456   3.873  14.314 -0.6106  0.8406 -0.4985
  594MPD2    H2 8862   4.222   3.757  14.633  1.3273 -0.3843  0.6487
  594MPD2    H3 8863   4.371   3.706  14.461 -0.9840 -0.6791  0.6100
  594MPD2     N 8864   4.374   4.129  14.299  0.5714  0.1352 -0.6552
  594MPD2    H5 8865   4.324   4.216  14.311 -0.6259 -0.5591 -0.5409
  594MPD2    N1 8866   4.090   3.983  14.666  0.1644  0.2985 -0.6234
  594MPD2    H7 8867   4.065   3.905  14.725  0.2174  0.2157 -0.7105
  595TMC3    C1 8868   4.584   4.340  13.946 -0.5388  0.4704  0.9320
  595TMC3    C2 8869   4.545   4.222  14.007 -0.4231 -0.4882  0.2439
  595TMC3    C3 8870   4.481   4.234  14.128 -0.5685 -0.2883 -0.3679
  595TMC3    C4 8871   4.562   4.462  14.009 -0.9511  0.3912 -0.4587
  595TMC3    C5 8872   4.494   4.466  14.125 -0.1638 -1.2300  0.9898
  595TMC3    C6 8873   4.447   4.352  14.186 -0.0777 -0.5730  0.1414
  595TMC3     C 8874   4.695   4.321  13.857 -0.0212  0.1641 -0.4038
  595TMC3     O 8875   4.680   4.264  13.751  0.0068 -0.0783 -0.4021
  595TMC3     H 8876   4.563   4.128  13.957 -0.9611 -0.0348 -0.8090
  595TMC3    H1 8877   4.592   4.553  13.957  0.8126 -0.1179 -0.3317
  595TMC3    H2 8878   4.404   4.362  14.285 -0.3823  2.1275 -0.2742
  595TMC3    C7 8879   4.418   4.585  14.164  0.0466  0.2737  0.5112
  595TMC3    C8 8880   4.468   4.114  14.202 -0.3139 -0.2481 -0.6305
  595TMC3    O1 8881   4.314   4.569  14.226 -0.0803  0.0327  0.3774
  595TMC3    O2 8882   4.551   4.028  14.172  0.4124  0.1559 -0.2374
  596MPD2     C 8883   3.462   2.227  16.828  0.6325 -0.8463 -0.0935
  596MPD2    C1 8884   3.468   2.342  16.757 -0.0852  1.2659  0.3014
  596MPD2    C2 8885   3.505   2.346  16.625  0.7619 -0.0193  0.4966
  596MPD2    C3 8886   3.518   2.229  16.557 -0.8749 -0.1380 -0.2797
  596MPD2    C4 8887   3.500   2.109  16.621 -0.5067  0.6400 -0.2835
  596MPD2    C5 8888   3.476   2.107  16.751  0.4861  0.0813 -0.6915
  596MPD2     H 8889   3.514   2.447  16.586 -0.8159  0.4635  1.4151
  596MPD2    H1 8890   3.513   2.017  16.566 -0.2111  0.9226 -0.6873
  596MPD2    H2 8891   3.443   2.204  16.932  0.4542  3.0221  0.7281
  596MPD2    H3 8892   3.486   2.013  16.806 -1.5831  0.4403  0.3071
  596MPD2     N 8893   3.547   2.221  16.419 -0.3297 -0.1834 -0.2230
  596MPD2    H5 8894   3.538   2.128  16.379 -0.5574  0.4721 -1.6875
  596MPD2    N1 8895   3.440   2.465  16.819 -0.4216  0.2743  0.2193
  596MPD2    H7 8896   3.459   2.553  16.773  1.2862 -0.7554 -1.0746
  597TMC3    C1 8897   3.382   2.603  17.007 -0.1705 -0.8686 -0.2339
  597TMC3    C2 8898   3.461   2.701  16.960  0.7784 -0.5643 -0.0935
  597TMC3    C3 8899   3.435   2.823  17.004  0.5064 -0.4880  0.3203
  597TMC3    C4 8900   3.282   2.620  17.097  0.4604  0.1144 -0.2499
  597TMC3    C5 8901   3.256   2.748  17.131  0.1862 -0.7789  0.0437
  597TMC3    C6 8902   3.336   2.850  17.096  0.2145  0.9980 -0.0795
  597TMC3     C 8903   3.384   2.471  16.944  0.0242  0.0213 -0.2360
  597TMC3     O 8904   3.312   2.386  16.992 -0.7807  0.2479 -0.2325
  597TMC3     H 8905   3.547   2.679  16.897 -1.5531 -0.3521 -3.3957
  597TMC3    H1 8906   3.216   2.542  17.134  0.9888 -0.2282 -0.0320
  597TMC3    H2 8907   3.324   2.947  17.143 -0.6333 -0.4112  2.6194
  597TMC3    C7 8908   3.128   2.778  17.196 -0.1853 -0.2787 -0.7577
  597TMC3    C8 8909   3.530   2.923  16.982  0.0215  0.1756  0.3399
  597TMC3    O1 8910   3.063   2.687  17.245 -0.4262  0.1435  0.2531
  597TMC3    O2 8911   3.531   3.010  17.067  0.9629  0.0054 -0.3720
  598TMC3    C1 8912   1.306   3.428  15.396  0.1475  0.0100  0.1916
  598TMC3    C2 8913   1.279   3.293  15.373 -0.5401 -0.3852  0.2749
  598TMC3    C3 8914   1.274   3.249  15.247 -0.1439  0.2056 -0.7307
  598TMC3    C4 8915   1.330   3.519  15.300 -0.5384  0.2001  0.0510
  598TMC3    C5 8916   1.321   3.471  15.169  0.1532  0.0912  0.7698
  598TMC3    C6 8917   1.292   3.336  15.138 -0.8392  0.9264  0.3665
  598TMC3     C 8918   1.281   3.464  15.540 -0.9557  0.7157 -0.0068
  598TMC3     O 8919   1.305   3.376  15.620 -0.3789 -0.0462  0.7814
  598TMC3     H 8920   1.238   3.235  15.455 -1.6095 -0.1379 -0.0914
  598TMC3    H1 8921   1.352   3.624  15.318  0.4480  0.2774 -1.5991
  598TMC3    H2 8922   1.273   3.303  15.037 -0.8856 -1.1851  1.0442
  598TMC3    C7 8923   1.347   3.546  15.052  0.1623  0.4555 -0.5787
  598TMC3    C8 8924   1.258   3.106  15.226  0.3701 -0.4179  0.0039
  598TMC3    O1 8925   1.320   3.494  14.946  0.5976 -0.3708  0.3113
  598TMC3    O2 8926   1.203   3.043  15.319 -0.1431 -0.0098 -0.2670
  599MPD2     C 8927   1.795   1.420  15.888 -0.4557  0.0723 -0.1770
  599MPD2    C1 8928   1.736   1.299  15.887 -0.1809  0.2559  0.1362
  599MPD2    C2 8929   1.600   1.292  15.892 -0.5740 -0.7180 -0.3668
  599MPD2    C3 8930   1.521   1.406  15.915  0.3826  0.0261  0.0105
  599MPD2    C4 8931   1.584   1.530  15.912 -0.2674 -0.2239 -0.3200
  599MPD2    C5 8932   1.723   1.538  15.909 -0.2343  0.4762  0.3013
  599MPD2     H 8933   1.553   1.195  15.876 -1.2521 -0.4342 -0.1081
  599MPD2    H1 8934   1.526   1.620  15.924  0.7189  0.6429 -2.0582
  599MPD2    H2 8935   1.900   1.441  15.874 -0.5111  0.5672  0.1518
  599MPD2    H3 8936   1.788   1.624  15.925  0.6656 -0.1372 -0.0379
  599MPD2     N 8937   1.383   1.406  15.947  0.3387  0.4291  0.2340
  599MPD2    H5 8938   1.337   1.496  15.959  1.4476  0.7372  2.1925
  599MPD2    N1 8939   1.826   1.186  15.864 -0.6633 -0.1550  0.2863
  599MPD2    H7 8940   1.919   1.220  15.885 -0.7874  1.2891 -1.4812
  600TMC3    C1 8941   1.167   1.322  16.021  0.1005  0.0080  0.0982
  600TMC3    C2 8942   1.081   1.218  16.033  0.4474 -0.4913  0.3590
  600TMC3    C3 8943   0.957   1.250  16.091 -0.0230  0.0683  0.3394
  600TMC3    C4 8944   1.138   1.458  16.048 -0.0330  0.6049  0.0252
  600TMC3    C5 8945   1.011   1.483  16.090  0.0978 -0.1132 -0.3127
  600TMC3    C6 8946   0.922   1.385  16.121  0.8672 -0.3228  0.0834
  600TMC3     C 8947   1.312   1.296  15.985 -0.2892  0.2225  0.2483
  600TMC3     O 8948   1.348   1.179  15.996  0.3985 -0.2118  0.2432
  600TMC3     H 8949   1.101   1.117  15.998 -1.2764 -1.0908  1.1414
  600TMC3    H1 8950   1.217   1.532  16.057 -0.2146  0.9571 -1.3340
  600TMC3    H2 8951   0.827   1.413  16.163 -0.7929 -4.2560 -1.0926
  600TMC3    C7 8952   0.991   1.624  16.128 -0.3137 -0.1006  0.3232
  600TMC3    C8 8953   0.877   1.135  16.139  0.3063 -0.3828 -0.3586
  600TMC3    O1 8954   0.931   1.647  16.230 -0.3267 -0.2758  0.4379
  600TMC3    O2 8955   0.941   1.046  16.194  0.6287 -0.5568 -0.3827
  601MPD2     C 8956   3.846   4.372   0.078  0.8251  0.0169  0.6062
  601MPD2    C1 8957   3.717   4.377   0.118  0.1112 -0.4825 -0.3605
  601MPD2    C2 8958   3.667   4.289   0.207  0.2560  0.3191 -0.5160
  601MPD2    C3 8959   3.756   4.197   0.267  0.3136 -0.2113 -0.0983
  601MPD2    C4 8960   3.888   4.194   0.238  0.2205  0.1170 -0.8570
  601MPD2    C5 8961   3.935   4.284   0.142  0.7548 -0.0951  0.0194
  601MPD2     H 8962   3.560   4.290   0.226  0.2651 -0.0220 -0.4587
  601MPD2    H1 8963   3.962   4.135   0.291  1.0452  1.5860 -0.3766
  601MPD2    H2 8964   3.883   4.447   0.008  1.7605 -0.8238  0.2033
  601MPD2    H3 8965   4.040   4.284   0.116  0.9337 -1.0861  0.7309
  601MPD2     N 8966   3.717   4.098   0.360 -0.4388  0.6686  0.0338
  601MPD2    H5 8967   3.787   4.038   0.402 -1.1719  0.3507  0.7998
  601MPD2    N1 8968   3.624   4.472   0.064  0.2280  0.2057 -0.5499
  601MPD2    H7 8969   3.529   4.460   0.098  0.5555  0.0695  0.3232
  602TMC3    C1 8970   3.537   4.663  17.712  0.5376 -0.7645 -0.3902
  602TMC3    C2 8971   3.549   0.059  17.721 -0.2488  0.3220 -0.0448
  602TMC3    C3 8972   3.430   0.130  17.697  0.7193 -0.2413  0.5151
  602TMC3    C4 8973   3.420   4.598  17.682  0.1461 -0.3946 -0.2285
  602TMC3    C5 8974   3.302   4.673  17.681  0.3662 -0.8409 -0.2249
  602TMC3    C6 8975   3.302   0.072  17.698  0.3962  0.0884  0.0243
  602TMC3     C 8976   3.650   4.587  17.748 -0.5324  0.6247  0.0494
  602TMC3     O 8977   3.756   4.641  17.724  0.0115 -0.2244  0.1807
  602TMC3     H 8978   3.640   0.118  17.725  0.3770 -0.5792 -0.9059
  602TMC3    H1 8979   3.413   4.491  17.667 -1.4934 -0.2126 -0.7655
  602TMC3    H2 8980   3.211   0.128  17.714 -0.9108 -1.3560 -2.4718
  602TMC3    C7 8981   3.189   4.617  17.601 -0.3953 -0.2798 -0.0696
  602TMC3    C8 8982   3.446   0.273  17.664 -0.2118 -1.0398  0.0683
  602TMC3    O1 8983   3.185   4.498  17.575 -0.0826  0.2568  0.1400
  602TMC3    O2 8984   3.563   0.312  17.657 -0.4932  0.1446 -0.3711
  603TMC3    C1 8985   1.253   0.039  11.249  0.0288 -0.1284  0.2459
  603TMC3    C2 8986   1.318   4.733  11.360  0.3955  0.2119 -0.5478
  603TMC3    C3 8987   1.347   0.094  11.458 -0.4569  0.3532 -0.0500
  603TMC3    C4 8988   1.222   0.172  11.229  0.2919 -0.4882 -0.0780
  603TMC3    C5 8989   1.250   0.262  11.330  0.0667 -0.2196  0.2066
  603TMC3    C6 8990   1.319   0.226  11.448 -0.6357 -0.1170 -0.0328
  603TMC3     C 8991   1.233   4.698  11.128 -0.0802 -0.0856  1.1319
  603TMC3     O 8992   1.148   4.735  11.048 -0.0862  0.1222  0.2358
  603TMC3     H 8993   1.352   4.632  11.380 -0.3392  0.4396  1.8833
  603TMC3    H1 8994   1.167   0.207  11.143  1.0717 -0.9287 -0.7544
  603TMC3    H2 8995   1.315   0.295  11.531 -3.2212  1.2588 -1.3269
  603TMC3    C7 8996   1.277   0.396  11.291  0.6244  0.0604 -0.0918
  603TMC3    C8 8997   1.436   0.054  11.564 -0.0798  0.2427 -0.4948
  603TMC3    O1 8998   1.288   0.478  11.383  0.1719  0.6407  0.1989
  603TMC3    O2 8999   1.444   4.671  11.588  0.4373 -0.4799  0.0831
  604MPD2     C 9000   2.496   3.259  16.196  0.3563  0.3314 -0.6946
  604MPD2    C1 9001   2.407   3.321  16.118 -0.0883  0.0478 -0.4810
  604MPD2    C2 9002   2.444   3.364  15.994 -0.5888 -0.7751  0.1858
  604MPD2    C3 9003   2.575   3.336  15.947 -0.2603  0.0067  0.1543
  604MPD2    C4 9004   2.662   3.268  16.034 -0.4896  0.3940  0.4213
  604MPD2    C5 9005   2.623   3.239  16.165  0.4226  0.5458 -0.3897
  604MPD2     H 9006   2.369   3.406  15.929  1.3536 -1.2841 -2.3948
  604MPD2    H1 9007   2.762   3.241  16.001 -1.0866 -1.6652  0.2614
  604MPD2    H2 9008   2.474   3.221  16.295 -0.3607 -2.5362 -1.9524
  604MPD2    H3 9009   2.691   3.186  16.230 -0.3170 -0.8061 -0.7302
  604MPD2     N 9010   2.607   3.376  15.815  0.0391 -0.2057  0.4995
  604MPD2    H5 9011   2.536   3.415  15.754  1.5589  0.7197 -0.7088
  604MPD2    N1 9012   2.288   3.350  16.184 -0.4014  0.4251  0.0251
  604MPD2    H7 9013   2.277   3.298  16.270  0.1581  2.7115  1.4853
  605TMC3    C1 9014   2.104   3.482  16.256  0.0715 -0.1837 -0.5466
  605TMC3    C2 9015   2.166   3.484  16.379  0.0646  0.4907 -0.0012
  605TMC3    C3 9016   2.182   3.604  16.443  0.3908 -0.3195 -0.2988
  605TMC3    C4 9017   2.022   3.587  16.219 -0.1589 -0.1793 -0.1049
  605TMC3    C5 9018   2.038   3.711  16.283 -0.6965 -0.1682 -0.0868
  605TMC3    C6 9019   2.117   3.719  16.402  0.4666  0.3123 -0.0532
  605TMC3     C 9020   2.180   3.427  16.143  0.6954  0.8762  0.0252
  605TMC3     O 9021   2.170   3.489  16.039 -0.8126 -0.2565 -0.2832
  605TMC3     H 9022   2.204   3.387  16.410  0.5574  1.3315  2.0025
  605TMC3    H1 9023   1.970   3.581  16.124 -1.7222  1.9006  0.6177
  605TMC3    H2 9024   2.143   3.817  16.440 -0.9193  0.3338  0.8431
  605TMC3    C7 9025   1.950   3.820  16.255  0.3605 -0.1381 -0.0042
  605TMC3    C8 9026   2.300   3.611  16.528  0.1802  1.0107 -0.1602
  605TMC3    O1 9027   1.949   3.916  16.331  0.0225  0.2155  0.3709
  605TMC3    O2 9028   2.320   3.515  16.603 -0.2936 -0.4321 -0.0202
  606TMC3    C1 9029   3.503   1.431   0.317  0.1273  0.5051 -0.1716
  606TMC3    C2 9030   3.596   1.481   0.222 -0.0885  0.0822  0.0307
  606TMC3    C3 9031   3.568   1.471   0.091  0.4569 -0.3172 -0.4592
  606TMC3    C4 9032   3.388   1.379   0.284 -0.5419  0.5478  0.2016
  606TMC3    C5 9033   3.357   1.383   0.151  0.6907  0.2890 -0.1475
  606TMC3    C6 9034   3.446   1.418   0.051 -0.1273 -0.8137 -0.0970
  606TMC3     C 9035   3.509   1.501   0.448 -0.6769 -0.0377  0.1626
  606TMC3     O 9036   3.617   1.549   0.480  0.0000  0.1635 -0.3783
  606TMC3     H 9037   3.688   1.528   0.255 -0.2047  0.0229  0.4379
  606TMC3    H1 9038   3.325   1.350   0.367  0.5705 -0.0489  0.8488
  606TMC3    H2 9039   3.420   1.412  17.699 -1.3827  0.9807  0.1169
  606TMC3    C7 9040   3.245   1.305   0.104 -0.3304 -0.1920 -0.4017
  606TMC3    C8 9041   3.655   1.540  17.750  0.1150  0.2451 -0.2519
  606TMC3    O1 9042   3.224   1.204   0.172  0.3068  0.1115 -0.2600
  606TMC3    O2 9043   3.758   1.581   0.046  0.0253 -0.1777 -0.0447
  607MPD2     C 9044   0.469   0.205  12.090  0.8042 -0.4006 -0.0188
  607MPD2    C1 9045   0.530   0.281  12.186  0.5765  0.1905 -0.3815
  607MPD2    C2 9046   0.535   0.232  12.314  0.3563  0.2269 -1.0094
  607MPD2    C3 9047   0.472   0.113  12.350 -0.2775  0.2454 -0.2059
  607MPD2    C4 9048   0.403   0.042  12.256 -0.6393  0.1038  0.0146
  607MPD2    C5 9049   0.401   0.088  12.126  0.6622 -0.5003  0.2339
  607MPD2     H 9050   0.595   0.288  12.385 -0.7006  2.4852 -1.8964
  607MPD2    H1 9051   0.359   4.691  12.298  1.9435 -0.8457  0.6552
  607MPD2    H2 9052   0.456   0.244  11.989  0.3163 -0.6034 -0.0327
  607MPD2    H3 9053   0.339   0.050  12.045  1.3898  0.1526 -0.6414
  607MPD2     N 9054   0.493   0.065  12.488  0.3821 -0.6497 -0.2032
  607MPD2    H5 9055   0.538   0.133  12.549  0.2895  0.7232 -1.6456
  607MPD2    N1 9056   0.612   0.392  12.161  0.1056  0.6736  0.2770
  607MPD2    H7 9057   0.653   0.443  12.239  2.2546  2.6601 -2.1705
  608TMC3    C1 9058   0.750   0.535  12.054 -0.1729  1.1958 -0.7539
  608TMC3    C2 9059   0.841   0.510  12.158 -0.6561  0.2436 -0.0581
  608TMC3    C3 9060   0.945   0.603  12.173  0.3254 -0.0357  0.2134
  608TMC3    C4 9061   0.771   0.628  11.961  0.0538 -0.3888 -0.2796
  608TMC3    C5 9062   0.873   0.721  11.988 -0.2759 -0.1062 -0.5116
  608TMC3    C6 9063   0.958   0.713  12.101 -0.2143 -0.2455  0.3950
  608TMC3     C 9064   0.647   0.436  12.040  0.1195 -0.5192 -0.2507
  608TMC3     O 9065   0.615   0.405  11.925  0.5007  0.2637 -0.4702
  608TMC3     H 9066   0.844   0.423  12.223  0.1792 -1.8916 -2.9817
  608TMC3    H1 9067   0.704   0.637  11.876 -1.1282 -0.6062  0.6421
  608TMC3    H2 9068   1.031   0.788  12.130 -0.1887 -0.6123  1.2760
  608TMC3    C7 9069   0.883   0.832  11.893 -0.7241  0.4335  0.5803
  608TMC3    C8 9070   1.025   0.594  12.293 -0.1154  0.4013  0.1122
  608TMC3    O1 9071   0.851   0.805  11.775  0.6657 -0.0346 -0.4076
  608TMC3    O2 9072   1.146   0.613  12.287 -0.1362 -0.4197 -0.4222
  609TMC3    C1 9073   4.074   0.052   9.305  0.1278  0.3138  0.5196
  609TMC3    C2 9074   4.120   0.183   9.289 -0.0189  0.6753  0.1734
  609TMC3    C3 9075   4.251   0.193   9.252  0.2220 -0.1221  0.6727
  609TMC3    C4 9076   4.153   4.680   9.295  0.4852  0.2206 -1.1004
  609TMC3    C5 9077   4.282   4.706   9.260  0.2561 -1.0949 -0.0784
  609TMC3    C6 9078   4.340   0.086   9.257  0.0413 -0.7491 -0.5151
  609TMC3     C 9079   3.932   0.028   9.313 -0.3929  0.8556  0.1070
  609TMC3     O 9080   3.900   4.663   9.368  0.3232 -1.0702  0.2157
  609TMC3     H 9081   4.055   0.267   9.310  0.8829  1.3194  0.3901
  609TMC3    H1 9082   4.108   4.585   9.322 -1.2799  1.4510  0.3053
  609TMC3    H2 9083   4.436   0.105   9.211 -0.6074  2.4748 -0.5709
  609TMC3    C7 9084   4.379   4.605   9.279 -0.4307  0.0973  0.2649
  609TMC3    C8 9085   4.307   0.328   9.237 -0.1309  0.0739  0.2915
  609TMC3    O1 9086   4.495   4.638   9.292 -0.4436  0.1507 -0.3342
  609TMC3    O2 9087   4.432   0.338   9.224 -0.2071 -0.5920  0.0870
  610TMC3    C1 9088   1.449   0.476  12.171 -0.1295  0.2830 -0.4959
  610TMC3    C2 9089   1.330   0.421  12.150 -0.1670  0.1242  0.2722
  610TMC3    C3 9090   1.287   0.319  12.224 -0.0582  0.3095 -0.3478
  610TMC3    C4 9091   1.526   0.440  12.279 -0.5025  0.0725  0.1752
  610TMC3    C5 9092   1.472   0.340  12.356  0.3851 -0.2782  0.0459
  610TMC3    C6 9093   1.363   0.270  12.327 -0.0632  0.3037  0.0592
  610TMC3     C 9094   1.474   0.612  12.122  0.2076 -0.1377  0.1254
  610TMC3     O 9095   1.591   0.646  12.098  0.8965  0.0838  0.1299
  610TMC3     H 9096   1.272   0.466  12.070 -0.7739  0.8013  1.0906
  610TMC3    H1 9097   1.618   0.492  12.302 -1.3163  2.0114 -0.9176
  610TMC3    H2 9098   1.331   0.180  12.379 -1.7155  1.3911  0.9121
  610TMC3    C7 9099   1.546   0.291  12.472 -0.5973  0.0747 -0.5166
  610TMC3    C8 9100   1.169   0.263  12.182  0.3160 -1.3248 -0.7558
  610TMC3    O1 9101   1.661   0.329  12.475 -0.0923  0.1456  0.1968
  610TMC3    O2 9102   1.143   0.295  12.070  0.0571 -0.2804  0.1003
  611MPD2     C 9103   0.952   0.059  10.139  0.1207 -0.0189  0.8450
  611MPD2    C1 9104   0.904   0.172  10.200 -0.3971 -0.3537 -0.4841
  611MPD2    C2 9105   0.976   0.284  10.226 -0.1518 -0.4810  1.0183
  611MPD2    C3 9106   1.104   0.299  10.179 -0.3123 -0.1530  0.1197
  611MPD2    C4 9107   1.154   0.195  10.105  0.7030 -1.1957  0.3306
  611MPD2    C5 9108   1.080   0.077  10.094 -0.1215 -0.0038  0.0086
  611MPD2     H 9109   0.935   0.371  10.277 -0.1195  0.4361 -0.5007
  611MPD2    H1 9110   1.258   0.199  10.076  0.6753 -0.9292  0.2687
  611MPD2    H2 9111   0.906   4.700  10.142  1.4627 -0.7028 -0.7966
  611MPD2    H3 9112   1.130   4.729  10.053 -0.9526 -0.9362  0.9898
  611MPD2     N 9113   1.188   0.399  10.224 -0.0084  0.2194  0.0131
  611MPD2    H5 9114   1.281   0.400  10.183  0.1185 -0.5978  0.2861
  611MPD2    N1 9115   0.765   0.156  10.219 -0.5632  0.4030  0.2288
  611MPD2    H7 9116   0.735   0.065  10.185 -2.3231  0.8743  0.5032
  612TMC3    C1 9117   1.280   0.569  10.354 -0.1067 -0.4303  0.1610
  612TMC3    C2 9118   1.295   0.596  10.490 -0.0139 -0.4055  0.2664
  612TMC3    C3 9119   1.374   0.706  10.521 -0.4177  0.2271  0.2080
  612TMC3    C4 9120   1.331   0.643  10.255 -0.1682  0.6040  0.4584
  612TMC3    C5 9121   1.395   0.753  10.295  0.4750  0.0515  1.0598
  612TMC3    C6 9122   1.422   0.785  10.423  0.7201 -0.1125 -1.3234
  612TMC3     C 9123   1.166   0.483  10.331  0.5977 -0.1731  0.0514
  612TMC3     O 9124   1.079   0.485  10.416  0.5331 -0.0128 -0.2518
  612TMC3     H 9125   1.232   0.543  10.561 -1.5921  0.9611 -0.1051
  612TMC3    H1 9126   1.283   0.644  10.158 -0.4717  1.4774  0.6194
  612TMC3    H2 9127   1.459   0.882  10.454 -0.2982  0.4382 -1.8271
  612TMC3    C7 9128   1.473   0.823  10.192 -0.5495 -0.2134  0.3105
  612TMC3    C8 9129   1.386   0.755  10.655  0.1340  0.2003  0.0926
  612TMC3    O1 9130   1.489   0.767  10.086 -0.5347 -0.7275  0.2028
  612TMC3    O2 9131   1.436   0.862  10.675  0.5011 -0.8163  0.0846
  613MPD2     C 9132   4.697   2.374  16.975 -0.1310  0.2797  0.2706
  613MPD2    C1 9133   4.606   2.402  16.875 -0.0958 -0.0194  0.6542
  613MPD2    C2 9134   4.502   2.312  16.842  0.3780  0.2899 -0.5937
  613MPD2    C3 9135   4.490   2.188  16.907  0.0879  0.3263 -0.4766
  613MPD2    C4 9136   4.581   2.160  17.005  0.5849 -0.4313 -0.2671
  613MPD2    C5 9137   4.676   2.251  17.041  0.0469  0.7489  0.1085
  613MPD2     H 9138   4.426   2.333  16.768 -2.4357 -0.8643  1.9822
  613MPD2    H1 9139   4.581   2.063  17.053  0.2496 -0.9983 -1.4359
  613MPD2    H2 9140   0.045   2.438  16.986  1.0687 -1.6170  1.7997
  613MPD2    H3 9141   0.006   2.222  17.120 -1.1881  1.5350  1.4593
  613MPD2     N 9142   4.402   2.080  16.872 -0.3618  0.1786 -1.0311
  613MPD2    H5 9143   4.421   1.992  16.919 -0.4947  0.9860  0.5681
  613MPD2    N1 9144   4.619   2.531  16.818 -0.1148 -0.3177 -0.1759
  613MPD2    H7 9145   4.711   2.571  16.833 -0.4447  0.9107 -1.4163
  614TMC3    C1 9146   4.598   2.677  16.632  0.1481 -0.0881 -0.9072
  614TMC3    C2 9147   4.698   2.599  16.570  0.5046  0.3940  0.5901
  614TMC3    C3 9148   4.693   2.586  16.431 -0.5572 -0.5348 -0.3090
  614TMC3    C4 9149   4.521   2.758  16.553  0.0744 -0.0917  0.9342
  614TMC3    C5 9150   4.533   2.755  16.418 -0.2849  0.5444 -0.4906
  614TMC3    C6 9151   4.618   2.670  16.353 -0.0523 -0.0707 -0.0814
  614TMC3     C 9152   4.532   2.600  16.732  0.5220 -0.2150  0.1109
  614TMC3     O 9153   4.410   2.578  16.726  0.1517  0.0209  0.0676
  614TMC3     H 9154   0.037   2.547  16.624 -0.7851 -0.1497  1.9167
  614TMC3    H1 9155   4.428   2.791  16.598 -0.4603 -0.1485 -0.0977
  614TMC3    H2 9156   4.637   2.666  16.246 -3.6885 -2.8436 -0.6257
  614TMC3    C7 9157   4.418   2.805  16.339  0.2738  0.5259 -0.1785
  614TMC3    C8 9158   4.707   2.447  16.398  0.7323  0.0555 -0.5782
  614TMC3    O1 9159   4.335   2.864  16.404 -0.5488  0.1271  0.1043
  614TMC3    O2 9160   4.697   2.379  16.500 -0.1564 -0.3234  0.0013
  615MPD2     C 9161   4.085   3.979  15.921 -0.0333 -0.2298  0.4358
  615MPD2    C1 9162   3.987   3.916  15.992  0.1895  0.2497 -0.2105
  615MPD2    C2 9163   3.866   3.887  15.930 -0.0401 -0.0800 -0.0479
  615MPD2    C3 9164   3.841   3.936  15.810 -0.6127 -0.3731 -0.4470
  615MPD2    C4 9165   3.934   4.019  15.748 -0.3394  0.1043  0.6247
  615MPD2    C5 9166   4.057   4.029  15.798  0.3034 -0.0561  0.1130
  615MPD2     H 9167   3.788   3.836  15.985  0.2598 -0.2043  0.2699
  615MPD2    H1 9168   3.919   4.052  15.647  2.7291 -0.4219 -0.0207
  615MPD2    H2 9169   4.187   4.001  15.951 -0.9236  3.9772  0.3553
  615MPD2    H3 9170   4.138   4.083  15.749 -0.6410  1.5095  0.2647
  615MPD2     N 9171   3.717   3.930  15.743  0.0922  0.6218 -0.3623
  615MPD2    H5 9172   3.716   3.971  15.650  3.1129  1.5137  0.0197
  615MPD2    N1 9173   4.006   3.876  16.124  0.4901 -0.2017  1.0248
  615MPD2    H7 9174   3.935   3.811  16.155 -0.3295 -1.1086 -2.7551
  616TMC3    C1 9175   4.081   3.886  16.350 -0.4369  1.0730  0.6105
  616TMC3    C2 9176   4.179   3.835  16.430 -0.6804 -0.3869 -0.5764
  616TMC3    C3 9177   4.153   3.848  16.562 -1.0404 -0.5774  0.8559
  616TMC3    C4 9178   3.955   3.921  16.393 -0.3538  0.9607 -0.2817
  616TMC3    C5 9179   3.929   3.923  16.531  0.3103 -0.8870 -0.3860
  616TMC3    C6 9180   4.036   3.892  16.616  0.2857  0.0990 -0.4886
  616TMC3     C 9181   4.113   3.889  16.212  0.3534 -0.4257 -0.6197
  616TMC3     O 9182   4.221   3.925  16.177  0.0820  0.2792  0.1285
  616TMC3     H 9183   4.273   3.795  16.394 -0.9187 -0.6858 -0.8723
  616TMC3    H1 9184   3.885   3.964  16.321  0.1136  1.5409 -0.3899
  616TMC3    H2 9185   4.034   3.929  16.718  2.4132 -1.0232 -0.0172
  616TMC3    C7 9186   3.814   3.986  16.587  0.0840  1.0517 -0.0889
  616TMC3    C8 9187   4.261   3.830  16.665 -0.2601  0.2878 -0.2486
  616TMC3    O1 9188   3.818   4.004  16.706 -0.4207 -0.0341 -0.0852
  616TMC3    O2 9189   4.223   3.819  16.783  0.6609 -0.2978 -0.1690
  617MPD2     C 9190   1.917   1.804  14.466  0.7812 -0.4624  0.4890
  617MPD2    C1 9191   1.851   1.782  14.342  0.6133  0.3699 -0.5365
  617MPD2    C2 9192   1.719   1.805  14.336 -0.3921 -0.2410  0.5262
  617MPD2    C3 9193   1.645   1.858  14.439 -0.6131 -0.1583 -0.6080
  617MPD2    C4 9194   1.715   1.883  14.560 -0.3894  0.7273 -0.3717
  617MPD2    C5 9195   1.847   1.851  14.574 -0.5819  0.6336 -0.6094
  617MPD2     H 9196   1.668   1.784  14.243 -1.2878 -0.7771  1.1437
  617MPD2    H1 9197   1.665   1.915  14.651  1.1310 -0.4916  0.9058
  617MPD2    H2 9198   2.023   1.790  14.479  0.9505  0.2419 -0.1820
  617MPD2    H3 9199   1.906   1.879  14.661  0.6045 -0.2567 -1.1321
  617MPD2     N 9200   1.502   1.884  14.429  0.7436  0.5447  0.1152
  617MPD2    H5 9201   1.472   1.911  14.522  0.1416 -1.1488  0.4120
  617MPD2    N1 9202   1.928   1.723  14.246 -0.8525 -0.3420 -0.0436
  617MPD2    H7 9203   2.019   1.685  14.269 -1.5810 -1.4594  1.0129
  618TMC3    C1 9204   1.997   1.636  14.047 -0.0892 -0.5564  0.3262
  618TMC3    C2 9205   1.962   1.572  13.936 -0.4650 -0.2776  0.1723
  618TMC3    C3 9206   2.052   1.538  13.842  0.3609 -0.8339 -0.1637
  618TMC3    C4 9207   2.120   1.678  14.061  0.3948 -0.4860  0.7992
  618TMC3    C5 9208   2.212   1.659  13.964 -0.0016 -0.6741  0.2936
  618TMC3    C6 9209   2.183   1.573  13.861 -0.3306  0.3605 -0.7464
  618TMC3     C 9210   1.891   1.697  14.118  0.0524 -0.2191 -0.2813
  618TMC3     O 9211   1.794   1.727  14.050  0.2716  0.0527  0.4270
  618TMC3     H 9212   1.860   1.537  13.945 -1.3698  2.4096  0.4061
  618TMC3    H1 9213   2.139   1.744  14.145 -0.4780  1.2117 -0.3350
  618TMC3    H2 9214   2.261   1.525  13.802 -0.5338  1.7131 -2.1072
  618TMC3    C7 9215   2.345   1.691  14.004 -0.3576 -0.3213  0.3795
  618TMC3    C8 9216   1.993   1.523  13.710  0.2384 -0.5079 -0.5646
  618TMC3    O1 9217   2.364   1.681  14.126  0.4228 -0.3364  0.0208
  618TMC3    O2 9218   1.875   1.493  13.704  0.3930  0.5034 -0.5393
  619MPD2     C 9219   3.824   3.568  13.967 -0.7545  0.0066  0.0365
  619MPD2    C1 9220   3.765   3.665  13.892 -0.3062 -0.2952  0.2344
  619MPD2    C2 9221   3.655   3.634  13.813  0.1835  0.2136 -0.1831
  619MPD2    C3 9222   3.606   3.501  13.802 -0.5127  0.0090 -0.4490
  619MPD2    C4 9223   3.668   3.404  13.884 -0.3154 -0.6752  0.2623
  619MPD2    C5 9224   3.775   3.442  13.961 -0.0859 -0.1209  0.5569
  619MPD2     H 9225   3.595   3.714  13.771  2.6423  2.0073 -0.2227
  619MPD2    H1 9226   3.640   3.299  13.882  1.5862 -1.1675  0.2164
  619MPD2    H2 9227   3.909   3.588  14.032 -1.7205 -3.0284  2.2497
  619MPD2    H3 9228   3.821   3.368  14.025  0.5223 -0.1020  0.1502
  619MPD2     N 9229   3.490   3.474  13.720 -0.7550  0.1765 -0.7040
  619MPD2    H5 9230   3.435   3.394  13.750 -0.3964 -0.2041 -1.0559
  619MPD2    N1 9231   3.799   3.804  13.895 -0.0137 -0.3946 -0.5280
  619MPD2    H7 9232   3.760   3.853  13.815 -0.8731 -2.7677 -1.5469
  620TMC3    C1 9233   3.828   4.013  13.991  0.1153 -0.9521 -0.0905
  620TMC3    C2 9234   3.849   4.070  13.868 -0.4087 -0.2762 -0.2692
  620TMC3    C3 9235   3.762   4.164  13.822 -0.4066  0.8657  0.2266
  620TMC3    C4 9236   3.736   4.063  14.073 -0.6425  1.1057  0.2157
  620TMC3    C5 9237   3.661   4.171  14.035  0.3520  0.2607  0.2960
  620TMC3    C6 9238   3.685   4.224  13.916  0.4825 -0.5171  0.1037
  620TMC3     C 9239   3.850   3.869  14.002  0.0044  0.3708  0.8531
  620TMC3     O 9240   3.873   3.821  14.114 -0.3719 -0.7755  0.0586
  620TMC3     H 9241   3.916   4.016  13.801  0.4916  0.0375  0.3709
  620TMC3    H1 9242   3.726   4.023  14.173 -1.5390 -0.7033 -0.6050
  620TMC3    H2 9243   3.621   4.308  13.889 -0.7081 -1.0826  1.1716
  620TMC3    C7 9244   3.532   4.189  14.097 -0.4259  0.1988  0.0663
  620TMC3    C8 9245   3.667   4.095  13.737 -0.4475 -0.4197 -1.0489
  620TMC3    O1 9246   3.506   4.117  14.191  0.0049 -0.2825 -1.1249
  620TMC3    O2 9247   3.684   3.974  13.711  0.0555  0.2286  0.5286
  621MPD2     C 9248   3.747   3.972   9.906  0.7239  0.3463  0.2436
  621MPD2    C1 9249   3.734   4.015   9.776  0.5763 -0.1607 -0.1054
  621MPD2    C2 9250   3.822   4.107   9.728  0.1633 -0.0845  0.5138
  621MPD2    C3 9251   3.916   4.167   9.805 -0.0662 -0.6125 -0.4317
  621MPD2    C4 9252   3.932   4.127   9.937 -0.1256  0.2815 -0.6124
  621MPD2    C5 9253   3.851   4.029   9.981 -0.3470 -0.0448 -0.1410
  621MPD2     H 9254   3.819   4.129   9.622  0.0884 -0.8683  0.3515
  621MPD2    H1 9255   4.004   4.169  10.006  0.4178 -1.2898 -0.2123
  621MPD2    H2 9256   3.685   3.899   9.958 -0.5330  1.3578  0.1387
  621MPD2    H3 9257   3.852   4.009  10.088  1.8633 -1.2556 -0.3938
  621MPD2     N 9258   4.000   4.261   9.741 -0.3730 -0.1752  0.6649
  621MPD2    H5 9259   4.009   4.259   9.640 -1.2804 -1.4988  0.6084
  621MPD2    N1 9260   3.637   3.967   9.690 -0.7059 -0.0185 -0.0027
  621MPD2    H7 9261   3.639   4.014   9.600  0.4997  1.8703  1.0046
  622TMC3    C1 9262   3.433   3.895   9.628 -0.8776 -0.5138 -0.1536
  622TMC3    C2 9263   3.364   3.786   9.592  0.1403  0.9721  0.2639
  622TMC3    C3 9264   3.262   3.794   9.497  1.0753 -0.0615 -0.1106
  622TMC3    C4 9265   3.406   4.014   9.567  0.0947 -0.2501  0.3646
  622TMC3    C5 9266   3.319   4.019   9.462  0.5403  0.5183 -0.5807
  622TMC3    C6 9267   3.246   3.907   9.427 -0.4544 -0.2068 -0.2118
  622TMC3     C 9268   3.532   3.891   9.727 -0.4257  0.4896 -0.5528
  622TMC3     O 9269   3.506   3.820   9.821  0.4056  0.7667  0.0950
  622TMC3     H 9270   3.392   3.691   9.636 -0.5350  0.7758  0.2674
  622TMC3    H1 9271   3.445   4.108   9.604 -0.3909  0.2167 -0.3118
  622TMC3    H2 9272   3.162   3.911   9.358 -1.2619 -2.4873  0.6347
  622TMC3    C7 9273   3.289   4.150   9.418 -0.6511 -0.7624 -0.0646
  622TMC3    C8 9274   3.150   3.704   9.520  0.5627 -0.2383 -0.4579
  622TMC3    O1 9275   3.364   4.240   9.455 -0.2261  0.2035 -0.0390
  622TMC3    O2 9276   3.097   3.653   9.419 -0.0606  0.0969  0.1608
  623MPD2     C 9277   2.748   3.733  15.777 -0.0015  0.4974 -0.7597
  623MPD2    C1 9278   2.676   3.784  15.884  0.2205 -0.1061 -0.5865
  623MPD2    C2 9279   2.741   3.854  15.980  0.8343  0.4380  0.0542
  623MPD2    C3 9280   2.881   3.867  15.990  0.4380 -0.3908 -0.1071
  623MPD2    C4 9281   2.954   3.814  15.886  0.1216 -0.1605  0.4928
  623MPD2    C5 9282   2.882   3.752  15.783  0.1059 -0.6023 -0.0092
  623MPD2     H 9283   2.679   3.902  16.054  0.1038 -3.4105  1.9186
  623MPD2    H1 9284   3.062   3.819  15.878  0.0507 -0.5051 -0.6933
  623MPD2    H2 9285   2.702   3.682  15.694  1.1860 -2.3241  0.3036
  623MPD2    H3 9286   2.940   3.713  15.699  1.7327  0.0048  0.8245
  623MPD2     N 9287   2.929   3.931  16.106  0.5370 -0.0854  0.8242
  623MPD2    H5 9288   2.862   3.960  16.175  0.0454 -0.0403  0.3261
  623MPD2    N1 9289   2.532   3.790  15.894 -0.6383 -0.0182 -0.0709
  623MPD2    H7 9290   2.487   3.857  15.956 -0.5828 -1.4649  1.5401
  624TMC3    C1 9291   3.130   3.992  16.483  0.0667 -0.2106  0.5085
  624TMC3    C2 9292   3.018   4.055  16.519 -0.6376 -0.2265 -0.1014
  624TMC3    C3 9293   2.925   4.084  16.423  0.1179 -0.7335  1.0980
  624TMC3    C4 9294   3.160   3.974  16.349 -0.6742 -0.8363 -0.4100
  624TMC3    C5 9295   3.073   4.032  16.258  0.2637 -0.9373 -0.2687
  624TMC3    C6 9296   2.960   4.087  16.291  0.3981  0.7589  0.7324
  624TMC3     C 9297   3.228   3.954  16.583  0.7455 -0.6003  0.3382
  624TMC3     O 9298   3.247   4.035  16.675 -0.7095 -0.1478  0.1770
  624TMC3     H 9299   3.012   4.076  16.625 -0.1737 -1.0822  0.0903
  624TMC3    H1 9300   3.251   3.921  16.322  0.1213  0.5884 -0.5224
  624TMC3    H2 9301   2.902   4.142  16.219 -2.2045 -2.3138  0.4867
  624TMC3    C7 9302   3.060   3.955  16.136 -0.1921  0.9016  0.2512
  624TMC3    C8 9303   2.800   4.010  16.433 -0.1044 -0.1606 -0.3754
  624TMC3    O1 9304   3.160   3.915  16.078 -0.1431  0.2958  0.1908
  624TMC3    O2 9305   2.748   3.972  16.328  0.0029  0.1894  0.2484
  625MPD2     C 9306   3.138   0.473   0.439  0.3506  1.4643  0.1408
  625MPD2    C1 9307   3.195   0.597   0.451  0.6807  0.5606 -0.2712
  625MPD2    C2 9308   3.331   0.602   0.491  0.0586 -0.1346  0.3114
  625MPD2    C3 9309   3.407   0.491   0.515  0.1848 -0.0114 -0.3558
  625MPD2    C4 9310   3.348   0.372   0.500  0.0876 -0.3048  0.4402
  625MPD2    C5 9311   3.214   0.361   0.476  0.1849 -0.3387 -0.4497
  625MPD2     H 9312   3.378   0.699   0.504 -0.7690 -0.1987  3.6567
  625MPD2    H1 9313   3.408   0.283   0.512 -2.0298 -1.9912 -1.4000
  625MPD2    H2 9314   3.036   0.451   0.412  1.2927 -0.2924 -1.9440
  625MPD2    H3 9315   3.177   0.259   0.473 -1.7365  0.3924 -1.3929
  625MPD2     N 9316   3.542   0.512   0.549 -0.9016  0.6539 -0.3884
  625MPD2    H5 9317   3.590   0.602   0.545  1.4206 -0.5073  1.0468
  625MPD2    N1 9318   3.124   0.718   0.430  0.0691 -0.1710 -0.4313
  625MPD2    H7 9319   3.173   0.805   0.447  1.7561 -1.1442 -0.3081
  626TMC3    C1 9320   2.948   0.852   0.389 -0.1667  0.6274 -0.1153
  626TMC3    C2 9321   2.868   0.876   0.277  0.3330 -0.7507 -0.4385
  626TMC3    C3 9322   2.758   0.957   0.286  0.6691 -0.1657 -0.9234
  626TMC3    C4 9323   2.919   0.908   0.511 -0.4106 -0.4530  0.0624
  626TMC3    C5 9324   2.805   0.992   0.511  0.5124 -0.6378 -0.2106
  626TMC3    C6 9325   2.726   1.022   0.402 -0.5446 -0.0301 -0.8968
  626TMC3     C 9326   2.990   0.716   0.397 -0.0626 -0.3706  0.2864
  626TMC3     O 9327   2.903   0.634   0.374 -0.1951  0.7944  0.2767
  626TMC3     H 9328   2.889   0.827   0.183 -2.8882 -4.0984  0.5876
  626TMC3    H1 9329   2.971   0.882   0.602  0.2425 -1.4304 -0.5982
  626TMC3    H2 9330   2.636   1.081   0.419 -0.7478 -0.3761 -0.7716
  626TMC3    C7 9331   2.759   1.030   0.642  0.3985  0.6490 -0.4132
  626TMC3    C8 9332   2.695   0.981   0.158 -0.0200  0.4928 -0.0863
  626TMC3    O1 9333   2.836   1.015   0.736  0.6230 -0.0471 -0.1669
  626TMC3    O2 9334   2.702   0.900   0.068 -0.2995 -0.0267 -0.0737
  627MPD2     C 9335   1.054   0.674  14.374  0.6234 -0.2154  0.9310
  627MPD2    C1 9336   1.172   0.609  14.404  0.2555  0.7803  0.9395
  627MPD2    C2 9337   1.189   0.476  14.368  0.9010  0.3596 -0.0726
  627MPD2    C3 9338   1.084   0.404  14.310 -0.5553 -0.2779 -0.6663
  627MPD2    C4 9339   0.962   0.473  14.293  0.7791  0.6124 -0.0159
  627MPD2    C5 9340   0.951   0.602  14.322 -0.4662  0.3818 -0.3318
  627MPD2     H 9341   1.289   0.437  14.384  0.2264 -0.6627  1.6698
  627MPD2    H1 9342   0.875   0.428  14.247  0.2520  2.8321 -1.2435
  627MPD2    H2 9343   1.044   0.780  14.395  1.1619  0.4517 -2.2564
  627MPD2    H3 9344   0.851   0.640  14.301 -0.3005  1.0568  0.1139
  627MPD2     N 9345   1.109   0.272  14.284 -0.6563  0.1813 -0.5981
  627MPD2    H5 9346   1.189   0.231  14.331  0.1437  1.7172 -0.6483
  627MPD2    N1 9347   1.284   0.673  14.459  0.3050 -0.2633 -0.6056
  627MPD2    H7 9348   1.373   0.625  14.461  0.0056 -0.8448 -0.9913
  628TMC3    C1 9349   1.417   0.845  14.532  0.4341  0.3922 -0.0011
  628TMC3    C2 9350   1.522   0.780  14.473 -0.5896  0.2463 -0.2109
  628TMC3    C3 9351   1.644   0.817  14.512  0.3708 -0.9095 -0.1819
  628TMC3    C4 9352   1.437   0.939  14.631  0.3670  0.0378  0.3967
  628TMC3    C5 9353   1.557   0.986  14.655  1.3846 -0.5857  0.5606
  628TMC3    C6 9354   1.668   0.932  14.586  0.2468 -0.9399 -0.1509
  628TMC3     C 9355   1.286   0.800  14.509 -0.6213 -0.3160  0.1932
  628TMC3     O 9356   1.198   0.882  14.532  0.2253 -0.6430  0.0945
  628TMC3     H 9357   1.514   0.700  14.402  1.3334  2.4549 -2.9110
  628TMC3    H1 9358   1.350   0.959  14.693  0.5353 -2.5944  1.4717
  628TMC3    H2 9359   1.763   0.963  14.627 -1.3097  0.9303  2.0323
  628TMC3    C7 9360   1.565   1.088  14.750  0.1968 -0.0747  0.2373
  628TMC3    C8 9361   1.749   0.767  14.422 -1.0583 -0.0943  0.3940
  628TMC3    O1 9362   1.663   1.107  14.817 -0.1913  0.6688 -0.5515
  628TMC3    O2 9363   1.711   0.741  14.308  0.5171  0.1490 -0.6447
  629MPD2     C 9364   0.014   3.916  16.819  0.2113  0.3439 -0.1292
  629MPD2    C1 9365   0.007   3.907  16.682 -0.5732 -0.1198  0.1653
  629MPD2    C2 9366   4.627   3.891  16.620  0.0311  0.7030  0.0875
  629MPD2    C3 9367   4.506   3.871  16.683 -1.1848 -0.0741 -0.9048
  629MPD2    C4 9368   4.519   3.865  16.822  0.1812  0.0832 -0.4167
  629MPD2    C5 9369   4.639   3.898  16.884  0.7943  0.5964 -0.2356
  629MPD2     H 9370   4.623   3.875  16.513  0.4757  2.5062 -0.1912
  629MPD2    H1 9371   4.441   3.831  16.889 -0.4289  0.2683 -1.0333
  629MPD2    H2 9372   0.108   3.924  16.874  0.3681  0.1277 -0.3626
  629MPD2    H3 9373   4.637   3.885  16.992 -3.0719 -3.1776 -0.7582
  629MPD2     N 9374   4.391   3.853  16.611  0.1031  0.1152 -0.0942
  629MPD2    H5 9375   4.399   3.866  16.510  2.5358  3.1416  0.4900
  629MPD2    N1 9376   0.139   3.902  16.622 -0.8007  0.5352  0.2615
  629MPD2    H7 9377   0.224   3.901  16.677  0.5648  1.3855 -1.8107
  630TMC3    C1 9378   0.285   3.938  16.437 -0.1592 -0.1942  0.4441
  630TMC3    C2 9379   0.318   4.031  16.340  0.1693 -0.8092 -0.8450
  630TMC3    C3 9380   0.448   4.072  16.330  0.5907  0.1306  0.2197
  630TMC3    C4 9381   0.378   3.880  16.514  0.0585  0.3506  0.3124
  630TMC3    C5 9382   0.506   3.916  16.494 -0.0796 -0.3229 -0.3315
  630TMC3    C6 9383   0.546   4.008  16.404  0.4044  0.7847  0.3421
  630TMC3     C 9384   0.149   3.924  16.482 -0.2691 -0.1831 -0.5753
  630TMC3     O 9385   0.056   3.946  16.403  0.1203  0.5493 -0.3985
  630TMC3     H 9386   0.247   4.082  16.276  2.2039  2.9267 -0.0900
  630TMC3    H1 9387   0.349   3.793  16.572 -0.1787  0.2544  0.0500
  630TMC3    H2 9388   0.645   4.052  16.405  1.3158 -1.1979 -2.8570
  630TMC3    C7 9389   0.587   3.928  16.619 -0.0634 -0.3166  0.4115
  630TMC3    C8 9390   0.490   4.170  16.232  0.1481 -0.2492 -0.3732
  630TMC3    O1 9391   0.616   3.827  16.684 -0.1548  0.0989  0.0406
  630TMC3    O2 9392   0.611   4.185  16.232 -0.2730  0.9944  0.2761
  631MPD2     C 9393   2.807   4.398  15.690 -0.7009 -0.8560 -0.7548
  631MPD2    C1 9394   2.938   4.420  15.713 -0.0327  0.4658 -0.4009
  631MPD2    C2 9395   3.021   4.307  15.718  0.5067 -0.5868  0.1356
  631MPD2    C3 9396   2.975   4.178  15.708  0.6560 -0.1774 -0.2654
  631MPD2    C4 9397   2.841   4.159  15.681 -0.9194 -0.7806 -0.0144
  631MPD2    C5 9398   2.765   4.272  15.671  0.1433 -0.0380  0.1809
  631MPD2     H 9399   3.128   4.311  15.734  0.7689 -2.1860 -1.2298
  631MPD2    H1 9400   2.800   4.062  15.657  0.2890 -1.5717  1.1472
  631MPD2    H2 9401   2.729   4.474  15.698  0.0649 -0.1404 -0.0311
  631MPD2    H3 9402   2.658   4.264  15.653  0.2295  0.7567 -0.6935
  631MPD2     N 9403   3.051   4.063  15.697  0.5466  0.3700  0.2072
  631MPD2    H5 9404   2.999   3.985  15.659  0.1946  1.6898 -2.0665
  631MPD2    N1 9405   2.978   4.554  15.712 -0.1433 -0.5344  0.5721
  631MPD2    H7 9406   2.902   4.613  15.680  0.5556 -1.4979 -2.8347
  632TMC3    C1 9407   3.115   0.003  15.684 -0.0434 -0.1498 -0.3243
  632TMC3    C2 9408   2.994   0.065  15.670  0.1530  0.6113 -0.3421
  632TMC3    C3 9409   2.961   0.125  15.553  0.5205 -0.1136  0.5218
  632TMC3    C4 9410   3.207   0.004  15.584  0.1560  0.8160  0.0090
  632TMC3    C5 9411   3.172   0.065  15.473  0.1625  0.3993  0.7898
  632TMC3    C6 9412   3.047   0.114  15.449  0.4004 -0.1625  0.2322
  632TMC3     C 9413   3.103   4.605  15.737  0.1037  0.0555  0.5100
  632TMC3     O 9414   3.210   4.555  15.759  0.2156 -0.0468  0.0601
  632TMC3     H 9415   2.928   0.069  15.755  0.8076  2.6421  0.0645
  632TMC3    H1 9416   3.300   4.689  15.600 -0.7651 -0.8523 -0.3754
  632TMC3    H2 9417   3.004   0.138  15.352 -1.4357  1.3190  1.3951
  632TMC3    C7 9418   3.247   0.043  15.349 -0.5322 -0.0262 -0.0226
  632TMC3    C8 9419   2.828   0.085  15.523  0.4637 -0.4483  0.0981
  632TMC3    O1 9420   3.190   0.042  15.238  0.2592  0.4380 -0.3353
  632TMC3    O2 9421   2.787   4.725  15.577 -0.2922  1.0341 -0.4345
  633MPD2     C 9422   2.778   2.150  17.256 -0.2518  0.2476  0.2492
  633MPD2    C1 9423   2.806   2.090  17.133  0.4461  0.0415  0.4611
  633MPD2    C2 9424   2.776   1.960  17.115  0.0394 -0.4045  0.0755
  633MPD2    C3 9425   2.711   1.891  17.214 -0.0649 -0.8568  0.1635
  633MPD2    C4 9426   2.684   1.943  17.337  0.8655  0.3555  1.3070
  633MPD2    C5 9427   2.720   2.075  17.350 -0.7950 -0.0033  0.0175
  633MPD2     H 9428   2.806   1.917  17.020 -3.0606  0.5105 -1.3305
  633MPD2    H1 9429   2.628   1.883  17.407  0.8498  0.5164  1.4323
  633MPD2    H2 9430   2.807   2.252  17.280  0.2733  0.1669 -0.0439
  633MPD2    H3 9431   2.694   2.124  17.443  1.5170 -0.7762  1.0757
  633MPD2     N 9432   2.674   1.754  17.191 -0.4597  0.1749  0.6956
  633MPD2    H5 9433   2.632   1.710  17.272 -0.4156 -2.6687 -0.8492
  633MPD2    N1 9434   2.877   2.157  17.024  0.3334 -0.3036 -0.7428
  633MPD2    H7 9435   2.897   2.094  16.947  2.8043  0.0847 -0.4074
  634TMC3    C1 9436   2.994   2.327  16.913 -0.3699  0.4914 -1.1036
  634TMC3    C2 9437   3.065   2.239  16.837  0.6289  0.0923 -0.6929
  634TMC3    C3 9438   3.105   2.270  16.710 -0.2347 -0.7619 -0.1995
  634TMC3    C4 9439   2.981   2.460  16.871  0.2718 -0.1519 -0.4084
  634TMC3    C5 9440   3.029   2.500  16.753 -0.7204  0.3245  0.3399
  634TMC3    C6 9441   3.101   2.407  16.676  0.3310 -0.3513  0.5306
  634TMC3     C 9442   2.929   2.284  17.031  0.1638  0.2854 -0.1073
  634TMC3     O 9443   2.924   2.367  17.115 -0.0187 -0.2393  0.0372
  634TMC3     H 9444   3.071   2.134  16.862  1.0897 -0.1409 -1.7544
  634TMC3    H1 9445   2.936   2.529  16.942 -0.1260 -1.6084  0.7407
  634TMC3    H2 9446   3.127   2.432  16.574 -1.9834  0.5453  0.1587
  634TMC3    C7 9447   2.991   2.623  16.688  0.1071  0.5630  0.0966
  634TMC3    C8 9448   3.132   2.160  16.615 -1.0108 -0.1234 -0.3952
  634TMC3    O1 9449   3.018   2.629  16.569 -0.2881  0.2007  0.3085
  634TMC3    O2 9450   3.109   2.047  16.655 -0.4814 -0.2441 -0.5647
  635TMC3    C1 9451   2.910   3.271   0.647 -0.4353 -0.0427  0.4916
  635TMC3    C2 9452   2.929   3.185   0.537 -0.2203 -0.5212  0.0250
  635TMC3    C3 9453   2.903   3.056   0.557  0.1686  0.0515 -0.3377
  635TMC3    C4 9454   2.878   3.227   0.771  0.9200 -0.0760 -0.1249
  635TMC3    C5 9455   2.844   3.094   0.785  0.0372  0.1594  0.0235
  635TMC3    C6 9456   2.857   3.005   0.675  0.4512  0.0496 -0.2242
  635TMC3     C 9457   2.943   3.416   0.628  0.2904 -0.3565 -0.9254
  635TMC3     O 9458   3.013   3.442   0.529 -0.3728 -0.4297  0.3819
  635TMC3     H 9459   2.962   3.233   0.446 -0.6167 -2.6060 -1.2251
  635TMC3    H1 9460   2.889   3.297   0.854 -0.2087 -0.4617  0.3462
  635TMC3    H2 9461   2.842   2.898   0.684 -0.2173  0.1925  0.3365
  635TMC3    C7 9462   2.840   3.027   0.917  0.3562  0.5902  0.0150
  635TMC3    C8 9463   2.913   2.959   0.438 -0.9285  0.5147 -0.9643
  635TMC3    O1 9464   2.859   2.902   0.921  0.3669 -0.2748 -0.2200
  635TMC3    O2 9465   2.895   2.842   0.466  0.0794  0.2648  0.2226
  636MPD2     C 9466   3.947   2.361  16.167  0.2740 -0.2779 -0.2448
  636MPD2    C1 9467   4.011   2.397  16.288 -0.1099  0.2096  0.1366
  636MPD2    C2 9468   4.075   2.300  16.367 -0.4595 -0.1439 -0.5827
  636MPD2    C3 9469   4.059   2.169  16.324 -0.1285  0.8173 -0.2129
  636MPD2    C4 9470   3.995   2.133  16.204 -0.4269 -0.0451 -0.5620
  636MPD2    C5 9471   3.937   2.229  16.124  0.0896  0.3064  0.0859
  636MPD2     H 9472   4.127   2.324  16.459 -0.9978  1.0189 -0.5791
  636MPD2    H1 9473   4.001   2.029  16.173 -0.1893 -0.1635 -0.1141
  636MPD2    H2 9474   3.886   2.433  16.113 -0.2076 -1.3409 -1.1143
  636MPD2    H3 9475   3.877   2.200  16.038 -0.3266  1.1929  0.0778
  636MPD2     N 9476   4.119   2.077  16.407  0.3929  0.2048  0.0213
  636MPD2    H5 9477   4.175   2.115  16.483  1.9481 -0.9140 -0.5800
  636MPD2    N1 9478   4.022   2.529  16.333 -0.1875  0.0374 -0.6132
  636MPD2    H7 9479   4.069   2.531  16.423 -1.2637 -0.5187 -0.0279
  637TMC3    C1 9480   4.212   1.879  16.495 -0.1669  1.2729  0.2643
  637TMC3    C2 9481   4.214   1.948  16.610 -0.0603  0.4722 -0.3390
  637TMC3    C3 9482   4.322   1.950  16.699 -0.2239 -0.2687  0.7984
  637TMC3    C4 9483   4.337   1.828  16.457  0.4827 -0.2009 -0.3248
  637TMC3    C5 9484   4.452   1.840  16.537 -0.1421 -0.0208 -0.4119
  637TMC3    C6 9485   4.439   1.884  16.663  0.2550  0.3433 -0.8180
  637TMC3     C 9486   4.143   1.944  16.388 -0.2575 -0.5416 -0.2276
  637TMC3     O 9487   4.141   1.882  16.282 -0.4360  0.2835  0.2037
  637TMC3     H 9488   4.130   2.005  16.646  1.4880  1.9265  0.9807
  637TMC3    H1 9489   4.353   1.769  16.368  0.5462 -0.9509  0.1783
  637TMC3    H2 9490   4.537   1.883  16.708 -0.8497  3.1982  1.6280
  637TMC3    C7 9491   4.547   1.931  16.468  0.4165  0.4170 -0.1912
  637TMC3    C8 9492   4.320   2.080  16.761  0.7858  0.8121 -0.4723
  637TMC3    O1 9493   4.627   1.993  16.542  0.1747  0.3752  0.0847
  637TMC3    O2 9494   4.272   2.176  16.699  0.9889  0.1092 -0.3784
  638MPD2     C 9495   3.843   1.582  14.407  0.4362 -0.3966  0.3434
  638MPD2    C1 9496   3.800   1.463  14.359  0.4469  0.0658 -0.2988
  638MPD2    C2 9497   3.830   1.347  14.431 -0.6272 -0.3167  0.5095
  638MPD2    C3 9498   3.898   1.346  14.555 -0.4292 -0.7384 -0.2877
  638MPD2    C4 9499   3.931   1.473  14.604  0.1296 -1.0322 -0.2181
  638MPD2    C5 9500   3.908   1.590  14.524 -0.1545  0.2250  0.1189
  638MPD2     H 9501   3.802   1.246  14.401  1.1469 -0.4908 -0.5428
  638MPD2    H1 9502   3.995   1.492  14.689  2.1123 -1.8277 -1.5408
  638MPD2    H2 9503   3.838   1.673  14.348 -0.1950  0.1758  1.2785
  638MPD2    H3 9504   3.931   1.691  14.557 -0.4861  0.3140  0.0776
  638MPD2     N 9505   3.920   1.227  14.632 -0.3842 -0.3385 -0.0908
  638MPD2    H5 9506   3.882   1.143  14.589 -0.2006 -0.2438 -0.4424
  638MPD2    N1 9507   3.747   1.445  14.229  0.3022 -0.0395  0.0822
  638MPD2    H7 9508   3.755   1.349  14.196  1.2307  0.7753 -2.0983
  639TMC3    C1 9509   4.008   1.071  14.781 -0.6861 -0.0837 -0.4765
  639TMC3    C2 9510   3.884   1.017  14.782  0.2789 -0.3490 -0.9786
  639TMC3    C3 9511   3.887   0.884  14.821  0.2619  0.4612  0.5135
  639TMC3    C4 9512   4.127   1.007  14.799 -0.5904 -0.0125 -0.0066
  639TMC3    C5 9513   4.121   0.872  14.822  0.0143  0.4232  0.3454
  639TMC3    C6 9514   3.995   0.809  14.830  0.1367 -0.6354 -0.1771
  639TMC3     C 9515   4.012   1.208  14.731 -0.2984 -0.0420  0.4702
  639TMC3     O 9516   4.095   1.283  14.777  0.3805 -0.4220  0.2175
  639TMC3     H 9517   3.791   1.070  14.793  0.0724 -0.5862 -1.5951
  639TMC3    H1 9518   4.224   1.052  14.780 -1.0036  0.6493 -0.5220
  639TMC3    H2 9519   3.984   0.701  14.831 -0.4549 -0.5682  0.6571
  639TMC3    C7 9520   4.231   0.797  14.779  0.3994 -0.0696 -0.3045
  639TMC3    C8 9521   3.759   0.822  14.812 -0.5608  0.2253  0.4217
  639TMC3    O1 9522   4.322   0.849  14.717  0.0771 -0.0392  0.2134
  639TMC3    O2 9523   3.671   0.876  14.751  0.0661  0.6386 -0.1932
  640MPD2     C 9524   4.697   0.484   9.767  0.2840 -0.4682 -0.6283
  640MPD2    C1 9525   0.045   0.591   9.762  0.1944 -0.8794  0.0516
  640MPD2    C2 9526   0.007   0.713   9.807  0.7281  0.0478  0.2165
  640MPD2    C3 9527   4.618   0.730   9.864 -0.4070 -0.0162 -0.5367
  640MPD2    C4 9528   4.531   0.629   9.875  0.7886  0.2714  0.0826
  640MPD2    C5 9529   4.570   0.508   9.822  0.0985  0.3729 -0.1147
  640MPD2     H 9530   0.071   0.798   9.788  0.8554 -0.0088  0.3835
  640MPD2    H1 9531   4.431   0.655   9.908  1.1282  1.0837  0.4552
  640MPD2    H2 9532   4.716   0.384   9.730  0.8202 -0.8121  0.5849
  640MPD2    H3 9533   4.492   0.434   9.810  0.8315 -0.7416  1.8710
  640MPD2     N 9534   4.561   0.858   9.887 -0.3980 -0.1607 -0.2387
  640MPD2    H5 9535   4.464   0.862   9.916 -0.6855 -0.9815 -1.0952
  640MPD2    N1 9536   0.174   0.566   9.712 -0.0862 -0.3336  0.3796
  640MPD2    H7 9537   0.182   0.471   9.675 -0.2220 -0.1377 -0.1487
  641TMC3    C1 9538   0.401   0.584   9.647 -0.2551 -0.5625  0.2937
  641TMC3    C2 9539   0.397   0.445   9.624  1.2907 -0.1534  0.2211
  641TMC3    C3 9540   0.514   0.380   9.588  0.5495  0.2598  0.2904
  641TMC3    C4 9541   0.517   0.656   9.641 -0.4284 -0.3216  0.2273
  641TMC3    C5 9542   0.633   0.588   9.612  0.6558  0.6538 -0.2161
  641TMC3    C6 9543   0.628   0.449   9.587 -0.1354  0.0841  1.0349
  641TMC3     C 9544   0.285   0.648   9.707 -0.2702 -0.4690 -0.6874
  641TMC3     O 9545   0.300   0.750   9.768 -0.1958  0.3374 -0.2167
  641TMC3     H 9546   0.309   0.387   9.599  1.1377 -0.6816  2.0159
  641TMC3    H1 9547   0.515   0.765   9.642  0.8192 -0.2863 -0.3157
  641TMC3    H2 9548   0.725   0.402   9.593 -0.1454  0.1517  1.6736
  641TMC3    C7 9549   0.748   0.668   9.590 -0.1704  0.3362  0.3111
  641TMC3    C8 9550   0.520   0.235   9.550  0.3659 -0.0003 -0.2808
  641TMC3    O1 9551   0.743   0.780   9.640  0.2523  0.1267 -0.1059
  641TMC3    O2 9552   0.422   0.170   9.579  0.0917  0.1490 -0.0646
  642TMC3    C1 9553   0.357   0.700  12.627 -0.2514 -0.0108 -0.8733
  642TMC3    C2 9554   0.310   0.657  12.747  0.8358  0.3276 -0.2659
  642TMC3    C3 9555   0.261   0.530  12.764 -0.1066  0.2654  0.2049
  642TMC3    C4 9556   0.333   0.622  12.514  0.0515  0.9053  0.0989
  642TMC3    C5 9557   0.291   0.491  12.542 -0.7346  0.1426  0.1208
  642TMC3    C6 9558   0.246   0.444  12.663 -0.1345 -0.0631 -0.7546
  642TMC3     C 9559   0.368   0.844  12.602 -0.0093 -0.5105 -0.4158
  642TMC3     O 9560   0.450   0.877  12.515  0.0997 -0.7205 -0.0205
  642TMC3     H 9561   0.329   0.722  12.832  0.6644 -2.2015  1.6899
  642TMC3    H1 9562   0.346   0.660  12.413  4.8653  1.2257  0.8260
  642TMC3    H2 9563   0.222   0.339  12.678 -2.7988  1.0003  2.3324
  642TMC3    C7 9564   0.246   0.410  12.427 -0.1402  0.2878 -0.8857
  642TMC3    C8 9565   0.239   0.470  12.893  0.6552 -0.5197  0.6534
  642TMC3    O1 9566   0.293   0.443  12.321 -0.3335  0.4173 -0.4738
  642TMC3    O2 9567   0.275   0.349  12.900 -0.9888  0.3323  0.4305
  643TMC3    C1 9568   0.320   0.230  17.582  0.2288  0.0516  0.4377
  643TMC3    C2 9569   0.196   0.228  17.638 -0.0244 -0.0028  0.0699
  643TMC3    C3 9570   0.084   0.193  17.565  0.2906 -0.2373 -0.8690
  643TMC3    C4 9571   0.331   0.220  17.442  0.2149 -0.2720  0.1103
  643TMC3    C5 9572   0.218   0.173  17.377 -0.5547  0.1502  0.6568
  643TMC3    C6 9573   0.094   0.156  17.432 -0.1250 -0.3040 -0.9126
  643TMC3     C 9574   0.408   0.334  17.636 -0.5412 -0.2642  0.0136
  643TMC3     O 9575   0.363   0.446  17.615 -0.1844  0.2704 -0.3957
  643TMC3     H 9576   0.169   0.273  17.733 -1.2301 -3.0771  1.1556
  643TMC3    H1 9577   0.425   0.252  17.396 -0.0829  0.7705  0.2125
  643TMC3    H2 9578   4.736   0.136  17.388  0.5880  0.4747 -2.8218
  643TMC3    C7 9579   0.232   0.168  17.231  0.2203  0.7149 -0.2552
  643TMC3    C8 9580   4.730   0.299  17.569 -0.9423 -0.1062  0.9147
  643TMC3    O1 9581   0.339   0.208  17.182 -0.2914 -0.7499 -0.0035
  643TMC3    O2 9582   4.615   0.279  17.530  0.2932  0.1663  0.1374
  644MPD2     C 9583   1.056   1.212   9.966 -0.4080  0.1910  0.4185
  644MPD2    C1 9584   0.980   1.098   9.934 -0.2272  0.0526 -0.4783
  644MPD2    C2 9585   0.849   1.118   9.887 -0.3386  0.5652  0.3612
  644MPD2    C3 9586   0.790   1.243   9.882 -0.0411 -0.4902  1.2749
  644MPD2    C4 9587   0.863   1.359   9.914  0.1708  0.7609  0.6986
  644MPD2    C5 9588   0.994   1.331   9.953 -0.0331 -0.2901 -0.2739
  644MPD2     H 9589   0.786   1.044   9.839 -0.6427  0.6577  0.6216
  644MPD2    H1 9590   0.827   1.462   9.913 -1.6064  0.1259 -0.9257
  644MPD2    H2 9591   1.158   1.202   9.999 -0.5464 -2.8762 -0.0834
  644MPD2    H3 9592   1.052   1.421   9.964  0.6410 -0.7644  0.0268
  644MPD2     N 9593   0.657   1.246   9.833 -0.2161 -0.4848 -0.2935
  644MPD2    H5 9594   0.615   1.154   9.820  0.1777 -0.6233 -0.5676
  644MPD2    N1 9595   1.040   0.974   9.945 -0.6212 -0.1441 -0.0034
  644MPD2    H7 9596   1.135   0.959   9.978 -1.4284 -3.1256  0.9546
  645TMC3    C1 9597   0.439   1.315   9.767 -0.2403  0.2943  0.2588
  645TMC3    C2 9598   0.332   1.385   9.803 -0.3984  0.6923  0.1498
  645TMC3    C3 9599   0.205   1.337   9.768 -0.2804 -0.1658  0.5156
  645TMC3    C4 9600   0.424   1.203   9.694 -0.3147 -0.2460 -0.3379
  645TMC3    C5 9601   0.294   1.169   9.651 -0.0814  0.1873 -1.1369
  645TMC3    C6 9602   0.180   1.224   9.700  0.8036  0.0947  0.0508
  645TMC3     C 9603   0.570   1.356   9.822 -0.4548  0.2609 -0.3656
  645TMC3     O 9604   0.575   1.471   9.868 -0.1227 -0.3572 -0.2046
  645TMC3     H 9605   0.342   1.477   9.859 -3.2435  0.5853  0.8409
  645TMC3    H1 9606   0.514   1.151   9.662 -0.4214 -1.3874  1.2337
  645TMC3    H2 9607   0.084   1.176   9.686 -0.1653  1.6881  1.1926
  645TMC3    C7 9608   0.287   1.051   9.559 -0.0195  0.0994  0.0361
  645TMC3    C8 9609   0.097   1.423   9.815 -0.8037  0.2002  0.5116
  645TMC3    O1 9610   0.183   1.003   9.530  0.1960  0.1026  0.5336
  645TMC3    O2 9611   0.129   1.519   9.883 -0.3403 -0.2859  0.5278
  646MPD2     C 9612   3.919   0.002  14.183  0.0153 -0.4630  0.1081
  646MPD2    C1 9613   3.894   0.002  14.313 -0.2214  0.4069  0.3802
  646MPD2    C2 9614   3.778   0.068  14.347  0.3325 -0.0147  0.0886
  646MPD2    C3 9615   3.687   0.123  14.256 -0.2689  0.2167 -0.2594
  646MPD2    C4 9616   3.722   0.136  14.124  0.5584  0.0176 -1.2132
  646MPD2    C5 9617   3.834   0.064  14.092 -1.1925  0.6830  0.1690
  646MPD2     H 9618   3.743   0.055  14.449 -0.5861  0.0569 -0.2135
  646MPD2    H1 9619   3.668   0.181  14.042 -2.9256 -0.9350  0.5994
  646MPD2    H2 9620   4.003   4.692  14.136 -0.0390 -0.6837  0.2395
  646MPD2    H3 9621   3.870   0.058  13.990 -0.5089 -0.6282  0.4964
  646MPD2     N 9622   3.564   0.173  14.300 -0.0129 -0.0625 -0.2758
  646MPD2    H5 9623   3.542   0.167  14.399  0.6275 -0.8999 -0.1883
  646MPD2    N1 9624   3.973   4.673  14.403 -0.2328 -0.2611  0.0897
  646MPD2    H7 9625   4.050   4.618  14.368  0.3183  1.2634 -1.0711
  647TMC3    C1 9626   4.056   4.598  14.607  0.0680 -0.0024  0.3794
  647TMC3    C2 9627   4.016   4.550  14.732 -0.5884 -0.3340  0.6653
  647TMC3    C3 9628   4.099   4.459  14.799  0.6232 -0.1227  0.3535
  647TMC3    C4 9629   4.171   4.553  14.550 -0.2236  0.0135  0.0809
  647TMC3    C5 9630   4.248   4.465  14.618 -0.0559 -0.1579 -0.4777
  647TMC3    C6 9631   4.215   4.416  14.737 -0.1529  0.5635 -0.4608
  647TMC3     C 9632   3.963   4.681  14.541  0.2014 -0.3088 -0.2303
  647TMC3     O 9633   3.893   0.008  14.613 -0.1593 -0.4663  0.0128
  647TMC3     H 9634   3.917   4.572  14.768 -0.9516 -1.3036  0.2625
  647TMC3    H1 9635   4.203   4.589  14.453 -2.3884 -0.7356 -0.8944
  647TMC3    H2 9636   4.273   4.335  14.782  0.8867  1.5878  0.0610
  647TMC3    C7 9637   4.378   4.432  14.579  0.9022  0.5576 -0.7261
  647TMC3    C8 9638   4.057   4.384  14.922 -0.0420  0.3375  0.0561
  647TMC3    O1 9639   4.421   4.327  14.624  0.2861 -0.2268 -0.6420
  647TMC3    O2 9640   4.148   4.323  14.979 -0.1068 -0.2242  0.1941
  648TMC3    C1 9641   3.589   2.294  16.207 -0.2769  0.8603 -0.2544
  648TMC3    C2 9642   3.636   2.166  16.175  0.4289  0.1202  0.7308
  648TMC3    C3 9643   3.638   2.120  16.044  0.2539  0.0554  0.0671
  648TMC3    C4 9644   3.565   2.378  16.100  0.3857 -0.5466  0.6420
  648TMC3    C5 9645   3.562   2.332  15.973 -0.2841  0.4317 -0.7004
  648TMC3    C6 9646   3.594   2.200  15.941  0.7052 -0.2198  0.1071
  648TMC3     C 9647   3.576   2.334  16.345  0.3909  0.0235 -0.0904
  648TMC3     O 9648   3.584   2.453  16.372 -0.1574  0.2595 -0.2438
  648TMC3     H 9649   3.669   2.096  16.251 -0.6846  0.3581  1.4412
  648TMC3    H1 9650   3.544   2.483  16.118  3.0106 -0.0465  0.7843
  648TMC3    H2 9651   3.599   2.176  15.836 -0.4396  0.6691 -0.1489
  648TMC3    C7 9652   3.498   2.410  15.868  0.3337 -0.1641 -0.1260
  648TMC3    C8 9653   3.708   1.995  16.017 -0.5969  0.1113 -0.5430
  648TMC3    O1 9654   3.534   2.382  15.754 -0.0607  0.0850 -0.3198
  648TMC3    O2 9655   3.691   1.909  16.103  0.2554 -0.4031 -0.1353
  649TMC3    C1 9656   2.442   3.547  12.826 -0.0469  0.1624 -0.3210
  649TMC3    C2 9657   2.568   3.580  12.797  0.7313 -0.1076 -0.5416
  649TMC3    C3 9658   2.664   3.520  12.875 -0.4163  0.5141 -0.7544
  649TMC3    C4 9659   2.407   3.454  12.924 -0.7949  0.0816  0.0400
  649TMC3    C5 9660   2.500   3.410  13.004  0.5265 -0.1273 -0.1011
  649TMC3    C6 9661   2.634   3.439  12.983 -0.2138 -0.7317 -0.4653
  649TMC3     C 9662   2.345   3.562  12.720  0.1361 -0.6832 -0.0070
  649TMC3     O 9663   2.226   3.578  12.768  0.1650 -0.7970  0.8359
  649TMC3     H 9664   2.592   3.655  12.722 -0.0807 -0.0180 -0.7084
  649TMC3    H1 9665   2.303   3.422  12.917 -0.5527 -0.8156  0.5578
  649TMC3    H2 9666   2.713   3.403  13.048 -0.6384 -0.7679  0.0232
  649TMC3    C7 9667   2.448   3.345  13.126 -0.7012  0.6936  0.4134
  649TMC3    C8 9668   2.810   3.548  12.853  0.5465 -0.2106 -0.1968
  649TMC3    O1 9669   2.328   3.328  13.127 -0.4395 -0.4350  0.4537
  649TMC3    O2 9670   2.893   3.499  12.934 -0.2662  0.5343  0.2139
  650TMC3    C1 9671   4.458   0.256  12.966 -0.7152  0.0502  0.8557
  650TMC3    C2 9672   4.368   0.331  13.031 -0.5275  0.4060  0.2082
  650TMC3    C3 9673   4.370   0.465  13.018  0.3139  0.7414  0.0846
  650TMC3    C4 9674   4.535   0.321  12.870  0.4850 -0.2269 -0.7023
  650TMC3    C5 9675   4.531   0.452  12.856  0.1002 -0.4645  0.7285
  650TMC3    C6 9676   4.456   0.534  12.938  0.6137  0.1994  0.0937
  650TMC3     C 9677   4.465   0.112  12.978  0.2592  0.6446  0.5144
  650TMC3     O 9678   4.376   0.050  13.037  0.2670 -0.7802 -0.5616
  650TMC3     H 9679   4.293   0.274  13.086  0.8680 -1.2128  0.4317
  650TMC3    H1 9680   4.587   0.259  12.797 -0.4362 -2.7489  0.8137
  650TMC3    H2 9681   4.454   0.642  12.933  0.5358  0.0624 -3.1030
  650TMC3    C7 9682   4.608   0.503  12.742 -0.0034  0.9360 -0.0273
  650TMC3    C8 9683   4.242   0.530  13.054 -0.4019  0.1482 -0.6135
  650TMC3    O1 9684   4.674   0.423  12.672  0.0079  0.0070 -0.2400
  650TMC3    O2 9685   4.136   0.472  13.049  0.2896  0.3535  0.2191
  651MPD2     C 9686   3.512   2.324  10.754  0.0405 -0.3653 -0.8474
  651MPD2    C1 9687   3.492   2.439  10.684 -0.2354  0.1998 -0.2494
  651MPD2    C2 9688   3.597   2.527  10.683  0.3825 -0.6269 -0.0520
  651MPD2    C3 9689   3.706   2.522  10.766 -0.3277 -0.6114 -0.5462
  651MPD2    C4 9690   3.714   2.403  10.842 -0.0871 -0.1214 -0.1991
  651MPD2    C5 9691   3.619   2.311  10.840 -0.4775 -0.4209 -0.2473
  651MPD2     H 9692   3.588   2.614  10.618  1.5823 -2.6034 -2.8112
  651MPD2    H1 9693   3.801   2.386  10.904 -0.1456 -1.1617 -0.4071
  651MPD2    H2 9694   3.445   2.240  10.762 -0.1064 -0.1904 -0.2323
  651MPD2    H3 9695   3.631   2.218  10.894  2.7923 -0.4280 -0.9672
  651MPD2     N 9696   3.808   2.623  10.749  0.0946 -0.5653 -0.0536
  651MPD2    H5 9697   3.785   2.686  10.672  2.3319 -0.1361 -0.3562
  651MPD2    N1 9698   3.373   2.465  10.617 -0.3023  0.0945  0.1203
  651MPD2    H7 9699   3.362   2.559  10.580  0.8657  0.1049 -0.2059
  652TMC3    C1 9700   4.213   2.839  10.744 -0.6651  0.4613 -0.1079
  652TMC3    C2 9701   4.133   2.745  10.797  0.2052  0.0619  0.3618
  652TMC3    C3 9702   4.000   2.750  10.775 -0.1789 -0.1756 -0.4920
  652TMC3    C4 9703   4.159   2.941  10.666  0.2517 -0.4789 -0.2243
  652TMC3    C5 9704   4.027   2.940  10.650  0.7971  0.3775  0.2442
  652TMC3    C6 9705   3.941   2.848  10.696  0.1760  0.4261  0.1356
  652TMC3     C 9706   4.356   2.827  10.773  0.5471 -0.2854 -0.2723
  652TMC3     O 9707   4.387   2.748  10.864  0.2373 -0.0870 -0.7712
  652TMC3     H 9708   4.174   2.662  10.854  2.0215  1.2438  0.7838
  652TMC3    H1 9709   4.220   3.028  10.642  0.1513 -0.5849 -0.8610
  652TMC3    H2 9710   3.834   2.865  10.695 -0.3311 -2.6423 -0.8036
  652TMC3    C7 9711   3.965   3.039  10.558  0.0596  0.1646 -0.9034
  652TMC3    C8 9712   3.927   2.631  10.817 -0.1541  0.0906 -0.5578
  652TMC3    O1 9713   3.853   3.015  10.508 -0.1154  0.3103  0.0874
  652TMC3    O2 9714   3.967   2.571  10.913  0.3516  0.2735 -0.3254
  653MPD2     C 9715   2.474   2.267  17.714 -0.5163 -0.7012  0.1224
  653MPD2    C1 9716   2.464   2.375  17.633 -0.1904  0.2109  0.4128
  653MPD2    C2 9717   2.436   2.357  17.497  0.4715 -0.5592  0.1588
  653MPD2    C3 9718   2.404   2.233  17.450 -0.0183  0.6704 -0.4181
  653MPD2    C4 9719   2.412   2.121  17.538 -0.0070  0.2916 -0.4434
  653MPD2    C5 9720   2.458   2.144  17.667  0.5063  0.1257 -0.8888
  653MPD2     H 9721   2.429   2.450  17.442 -0.3847 -1.9790 -2.1228
  653MPD2    H1 9722   2.390   2.020  17.506  1.8389 -0.5743  0.9859
  653MPD2    H2 9723   2.485   2.276   0.069 -1.6487  0.6228  0.1212
  653MPD2    H3 9724   2.471   2.062  17.737  1.6352  1.3435  0.3123
  653MPD2     N 9725   2.376   2.222  17.318  0.4803 -0.2219  0.0563
  653MPD2    H5 9726   2.378   2.309  17.265 -1.6826  0.0359  0.4065
  653MPD2    N1 9727   2.494   2.507  17.678  0.4728 -0.3041 -0.7117
  653MPD2    H7 9728   2.474   2.584  17.615  0.3958 -0.6769 -1.1474
  654TMC3    C1 9729   2.330   2.119  17.112  0.5788 -0.8028 -0.0547
  654TMC3    C2 9730   2.289   2.245  17.068 -0.6508  0.0466 -0.4915
  654TMC3    C3 9731   2.288   2.250  16.930  0.0281  0.2559  0.2486
  654TMC3    C4 9732   2.371   2.015  17.031 -0.0834  0.1262  0.2042
  654TMC3    C5 9733   2.367   2.037  16.893  0.2474 -0.0822 -0.1211
  654TMC3    C6 9734   2.324   2.156  16.836  0.0207 -0.4136  0.1207
  654TMC3     C 9735   2.334   2.104  17.250 -0.0521  0.3283 -0.2667
  654TMC3     O 9736   2.321   1.992  17.295  0.7675 -0.1968 -0.1303
  654TMC3     H 9737   2.251   2.326  17.128 -2.0248 -1.6013  0.8560
  654TMC3    H1 9738   2.425   1.935  17.081  1.9596 -0.3899 -2.8201
  654TMC3    H2 9739   2.306   2.173  16.730 -3.8054  0.7171  0.9292
  654TMC3    C7 9740   2.405   1.936  16.795  0.2120 -0.2197  0.4442
  654TMC3    C8 9741   2.240   2.380  16.884  0.1488 -0.0855  0.0129
  654TMC3    O1 9742   2.417   1.959  16.676 -0.2854  0.8250 -0.0512
  654TMC3    O2 9743   2.182   2.447  16.967  0.1542  0.4639  0.0767
  655MPD2     C 9744   4.104   2.599  15.627 -0.9086  0.0407 -0.9042
  655MPD2    C1 9745   4.043   2.715  15.576  0.6710  0.0894 -0.0285
  655MPD2    C2 9746   4.050   2.730  15.442  0.5766  0.0529  0.1916
  655MPD2    C3 9747   4.104   2.633  15.353  0.3213 -0.5584 -0.1460
  655MPD2    C4 9748   4.142   2.515  15.415  0.7467  0.7342  0.0009
  655MPD2    C5 9749   4.144   2.500  15.548 -0.9153 -0.9958 -0.0591
  655MPD2     H 9750   4.008   2.822  15.404  0.3102  0.5089  1.5710
  655MPD2    H1 9751   4.182   2.429  15.363  1.3836  0.4231  1.0109
  655MPD2    H2 9752   4.115   2.585  15.734  1.0718  1.5302 -0.9108
  655MPD2    H3 9753   4.189   2.412  15.592 -1.8022 -1.1729  0.4721
  655MPD2     N 9754   4.101   2.643  15.209  0.5969 -0.2300  0.0208
  655MPD2    H5 9755   4.126   2.565  15.149  1.3558  0.1317 -0.1443
  655MPD2    N1 9756   3.979   2.813  15.651 -0.5926  0.3090 -0.7453
  655MPD2    H7 9757   3.934   2.891  15.605 -0.7195 -0.3908 -1.7899
  656TMC3    C1 9758   3.857   2.908  15.832  0.0001  0.4007  0.5763
  656TMC3    C2 9759   3.784   2.857  15.936 -0.5866 -0.0092 -0.4644
  656TMC3    C3 9760   3.665   2.916  15.953  0.5812 -0.0441 -0.5005
  656TMC3    C4 9761   3.809   3.001  15.750 -0.2894  0.0470  1.1085
  656TMC3    C5 9762   3.677   3.049  15.768 -0.0142 -0.9364 -0.6459
  656TMC3    C6 9763   3.605   3.006  15.867 -0.1998 -0.4593 -0.2108
  656TMC3     C 9764   3.966   2.817  15.790  0.8258  0.1680 -0.5962
  656TMC3     O 9765   4.014   2.741  15.873 -0.5380 -0.6596 -0.4403
  656TMC3     H 9766   3.825   2.785  16.006 -2.7587  1.4402  2.3162
  656TMC3    H1 9767   3.850   3.020  15.651  1.2100 -2.8411  1.1698
  656TMC3    H2 9768   3.504   3.044  15.878 -0.1110 -0.2508 -0.0948
  656TMC3    C7 9769   3.621   3.119  15.655 -0.6918 -0.5238  0.3150
  656TMC3    C8 9770   3.575   2.853  16.051 -0.1549 -0.4706 -0.2483
  656TMC3    O1 9771   3.710   3.170  15.579  0.2259 -0.0730 -0.0900
  656TMC3    O2 9772   3.596   2.735  16.073  0.3073  0.7238 -0.1308
  657TMC3    C1 9773   2.739   1.624  15.138 -0.7829 -0.2913 -0.7886
  657TMC3    C2 9774   2.788   1.578  15.254 -0.0802 -1.0133  0.5339
  657TMC3    C3 9775   2.691   1.559  15.352 -0.6548  0.4483  0.6694
  657TMC3    C4 9776   2.605   1.633  15.107 -0.5235 -0.2561  0.2283
  657TMC3    C5 9777   2.512   1.596  15.201 -0.1678  0.1819  0.5567
  657TMC3    C6 9778   2.555   1.559  15.328 -0.3014 -0.4371  0.1440
  657TMC3     C 9779   2.831   1.609  15.019  0.4199  0.6179  0.2402
  657TMC3     O 9780   2.787   1.582  14.910  0.2581  0.1835 -0.0105
  657TMC3     H 9781   2.893   1.552  15.264  0.1041 -0.3733  0.2137
  657TMC3    H1 9782   2.579   1.674  15.010 -0.3843 -0.5254  0.0785
  657TMC3    H2 9783   2.492   1.542  15.414  0.6293  0.1257  0.9287
  657TMC3    C7 9784   2.368   1.568  15.170 -0.0460 -0.3587  0.0199
  657TMC3    C8 9785   2.735   1.493  15.477  0.1375  0.1640  0.5135
  657TMC3    O1 9786   2.302   1.489  15.231 -0.2018 -0.0203  0.0906
  657TMC3    O2 9787   2.641   1.446  15.542  0.0546 -0.4675  0.1856
  658MPD2     C 9788   4.393   2.494  14.669 -0.3585  0.4168  0.0392
  658MPD2    C1 9789   4.260   2.483  14.638  0.0380  0.3979 -0.1842
  658MPD2    C2 9790   4.223   2.442  14.506 -0.0567  0.3618 -0.1831
  658MPD2    C3 9791   4.314   2.407  14.414 -0.3041  0.0642 -0.3422
  658MPD2    C4 9792   4.445   2.409  14.445 -0.3196 -0.7729  0.0789
  658MPD2    C5 9793   4.484   2.440  14.572 -0.5929 -0.6272 -0.4113
  658MPD2     H 9794   4.120   2.415  14.486  0.0927  1.4017 -2.3056
  658MPD2    H1 9795   4.530   2.377  14.387  0.2447  0.5314  0.1966
  658MPD2    H2 9796   4.431   2.513  14.769  2.4559 -1.6861 -0.6265
  658MPD2    H3 9797   4.591   2.449  14.588 -0.5706 -2.7307  0.5713
  658MPD2     N 9798   4.272   2.379  14.282  0.5333 -0.0052  1.2228
  658MPD2    H5 9799   4.174   2.401  14.268  0.7703 -0.1466 -0.7019
  658MPD2    N1 9800   4.171   2.504  14.745 -0.3710  0.3199  0.5533
  658MPD2    H7 9801   4.207   2.532  14.835  0.9164 -0.0087  0.1429
  659TMC3    C1 9802   3.966   2.549  14.845  0.3230 -0.7356 -0.4036
  659TMC3    C2 9803   4.030   2.611  14.947  0.1761  0.4015 -0.7101
  659TMC3    C3 9804   3.974   2.704  15.024  0.4134 -0.6303  0.4977
  659TMC3    C4 9805   3.831   2.580  14.818 -0.2783 -0.0614 -0.9224
  659TMC3    C5 9806   3.783   2.681  14.900  0.0575 -0.5098 -0.4070
  659TMC3    C6 9807   3.852   2.748  14.996 -0.0056  0.3028 -0.2254
  659TMC3     C 9808   4.033   2.478  14.736 -0.1120  0.4780 -0.1127
  659TMC3     O 9809   3.965   2.412  14.654  0.3948  0.6285 -0.3778
  659TMC3     H 9810   4.134   2.587  14.963 -0.2274 -0.2981  0.8808
  659TMC3    H1 9811   3.780   2.523  14.740 -0.8812 -0.8819  0.0750
  659TMC3    H2 9812   3.796   2.816  15.059 -0.4338  0.0877 -0.3734
  659TMC3    C7 9813   3.647   2.675  14.938  0.3995 -0.2342 -0.7575
  659TMC3    C8 9814   4.045   2.746  15.143 -1.0465 -0.1716 -0.0081
  659TMC3    O1 9815   3.626   2.681  15.055  0.4614 -0.2123  0.4169
  659TMC3    O2 9816   4.002   2.850  15.186  0.2920  0.0725 -0.1249
  660MPD2     C 9817   1.440   1.705  13.028  0.5257 -0.7982  0.0301
  660MPD2    C1 9818   1.310   1.702  12.984 -0.6777  0.2503  0.3596
  660MPD2    C2 9819   1.218   1.623  13.046 -0.1880  0.4526  0.4485
  660MPD2    C3 9820   1.248   1.547  13.154  0.6364  0.3615  0.1567
  660MPD2    C4 9821   1.373   1.551  13.200  0.8587 -0.0916  0.4073
  660MPD2    C5 9822   1.467   1.624  13.139 -0.6486 -0.3150  0.7395
  660MPD2     H 9823   1.116   1.615  13.011  0.0957 -0.2265 -0.2216
  660MPD2    H1 9824   1.403   1.497  13.289 -0.3191 -0.2246  0.7301
  660MPD2    H2 9825   1.520   1.760  12.979 -1.2032  2.4419  0.8189
  660MPD2    H3 9826   1.569   1.626  13.176 -0.6358 -1.3903  0.7774
  660MPD2     N 9827   1.160   1.456  13.209  0.0147 -0.1109 -0.7867
  660MPD2    H5 9828   1.201   1.402  13.284 -2.0692 -1.8422 -0.8952
  660MPD2    N1 9829   1.280   1.758  12.856 -0.2698  0.5658 -0.2959
  660MPD2    H7 9830   1.355   1.759  12.787 -0.9908  0.9002 -1.0762
  661TMC3    C1 9831   1.131   1.753  12.672  0.2077  0.3829 -0.3509
  661TMC3    C2 9832   1.223   1.774  12.578  0.6102  0.0068  0.2736
  661TMC3    C3 9833   1.199   1.728  12.448 -0.5050 -0.0913  0.3777
  661TMC3    C4 9834   1.013   1.685  12.646 -0.0108  0.5951  0.2214
  661TMC3    C5 9835   0.994   1.632  12.522 -0.4890 -0.6640  0.3768
  661TMC3    C6 9836   1.084   1.658  12.421  0.4927 -0.0769 -0.0183
  661TMC3     C 9837   1.151   1.780  12.814 -0.4199  0.6346 -0.1189
  661TMC3     O 9838   1.058   1.803  12.887 -0.1575 -0.3710  0.1295
  661TMC3     H 9839   1.311   1.834  12.596  0.4895 -0.1849  1.5224
  661TMC3    H1 9840   0.946   1.658  12.727  2.1708 -0.7088  1.5701
  661TMC3    H2 9841   1.056   1.624  12.322  0.5297  0.0827 -0.0837
  661TMC3    C7 9842   0.904   1.517  12.525  0.0728  0.1259 -0.0718
  661TMC3    C8 9843   1.296   1.737  12.340 -0.2429 -0.0798  0.0801
  661TMC3    O1 9844   0.895   1.465  12.636  0.5885  0.1005  0.1391
  661TMC3    O2 9845   1.253   1.699  12.232 -0.2928 -0.0364 -0.4269
  662MPD2     C 9846   2.378   0.688  17.400 -0.5811 -0.4596  0.4242
  662MPD2    C1 9847   2.299   0.670  17.289 -0.2712 -0.7567 -0.1927
  662MPD2    C2 9848   2.205   0.771  17.265 -0.4950  0.6070 -0.1847
  662MPD2    C3 9849   2.182   0.880  17.345 -0.1411  0.5598  0.7145
  662MPD2    C4 9850   2.259   0.892  17.459  0.1625 -0.2268 -0.2195
  662MPD2    C5 9851   2.352   0.793  17.482 -0.0700 -0.6141 -0.0862
  662MPD2     H 9852   2.144   0.754  17.177  1.5612  1.2157 -1.7269
  662MPD2    H1 9853   2.253   0.972  17.532  0.1610 -1.4475  1.1124
  662MPD2    H2 9854   2.446   0.610  17.433  0.2566  0.1367  0.0943
  662MPD2    H3 9855   2.415   0.798  17.570  0.2475 -0.8958 -0.2968
  662MPD2     N 9856   2.093   0.983  17.314  0.7205  0.6207 -0.5201
  662MPD2    H5 9857   2.092   1.060  17.380 -1.7787 -0.6748  1.0023
  662MPD2    N1 9858   2.300   0.553  17.206  0.0136  0.2934  0.2976
  662MPD2    H7 9859   2.237   0.546  17.126  0.6297  2.3929 -0.3597
  663TMC3    C1 9860   2.328   0.315  17.169 -0.1005  0.2187  0.1465
  663TMC3    C2 9861   2.226   0.309  17.082  0.3879 -0.0830 -0.3429
  663TMC3    C3 9862   2.199   0.195  17.015  0.4343  0.0371 -0.0612
  663TMC3    C4 9863   2.386   0.194  17.214 -0.7111 -0.1401 -0.2436
  663TMC3    C5 9864   2.340   0.081  17.153 -0.3718 -0.0029  0.2213
  663TMC3    C6 9865   2.249   0.072  17.056 -0.4145 -0.3777 -0.0431
  663TMC3     C 9866   2.383   0.443  17.228 -0.4763 -0.0468 -0.7717
  663TMC3     O 9867   2.484   0.421  17.299  0.3256 -0.4567 -0.1544
  663TMC3     H 9868   2.177   0.399  17.046  0.3538  0.0938  0.1498
  663TMC3    H1 9869   2.457   0.184  17.295 -1.3489 -1.0428  0.2026
  663TMC3    H2 9870   2.246   4.718  17.000  0.7972 -1.1970  1.2744
  663TMC3    C7 9871   2.395   4.694  17.219  0.2163  0.6152  0.0926
  663TMC3    C8 9872   2.060   0.201  16.983  0.0913  0.3571  0.6539
  663TMC3    O1 9873   2.487   4.706  17.298  0.3819 -0.4064 -0.0642
  663TMC3    O2 9874   2.034   0.226  16.867 -0.6215 -0.2210 -0.1913
  664MPD2     C 9875   4.730   4.043  17.286 -0.5666  0.1163  0.2917
  664MPD2    C1 9876   0.050   4.157  17.334 -0.3634  0.5404 -0.3981
  664MPD2    C2 9877   0.075   4.171  17.470 -0.4407  0.8157 -0.4105
  664MPD2    C3 9878   0.040   4.060  17.556  0.4548 -0.0889 -0.8068
  664MPD2    C4 9879   4.733   3.944  17.506  0.6103 -0.2359  0.3639
  664MPD2    C5 9880   4.710   3.937  17.368  1.0443 -0.6326  0.1363
  664MPD2     H 9881   0.113   4.263  17.513  1.4503 -0.6587  1.0408
  664MPD2    H1 9882   4.717   3.863  17.576  0.2809 -0.6723 -0.2171
  664MPD2    H2 9883   4.714   4.045  17.179 -0.2636 -1.5693  0.2161
  664MPD2    H3 9884   4.683   3.845  17.317  0.0762  0.0728 -0.6273
  664MPD2     N 9885   0.047   4.095  17.693  0.4882 -0.5843  0.1584
  664MPD2    H5 9886   0.107   4.173  17.720  0.3129 -0.7330  0.9732
  664MPD2    N1 9887   0.079   4.268  17.255  0.0351  0.7478  0.5837
  664MPD2    H7 9888   0.092   4.351  17.311  5.5342 -0.3359  0.9392
  665TMC3    C1 9889   0.014   4.078   0.181  0.0022  0.3696  1.0491
  665TMC3    C2 9890   0.001   4.005   0.298  0.1643  0.6288  0.4458
  665TMC3    C3 9891   4.722   4.071   0.411 -0.2535  0.1304 -0.1430
  665TMC3    C4 9892   0.029   4.213   0.185 -0.0420 -0.7883 -0.0826
  665TMC3    C5 9893   0.032   4.276   0.303  0.0401 -0.0063  0.5472
  665TMC3    C6 9894   0.001   4.209   0.420 -0.7014  0.8010  0.2204
  665TMC3     C 9895   0.011   4.014   0.047  0.8556  0.2226  0.2588
  665TMC3     O 9896   4.703   3.902   0.042  0.1508 -0.4530 -1.3036
  665TMC3     H 9897   4.730   3.897   0.309 -1.2098  0.5913 -1.1541
  665TMC3    H1 9898   0.052   4.268   0.094  1.0860  1.1876  1.4058
  665TMC3    H2 9899   4.735   4.252   0.519  0.3404 -0.1170  0.6640
  665TMC3    C7 9900   0.032   4.426   0.317  0.0651  0.0786  0.1703
  665TMC3    C8 9901   4.701   3.998   0.536  1.1695 -0.5607 -0.9388
  665TMC3    O1 9902   0.018   4.497   0.218  0.0192 -0.0180  0.1536
  665TMC3    O2 9903   0.019   4.031   0.641 -0.0394 -0.3001 -0.5504
  666TMC3    C1 9904   4.171   4.415   9.727 -0.5063 -0.1135  0.4091
  666TMC3    C2 9905   4.259   4.337   9.656  0.2692  0.2523 -0.6273
  666TMC3    C3 9906   4.383   4.384   9.633 -0.0234  0.1324  0.2842
  666TMC3    C4 9907   4.213   4.551   9.758  0.9522  0.6523 -0.2165
  666TMC3    C5 9908   4.322   4.605   9.697  0.3958  0.2017  0.0010
  666TMC3    C6 9909   4.405   4.523   9.629  1.1434 -0.1961 -0.8621
  666TMC3     C 9910   4.083   4.349   9.812 -0.3327  0.1198 -0.3546
  666TMC3     O 9911   4.057   4.394   9.925  0.6762 -0.1734  0.1698
  666TMC3     H 9912   4.245   4.230   9.656 -1.4319  0.4736  1.7449
  666TMC3    H1 9913   4.152   4.611   9.825 -0.6507 -1.9691  0.6899
  666TMC3    H2 9914   4.502   4.558   9.595  2.0117 -1.2730  0.5373
  666TMC3    C7 9915   4.315   0.006   9.668  0.1984 -0.8371  0.0084
  666TMC3    C8 9916   4.478   4.293   9.699  0.0428  0.0041 -0.2146
  666TMC3    O1 9917   4.409   0.063   9.619 -0.7342  0.0042 -0.6257
  666TMC3    O2 9918   4.440   4.174   9.698 -0.2710  0.1861 -0.3631
  667MPD2     C 9919   0.558   3.190  14.789 -0.2365 -1.2123  0.6252
  667MPD2    C1 9920   0.598   3.287  14.886 -0.1233 -0.1689  0.7227
  667MPD2    C2 9921   0.610   3.243  15.019  0.4453  0.1221  0.1124
  667MPD2    C3 9922   0.592   3.112  15.057 -0.6786  0.1478 -0.1659
  667MPD2    C4 9923   0.556   3.025  14.961  0.3792  0.5112  0.2851
  667MPD2    C5 9924   0.530   3.066  14.832  0.6104  0.0131  0.4139
  667MPD2     H 9925   0.639   3.315  15.094 -0.4756  0.4929  0.1094
  667MPD2    H1 9926   0.547   2.919  14.985 -0.9228  0.4950 -0.2595
  667MPD2    H2 9927   0.552   3.221  14.685  0.3863 -1.4101  0.5259
  667MPD2    H3 9928   0.503   2.994  14.755  0.1561 -0.2716  0.8432
  667MPD2     N 9929   0.602   3.061  15.192  0.4573  0.0584 -0.2505
  667MPD2    H5 9930   0.601   2.960  15.204 -2.2284  0.4446  2.8693
  667MPD2    N1 9931   0.619   3.426  14.863 -0.2879  0.3898  0.1975
  667MPD2    H7 9932   0.658   3.473  14.944  2.6685 -1.9746  0.1384
  668TMC3    C1 9933   0.637   3.633  14.745 -0.1490  0.0998 -0.3769
  668TMC3    C2 9934   0.751   3.665  14.813  0.1177 -0.3303  0.0847
  668TMC3    C3 9935   0.812   3.775  14.767 -0.4162  0.2935 -0.6067
  668TMC3    C4 9936   0.588   3.698  14.636 -1.0933  0.8323 -0.1606
  668TMC3    C5 9937   0.648   3.812  14.616  0.2045 -0.1583 -0.5801
  668TMC3    C6 9938   0.758   3.852  14.675 -0.6318  0.0461  0.0790
  668TMC3     C 9939   0.593   3.495  14.743 -0.4401 -0.3572 -0.0067
  668TMC3     O 9940   0.524   3.458  14.648 -0.1268  0.0669  0.6650
  668TMC3     H 9941   0.793   3.609  14.896 -0.2285 -0.9270 -0.1402
  668TMC3    H1 9942   0.508   3.658  14.576 -1.1594 -1.6791  1.6361
  668TMC3    H2 9943   0.801   3.948  14.651 -0.2578 -0.2417 -0.3968
  668TMC3    C7 9944   0.582   3.906  14.530  0.4549  0.2272 -0.3170
  668TMC3    C8 9945   0.900   3.829  14.864  0.1223  0.5833  0.2485
  668TMC3    O1 9946   0.657   3.991  14.481  0.4252 -0.3002 -0.7522
  668TMC3    O2 9947   0.856   3.815  14.975  0.5324  0.4550 -0.2727
  669TMC3    C1 9948   3.772   3.995  14.911  0.5744  0.1339  0.7888
  669TMC3    C2 9949   3.656   4.061  14.866 -0.1225 -0.1718 -0.9581
  669TMC3    C3 9950   3.668   4.139  14.752  0.3453  0.7328  0.3649
  669TMC3    C4 9951   3.896   4.017  14.856 -0.5720 -0.0331 -0.0970
  669TMC3    C5 9952   3.901   4.090  14.744 -0.2257 -0.3225  0.1765
  669TMC3    C6 9953   3.790   4.159  14.689  0.3828 -0.2710 -0.1301
  669TMC3     C 9954   3.755   3.890  15.000  0.1366  0.3310  0.2339
  669TMC3     O 9955   3.652   3.871  15.061  0.0634 -0.3781 -0.6168
  669TMC3     H 9956   3.563   4.037  14.914  0.7074 -0.3191  0.5697
  669TMC3    H1 9957   3.990   3.983  14.898 -0.4592  1.5292  0.9276
  669TMC3    H2 9958   3.805   4.220  14.601 -0.4056 -2.0635 -1.5088
  669TMC3    C7 9959   4.021   4.104  14.666 -0.2360  0.2651 -0.2249
  669TMC3    C8 9960   3.568   4.113  14.650  0.6670 -0.1829  0.1216
  669TMC3    O1 9961   4.033   4.205  14.605 -0.4843  0.7098 -0.0735
  669TMC3    O2 9962   3.620   4.110  14.536  0.8754  0.2628  0.2980
  670MPD2     C 9963   1.502   1.663  13.549  1.3010  0.1000 -0.1768
  670MPD2    C1 9964   1.603   1.720  13.628  0.2278 -0.1554 -0.2965
  670MPD2    C2 9965   1.592   1.698  13.764 -0.2761  0.0997  0.3959
  670MPD2    C3 9966   1.502   1.601  13.815  0.4529  0.7326  0.3038
  670MPD2    C4 9967   1.427   1.531  13.727 -0.5122 -0.0153 -0.5088
  670MPD2    C5 9968   1.422   1.573  13.598  0.7484  0.1128  0.4408
  670MPD2     H 9969   1.662   1.754  13.826 -0.1116  1.4865 -1.0631
  670MPD2    H1 9970   1.368   1.443  13.753 -1.4559  0.9448  0.5942
  670MPD2    H2 9971   1.507   1.684  13.443 -0.3429  0.0913 -0.2558
  670MPD2    H3 9972   1.350   1.517  13.539  2.4428  1.0885 -2.5554
  670MPD2     N 9973   1.516   1.565  13.953  0.5144  0.1896 -0.6834
  670MPD2    H5 9974   1.565   1.637  14.005 -0.4034  0.2730  0.0521
  670MPD2    N1 9975   1.696   1.819  13.587 -0.1805  0.3182 -0.1212
  670MPD2    H7 9976   1.763   1.842  13.660  2.0477 -1.2925 -1.6597
  671TMC3    C1 9977   1.449   1.502  14.169 -0.4314 -0.3587 -0.1681
  671TMC3    C2 9978   1.571   1.495  14.221 -0.0396 -0.3383  0.8250
  671TMC3    C3 9979   1.590   1.423  14.337 -0.0393 -0.5931 -0.3524
  671TMC3    C4 9980   1.344   1.437  14.230 -0.0779 -0.0498  0.7308
  671TMC3    C5 9981   1.367   1.363  14.340 -0.0019  0.6003 -0.2049
  671TMC3    C6 9982   1.488   1.351  14.401  0.1044  0.0379  0.0356
  671TMC3     C 9983   1.433   1.482  14.022 -0.4730  0.3401 -0.0432
  671TMC3     O 9984   1.348   1.402  13.982  0.3225  0.0316 -0.4166
  671TMC3     H 9985   1.650   1.514  14.149  0.5421  1.5496  1.9758
  671TMC3    H1 9986   1.252   1.420  14.177  1.4663 -0.6449 -1.7802
  671TMC3    H2 9987   1.507   1.286  14.485  2.5686 -1.3325 -1.5911
  671TMC3    C7 9988   1.326   1.228  14.312  0.6262  0.3355  0.3403
  671TMC3    C8 9989   1.714   1.354  14.351  0.3235  0.0332 -0.5933
  671TMC3    O1 9990   1.416   1.147  14.278 -0.5903  0.3274 -0.0347
  671TMC3    O2 9991   1.784   1.347  14.249 -0.3740 -0.3544  0.1391
  672MPD2     C 9992   2.260   1.901   0.862 -0.1563 -0.8468  0.2333
  672MPD2    C1 9993   2.378   1.827   0.870  0.4724 -1.0205  0.8614
  672MPD2    C2 9994   2.480   1.872   0.949  0.5317  0.6491 -0.3671
  672MPD2    C3 9995   2.454   1.976   1.038 -0.1244 -0.6081  0.0251
  672MPD2    C4 9996   2.330   2.042   1.036 -0.4029  0.2875  0.1165
  672MPD2    C5 9997   2.231   1.998   0.955  0.0865 -0.1604  0.2875
  672MPD2     H 9998   2.573   1.818   0.959 -0.4149 -0.6261  1.4817
  672MPD2    H1 9999   2.310   2.129   1.098  0.3288  1.2827 -1.0240
  672MPD2    H210000   2.182   1.876   0.791 -0.8288 -0.1941  0.7428
  672MPD2    H310001   2.144   2.063   0.952  0.3344  0.1538 -0.1693
  672MPD2     N10002   2.538   2.012   1.142 -0.4735  0.1165 -0.4377
  672MPD2    H510003   2.512   2.087   1.205  0.0215 -0.9844  1.0517
  672MPD2    N110004   2.406   1.725   0.779  0.0925  0.2833 -0.0548
  672MPD2    H710005   2.502   1.695   0.766  0.2837  0.7102  0.3621
  673TMC3    C110006   2.359   1.594   0.585  0.0375 -0.4960  0.8681
  673TMC3    C210007   2.472   1.523   0.585  0.3816 -0.3035  0.1846
  673TMC3    C310008   2.522   1.483   0.462 -0.0206  0.1271 -0.4539
  673TMC3    C410009   2.287   1.629   0.474 -0.0190  0.0223  0.1887
  673TMC3    C510010   2.331   1.574   0.353 -0.4787 -0.0801  0.0193
  673TMC3    C610011   2.446   1.497   0.352  0.1625  0.3261  0.1104
  673TMC3     C10012   2.309   1.670   0.703 -0.3034 -0.1805  0.7790
  673TMC3     O10013   2.188   1.683   0.716  0.3671 -0.0139 -0.1498
  673TMC3     H10014   2.507   1.483   0.679 -0.2867 -0.0986  0.5184
  673TMC3    H110015   2.197   1.689   0.476 -1.9668 -2.8056 -1.8718
  673TMC3    H210016   2.476   1.449   0.259  0.5117  0.1229  0.3303
  673TMC3    C710017   2.271   1.618   0.226  0.2896 -0.0252 -0.2877
  673TMC3    C810018   2.639   1.396   0.461 -0.3325  0.7322 -0.6418
  673TMC3    O110019   2.310   1.567   0.123  0.0151 -0.4142 -0.5113
  673TMC3    O210020   2.636   1.311   0.377 -0.2210 -0.2698 -0.1082
  674MPD2     C10021   2.041   1.918  17.077  0.0906 -0.2059  0.4328
  674MPD2    C110022   2.030   1.807  17.155 -0.4488 -0.2864  0.4740
  674MPD2    C210023   1.965   1.806  17.278 -0.4258  0.3238  0.4094
  674MPD2    C310024   1.928   1.929  17.331 -0.0913  0.1081  0.4440
  674MPD2    C410025   1.938   2.042  17.256  0.2508  0.2403  0.4908
  674MPD2    C510026   1.998   2.036  17.133 -0.4671  0.6199 -0.5279
  674MPD2     H10027   1.956   1.714  17.335 -0.2701  0.6649  0.9850
  674MPD2    H110028   1.927   2.144  17.291 -1.1628  0.3859 -0.3741
  674MPD2    H210029   2.090   1.912  16.981  1.8008  1.4740  1.2178
  674MPD2    H310030   2.002   2.123  17.069 -2.2730  0.8721 -0.2888
  674MPD2     N10031   1.853   1.929  17.453  0.4884 -0.3572  0.1395
  674MPD2    H510032   1.848   1.838  17.498 -0.6214  0.2414  1.2175
  674MPD2    N110033   2.087   1.685  17.100  0.2267 -0.1822  0.1541
  674MPD2    H710034   2.087   1.678  16.999 -0.1121 -2.0418  0.2877
  675TMC3    C110035   2.137   1.560  17.307  0.1844  0.3236 -0.2022
  675TMC3    C210036   2.111   1.437  17.365  0.2301  0.0358 -0.0763
  675TMC3    C310037   2.175   1.423  17.484 -0.0111  0.5571  0.2798
  675TMC3    C410038   2.226   1.651  17.353  1.1764  0.9727  1.2822
  675TMC3    C510039   2.287   1.629  17.466 -0.3736  0.5185 -0.1074
  675TMC3    C610040   2.255   1.518  17.537 -0.5032 -0.2775 -0.3473
  675TMC3     C10041   2.121   1.564  17.162 -0.8388 -0.3742  0.3643
  675TMC3     O10042   2.147   1.460  17.102  0.0484 -0.2192  0.3046
  675TMC3     H10043   2.043   1.364  17.322 -0.6384  1.1377 -0.5752
  675TMC3    H110044   2.258   1.732  17.288  0.6411  0.6200  0.5865
  675TMC3    H210045   2.320   1.494  17.620 -0.9395 -1.6859 -0.4133
  675TMC3    C710046   2.430   1.661  17.480  0.6823 -0.0717 -0.2638
  675TMC3    C810047   2.158   1.304  17.548 -0.0871 -0.1444  0.5506
  675TMC3    O110048   2.515   1.648  17.391  0.1883 -0.5272  0.4208
  675TMC3    O210049   2.120   1.205  17.486 -0.0876  0.0177  0.6319
  676MPD2     C10050   0.247   0.283  11.237  0.3489  0.0264  0.3026
  676MPD2    C110051   0.123   0.262  11.195  0.2787 -0.1588  0.8957
  676MPD2    C210052   0.084   0.130  11.157 -0.1842 -0.0659  0.6351
  676MPD2    C310053   0.173   0.023  11.161  0.5517  0.1024  0.0530
  676MPD2    C410054   0.299   0.052  11.206 -0.7256 -0.0878 -0.4898
  676MPD2    C510055   0.332   0.179  11.237 -0.4672 -0.0307  0.0969
  676MPD2     H10056   4.720   0.115  11.127  0.8509 -1.5118 -2.0997
  676MPD2    H110057   0.384   4.724  11.218 -0.4926  0.2937 -0.0271
  676MPD2    H210058   0.298   0.375  11.264 -0.8913  1.2073 -1.4105
  676MPD2    H310059   0.431   0.202  11.274 -0.2644 -0.1930 -0.3456
  676MPD2     N10060   0.150   4.630  11.123  0.6312 -0.9733  0.3382
  676MPD2    H510061   0.225   4.564  11.138  1.4809  0.0808  0.7037
  676MPD2    N110062   0.028   0.368  11.194  0.1208  0.2512  0.8142
  676MPD2    H710063   4.671   0.343  11.171  1.3126 -2.6552 -0.9848
  677TMC3    C110064   4.671   0.569  11.232  0.3312  0.4074 -0.3834
  677TMC3    C210065   4.569   0.523  11.159 -0.2184 -0.6440  0.2265
  677TMC3    C310066   4.443   0.555  11.201 -0.2955 -0.0289  0.3605
  677TMC3    C410067   4.657   0.649  11.338 -0.2504  0.0019  0.1067
  677TMC3    C510068   4.532   0.682  11.385  0.3002  0.8242  0.3781
  677TMC3    C610069   4.423   0.629  11.316 -0.4203  0.5651 -0.1508
  677TMC3     C10070   0.058   0.495  11.229  0.4571 -0.5274 -0.4228
  677TMC3     O10071   0.165   0.553  11.257  0.1947 -0.0822 -0.8958
  677TMC3     H10072   4.582   0.466  11.067 -0.2127  0.2829 -0.3512
  677TMC3    H110073   0.007   0.688  11.387 -0.8866  0.4669  0.8935
  677TMC3    H210074   4.322   0.654  11.345 -0.3933 -0.0226  0.4609
  677TMC3    C710075   4.508   0.773  11.493  0.4636 -0.3823 -0.2353
  677TMC3    C810076   4.339   0.497  11.131 -0.5510 -0.2696 -0.1596
  677TMC3    O110077   4.398   0.783  11.541 -0.7146 -0.1805  0.2146
  677TMC3    O210078   4.348   0.505  11.007  0.3619  0.1195 -0.4206
  678MPD2     C10079   1.348   0.054   1.286 -0.1301  0.4653 -0.2709
  678MPD2    C110080   1.313   0.089   1.157  0.0613  0.1563  0.3064
  678MPD2    C210081   1.215   0.186   1.129  0.3595 -0.6175 -0.5910
  678MPD2    C310082   1.145   0.238   1.234 -0.1941 -0.1456 -0.5274
  678MPD2    C410083   1.182   0.205   1.365 -0.4452 -0.4305 -0.4596
  678MPD2    C510084   1.288   0.124   1.393 -0.3221 -0.2387  0.1293
  678MPD2     H10085   1.181   0.208   1.028 -0.4886  0.8748  0.0259
  678MPD2    H110086   1.128   0.254   1.445  2.7240 -0.4061  1.6659
  678MPD2    H210087   1.414   4.712   1.314 -1.1644  0.6428  2.6627
  678MPD2    H310088   1.310   0.101   1.496  0.1898 -2.8547 -0.5710
  678MPD2     N10089   1.026   0.311   1.208 -0.2633 -0.2774 -0.3692
  678MPD2    H510090   0.996   0.318   1.111  0.8348 -0.9835 -0.7568
  678MPD2    N110091   1.374   0.026   1.044 -0.0628  0.0369  0.0913
  678MPD2    H710092   1.345   0.058   0.953  1.7415  0.2292 -0.4170
  679TMC3    C110093   1.680   4.533   0.772  0.7133 -0.3607 -0.4188
  679TMC3    C210094   1.601   4.539   0.890  0.8825  0.0496 -0.1319
  679TMC3    C310095   1.521   4.647   0.916  0.9756 -0.1749  0.2492
  679TMC3    C410096   1.684   4.640   0.689 -0.1416  0.5878 -0.4342
  679TMC3    C510097   1.602   0.009   0.729 -0.1292 -0.1878  0.6101
  679TMC3    C610098   1.510   0.011   0.829 -1.1065 -0.0914 -0.2491
  679TMC3     C10099   1.766   4.424   0.735  0.1002 -0.1461 -0.4430
  679TMC3     O10100   1.849   4.434   0.647  0.0400  0.1026 -0.2736
  679TMC3     H10101   1.595   4.459   0.963 -1.1148  0.0941 -0.2491
  679TMC3    H110102   1.758   4.649   0.610 -1.1394 -1.0940 -1.5419
  679TMC3    H210103   1.439   0.093   0.830 -0.9327  0.0551 -0.0274
  679TMC3    C710104   1.593   0.115   0.628 -0.0255 -1.3566  0.2271
  679TMC3    C810105   1.475   4.668   1.054  0.8429  0.1865 -0.3024
  679TMC3    O110106   1.628   0.097   0.512  0.3882  0.1119  0.6380
  679TMC3    O210107   1.535   4.603   1.138  0.8027 -0.2866  0.0747
  680MPD2     C10108   1.758   3.779  13.468  0.0982  0.2731  0.4661
  680MPD2    C110109   1.844   3.747  13.574 -0.4559 -0.0289  0.4856
  680MPD2    C210110   1.926   3.844  13.615 -0.5381 -0.2642  0.0838
  680MPD2    C310111   1.928   3.976  13.566  0.5816  0.7883 -0.5602
  680MPD2    C410112   1.835   4.005  13.474 -0.2275 -0.2036  0.0244
  680MPD2    C510113   1.752   3.907  13.427  0.3274  0.3379 -0.6620
  680MPD2     H10114   2.001   3.813  13.688  1.1662  0.4796 -1.3462
  680MPD2    H110115   1.823   4.109  13.445  1.7699  0.4135  1.4137
  680MPD2    H210116   1.700   3.701  13.420 -2.8622  3.2189 -0.7282
  680MPD2    H310117   1.687   3.936  13.345 -0.9671  2.2279  1.0359
  680MPD2     N10118   2.008   4.078  13.614 -0.5633 -0.0720 -0.0830
  680MPD2    H510119   1.973   4.172  13.598  0.0766  0.1189 -0.3622
  680MPD2    N110120   1.870   3.623  13.626  0.0985 -0.4333 -0.6198
  680MPD2    H710121   1.953   3.606  13.683 -0.5827 -0.0536  0.4946
  681TMC3    C110122   1.840   3.415  13.696  0.1827  0.3128  0.3806
  681TMC3    C210123   1.787   3.389  13.818  0.5007 -0.2500 -0.2613
  681TMC3    C310124   1.861   3.307  13.902 -0.3650 -0.4437 -0.4000
  681TMC3    C410125   1.972   3.381  13.661 -0.6984  0.3150  1.4778
  681TMC3    C510126   2.048   3.313  13.755 -1.0674  0.2866  0.4306
  681TMC3    C610127   1.994   3.274  13.876  0.8355  0.6540  0.4462
  681TMC3     C10128   1.775   3.524  13.625  0.3974  0.1993 -0.1405
  681TMC3     O10129   1.656   3.534  13.616 -0.1235 -0.6791  0.0736
  681TMC3     H10130   1.690   3.433  13.838 -0.7442 -2.7121 -0.8647
  681TMC3    H110131   2.007   3.417  13.565 -2.0487  0.3212  0.9916
  681TMC3    H210132   2.043   3.201  13.939  0.6831  2.8086  3.0817
  681TMC3    C710133   2.188   3.278  13.715 -0.5050  0.1785  0.3914
  681TMC3    C810134   1.823   3.320  14.043  0.2498 -0.4859  0.8055
  681TMC3    O110135   2.241   3.201  13.795 -0.0086 -0.5709 -0.0858
  681TMC3    O210136   1.706   3.341  14.068  1.1114 -0.2254  0.2109
  682MPD2     C10137   3.547   0.634  10.175 -0.2480 -0.1273 -0.0957
  682MPD2    C110138   3.516   0.502  10.130 -0.3433  1.1808 -0.5211
  682MPD2    C210139   3.520   0.400  10.222 -0.0219 -0.3348  0.0346
  682MPD2    C310140   3.536   0.425  10.358  0.1564  0.0742  0.3030
  682MPD2    C410141   3.550   0.550  10.397 -0.5827 -0.3955 -0.5608
  682MPD2    C510142   3.553   0.650  10.312  0.1746 -0.0040 -1.2926
  682MPD2     H10143   3.521   0.303  10.175 -0.8458 -1.1228  1.6516
  682MPD2    H110144   3.554   0.581  10.501 -1.5295 -1.3155 -0.2545
  682MPD2    H210145   3.547   0.721  10.109 -0.4153 -1.0760 -1.3520
  682MPD2    H310146   3.560   0.752  10.348  1.2920 -0.6795  0.3989
  682MPD2     N10147   3.524   0.314  10.447 -0.0866 -0.4207 -0.0644
  682MPD2    H510148   3.555   0.321  10.543 -1.1555  0.1654  0.2369
  682MPD2    N110149   3.472   0.468  10.000  0.2883 -1.0526  0.3145
  682MPD2    H710150   3.454   0.370   9.981  0.4033 -1.1208  0.5665
  683TMC3    C110151   3.478   0.050  10.744 -0.5508 -0.5483  0.5102
  683TMC3    C210152   3.460   4.653  10.706 -0.3804  0.1167 -0.0891
  683TMC3    C310153   3.440   4.609  10.578 -0.0270  0.1136 -0.4445
  683TMC3    C410154   3.476   0.148  10.648 -1.1925  0.1945 -0.1687
  683TMC3    C510155   3.471   0.099  10.518  0.9983  0.1131 -0.2882
  683TMC3    C610156   3.447   4.711  10.483  0.0425 -0.1069  0.3437
  683TMC3     C10157   3.474   0.098  10.878 -0.2791 -0.6567 -0.2290
  683TMC3     O10158   3.463   0.218  10.903 -0.0721 -0.0121 -0.0461
  683TMC3     H10159   3.436   4.588  10.790 -0.0842  0.4558  0.2563
  683TMC3    H110160   3.482   0.253  10.673 -2.4836 -0.0320  1.1195
  683TMC3    H210161   3.451   4.681  10.379  0.4095  2.1391 -0.2873
  683TMC3    C710162   3.485   0.189  10.402 -0.1214  0.4641 -0.4413
  683TMC3    C810163   3.436   4.474  10.536  0.3461 -0.3096 -0.1740
  683TMC3    O110164   3.433   0.149  10.299 -0.1660  0.1187  0.4317
  683TMC3    O210165   3.381   4.452  10.427  0.1534  0.1358 -0.2984
  684MPD2     C10166   2.363   4.082  16.414 -0.0198  0.0258 -0.1467
  684MPD2    C110167   2.285   4.125  16.310 -0.2799 -0.3432 -0.0204
  684MPD2    C210168   2.264   4.260  16.302  0.4622 -0.3447 -0.3304
  684MPD2    C310169   2.325   4.350  16.389  0.1216 -0.7084  0.5714
  684MPD2    C410170   2.391   4.302  16.504  0.3549  0.1766  0.2469
  684MPD2    C510171   2.413   4.166  16.507  0.1739  0.3653 -0.6284
  684MPD2     H10172   2.226   4.291  16.205 -0.9681 -1.2937 -0.0783
  684MPD2    H110173   2.440   4.367  16.576 -0.1422  1.0325 -0.1853
  684MPD2    H210174   2.383   3.976  16.424  1.1818  0.4303  1.8550
  684MPD2    H310175   2.463   4.116  16.589 -2.6581 -0.6919  0.4440
  684MPD2     N10176   2.340   4.488  16.356 -0.1890  0.4886  0.2885
  684MPD2    H510177   2.393   4.550  16.417 -0.2039  1.1730 -0.3970
  684MPD2    N110178   2.237   4.042  16.204 -0.2512  0.4468  0.3940
  684MPD2    H710179   2.188   4.091  16.131 -0.6393  3.4449  2.6869
  685TMC3    C110180   2.246   3.869  16.044 -0.7459  0.3874 -0.2646
  685TMC3    C210181   2.164   3.949  15.962 -0.1529  0.0959 -0.0684
  685TMC3    C310182   2.167   3.918  15.832  0.3928  0.3374 -0.1671
  685TMC3    C410183   2.318   3.765  15.996 -0.0421 -0.3375 -0.3572
  685TMC3    C510184   2.312   3.736  15.864  0.2789 -0.8026 -0.9104
  685TMC3    C610185   2.237   3.818  15.781 -0.1316 -0.2845 -0.6920
  685TMC3     C10186   2.292   3.915  16.175 -0.0638 -1.1211 -0.3569
  685TMC3     O10187   2.366   3.846  16.245  0.5105 -0.1656 -0.2266
  685TMC3     H10188   2.098   4.021  16.008  0.3196 -1.0562  2.4276
  685TMC3    H110189   2.359   3.686  16.058  1.4827  1.1788  0.6044
  685TMC3    H210190   2.234   3.804  15.673  0.3693  1.2862 -0.9080
  685TMC3    C710191   2.447   3.717  15.816  0.0645  0.2745  0.4198
  685TMC3    C810192   2.084   3.992  15.735 -0.4045 -0.2013 -0.1993
  685TMC3    O110193   2.474   3.635  15.734  0.4052 -0.1451  0.1571
  685TMC3    O210194   2.075   3.948  15.621 -0.4434 -0.0214 -0.2888
  686MPD2     C10195   3.279   4.407  15.489  0.5314  0.1204  0.4584
  686MPD2    C110196   3.365   4.313  15.548  0.5166  0.2172 -0.5024
  686MPD2    C210197   3.393   4.195  15.487 -0.3185  0.3023 -0.7286
  686MPD2    C310198   3.327   4.170  15.371  0.3683  0.0036  0.2428
  686MPD2    C410199   3.253   4.270  15.307  0.6036  0.0047 -0.4001
  686MPD2    C510200   3.221   4.381  15.374 -0.2226 -0.4154  0.2026
  686MPD2     H10201   3.470   4.128  15.524  0.5665  0.0114 -3.0969
  686MPD2    H110202   3.229   4.272  15.202 -2.8187 -0.8845  0.3760
  686MPD2    H210203   3.267   4.501  15.542 -0.2588  0.3336 -0.1085
  686MPD2    H310204   3.171   4.467  15.331  2.3543  0.6546 -0.6592
  686MPD2     N10205   3.350   4.049  15.299 -0.0425 -0.0178  0.2831
  686MPD2    H510206   3.314   4.048  15.204  0.7330 -0.0069 -0.0042
  686MPD2    N110207   3.418   4.344  15.675  0.7330  0.0859  0.1281
  686MPD2    H710208   3.381   4.425  15.723 -2.1211 -1.9760  1.3736
  687TMC3    C110209   3.377   3.909  15.498  0.4100  0.1225 -0.0315
  687TMC3    C210210   3.259   3.942  15.559  0.2720  0.3819  0.2528
  687TMC3    C310211   3.250   3.932  15.700 -0.6336  0.0291  0.1479
  687TMC3    C410212   3.492   3.878  15.560 -0.4928  0.1374  0.3125
  687TMC3    C510213   3.488   3.879  15.698  0.2001  0.0922 -0.4993
  687TMC3    C610214   3.365   3.895  15.770  0.3740 -0.3900 -0.7520
  687TMC3     C10215   3.380   3.922  15.354 -0.1920  0.8107  1.2136
  687TMC3     O10216   3.392   3.817  15.290 -0.8076 -0.8077  0.3475
  687TMC3     H10217   3.172   3.973  15.502  1.6595  1.3695 -1.3083
  687TMC3    H110218   3.579   3.861  15.498  0.8865 -0.6397  2.4183
  687TMC3    H210219   3.376   3.913  15.876 -0.9793 -0.1165 -0.6596
  687TMC3    C710220   3.607   3.862  15.782 -0.2277  0.0233 -0.4170
  687TMC3    C810221   3.176   4.044  15.754  0.7383 -0.1304  0.0398
  687TMC3    O110222   3.587   3.794  15.883  0.0818 -0.3027 -0.2422
  687TMC3    O210223   3.226   4.108  15.846  0.4771 -0.3939  0.0073
  688MPD2     C10224   2.776   3.103  17.399  0.0654  0.2137 -0.2713
  688MPD2    C110225   2.816   2.976  17.438 -0.0372 -0.7956 -0.5483
  688MPD2    C210226   2.916   2.903  17.374 -0.7033 -0.4643 -0.6667
  688MPD2    C310227   2.980   2.965  17.267  0.6756 -0.0937 -0.1939
  688MPD2    C410228   2.939   3.092  17.224 -0.3319 -0.5304 -0.8771
  688MPD2    C510229   2.834   3.155  17.287  0.1243  0.5505  0.3788
  688MPD2     H10230   2.938   2.803  17.411  0.5471  1.3319  3.4509
  688MPD2    H110231   2.970   3.138  17.131 -0.9142 -1.0146 -1.3127
  688MPD2    H210232   2.703   3.165  17.450  0.0903  1.0560 -1.2523
  688MPD2    H310233   2.803   3.251  17.248 -0.4054  0.3059  0.2029
  688MPD2     N10234   3.082   2.909  17.185 -0.0876 -0.9358  0.2201
  688MPD2    H510235   3.137   2.975  17.131 -0.5181 -1.1995 -0.5558
  688MPD2    N110236   2.763   2.909  17.550 -0.1466  0.4325 -0.2938
  688MPD2    H710237   2.784   2.810  17.560  2.8376  0.8597 -2.1188
  689TMC3    C110238   2.640   2.890   0.004 -0.2587 -0.2718  0.2203
  689TMC3    C210239   2.641   2.947   0.130 -0.1933 -0.8663 -0.1490
  689TMC3    C310240   2.602   2.861   0.230 -0.7299  1.0105  0.0797
  689TMC3    C410241   2.594   2.767  17.720 -0.0539  0.4787 -0.7462
  689TMC3    C510242   2.552   2.683   0.077 -0.6004 -0.3614 -0.7071
  689TMC3    C610243   2.560   2.725   0.211 -0.8344  0.4504  0.3083
  689TMC3     C10244   2.699   2.979  17.655 -0.1995  0.0531 -0.3030
  689TMC3     O10245   2.690   3.099  17.669  0.0656 -0.3813 -0.0836
  689TMC3     H10246   2.692   3.040   0.156 -0.4655 -0.6150 -0.5135
  689TMC3    H110247   2.585   2.740  17.615 -0.1043  0.4814 -0.7423
  689TMC3    H210248   2.538   2.665   0.299  1.9081 -0.2624  0.4987
  689TMC3    C710249   2.524   2.539   0.061 -0.5826 -0.3380 -0.1558
  689TMC3    C810250   2.575   2.914   0.367 -0.3558  0.5183 -0.4389
  689TMC3    O110251   2.527   2.464   0.160 -0.2211 -0.7088 -0.5469
  689TMC3    O210252   2.535   2.832   0.443 -0.1425  0.1659  0.4312
  690MPD2     C10253   0.789   4.733  15.377  0.2678 -0.0961 -0.9202
  690MPD2    C110254   0.720   0.023  15.264  0.2088 -1.1617  0.0743
  690MPD2    C210255   0.783   0.099  15.161  0.1886  0.4845  0.3684
  690MPD2    C310256   0.912   0.145  15.175 -0.1235  0.1650  0.5813
  690MPD2    C410257   0.979   0.110  15.292 -0.4941 -0.1788  0.5036
  690MPD2    C510258   0.926   0.019  15.386  0.3457 -0.4212 -0.7359
  690MPD2     H10259   0.724   0.127  15.075 -2.0416 -2.3834  0.9760
  690MPD2    H110260   1.084   0.137  15.288 -0.6875  0.1624 -1.9850
  690MPD2    H210261   0.746   4.672  15.456 -0.4468  3.0428  1.1212
  690MPD2    H310262   0.990   0.002  15.472  1.8721 -0.0038 -1.7861
  690MPD2     N10263   0.966   0.206  15.063  0.0393  0.0547  0.0891
  690MPD2    H510264   0.901   0.219  14.985 -0.2810 -1.9112  0.0246
  690MPD2    N110265   0.587   4.722  15.246  0.5130 -0.0504  0.1186
  690MPD2    H710266   0.538   0.020  15.165 -2.2045 -0.8929  1.3642
  691TMC3    C110267   0.375   4.608  15.282 -0.1277  0.4083 -0.3872
  691TMC3    C210268   0.335   4.668  15.159  0.3443 -0.1754 -0.3464
  691TMC3    C310269   0.203   4.679  15.156 -0.2829  0.2789  0.1389
  691TMC3    C410270   0.297   4.547  15.376 -0.0931  0.7857  0.4054
  691TMC3    C510271   0.163   4.544  15.349 -0.2410 -0.0767  0.3189
  691TMC3    C610272   0.111   4.621  15.243  0.0019  0.5216 -0.1475
  691TMC3     C10273   0.519   4.627  15.319 -0.1480  0.6595 -0.0877
  691TMC3     O10274   0.558   4.554  15.408 -0.0354 -0.2700 -0.2119
  691TMC3     H10275   0.392   4.719  15.082  0.2025  1.4557  0.6229
  691TMC3    H110276   0.339   4.511  15.469 -0.5358 -0.6250  0.0627
  691TMC3    H210277   0.005   4.643  15.237  0.3531  1.5576 -2.2947
  691TMC3    C710278   0.075   4.512  15.465 -0.0752 -0.4262  0.1867
  691TMC3    C810279   0.160   0.032  15.060  0.8226  0.9978  0.3876
  691TMC3    O110280   0.117   4.524  15.576  0.7282 -0.4361  0.3198
  691TMC3    O210281   0.215   0.034  14.949  0.7583 -0.0042 -0.1212
  692TMC3    C110282   1.908   0.967  15.815 -0.0257  0.7755  0.2864
  692TMC3    C210283   2.039   1.003  15.827  0.1361  0.9631 -0.1304
  692TMC3    C310284   2.142   0.917  15.785  0.2435 -0.1772  0.1037
  692TMC3    C410285   1.875   0.846  15.767  0.6666 -0.5472 -0.2110
  692TMC3    C510286   1.974   0.757  15.734  0.4134  0.7818  0.6822
  692TMC3    C610287   2.106   0.787  15.750 -0.0514  0.9840  0.0067
  692TMC3     C10288   1.792   1.059  15.826 -0.1399 -0.1647 -0.5006
  692TMC3     O10289   1.680   1.021  15.798 -0.0767  0.1181  0.4621
  692TMC3     H10290   2.060   1.106  15.849 -0.2393  1.2356 -1.0423
  692TMC3    H110291   1.770   0.828  15.746  0.3857 -0.3959  1.0106
  692TMC3    H210292   2.189   0.732  15.706 -0.3230 -1.3128  2.3425
  692TMC3    C710293   1.944   0.621  15.712 -0.2285  0.1845  0.0607
  692TMC3    C810294   2.234   0.898  15.890 -0.0174  0.0249 -0.1719
  692TMC3    O110295   1.834   0.590  15.668  0.2241  1.0142 -0.0488
  692TMC3    O210296   2.279   0.781  15.900 -0.1567 -0.1303  0.1273
  693MPD2     C10297   1.458   4.042  10.540  0.8687 -0.4984  0.1829
  693MPD2    C110298   1.374   3.930  10.563  0.4801 -0.2823  0.4210
  693MPD2    C210299   1.439   3.820  10.618  0.0636  0.1881 -0.6075
  693MPD2    C310300   1.573   3.819  10.654  0.3574  0.1394 -0.0650
  693MPD2    C410301   1.651   3.924  10.622  0.0461  0.0548  0.1102
  693MPD2    C510302   1.589   4.031  10.559 -0.4676  0.0383  0.3737
  693MPD2     H10303   1.390   3.725  10.637  1.8576 -0.5086  0.5251
  693MPD2    H110304   1.756   3.927  10.650  0.3583  0.5845 -1.1293
  693MPD2    H210305   1.428   4.126  10.477 -0.2899 -0.3146  0.9888
  693MPD2    H310306   1.647   4.113  10.519 -2.2995  0.0993 -2.0847
  693MPD2     N10307   1.629   3.717  10.726  0.3024 -0.3513  0.0800
  693MPD2    H510308   1.728   3.730  10.748  0.0719 -1.0929  1.5332
  693MPD2    N110309   1.237   3.951  10.549 -0.0565  0.1633 -0.1335
  693MPD2    H710310   1.200   4.041  10.520  1.5534  0.1238 -2.3366
  694TMC3    C110311   1.016   3.923  10.608 -0.3001 -0.4814 -0.7212
  694TMC3    C210312   0.909   3.861  10.542  0.0344  0.5597  0.4697
  694TMC3    C310313   0.789   3.865  10.609  0.7344  0.1115  0.6323
  694TMC3    C410314   0.990   3.977  10.735 -0.0107  0.3819  0.8332
  694TMC3    C510315   0.869   3.975  10.798 -0.2531  0.1183  0.5198
  694TMC3    C610316   0.761   3.921  10.733  0.7248  0.6185  0.1494
  694TMC3     C10317   1.143   3.860  10.588 -0.2067  0.1418  0.0959
  694TMC3     O10318   1.152   3.745  10.631  0.0059 -0.1085 -0.5337
  694TMC3     H10319   0.932   3.803  10.453  0.4992 -0.0115  0.9656
  694TMC3    H110320   1.075   4.026  10.782 -0.9904  1.3434  1.6184
  694TMC3    H210321   0.663   3.915  10.779 -0.3629 -1.0228 -2.3612
  694TMC3    C710322   0.861   3.994  10.943  0.5018 -0.1772 -0.3619
  694TMC3    C810323   0.683   3.783  10.560 -0.7422  0.0269 -0.1910
  694TMC3    O110324   0.950   4.062  10.989  0.2056  0.5750 -0.0350
  694TMC3    O210325   0.588   3.767  10.636  0.0153 -0.9001  0.1682
  695MPD2     C10326   2.007   0.810  13.532 -0.5024  0.8780  0.1739
  695MPD2    C110327   1.964   0.834  13.660 -0.4344 -0.5118 -0.8937
  695MPD2    C210328   1.824   0.868  13.668 -0.0384  0.2316  0.7241
  695MPD2    C310329   1.740   0.882  13.565  0.0679  0.5228  1.7852
  695MPD2    C410330   1.791   0.864  13.437 -0.4388 -0.0039  0.3507
  695MPD2    C510331   1.924   0.835  13.427 -0.1565  0.5876  0.1010
  695MPD2     H10332   1.778   0.898  13.761 -1.5758 -1.0268  0.3589
  695MPD2    H110333   1.733   0.897  13.352  0.0165  0.8572  0.3835
  695MPD2    H210334   2.113   0.799  13.511 -1.5870 -2.7422 -3.3419
  695MPD2    H310335   1.983   0.836  13.337  1.9578  0.6067  1.4836
  695MPD2     N10336   1.609   0.930  13.598 -0.7069 -0.1004  0.4554
  695MPD2    H510337   1.571   0.929  13.692 -0.4829 -1.6784  0.5419
  695MPD2    N110338   2.047   0.837  13.775 -0.4147 -0.1520  0.3464
  695MPD2    H710339   2.016   0.881  13.862  3.5930  1.6656  0.8597
  696TMC3    C110340   1.394   1.019  13.584 -0.3828 -0.4187 -0.1018
  696TMC3    C210341   1.353   0.940  13.686  0.1567  0.7767 -0.6557
  696TMC3    C310342   1.229   0.969  13.737 -0.1983 -0.9921 -0.5996
  696TMC3    C410343   1.331   1.128  13.532 -0.4265 -0.8465  0.0385
  696TMC3    C510344   1.211   1.157  13.596 -0.3387 -0.1053  0.7545
  696TMC3    C610345   1.164   1.086  13.702 -0.0040 -0.3207 -0.1015
  696TMC3     C10346   1.520   0.991  13.515  0.5809 -0.1014  0.2530
  696TMC3     O10347   1.547   1.055  13.415 -0.3535  0.0970  0.3123
  696TMC3     H10348   1.407   0.848  13.703 -3.1516 -1.2153 -1.0513
  696TMC3    H110349   1.372   1.184  13.449  0.6140 -2.4191 -0.5007
  696TMC3    H210350   1.065   1.112  13.739 -0.0996  0.4538 -0.9127
  696TMC3    C710351   1.166   1.293  13.576  0.4116  0.1479 -0.1590
  696TMC3    C810352   1.222   0.956  13.882  0.7311 -0.2136 -0.5332
  696TMC3    O110353   1.193   1.350  13.471  0.2648  0.4062 -0.5209
  696TMC3    O210354   1.325   0.937  13.944  0.0561  0.1516  0.0092
  697MPD2     C10355   1.644   2.793  15.500 -0.3109 -0.7045  0.0384
  697MPD2    C110356   1.607   2.716  15.394 -0.4362 -0.5537  0.0354
  697MPD2    C210357   1.599   2.769  15.268  0.3819  0.0739  0.0443
  697MPD2    C310358   1.646   2.900  15.246  0.9065  0.0237 -0.5948
  697MPD2    C410359   1.688   2.980  15.352 -0.1786 -0.6503  0.6980
  697MPD2    C510360   1.687   2.920  15.478 -0.0264 -0.2436  0.1944
  697MPD2     H10361   1.570   2.720  15.176 -0.7917  1.2184 -0.2049
  697MPD2    H110362   1.725   3.082  15.346  0.5021 -1.0214 -1.6544
  697MPD2    H210363   1.652   2.752  15.600  1.1925 -0.4192  0.0349
  697MPD2    H310364   1.714   2.990  15.556  0.2500 -2.2346  1.8750
  697MPD2     N10365   1.637   2.952  15.118 -0.7068  0.0909 -0.2722
  697MPD2    H510366   1.593   2.888  15.053  1.9809 -0.8795 -1.1478
  697MPD2    N110367   1.560   2.583  15.400  0.1798  0.2024  0.0525
  697MPD2    H710368   1.537   2.535  15.314 -1.7910  1.7364 -0.2758
  698TMC3    C110369   1.594   3.108  14.936  0.1432 -0.0024  0.9300
  698TMC3    C210370   1.560   3.240  14.906  0.2967 -0.0117  0.6229
  698TMC3    C310371   1.498   3.251  14.786  0.8526  0.0593  0.1663
  698TMC3    C410372   1.611   3.008  14.848  0.5281 -0.2129  0.6245
  698TMC3    C510373   1.540   3.028  14.733 -0.3755 -0.7356 -0.1357
  698TMC3    C610374   1.492   3.149  14.694  0.3722 -0.3364  0.0776
  698TMC3     C10375   1.640   3.086  15.078  0.9374 -1.1147  0.3776
  698TMC3     O10376   1.672   3.183  15.139 -0.0873 -0.2965  0.0171
  698TMC3     H10377   1.561   3.316  14.984  0.1109  0.4182  0.1998
  698TMC3    H110378   1.648   2.911  14.877  2.2251 -0.6212 -2.8971
  698TMC3    H210379   1.444   3.171  14.599 -0.4258 -1.0830  0.3023
  698TMC3    C710380   1.588   2.958  14.617 -1.0882 -0.0374 -0.1865
  698TMC3    C810381   1.520   3.378  14.717 -0.7219  0.2397 -0.9576
  698TMC3    O110382   1.498   2.938  14.539 -0.5912 -0.4877 -0.2745
  698TMC3    O210383   1.444   3.393  14.620  0.2258  0.0899  0.0894
  699TMC3    C110384   0.965   1.315  13.206 -0.3117  0.4625  0.6570
  699TMC3    C210385   1.032   1.196  13.184 -0.2643  0.0591  0.1247
  699TMC3    C310386   0.961   1.079  13.201  0.4496 -0.3783  0.5911
  699TMC3    C410387   0.835   1.325  13.222 -0.0181  0.1377 -0.2301
  699TMC3    C510388   0.769   1.210  13.243  0.2887 -0.4894  0.0730
  699TMC3    C610389   0.835   1.092  13.243  0.9053 -1.1821 -0.4060
  699TMC3     C10390   1.028   1.440  13.169 -0.2040  0.0027 -0.5684
  699TMC3     O10391   0.955   1.501  13.091  0.4098 -0.1119  0.6811
  699TMC3     H10392   1.133   1.195  13.147 -0.3116  0.4144 -0.0120
  699TMC3    H110393   0.789   1.423  13.235 -0.7677 -0.5895  2.6709
  699TMC3    H210394   0.780   1.002  13.265 -2.5598  1.1239  0.2621
  699TMC3    C710395   0.632   1.209  13.280  0.0752  0.5236  0.4877
  699TMC3    C810396   1.033   0.961  13.249 -0.4006  0.0170  0.1000
  699TMC3    O110397   0.601   1.129  13.371 -0.5942 -0.1784 -0.1028
  699TMC3    O210398   0.969   0.893  13.328  0.1688  0.6155 -0.7212
  700TMC3    C110399   0.654   3.033  16.934 -0.0597 -0.2480 -0.3476
  700TMC3    C210400   0.787   3.008  16.896 -0.8958 -0.0633 -0.8317
  700TMC3    C310401   0.853   2.903  16.944  0.2539 -0.4375  0.0586
  700TMC3    C410402   0.607   2.954  17.034  0.4606  1.1092  0.9246
  700TMC3    C510403   0.693   2.869  17.098 -0.0859 -0.0092  0.0158
  700TMC3    C610404   0.812   2.838  17.055 -0.1098 -0.0503 -0.6331
  700TMC3     C10405   0.630   3.173  16.958  0.0299 -0.1876  0.7146
  700TMC3     O10406   0.525   3.201  17.015 -0.4202 -0.4945  0.0653
  700TMC3     H10407   0.840   3.063  16.819  0.6197 -0.5031 -0.0962
  700TMC3    H110408   0.507   2.959  17.075  0.3575 -1.0589  0.9415
  700TMC3    H210409   0.874   2.756  17.090 -0.9403 -0.5441 -0.3347
  700TMC3    C710410   0.646   2.783  17.203 -0.0291 -0.4305 -0.2516
  700TMC3    C810411   0.991   2.901  16.916  0.0097  0.0236 -0.0188
  700TMC3    O110412   0.664   2.660  17.190  0.1108  0.3280  0.4222
  700TMC3    O210413   1.021   2.945  16.806 -0.7923 -0.5372 -0.2951
  701TMC3    C110414   0.368   1.971  15.501  0.5775 -0.2668 -0.1702
  701TMC3    C210415   0.268   1.929  15.410 -0.4584 -1.1275  0.4831
  701TMC3    C310416   0.280   1.957  15.273  0.2279  0.5154  0.5199
  701TMC3    C410417   0.480   2.043  15.462 -0.0207 -0.0617  0.0509
  701TMC3    C510418   0.478   2.079  15.331  0.1772 -0.0407 -0.2854
  701TMC3    C610419   0.376   2.040  15.244  0.0440  0.2357  0.1101
  701TMC3     C10420   0.359   1.949  15.643 -0.4453 -0.6190 -0.2486
  701TMC3     O10421   0.396   2.035  15.721 -1.2028  0.1035 -0.3517
  701TMC3     H10422   0.178   1.889  15.454 -1.9865  1.0127 -0.7213
  701TMC3    H110423   0.537   2.092  15.539 -0.0505 -0.0112  0.0404
  701TMC3    H210424   0.388   2.064  15.139  3.4458 -0.6070  0.2995
  701TMC3    C710425   0.573   2.171  15.266  0.3359  0.2417 -0.1829
  701TMC3    C810426   0.158   1.973  15.202 -0.1027 -0.7711  0.0471
  701TMC3    O110427   0.566   2.196  15.146  0.3693  0.2352 -0.1123
  701TMC3    O210428   0.057   2.001  15.267 -0.3298  0.4310 -0.2147
  702MPD2     C10429   0.280   4.189  10.449  1.0199  0.6420 -0.1776
  702MPD2    C110430   0.272   4.293  10.543  0.3586 -0.1836  0.3146
  702MPD2    C210431   0.299   4.419  10.501 -0.0227  0.0394 -1.0636
  702MPD2    C310432   0.314   4.444  10.370  0.3337  0.3879  0.5834
  702MPD2    C410433   0.315   4.343  10.275 -0.1881 -0.1278  0.3837
  702MPD2    C510434   0.304   4.219  10.318  0.0996  0.1859 -0.3654
  702MPD2     H10435   0.305   4.504  10.569 -2.4246 -0.2313 -0.5364
  702MPD2    H110436   0.340   4.359  10.171  2.4200 -1.0244  0.8795
  702MPD2    H210437   0.244   4.089  10.470  0.9083  0.6590 -0.2851
  702MPD2    H310438   0.316   4.131  10.256 -1.1298 -0.9654  1.0326
  702MPD2     N10439   0.326   4.588  10.338  0.3706 -0.3906  0.1586
  702MPD2    H510440   0.315   4.658  10.410 -2.0954  0.0585 -0.6438
  702MPD2    N110441   0.235   4.260  10.673 -0.2230 -0.3554  0.3665
  702MPD2    H710442   0.184   4.173  10.681  0.6662 -1.0213 -1.2056
  703TMC3    C110443   0.380   0.047  10.233 -0.1084 -0.1455  0.0054
  703TMC3    C210444   0.293   0.112  10.315 -0.1978 -0.1907 -0.3178
  703TMC3    C310445   0.331   0.232  10.378  0.5255 -0.7308  0.2951
  703TMC3    C410446   0.507   0.087  10.218 -0.1728 -0.1676 -1.0348
  703TMC3    C510447   0.543   0.208  10.274 -0.3118  0.2473  0.2332
  703TMC3    C610448   0.452   0.283  10.348  0.1385 -0.0545 -0.5921
  703TMC3     C10449   0.365   4.647  10.220 -1.1615  0.3611 -0.5512
  703TMC3     O10450   0.408   4.593  10.122 -0.0030  0.5673 -0.0262
  703TMC3     H10451   0.195   0.067  10.329 -0.7341  0.1860 -2.8515
  703TMC3    H110452   0.576   0.016  10.173  3.0346  2.0093  0.3754
  703TMC3    H210453   0.494   0.370  10.397 -0.8024 -0.4065  0.8288
  703TMC3    C710454   0.678   0.242  10.284  0.3703  0.1259 -0.0889
  703TMC3    C810455   0.251   0.288  10.483  0.6067  1.1147 -0.2030
  703TMC3    O110456   0.705   0.351  10.335  0.0368 -0.0979 -0.2717
  703TMC3    O210457   0.306   0.361  10.562  0.0560 -0.1758 -1.1049
  704TMC3    C110458   3.180   2.977  12.320 -0.1094 -0.0080  0.1852
  704TMC3    C210459   3.191   2.953  12.186 -0.2968  1.5433 -0.0630
  704TMC3    C310460   3.286   2.865  12.137 -0.5536  1.2998  0.7600
  704TMC3    C410461   3.253   2.908  12.410 -0.1383  0.0431  0.2098
  704TMC3    C510462   3.337   2.810  12.359  0.1306  0.3302 -0.3176
  704TMC3    C610463   3.348   2.792  12.228  0.9451  0.3163 -0.6402
  704TMC3     C10464   3.050   3.026  12.374  0.5274 -0.0932 -0.1706
  704TMC3     O10465   3.027   2.997  12.495 -0.5603 -0.2791  0.1067
  704TMC3     H10466   3.113   2.981  12.116 -0.9516 -0.3250 -0.0800
  704TMC3    H110467   3.249   2.929  12.517 -1.5955  2.3693 -0.3155
  704TMC3    H210468   3.413   2.712  12.195 -1.2754 -1.0831 -1.6183
  704TMC3    C710469   3.346   2.692  12.434 -0.5714  0.1238  0.6313
  704TMC3    C810470   3.240   2.797  12.018  0.5712 -0.0568  0.1206
  704TMC3    O110471   3.358   2.587  12.368  0.1840 -0.1416  0.2235
  704TMC3    O210472   3.134   2.825  11.966 -0.3286 -0.1228  0.3967
  705MPD2     C10473   2.686   0.545  16.303  0.7453 -0.7178 -0.8913
  705MPD2    C110474   2.587   0.492  16.226 -0.2993 -0.2538  0.2231
  705MPD2    C210475   2.459   0.463  16.273 -0.1641 -0.3364  0.1813
  705MPD2    C310476   2.432   0.504  16.397 -0.4299 -0.4469  0.2952
  705MPD2    C410477   2.528   0.560  16.478 -0.2672 -0.0999  0.5306
  705MPD2    C510478   2.655   0.576  16.430  0.0665 -0.2286  0.2581
  705MPD2     H10479   2.378   0.432  16.208  0.2011 -1.3281  0.1961
  705MPD2    H110480   2.513   0.588  16.582 -2.0218  2.2431 -0.3483
  705MPD2    H210481   2.785   0.575  16.272  0.2072  3.0673  1.0509
  705MPD2    H310482   2.727   0.627  16.493  0.6109  1.4212 -1.6794
  705MPD2     N10483   2.292   0.498  16.429 -0.4372 -0.4458  0.6829
  705MPD2    H510484   2.226   0.459  16.361 -1.6856 -0.1446  1.7281
  705MPD2    N110485   2.601   0.482  16.084  0.3601 -0.2015 -0.2418
  705MPD2    H710486   2.515   0.484  16.030  0.2574 -1.4201 -0.1267
  706TMC3    C110487   2.794   0.584  15.670  0.0345 -0.2187 -0.5260
  706TMC3    C210488   2.700   0.678  15.638 -0.4722 -0.1515  0.6042
  706TMC3    C310489   2.608   0.713  15.745  0.1511  0.7145  0.3915
  706TMC3    C410490   2.788   0.513  15.788 -1.0275 -0.6598  0.1691
  706TMC3    C510491   2.692   0.548  15.880 -0.8438 -0.5802 -1.1118
  706TMC3    C610492   2.610   0.644  15.864 -0.0315 -0.5783 -0.2024
  706TMC3     C10493   2.879   0.518  15.561  0.2075 -0.3663 -0.2724
  706TMC3     O10494   2.973   0.455  15.606 -0.4663 -0.4615 -0.0910
  706TMC3     H10495   2.717   0.744  15.554 -2.4843  0.3645  0.6182
  706TMC3    H110496   2.856   0.429  15.801  1.3996  1.0978 -1.1984
  706TMC3    H210497   2.539   0.676  15.939 -0.0958 -2.5331  0.5849
  706TMC3    C710498   2.718   0.501  16.011  0.1878 -0.1100 -1.4625
  706TMC3    C810499   2.580   0.854  15.756 -0.8951  0.3292 -0.1065
  706TMC3    O110500   2.831   0.491  16.046  0.4587 -0.7024 -0.1714
  706TMC3    O210501   2.583   0.920  15.654  0.0107 -0.5103 -0.5244
  707TMC3    C110502   3.903   4.030   1.450  0.3650 -0.5415  0.0508
  707TMC3    C210503   3.972   3.942   1.530  0.4113  0.1956 -0.3862
  707TMC3    C310504   3.928   3.816   1.546  0.0808 -0.2059 -0.6074
  707TMC3    C410505   3.785   3.998   1.385  0.1315  0.4160 -0.3330
  707TMC3    C510506   3.734   3.875   1.411 -0.3796 -0.3666 -0.0018
  707TMC3    C610507   3.809   3.788   1.489  0.1720 -0.2851  0.1722
  707TMC3     C10508   3.968   4.147   1.408 -0.1586 -0.3287  0.3160
  707TMC3     O10509   3.940   4.180   1.297 -0.0816 -0.3029 -0.1628
  707TMC3     H10510   4.064   3.970   1.580  0.8782 -1.9260 -0.0592
  707TMC3    H110511   3.741   4.077   1.325 -1.9773 -1.3332 -1.1005
  707TMC3    H210512   3.777   3.685   1.490 -1.1671  0.1322  0.2160
  707TMC3    C710513   3.625   3.826   1.331  0.1339 -0.0123  0.2036
  707TMC3    C810514   4.015   3.703   1.565  0.3142  0.3376  0.0522
  707TMC3    O110515   3.558   3.732   1.366 -0.6124  0.0618  0.5152
  707TMC3    O210516   3.961   3.592   1.586  0.0664 -0.3262 -0.2067
  708MPD2     C10517   0.721   3.660  13.593  0.1046  0.1498  0.4156
  708MPD2    C110518   0.683   3.732  13.698 -1.0516 -0.4236  0.2701
  708MPD2    C210519   0.703   3.685  13.828 -0.2599  0.4008  0.0826
  708MPD2    C310520   0.770   3.566  13.859 -0.2078 -0.2110  0.0684
  708MPD2    C410521   0.827   3.504  13.748 -0.1220 -1.2292 -0.7108
  708MPD2    C510522   0.803   3.550  13.618  0.0896  0.9288 -0.1427
  708MPD2     H10523   0.668   3.754  13.905 -0.2406  0.9451 -0.3949
  708MPD2    H110524   0.880   3.410  13.761  3.8617  1.2515  0.6753
  708MPD2    H210525   0.717   3.683  13.487  0.4043 -2.8035 -0.2426
  708MPD2    H310526   0.852   3.498  13.537 -0.9432 -2.2946  1.2875
  708MPD2     N10527   0.800   3.544  13.993  0.0841 -0.2472 -0.8311
  708MPD2    H510528   0.760   3.605  14.063  0.4998  0.3945 -1.1523
  708MPD2    N110529   0.649   3.870  13.689 -0.1899 -0.4591  0.0515
  708MPD2    H710530   0.636   3.916  13.779 -2.6360  0.8404 -0.9586
  709TMC3    C110531   0.554   4.057  13.591  0.4031 -0.1097 -0.2645
  709TMC3    C210532   0.449   4.064  13.505  0.0848  0.4350 -0.3732
  709TMC3    C310533   0.320   4.064  13.558 -1.0434 -0.8737  0.2467
  709TMC3    C410534   0.540   4.080  13.728 -0.0585  0.0328  0.1403
  709TMC3    C510535   0.409   4.079  13.773 -0.0924 -0.3479 -0.2469
  709TMC3    C610536   0.296   4.076  13.696 -0.2890  0.1424 -0.8531
  709TMC3     C10537   0.628   3.936  13.565  0.5292  0.1269 -0.7085
  709TMC3     O10538   0.661   3.915  13.448 -0.1780 -0.3222 -0.4593
  709TMC3     H10539   0.470   4.037  13.402 -1.2894  3.1503 -1.3667
  709TMC3    H110540   0.631   4.094  13.786  0.0302 -1.4642  0.3444
  709TMC3    H210541   0.200   4.078  13.748 -0.0970 -0.0646 -0.4899
  709TMC3    C710542   0.410   4.025  13.907 -0.3902 -0.0112 -0.3228
  709TMC3    C810543   0.207   4.039  13.473 -0.4589  0.8477  0.2944
  709TMC3    O110544   0.516   4.048  13.966 -0.4331 -0.7098  0.2125
  709TMC3    O210545   0.094   4.042  13.522  0.1378  0.3494 -0.1557
  710TMC3    C110546   1.425   0.555  17.642  0.1972  0.0859 -0.3853
  710TMC3    C210547   1.473   0.497  17.530  0.2456 -0.8552  1.2758
  710TMC3    C310548   1.556   0.387  17.557 -0.2062  0.2259  0.2743
  710TMC3    C410549   1.457   0.523   0.019  0.2941  0.9536  0.1023
  710TMC3    C510550   1.556   0.434   0.038  0.0462  0.5921 -0.0418
  710TMC3    C610551   1.601   0.361  17.685  0.2855  1.2157 -0.7707
  710TMC3     C10552   1.335   0.664  17.613 -1.1890 -0.3702 -0.2769
  710TMC3     O10553   1.301   0.686  17.499  0.0719 -0.0245  0.0960
  710TMC3     H10554   1.461   0.530  17.428 -0.3621  1.0479  1.9543
  710TMC3    H110555   1.401   0.572   0.097 -1.2683 -1.9041  0.8048
  710TMC3    H210556   1.670   0.283  17.714 -0.8575  1.1720  1.9103
  710TMC3    C710557   1.574   0.391   0.174  0.2849  0.3064  0.0568
  710TMC3    C810558   1.630   0.344  17.449  0.5140  0.2870  0.4090
  710TMC3    O110559   1.597   0.273   0.189 -0.0040 -0.2051  0.4081
  710TMC3    O210560   1.738   0.297  17.478  0.2530  0.2254 -0.3699
  711TMC3    C110561   1.354   1.601  15.219 -0.4506 -0.6611  0.4595
  711TMC3    C210562   1.447   1.700  15.203 -0.3537  0.0434 -0.8602
  711TMC3    C310563   1.579   1.654  15.217 -0.4384 -0.6547  0.4709
  711TMC3    C410564   1.384   1.465  15.226 -0.6714 -0.4347 -0.1176
  711TMC3    C510565   1.518   1.430  15.222  1.0928 -0.5400 -0.4521
  711TMC3    C610566   1.617   1.526  15.217  0.1532 -0.6762 -0.0245
  711TMC3     C10567   1.226   1.622  15.151 -0.6214  0.2548  0.5511
  711TMC3     O10568   1.128   1.545  15.154  0.3829 -0.3188  0.0803
  711TMC3     H10569   1.425   1.805  15.218  1.3049  0.1832  0.6852
  711TMC3    H110570   1.304   1.391  15.228  0.4045 -1.5144  4.2407
  711TMC3    H210571   1.721   1.502  15.200 -0.5313 -2.8434 -1.1833
  711TMC3    C710572   1.552   1.288  15.214 -0.8402  0.7066  0.6400
  711TMC3    C810573   1.683   1.754  15.201  1.0241 -0.3466 -0.0862
  711TMC3    O110574   1.662   1.259  15.259  0.0375  0.1758 -0.8491
  711TMC3    O210575   1.650   1.870  15.179 -0.5046 -0.0961  0.1961
  712MPD2     C10576   2.852   2.917  13.885 -0.0432 -0.2977  0.9710
  712MPD2    C110577   2.838   2.934  13.749  0.7344 -0.3396  0.3472
  712MPD2    C210578   2.895   3.046  13.693 -0.6680 -0.8114  0.1711
  712MPD2    C310579   2.990   3.123  13.765  0.2732  0.0924  0.0179
  712MPD2    C410580   3.016   3.090  13.896  0.4938 -0.0764  0.2952
  712MPD2    C510581   2.950   2.988  13.952  0.8397  0.1935  0.2260
  712MPD2     H10582   2.866   3.065  13.590  0.1629 -1.1220 -0.1238
  712MPD2    H110583   3.093   3.130  13.962  1.0968  2.1393 -1.7534
  712MPD2    H210584   2.811   2.835  13.943 -4.7623 -0.2538 -2.3112
  712MPD2    H310585   2.973   2.967  14.056  1.6691  1.0359  0.2094
  712MPD2     N10586   3.050   3.241  13.712 -0.0103  0.0209  1.2547
  712MPD2    H510587   3.116   3.292  13.770  0.6421 -1.1205  1.5348
  712MPD2    N110588   2.747   2.858  13.667 -0.5801  0.3029  0.1384
  712MPD2    H710589   2.745   2.885  13.569  1.0077  0.6456  0.2087
  713TMC3    C110590   3.112   3.412  13.573  0.2145  0.5215  0.4513
  713TMC3    C210591   3.236   3.427  13.625  0.5084  0.2410 -0.1097
  713TMC3    C310592   3.305   3.541  13.584 -0.5674  0.3525 -0.0868
  713TMC3    C410593   3.063   3.517  13.503  0.1603  0.6013  0.2715
  713TMC3    C510594   3.121   3.637  13.488  0.3771 -0.5308  0.1847
  713TMC3    C610595   3.248   3.655  13.534  0.1467  0.2692 -0.2178
  713TMC3     C10596   3.028   3.295  13.588 -0.7573 -0.3397  0.7538
  713TMC3     O10597   2.945   3.269  13.495  0.3978 -0.3759 -0.1396
  713TMC3     H10598   3.288   3.339  13.662  0.8633  0.4745 -0.0488
  713TMC3    H110599   2.964   3.502  13.462  0.6253 -1.8455  0.0272
  713TMC3    H210600   3.307   3.732  13.485  0.4725  0.6029  0.6986
  713TMC3    C710601   3.038   3.750  13.458 -0.3297  0.6022  0.7227
  713TMC3    C810602   3.444   3.556  13.622 -0.2498  0.3623  0.0002
  713TMC3    O110603   3.098   3.844  13.411  0.4475 -0.0132  0.0288
  713TMC3    O210604   3.487   3.660  13.578 -0.2036  0.0355 -0.0476
  714MPD2     C10605   0.165   1.300   0.779  0.2649  0.2935 -0.7746
  714MPD2    C110606   0.203   1.171   0.760 -0.0577 -0.3572  0.5319
  714MPD2    C210607   0.138   1.095   0.668 -0.3814 -0.1962  0.3972
  714MPD2    C310608   0.026   1.141   0.599 -0.5937 -0.6068  0.4577
  714MPD2    C410609   4.725   1.275   0.620  0.2949 -0.0962 -0.5282
  714MPD2    C510610   0.053   1.353   0.714  0.3792  0.4317  0.2323
  714MPD2     H10611   0.174   0.994   0.652  1.7384  0.4549  1.1094
  714MPD2    H110612   4.640   1.318   0.568  0.3204  0.7324  0.1054
  714MPD2    H210613   0.221   1.363   0.847  0.0452 -1.0755  0.6686
  714MPD2    H310614   0.007   1.446   0.745 -0.7489  0.2710 -0.9549
  714MPD2     N10615   4.705   1.049   0.515  0.6093  0.1399  0.1225
  714MPD2    H510616   4.732   0.952   0.523  0.7241  0.2580  1.1318
  714MPD2    N110617   0.319   1.125   0.833 -0.4348 -0.0495 -0.0827
  714MPD2    H710618   0.362   1.197   0.891 -0.1858  1.1974 -1.8312
  715TMC3    C110619   0.502   0.986   0.896 -0.3965  0.0914  0.2901
  715TMC3    C210620   0.591   0.892   0.844 -0.2971 -0.6248 -0.1364
  715TMC3    C310621   0.723   0.895   0.878 -0.0339  0.4562 -0.3039
  715TMC3    C410622   0.552   1.081   0.986 -0.4371 -0.0839 -0.1007
  715TMC3    C510623   0.678   1.077   1.019  0.5475 -0.3149  0.0139
  715TMC3    C610624   0.772   0.989   0.969  0.6095 -0.4808 -0.3433
  715TMC3     C10625   0.377   1.000   0.830 -0.6214  0.4140  0.0243
  715TMC3     O10626   0.342   0.910   0.755 -0.0351 -0.5780  0.1558
  715TMC3     H10627   0.549   0.812   0.784 -2.0072 -0.3820  0.7251
  715TMC3    H110628   0.485   1.140   1.047  0.2569  1.1378 -0.5144
  715TMC3    H210629   0.877   0.996   0.995  0.4158  0.6954  0.1017
  715TMC3    C710630   0.729   1.171   1.123 -0.0967 -0.0837 -0.6581
  715TMC3    C810631   0.807   0.791   0.830 -0.7878 -0.3789 -0.4554
  715TMC3    O110632   0.835   1.137   1.165 -0.6083 -0.5079  0.3747
  715TMC3    O210633   0.765   0.724   0.735 -0.1810 -0.0969 -0.5543
  716MPD2     C10634   0.780   0.052   9.367 -0.3315  0.0484 -0.2202
  716MPD2    C110635   0.666   0.069   9.438 -0.1853  0.1504 -0.1899
  716MPD2    C210636   0.585   4.702   9.467 -0.4243 -0.3023  0.6240
  716MPD2    C310637   0.614   4.582   9.421  0.0635  0.6704  0.1273
  716MPD2    C410638   0.726   4.561   9.344  0.6764 -0.0879 -0.5110
  716MPD2    C510639   0.812   4.663   9.331  0.4808  0.4218  0.2411
  716MPD2     H10640   0.503   4.709   9.537 -1.5157  2.0697 -0.8557
  716MPD2    H110641   0.757   4.462   9.313  2.2543 -0.1767  1.3715
  716MPD2    H210642   0.849   0.134   9.348  0.8757 -1.3326 -1.7300
  716MPD2    H310643   0.908   4.641   9.284 -0.0754  0.2798 -0.8314
  716MPD2     N10644   0.528   4.477   9.445 -0.1143 -0.2157 -0.5834
  716MPD2    H510645   0.443   4.498   9.496  0.3366 -0.4955  0.2690
  716MPD2    N110646   0.638   0.198   9.486 -0.9681 -0.2663  0.2087
  716MPD2    H710647   0.695   0.277   9.456 -0.4412 -0.3799  0.9093
  717TMC3    C110648   0.435   4.269   9.462 -0.1920  0.6752  0.2151
  717TMC3    C210649   0.313   4.324   9.417  0.5522  0.0378 -0.3965
  717TMC3    C310650   0.199   4.261   9.474 -0.5622 -0.3261  0.0377
  717TMC3    C410651   0.446   4.146   9.526  0.8234  0.0048 -0.6119
  717TMC3    C510652   0.324   4.095   9.573  0.2417  0.4688  0.3610
  717TMC3    C610653   0.200   4.152   9.557 -0.5105  0.3459  0.0233
  717TMC3     C10654   0.549   4.340   9.426  0.1756 -0.3004 -0.4742
  717TMC3     O10655   0.644   4.274   9.384  0.5407  0.9633  0.6971
  717TMC3     H10656   0.305   4.415   9.359 -0.7212 -0.2976 -0.7383
  717TMC3    H110657   0.534   4.094   9.562 -0.3714  0.5431  3.0873
  717TMC3    H210658   0.110   4.118   9.606 -0.6686 -1.5744 -1.6409
  717TMC3    C710659   0.337   4.020   9.691 -0.3554 -0.7910  0.0999
  717TMC3    C810660   0.074   4.312   9.424  0.2988 -0.3247  0.2932
  717TMC3    O110661   0.289   3.906   9.692 -0.0871 -0.3538 -0.5768
  717TMC3    O210662   0.082   4.424   9.375  0.3074 -0.4989 -0.8361
  718MPD2     C10663   4.203   3.121  12.169 -0.2905  0.3319 -0.2105
  718MPD2    C110664   4.256   3.002  12.223 -0.6272  0.7409 -0.2936
  718MPD2    C210665   4.279   2.994  12.363  0.0544  0.2646 -0.3268
  718MPD2    C310666   4.267   3.104  12.444 -0.1153 -0.2497 -0.3745
  718MPD2    C410667   4.215   3.221  12.398 -0.7222 -1.4469  0.3358
  718MPD2    C510668   4.183   3.223  12.263  0.3052 -0.4206  0.3097
  718MPD2     H10669   4.326   2.909  12.412 -2.6947 -0.8458  0.3582
  718MPD2    H110670   4.207   3.307  12.463 -1.0349 -1.8758  0.8604
  718MPD2    H210671   4.181   3.129  12.063 -1.8490  0.5227  0.1222
  718MPD2    H310672   4.148   3.319  12.228  0.6069 -1.3135 -2.4544
  718MPD2     N10673   4.318   3.087  12.574 -0.0336  0.6506  0.0433
  718MPD2    H510674   4.361   3.000  12.602 -1.9676 -0.7844 -1.5148
  718MPD2    N110675   4.296   2.898  12.134 -0.1733 -0.0392 -0.0867
  718MPD2    H710676   4.281   2.913  12.035  1.1559  3.0466  0.2043
  719TMC3    C110677   4.427   2.726  12.067 -1.5749 -0.4684 -0.2495
  719TMC3    C210678   4.482   2.608  12.120  0.0507 -0.5222  0.5248
  719TMC3    C310679   4.621   2.597  12.130 -0.1198  0.6102 -0.0200
  719TMC3    C410680   4.511   2.811  12.006 -0.9369 -0.4401  0.0176
  719TMC3    C510681   4.646   2.785  11.995  0.1590 -0.6115 -0.0902
  719TMC3    C610682   4.704   2.674  12.059  0.1565 -0.0740 -0.4864
  719TMC3     C10683   4.342   2.783  12.170 -0.3129 -0.2816  0.3354
  719TMC3     O10684   4.327   2.720  12.273 -0.4324 -0.1773  0.0620
  719TMC3     H10685   4.421   2.534  12.170  0.5495 -1.4210 -0.1878
  719TMC3    H110686   4.478   2.902  11.956 -0.7949 -0.8067 -0.7494
  719TMC3    H210687   0.070   2.655  12.076 -0.1575 -1.2722  0.1559
  719TMC3    C710688   4.732   2.901  11.977 -0.6890  0.1031 -0.4812
  719TMC3    C810689   4.663   2.616  12.269  0.1847  1.0450 -0.7322
  719TMC3    O110690   4.705   2.982  11.889 -0.6549  0.2999 -0.0160
  719TMC3    O210691   0.007   2.703  12.294  0.2378 -0.4260  0.2164
  720MPD2     C10692   2.761   4.557  14.241  0.5782 -0.8250  0.0175
  720MPD2    C110693   2.867   4.598  14.159  0.5041  0.0685  0.5919
  720MPD2    C210694   2.996   4.593  14.211 -0.2250 -0.3962 -0.1432
  720MPD2    C310695   3.016   4.525  14.330  0.5101 -0.0333 -0.1273
  720MPD2    C410696   2.911   4.474  14.405 -0.3739  0.2517  0.1837
  720MPD2    C510697   2.783   4.494  14.360 -0.4722  0.3665  0.7544
  720MPD2     H10698   3.082   4.619  14.150  0.2265 -0.4124  0.4867
  720MPD2    H110699   2.920   4.416  14.496 -0.2184  1.2918  0.8292
  720MPD2    H210700   2.660   4.581  14.211  1.0747  1.2935  0.0576
  720MPD2    H310701   2.701   4.455  14.419 -2.5041 -1.6292 -3.3507
  720MPD2     N10702   3.151   4.519  14.384 -0.0203 -0.1033  0.3473
  720MPD2    H510703   3.217   4.558  14.318  0.4851 -0.3985  0.6765
  720MPD2    N110704   2.838   4.660  14.028  0.0145 -0.6276 -0.6039
  720MPD2    H710705   2.920   4.706  13.991  1.4192 -0.9454  2.0730
  721TMC3    C110706   3.328   4.465  14.537 -0.0437 -0.5511  0.1991
  721TMC3    C210707   3.374   4.499  14.659  0.4633  0.1772  1.0492
  721TMC3    C310708   3.511   4.511  14.677 -0.2834  0.1273  0.2604
  721TMC3    C410709   3.405   4.453  14.429 -0.4139  0.3737 -0.3457
  721TMC3    C510710   3.537   4.459  14.448  0.6138  0.1308  1.0275
  721TMC3    C610711   3.595   4.486  14.571  0.1993  0.5135  0.0959
  721TMC3     C10712   3.184   4.472  14.511  0.0068 -0.4402 -0.0750
  721TMC3     O10713   3.108   4.466  14.610 -0.3233 -0.4407  0.0454
  721TMC3     H10714   3.305   4.517  14.740 -1.7822 -0.0457 -0.8254
  721TMC3    H110715   3.368   4.423  14.332 -1.2444 -0.9428  0.3599
  721TMC3    H210716   3.696   4.525  14.570  0.3223  0.1562 -1.2240
  721TMC3    C710717   3.626   4.460  14.333  0.6405  0.3535  1.1912
  721TMC3    C810718   3.577   4.546  14.809 -0.6980  1.1675 -0.1545
  721TMC3    O110719   3.602   4.518  14.231 -0.4118 -0.3564 -0.1322
  721TMC3    O210720   3.698   4.527  14.815  0.2725 -0.4782 -0.2916
  722MPD2     C10721   1.986   3.320  13.308  0.0798 -0.1808 -0.2018
  722MPD2    C110722   1.901   3.424  13.280  0.5399 -0.0021  0.2002
  722MPD2    C210723   1.765   3.411  13.281 -0.0905  0.4772  0.5657
  722MPD2    C310724   1.715   3.286  13.311  0.1269  0.1171 -0.1797
  722MPD2    C410725   1.795   3.175  13.333  0.1719 -0.6525  0.6829
  722MPD2    C510726   1.931   3.201  13.346  0.6413 -0.1217  0.3307
  722MPD2     H10727   1.699   3.495  13.261  0.1298  1.0101  2.0221
  722MPD2    H110728   1.763   3.071  13.331 -1.1761 -0.1788 -2.8132
  722MPD2    H210729   2.092   3.335  13.320 -0.2386  2.8528 -1.3243
  722MPD2    H310730   2.002   3.125  13.378  1.0945  0.0951 -0.1470
  722MPD2     N10731   1.578   3.266  13.292 -0.1276  0.5682  0.1798
  722MPD2    H510732   1.539   3.351  13.251 -1.7890  0.1943  1.0101
  722MPD2    N110733   1.943   3.558  13.274  0.5743  0.0154  0.0675
  722MPD2    H710734   1.874   3.626  13.243  1.2041  0.1299 -1.1128
  723TMC3    C110735   1.378   3.180  13.217 -0.6529  0.4669 -0.4562
  723TMC3    C210736   1.280   3.081  13.231  0.0182  0.9084  0.0776
  723TMC3    C310737   1.168   3.084  13.152 -0.6554  1.0205  0.3020
  723TMC3    C410738   1.369   3.284  13.135 -0.2698 -0.0798 -0.1633
  723TMC3    C510739   1.255   3.286  13.062  0.2586  0.6506 -0.3993
  723TMC3    C610740   1.162   3.185  13.062 -0.1503 -0.2964  0.6842
  723TMC3     C10741   1.499   3.155  13.291  0.4191  0.4732 -0.1532
  723TMC3     O10742   1.521   3.039  13.332  0.2346  0.0780  0.1846
  723TMC3     H10743   1.294   2.991  13.291  4.4564  0.9867 -0.8462
  723TMC3    H110744   1.452   3.344  13.101  0.3842 -1.2035 -0.5682
  723TMC3    H210745   1.076   3.208  12.999  0.9962 -2.1941 -1.5627
  723TMC3    C710746   1.246   3.388  12.956 -0.8298 -0.2378  0.4628
  723TMC3    C810747   1.103   2.964  13.118 -0.4409  0.1637  0.1685
  723TMC3    O110748   1.201   3.356  12.845 -0.2218  0.4831 -0.3525
  723TMC3    O210749   1.166   2.858  13.113 -0.3838 -0.6017  0.8112
  724TMC3    C110750   2.327   2.230  10.435 -0.5447  0.5815 -0.5678
  724TMC3    C210751   2.265   2.350  10.438  0.0355  0.0084  0.0000
  724TMC3    C310752   2.347   2.461  10.452  0.1708 -0.1571  0.1620
  724TMC3    C410753   2.462   2.220  10.431  0.0974  0.2206 -0.4860
  724TMC3    C510754   2.538   2.338  10.435 -0.2790 -0.0263  0.5274
  724TMC3    C610755   2.484   2.459  10.443 -0.0730 -0.1385 -0.9037
  724TMC3     C10756   2.256   2.094  10.440 -0.2147  0.8562  0.3165
  724TMC3     O10757   2.317   1.993  10.473  0.2343 -0.5552  0.1868
  724TMC3     H10758   2.163   2.358  10.473  0.5225  0.0765  1.3900
  724TMC3    H110759   2.508   2.122  10.421 -1.1525 -0.2779 -1.4250
  724TMC3    H210760   2.537   2.553  10.447  0.6766 -0.6500  1.2652
  724TMC3    C710761   2.669   2.319  10.365 -0.1144 -0.0209  0.4368
  724TMC3    C810762   2.283   2.584  10.420 -0.1561 -0.6434 -0.4023
  724TMC3    O110763   2.722   2.209  10.382  0.2523  0.1431  0.6125
  724TMC3    O210764   2.337   2.679  10.476  0.1516  0.9107 -0.4916
  725TMC3    C110765   2.966   0.464  12.220  0.2067  0.1761  0.5389
  725TMC3    C210766   2.948   0.529  12.106  0.0867 -0.5761  0.0606
  725TMC3    C310767   3.019   0.502  11.993 -0.1794  0.5541 -0.1328
  725TMC3    C410768   3.057   0.361  12.231  0.9740 -0.0631 -0.0824
  725TMC3    C510769   3.120   0.325  12.115 -0.5235  0.1705 -0.3271
  725TMC3    C610770   3.112   0.394  11.997  0.4210 -0.9395  0.0877
  725TMC3     C10771   2.930   0.545  12.330 -0.0305  0.3037 -0.7210
  725TMC3     O10772   2.918   0.667  12.314  0.6924  0.1399  0.2777
  725TMC3     H10773   2.873   0.606  12.097  0.7164 -0.2011 -2.0129
  725TMC3    H110774   3.082   0.311  12.323 -0.5988 -1.2984 -0.3312
  725TMC3    H210775   3.179   0.376  11.914 -0.1125 -1.6248 -0.1945
  725TMC3    C710776   3.213   0.213  12.116  0.2219 -0.2946 -0.4827
  725TMC3    C810777   2.966   0.561  11.869 -0.3369  0.0414 -0.7319
  725TMC3    O110778   3.255   0.175  12.009 -0.0997  0.1009 -1.0358
  725TMC3    O210779   2.882   0.648  11.878 -0.4775 -0.7413  0.3150
  726MPD2     C10780   1.330   2.141  10.685 -0.0473  0.4909 -0.0036
  726MPD2    C110781   1.228   2.175  10.591 -0.4182  0.2067 -0.0852
  726MPD2    C210782   1.125   2.083  10.584  0.4606  0.3192 -0.1445
  726MPD2    C310783   1.131   1.953  10.637  1.0099 -0.4446 -0.1785
  726MPD2    C410784   1.235   1.920  10.723 -0.8329  0.2815  0.1294
  726MPD2    C510785   1.328   2.019  10.744  0.5987 -0.3230  0.4320
  726MPD2     H10786   1.039   2.105  10.522  1.3432  0.3112 -1.3693
  726MPD2    H110787   1.243   1.831  10.784  0.0386  1.8902  2.3345
  726MPD2    H210788   1.414   2.205  10.707  0.5126 -1.2619  2.8211
  726MPD2    H310789   1.411   2.007  10.813  1.9600  1.5213 -0.8679
  726MPD2     N10790   1.019   1.868  10.633 -0.2422  0.1125 -0.2923
  726MPD2    H510791   1.028   1.795  10.703  2.2119  2.0571  1.4369
  726MPD2    N110792   1.210   2.303  10.536  0.2084  0.6760  0.9334
  726MPD2    H710793   1.117   2.324  10.501  0.4792 -0.9291 -0.7590
  727TMC3    C110794   1.283   2.520  10.467 -0.6423  0.0977  0.8210
  727TMC3    C210795   1.354   2.622  10.520  0.0947 -0.1553  0.0457
  727TMC3    C310796   1.297   2.744  10.518 -0.4403  0.1502  0.3572
  727TMC3    C410797   1.164   2.529  10.406 -0.3983  0.2916  0.2318
  727TMC3    C510798   1.117   2.659  10.393 -0.1379 -0.3702 -0.1242
  727TMC3    C610799   1.179   2.766  10.450  0.0603 -0.3327  0.2296
  727TMC3     C10800   1.316   2.397  10.523 -0.4693 -0.3146 -0.1155
  727TMC3     O10801   1.434   2.383  10.548  0.5835 -0.2358  0.0891
  727TMC3     H10802   1.439   2.597  10.583 -0.1402 -0.4528  0.2498
  727TMC3    H110803   1.124   2.453  10.340  0.6210 -0.6101  0.6554
  727TMC3    H210804   1.136   2.866  10.455 -1.5990 -1.0527  0.1184
  727TMC3    C710805   1.007   2.695  10.308  0.0245 -0.6070 -0.2570
  727TMC3    C810806   1.332   2.808  10.642  0.3563 -0.9383 -0.1631
  727TMC3    O110807   0.999   2.810  10.271 -0.0219 -0.1864  0.0828
  727TMC3    O210808   1.448   2.795  10.676 -0.2970 -0.1464 -0.2845
  728TMC3    C110809   1.112   0.349  14.941 -0.0704 -0.1864  0.7322
  728TMC3    C210810   1.236   0.377  14.902  0.0026  0.1363  0.3428
  728TMC3    C310811   1.257   0.487  14.825  0.2185  0.3920  0.6117
  728TMC3    C410812   1.006   0.434  14.907 -0.1712  0.2167 -0.3492
  728TMC3    C510813   1.033   0.538  14.822  0.3506 -0.0491  0.2917
  728TMC3    C610814   1.154   0.570  14.778 -0.7246  0.6040  0.6395
  728TMC3     C10815   1.096   0.237  15.043  0.8148 -0.1302 -0.8361
  728TMC3     O10816   1.200   0.208  15.100  0.4789  1.0559  0.4006
  728TMC3     H10817   1.309   0.301  14.928  1.1050  0.7390 -1.0327
  728TMC3    H110818   0.903   0.420  14.935  0.1009 -1.8946 -0.4004
  728TMC3    H210819   1.168   0.652  14.708 -0.8644  1.1487  1.2571
  728TMC3    C710820   0.906   0.577  14.739 -0.7363 -0.4398 -0.8889
  728TMC3    C810821   1.389   0.539  14.800 -0.0591  0.0480 -0.3607
  728TMC3    O110822   0.815   0.494  14.744  1.3088 -0.3051  0.1284
  728TMC3    O210823   1.391   0.658  14.801 -0.6010 -0.3696  0.0758
  729MPD2     C10824   2.801   1.023  16.424  0.1844 -0.0761 -0.3104
  729MPD2    C110825   2.822   1.155  16.432 -0.0768 -0.7351 -0.0521
  729MPD2    C210826   2.789   1.203  16.561 -0.1349  0.1566  0.2802
  729MPD2    C310827   2.731   1.135  16.666  0.6646 -0.4377 -0.2012
  729MPD2    C410828   2.688   1.003  16.639 -0.8998  0.8550  0.1439
  729MPD2    C510829   2.730   0.951  16.520  1.2771  0.6708 -0.3849
  729MPD2     H10830   2.817   1.307  16.576  1.1457  0.2614 -2.6388
  729MPD2    H110831   2.630   0.943  16.708 -2.4567  1.4153 -0.6954
  729MPD2    H210832   2.837   0.968  16.338  1.1102  0.7906 -0.4755
  729MPD2    H310833   2.697   0.852  16.489 -1.4853  1.6214 -0.4829
  729MPD2     N10834   2.710   1.192  16.794  0.1383  0.3006 -0.4793
  729MPD2    H510835   2.666   1.131  16.861  2.3733 -0.1121  0.5990
  729MPD2    N110836   2.890   1.222  16.329 -0.6996  0.6669  0.4705
  729MPD2    H710837   2.928   1.158  16.261  0.0203 -0.2080  1.7019
  730TMC3    C110838   2.680   1.356  16.961  0.3993  1.1638  0.2059
  730TMC3    C210839   2.738   1.287  17.063 -0.4773 -0.0419 -0.4268
  730TMC3    C310840   2.765   1.359  17.173 -0.5145 -0.1048  0.6295
  730TMC3    C410841   2.649   1.489  16.974  0.0314  0.3192  0.0760
  730TMC3    C510842   2.658   1.555  17.090  0.4798 -0.1166 -0.4382
  730TMC3    C610843   2.725   1.491  17.197  0.0049  0.0012 -0.0947
  730TMC3     C10844   2.731   1.321  16.827 -0.3913  1.4284 -0.1560
  730TMC3     O10845   2.775   1.416  16.764  0.1798  0.4228 -0.1375
  730TMC3     H10846   2.778   1.189  17.038  1.0142 -0.4514  3.5021
  730TMC3    H110847   2.610   1.531  16.881  1.7680 -0.1007 -0.8405
  730TMC3    H210848   2.746   1.532  17.296 -1.9860  2.4237 -0.6707
  730TMC3    C710849   2.679   1.695  17.071  0.0480 -0.3439 -0.3059
  730TMC3    C810850   2.796   1.274  17.291 -0.2658 -0.2730  0.3632
  730TMC3    O110851   2.707   1.728  16.959  0.3527  0.0832 -0.7072
  730TMC3    O210852   2.762   1.161  17.279 -0.1071  0.1172  0.4851
  731MPD2     C10853   3.258   4.281  12.027 -0.0423 -0.2342 -0.2978
  731MPD2    C110854   3.175   4.172  12.033 -0.2210  0.6002 -0.2767
  731MPD2    C210855   3.114   4.153  12.160  0.1921 -0.3675 -0.7355
  731MPD2    C310856   3.139   4.233  12.263  0.0924 -0.1924  0.0082
  731MPD2    C410857   3.229   4.337  12.249  0.8613  0.2884 -0.2035
  731MPD2    C510858   3.284   4.365  12.131 -0.3700  0.6204  0.3503
  731MPD2     H10859   3.057   4.063  12.176  1.9530 -1.5342 -1.0384
  731MPD2    H110860   3.264   4.403  12.328 -0.0032 -2.0166  2.0740
  731MPD2    H210861   3.321   4.296  11.940 -0.3709 -3.1189 -1.0527
  731MPD2    H310862   3.345   4.451  12.105 -0.2329  0.1891 -0.7138
  731MPD2     N10863   3.095   4.204  12.393 -0.1668  0.4476 -0.4379
  731MPD2    H510864   3.152   4.240  12.469 -1.4891 -0.8698  1.1565
  731MPD2    N110865   3.162   4.086  11.925  0.4430  0.4960 -0.0354
  731MPD2    H710866   3.211   4.114  11.841  0.9357  3.8890  1.3977
  732TMC3    C110867   3.038   3.976  11.770  0.1357  0.1133  0.0716
  732TMC3    C210868   2.914   3.940  11.724  0.6504 -0.2385 -0.1200
  732TMC3    C310869   2.889   3.920  11.591 -0.1296  0.1142  0.3501
  732TMC3    C410870   3.139   3.990  11.682  0.1604  0.5470 -0.2284
  732TMC3    C510871   3.118   3.964  11.548 -0.8529 -0.0148  0.3778
  732TMC3    C610872   2.992   3.948  11.498  0.5580 -0.3996  0.3585
  732TMC3     C10873   3.057   3.995  11.910  0.5617 -0.6046 -0.2548
  732TMC3     O10874   2.968   3.960  11.988  0.4194  0.5633 -0.1004
  732TMC3     H10875   2.833   3.928  11.795 -0.4832  0.0945 -1.3511
  732TMC3    H110876   3.239   3.993  11.724  0.1257  1.5768 -0.2285
  732TMC3    H210877   2.970   3.930  11.393 -0.8095  1.4198  0.3429
  732TMC3    C710878   3.224   4.001  11.453 -0.4228  0.5643  0.6996
  732TMC3    C810879   2.753   3.879  11.548 -0.4111  0.1170 -0.1382
  732TMC3    O110880   3.188   3.995  11.336 -0.2104  0.3073  0.5944
  732TMC3    O210881   2.746   3.858  11.426 -0.1035 -0.3796 -0.3045
  733TMC3    C110882   4.384   3.082  13.015 -0.2599  0.3949 -0.7770
  733TMC3    C210883   4.348   3.154  12.906  0.7680  0.1534  0.2961
  733TMC3    C310884   4.401   3.120  12.787  0.4853 -0.4642  0.0685
  733TMC3    C410885   4.477   2.985  13.007  0.2111 -0.3256  0.3648
  733TMC3    C510886   4.529   2.952  12.885 -0.2699 -0.1469 -0.0317
  733TMC3    C610887   4.495   3.022  12.770  1.0953 -0.1712  1.4545
  733TMC3     C10888   4.284   3.087  13.126  0.2807 -0.2360 -0.0220
  733TMC3     O10889   4.197   3.177  13.121 -0.3418 -0.0635 -0.5687
  733TMC3     H10890   4.274   3.233  12.910  0.5947  0.0598 -0.9278
  733TMC3    H110891   4.520   2.935  13.093 -0.8637 -0.7883  0.6311
  733TMC3    H210892   4.530   3.003  12.670 -2.1842 -0.7099  0.3929
  733TMC3    C710893   4.564   2.819  12.872 -0.2219 -0.5409 -0.1658
  733TMC3    C810894   4.342   3.181  12.671  0.6601 -0.2395  0.5712
  733TMC3    O110895   4.537   2.746  12.964 -0.1094  0.3750 -0.4435
  733TMC3    O210896   4.320   3.300  12.681 -0.5001  0.3289  0.0845
  734MPD2     C10897   1.103   0.321  12.717  0.3689  0.1557  0.2048
  734MPD2    C110898   0.964   0.323  12.690  0.2712  0.2138 -0.0476
  734MPD2    C210899   0.918   0.403  12.587  0.9302  0.1570 -0.2759
  734MPD2    C310900   1.009   0.465  12.506 -0.5528  0.1731  0.0957
  734MPD2    C410901   1.144   0.466  12.535  0.1485 -0.2663  0.3303
  734MPD2    C510902   1.189   0.394  12.642 -0.0537 -0.4859  0.5037
  734MPD2     H10903   0.814   0.396  12.557  0.6119 -0.6351  0.9814
  734MPD2    H110904   1.220   0.521  12.479 -0.0346  1.4398  1.7600
  734MPD2    H210905   1.138   0.249  12.791 -0.5012  0.3853  0.8429
  734MPD2    H310906   1.297   0.388  12.652 -0.0617 -1.5052 -0.0102
  734MPD2     N10907   0.959   0.527  12.391  0.5632  0.2740  0.1914
  734MPD2    H510908   0.859   0.523  12.375  0.8484  0.6361 -1.7316
  734MPD2    N110909   0.884   0.230  12.756 -0.5572 -0.5652 -0.0014
  734MPD2    H710910   0.927   0.193  12.840 -0.9938 -0.2692  0.3528
  735TMC3    C110911   0.717   0.057  12.768  0.3109 -0.9822  0.1133
  735TMC3    C210912   0.590   0.027  12.728 -0.2923  0.4167 -0.3028
  735TMC3    C310913   0.569   4.650  12.652  0.0458 -0.1644  0.5420
  735TMC3    C410914   0.811   4.698  12.778  0.2823 -0.0551 -0.1660
  735TMC3    C510915   0.789   4.575  12.713  0.6202 -0.0152 -0.6379
  735TMC3    C610916   0.671   4.562  12.640  0.3238  0.6670  0.9606
  735TMC3     C10917   0.757   0.188  12.712 -0.7729  0.0500 -0.8213
  735TMC3     O10918   0.672   0.247  12.642  0.5047  0.0972 -0.1551
  735TMC3     H10919   0.511   0.098  12.751  1.4976  1.0066  3.9231
  735TMC3    H110920   0.912   4.720  12.810  0.8045 -3.4290  0.4476
  735TMC3    H210921   0.673   4.485  12.563  1.1579  0.1829  1.4660
  735TMC3    C710922   0.911   4.504  12.669 -0.6004  0.1291  0.5556
  735TMC3    C810923   0.495   4.672  12.526 -0.1364  0.9324 -0.1376
  735TMC3    O110924   1.010   4.568  12.662  1.0147 -0.0628  0.4621
  735TMC3    O210925   0.484   4.565  12.463  0.3354 -0.1829  0.3844
  736MPD2     C10926   0.953   4.153  12.617 -0.2591  0.4955  0.2046
  736MPD2    C110927   0.980   4.284  12.605  0.6578 -0.0279  0.2809
  736MPD2    C210928   1.101   4.319  12.551 -0.1228 -0.1945  0.8929
  736MPD2    C310929   1.195   4.222  12.520  0.1326 -0.1709 -0.0701
  736MPD2    C410930   1.160   4.094  12.532 -0.0618  0.0933 -0.4260
  736MPD2    C510931   1.040   4.055  12.594  0.2662 -0.9246  0.1653
  736MPD2     H10932   1.128   4.422  12.529 -0.6505 -0.6474 -1.8640
  736MPD2    H110933   1.227   4.012  12.510 -1.0536 -1.3993  2.0959
  736MPD2    H210934   0.857   4.120  12.655  0.2700  1.8010  2.6752
  736MPD2    H310935   1.007   3.952  12.606 -0.7380 -0.5629  0.5109
  736MPD2     N10936   1.323   4.249  12.461  1.0823 -0.0329 -0.4512
  736MPD2    H510937   1.388   4.176  12.435 -0.1328 -1.4883  0.5782
  736MPD2    N110938   0.882   4.375  12.639 -0.3793  0.0568 -0.2036
  736MPD2    H710939   0.797   4.330  12.672  0.5365 -0.3770  1.5361
  737TMC3    C110940   1.504   4.382  12.372 -0.3751 -0.2030  0.9596
  737TMC3    C210941   1.533   4.513  12.340  0.1777 -0.4343  0.2983
  737TMC3    C310942   1.613   4.532  12.232 -0.4003  0.0047  1.0655
  737TMC3    C410943   1.548   4.277  12.287  0.4116 -0.0941  0.3957
  737TMC3    C510944   1.640   4.300  12.186  0.3811  0.1548 -0.1022
  737TMC3    C610945   1.659   4.434  12.151 -0.7947  0.2380  0.0787
  737TMC3     C10946   1.376   4.374  12.443 -0.2678  0.4399 -0.4175
  737TMC3     O10947   1.328   4.486  12.456  0.5732 -1.0461  0.2440
  737TMC3     H10948   1.493   4.601  12.389  0.3672 -1.4638  2.2886
  737TMC3    H110949   1.511   4.176  12.297  0.7587 -0.1339  1.3376
  737TMC3    H210950   1.719   4.456  12.063 -2.7182 -1.7871 -1.7345
  737TMC3    C710951   1.686   4.181  12.112 -0.6252 -0.1896  0.3013
  737TMC3    C810952   1.617   4.666  12.191 -0.0977 -0.0058 -0.3012
  737TMC3    O110953   1.639   4.073  12.151  0.0242 -0.2580 -0.1653
  737TMC3    O210954   1.650   0.008  12.272 -0.3164 -0.5726  0.0509
  738MPD2     C10955   1.643   3.592  14.564  0.1504 -0.5330 -0.3067
  738MPD2    C110956   1.699   3.533  14.678  0.2151  0.4447 -0.8194
  738MPD2    C210957   1.824   3.581  14.718  0.4691 -0.1158  0.3618
  738MPD2    C310958   1.892   3.680  14.648 -0.5631  0.7872 -0.3315
  738MPD2    C410959   1.845   3.727  14.529  0.2494  0.5993 -0.0525
  738MPD2    C510960   1.723   3.682  14.492 -0.2630 -0.0563  0.5634
  738MPD2     H10961   1.864   3.538  14.809  0.0198 -0.0195  0.6047
  738MPD2    H110962   1.895   3.799  14.467 -1.7128  0.4310 -1.8280
  738MPD2    H210963   1.540   3.580  14.531 -0.0853 -0.3736  0.3547
  738MPD2    H310964   1.672   3.734  14.412 -0.7166  0.4152  1.1503
  738MPD2     N10965   2.018   3.732  14.678  0.5798 -0.0229  0.6291
  738MPD2    H510966   2.061   3.793  14.609 -0.0143 -1.1643 -0.7536
  738MPD2    N110967   1.640   3.434  14.756 -0.3637 -0.7954  0.2994
  738MPD2    H710968   1.698   3.387  14.824  3.0740  0.1191 -2.0244
  739TMC3    C110969   2.230   3.735  14.790  0.2724  0.2428 -0.0080
  739TMC3    C210970   2.296   3.755  14.669  0.9861  0.3895  0.9497
  739TMC3    C310971   2.414   3.824  14.659  0.3857  0.1792 -0.0276
  739TMC3    C410972   2.291   3.772  14.911  0.0103  0.1552 -0.3403
  739TMC3    C510973   2.415   3.824  14.898  0.3168 -0.3432  0.0022
  739TMC3    C610974   2.471   3.865  14.775 -0.1126 -0.1496 -0.2638
  739TMC3     C10975   2.091   3.698  14.791 -0.1819 -0.5285 -0.6398
  739TMC3     O10976   2.056   3.634  14.887 -0.4785 -0.7809  0.3063
  739TMC3     H10977   2.254   3.719  14.576 -0.8250 -0.2643  2.0187
  739TMC3    H110978   2.234   3.764  15.003  0.5992  1.8123  0.1699
  739TMC3    H210979   2.567   3.916  14.774 -1.0038  1.5570  2.5433
  739TMC3    C710980   2.468   3.885  15.022  0.1351  0.0399 -0.5649
  739TMC3    C810981   2.422   3.923  14.545  0.6873 -0.4606  0.5213
  739TMC3    O110982   2.573   3.946  15.004 -0.5894 -0.4845  0.5957
  739TMC3    O210983   2.318   3.915  14.475 -0.7832  0.0448 -0.4137
  740TMC3    C110984   2.522   0.099  14.342 -0.6239  0.1526 -0.2989
  740TMC3    C210985   2.599   0.034  14.443  0.1792  0.0421  0.2312
  740TMC3    C310986   2.728   0.065  14.448 -0.2655 -0.1830  0.6171
  740TMC3    C410987   2.578   0.173  14.240  0.3524  0.0235 -0.2024
  740TMC3    C510988   2.711   0.188  14.253 -0.2488 -0.2769  0.4930
  740TMC3    C610989   2.786   0.147  14.359 -0.1338  0.2169  0.5565
  740TMC3     C10990   2.387   0.133  14.368  0.2165 -0.0102  0.0714
  740TMC3     O10991   2.351   0.244  14.332 -0.0088  0.4691  0.0035
  740TMC3     H10992   2.554   4.696  14.505 -0.3795  1.4463  1.5343
  740TMC3    H110993   2.512   0.211  14.162 -0.4399  2.5018  1.6556
  740TMC3    H210994   2.894   0.156  14.359  0.0016 -1.2759 -1.1063
  740TMC3    C710995   2.789   0.246  14.141  0.5232  0.3696  0.2794
  740TMC3    C810996   2.805   0.040  14.567 -0.7235  0.6340 -0.2965
  740TMC3    O110997   2.910   0.228  14.154  0.2107 -0.1454 -0.3672
  740TMC3    O210998   2.921   0.068  14.566 -0.7045  0.1130 -0.4136
  741TMC3    C110999   2.108   4.441  14.239  0.2387 -0.0632  0.4314
  741TMC3    C211000   2.044   4.318  14.236  0.6298 -0.0366 -0.0179
  741TMC3    C311001   2.081   4.224  14.325 -0.9698 -0.3774  0.4808
  741TMC3    C411002   2.230   4.458  14.310 -0.0811 -0.1317 -0.9140
  741TMC3    C511003   2.261   4.357  14.396 -0.1616 -0.6333  0.1452
  741TMC3    C611004   2.188   4.243  14.407  0.6061 -1.1949 -0.2015
  741TMC3     C11005   2.018   4.558  14.217  0.1424  0.3156 -0.3520
  741TMC3     O11006   1.895   4.550  14.227  0.2009  0.3348 -0.5980
  741TMC3     H11007   1.944   4.317  14.194 -0.4592  1.2618  2.5382
  741TMC3    H111008   2.279   4.553  14.325 -2.4147  1.0735 -0.8468
  741TMC3    H211009   2.227   4.159  14.464  2.6594 -0.3825 -0.4309
  741TMC3    C711010   2.370   4.384  14.497  0.6753 -0.5723  0.6311
  741TMC3    C811011   2.032   4.094  14.312  0.4415 -0.6363  0.0825
  741TMC3    O111012   2.468   4.454  14.483  0.0661  0.6882  0.0406
  741TMC3    O211013   2.025   4.031  14.420  0.3803 -0.6383  0.0065
  742TMC3    C111014   2.132   3.027  15.392 -0.3118  0.3678  0.3735
  742TMC3    C211015   2.087   2.923  15.310 -0.2296  0.0458  0.0119
  742TMC3    C311016   2.177   2.854  15.230  0.6245  0.3081  0.4750
  742TMC3    C411017   2.267   3.023  15.426 -1.0135  0.2031 -0.0640
  742TMC3    C511018   2.354   2.934  15.371 -0.0289 -0.1763 -1.1164
  742TMC3    C611019   2.313   2.854  15.265 -0.1932  0.5892 -0.2317
  742TMC3     C11020   2.044   3.126  15.456 -0.1717 -0.0059  0.8719
  742TMC3     O11021   1.945   3.069  15.500 -0.5020  0.3667  0.2241
  742TMC3     H11022   1.985   2.940  15.279 -0.5246 -0.8816  0.4605
  742TMC3    H111023   2.307   3.101  15.490 -1.8919 -1.0685  2.0350
  742TMC3    H211024   2.376   2.790  15.205 -2.5434  1.2921 -3.4496
  742TMC3    C711025   2.486   2.915  15.418  0.2165  0.8301 -0.3591
  742TMC3    C811026   2.129   2.775  15.115 -0.3996 -0.4252  0.1579
  742TMC3    O111027   2.539   2.821  15.357 -0.6659 -0.2976  0.7686
  742TMC3    O211028   2.209   2.744  15.029  0.0245 -0.2196 -0.2608
  743MPD2     C11029   0.563   3.615   1.656  0.6245 -0.3315  0.2166
  743MPD2    C111030   0.522   3.707   1.564  0.0096  0.3287  0.5575
  743MPD2    C211031   0.577   3.836   1.559  0.5848 -0.0110 -0.4723
  743MPD2    C311032   0.685   3.871   1.641  0.8733  0.1593  0.0353
  743MPD2    C411033   0.727   3.770   1.730  0.3539 -0.7652 -0.5496
  743MPD2    C511034   0.665   3.647   1.742 -0.2619 -0.9168  0.1722
  743MPD2     H11035   0.545   3.912   1.488 -0.8753  0.6788  0.9138
  743MPD2    H111036   0.807   3.786   1.803 -1.1244 -1.1083  1.1432
  743MPD2    H211037   0.531   3.512   1.648  2.6146 -0.7705 -2.5030
  743MPD2    H311038   0.700   3.579   1.818 -0.1730  0.6181  1.4972
  743MPD2     N11039   0.761   3.984   1.610 -0.0040 -0.2582  0.1543
  743MPD2    H511040   0.717   4.048   1.543 -0.9013  0.0494  1.0403
  743MPD2    N111041   0.439   3.657   1.464 -0.4035 -0.7009  0.0699
  743MPD2    H711042   0.406   3.562   1.477  0.1904 -1.2071 -2.2048
  744TMC3    C111043   0.281   3.658   1.287  0.5480  0.2870 -0.2043
  744TMC3    C211044   0.193   3.588   1.371  0.2420 -0.1972 -0.1839
  744TMC3    C311045   0.061   3.588   1.326  1.0370  0.2555 -0.1599
  744TMC3    C411046   0.239   3.713   1.169 -0.4757 -0.8243 -0.8905
  744TMC3    C511047   0.109   3.697   1.127 -0.4694  0.3681 -0.1928
  744TMC3    C611048   0.016   3.638   1.208 -0.0211  0.0928  0.1399
  744TMC3     C11049   0.401   3.721   1.351  1.2098 -0.3992 -0.6744
  744TMC3     O11050   0.431   3.829   1.298  0.0966 -0.2257  0.5458
  744TMC3     H11051   0.220   3.551   1.469  3.3060  0.5876 -0.7251
  744TMC3    H111052   0.313   3.758   1.104  0.3000  0.2968  0.7899
  744TMC3    H211053   4.650   3.635   1.181 -0.0441 -1.1946  0.3523
  744TMC3    C711054   0.077   3.720   0.989  0.3691  0.0597 -0.6855
  744TMC3    C811055   4.708   3.534   1.415  0.4413  0.2712  0.2260
  744TMC3    O111056   0.152   3.789   0.926  0.0748 -0.2728 -0.8369
  744TMC3    O211057   0.008   3.450   1.497  0.4289 -0.2138  0.4564
  745TMC3    C111058   2.608   2.685  13.597  0.3300 -0.0863  0.3907
  745TMC3    C211059   2.525   2.585  13.637  0.1749  0.4984 -0.0928
  745TMC3    C311060   2.528   2.473  13.556 -0.3942  0.2504 -0.4593
  745TMC3    C411061   2.673   2.684  13.474  0.4586  0.7287 -0.1077
  745TMC3    C511062   2.665   2.570  13.396  1.0454  0.5440  0.8317
  745TMC3    C611063   2.586   2.464  13.436 -0.4958 -0.8596  0.0577
  745TMC3     C11064   2.663   2.760  13.706 -1.0791  0.4714 -0.8382
  745TMC3     O11065   2.648   2.713  13.815 -0.7528  0.0196 -0.6525
  745TMC3     H11066   2.481   2.585  13.736  1.8528  0.4625  0.6489
  745TMC3    H111067   2.737   2.766  13.442 -1.7269  2.3548 -0.2914
  745TMC3    H211068   2.596   2.360  13.408  0.5769 -1.0479  1.1063
  745TMC3    C711069   2.781   2.524  13.307  0.7923 -0.4701  0.0814
  745TMC3    C811070   2.521   2.345  13.623  0.7316 -0.5158 -0.0951
  745TMC3    O111071   2.768   2.422  13.249 -0.6549  0.0657 -0.5782
  745TMC3    O211072   2.462   2.247  13.579 -0.0169  0.5170  0.3487
  746TMC3    C111073   0.020   4.453  11.025 -0.8607 -0.4134  0.0054
  746TMC3    C211074   0.136   4.395  10.981 -0.4264  0.4754 -0.2146
  746TMC3    C311075   0.133   4.305  10.878  0.2132 -0.0170  0.8269
  746TMC3    C411076   4.639   4.440  10.957 -0.0737 -0.4630 -0.8032
  746TMC3    C511077   4.642   4.344  10.861  0.3698 -0.6227  0.6476
  746TMC3    C611078   0.013   4.276  10.820 -0.3784 -0.0599 -0.5022
  746TMC3     C11079   0.027   4.582  11.083  0.5318  0.3042 -0.1679
  746TMC3     O11080   4.660   4.640  11.103  0.1340 -0.3569  0.1195
  746TMC3     H11081   0.236   4.423  11.014 -1.1943 -0.0287  2.5141
  746TMC3    H111082   4.549   4.488  10.994  0.2950  0.5049 -1.1402
  746TMC3    H211083   0.004   4.199  10.744  0.6501  1.3534 -2.0630
  746TMC3    C711084   4.549   4.358  10.755  0.1308 -0.3660  0.6982
  746TMC3    C811085   0.237   4.336  10.780  0.0433  0.4734 -0.3942
  746TMC3    O111086   4.535   4.263  10.683  0.3761 -0.2929 -0.0445
  746TMC3    O211087   0.291   4.446  10.799 -0.5090 -0.0012 -0.0953
  747TMC3    C111088   2.167   4.246  11.183  0.4032 -0.4766 -0.0118
  747TMC3    C211089   2.065   4.183  11.245  0.2202  0.0319 -0.0640
  747TMC3    C311090   2.080   4.149  11.376 -0.5475  0.1138  0.8858
  747TMC3    C411091   2.275   4.287  11.248 -0.1015  0.3933 -0.4503
  747TMC3    C511092   2.285   4.243  11.382 -0.1290  0.8043 -0.0453
  747TMC3    C611093   2.192   4.169  11.445 -0.7418  0.3281  0.8812
  747TMC3     C11094   2.167   4.261  11.042 -0.8139 -0.3868  0.2960
  747TMC3     O11095   2.105   4.180  10.978 -0.1274  0.3014  0.1839
  747TMC3     H11096   1.984   4.137  11.191  0.3379  2.8946 -2.6563
  747TMC3    H111097   2.351   4.348  11.200 -1.2216  2.2538  0.1595
  747TMC3    H211098   2.197   4.117  11.539 -0.9664 -1.4850 -0.1018
  747TMC3    C711099   2.416   4.241  11.432  0.2346  0.3695 -0.1179
  747TMC3    C811100   1.966   4.090  11.444  0.0774  0.5588 -0.4711
  747TMC3    O111101   2.505   4.262  11.348 -0.7164  0.1276  0.3721
  747TMC3    O211102   1.904   4.001  11.384 -0.2599 -0.0905  0.1924
  748MPD2     C11103   4.150   0.406   1.591  0.3593 -0.0003 -1.7934
  748MPD2    C111104   4.219   0.348   1.483  0.2637 -0.1374  0.1978
  748MPD2    C211105   4.334   0.422   1.426 -0.4580  0.3527 -0.4652
  748MPD2    C311106   4.364   0.555   1.457  0.1134  0.2114  0.3786
  748MPD2    C411107   4.274   0.608   1.551 -0.2726 -0.0811 -0.6932
  748MPD2    C511108   4.185   0.532   1.620 -0.0290 -0.5171 -0.4205
  748MPD2     H11109   4.391   0.379   1.344  0.1487 -2.1492  1.2702
  748MPD2    H111110   4.277   0.713   1.578  0.3522 -0.9143  2.5226
  748MPD2    H211111   4.060   0.365   1.635  1.4416 -1.1376 -0.6595
  748MPD2    H311112   4.103   0.573   1.678  2.4383  2.3187  1.0338
  748MPD2     N11113   4.467   0.627   1.393 -0.9257  0.4192  0.2944
  748MPD2    H511114   4.517   0.586   1.315 -0.3115  1.6469  0.0385
  748MPD2    N111115   4.167   0.224   1.423 -0.3171  0.2995 -0.1351
  748MPD2    H711116   4.085   0.183   1.467 -0.9038  1.3747 -0.2223
  749TMC3    C111117   4.636   0.793   1.388  0.3662 -0.3660 -0.1864
  749TMC3    C211118   4.739   0.819   1.479 -0.2665 -0.0022 -0.2614
  749TMC3    C311119   0.126   0.860   1.437 -0.2265  0.1926  0.0421
  749TMC3    C411120   4.668   0.795   1.253 -0.2137  0.1093 -0.0814
  749TMC3    C511121   0.050   0.828   1.209 -0.2537  0.0330 -0.3562
  749TMC3    C611122   0.148   0.862   1.300  0.3262  0.0437  0.5837
  749TMC3     C11123   4.507   0.748   1.445 -0.0771 -0.0590 -0.0653
  749TMC3     O11124   4.486   0.798   1.552  0.7706  0.3458  0.1073
  749TMC3     H11125   4.717   0.807   1.585 -0.1488  1.1882 -0.0974
  749TMC3    H111126   4.586   0.757   1.193 -0.1754 -0.9987  0.5786
  749TMC3    H211127   0.232   0.914   1.255  0.2391  0.8066  1.3130
  749TMC3    C711128   0.083   0.800   1.072 -0.6381 -0.4315  0.0521
  749TMC3    C811129   0.225   0.786   1.510  0.0023  0.1842  0.7390
  749TMC3    O111130   0.194   0.841   1.040 -0.1941 -0.5321 -0.2348
  749TMC3    O211131   0.224   0.770   1.632 -0.1415  1.0136  0.7598
  750MPD2     C11132   0.125   0.953  11.224  0.6368 -0.4791 -0.0818
  750MPD2    C111133   4.737   0.962  11.194  0.4927  0.3147  0.7786
  750MPD2    C211134   4.689   0.889  11.093 -0.3100 -0.4797  0.0959
  750MPD2    C311135   0.036   0.802  11.019 -0.1741 -0.0988 -0.2461
  750MPD2    C411136   0.169   0.799  11.051  0.0476  0.0104 -0.1789
  750MPD2    C511137   0.213   0.867  11.159 -0.4912  0.1349  0.0917
  750MPD2     H11138   4.582   0.882  11.078 -0.3452 -0.8345  0.5253
  750MPD2    H111139   0.237   0.727  11.007  1.8893  1.8341 -0.2971
  750MPD2    H211140   0.177   1.008  11.302 -1.5081 -0.3210  1.2267
  750MPD2    H311141   0.317   0.862  11.189 -0.4526 -0.5892 -0.1559
  750MPD2     N11142   4.735   0.727  10.906  0.3017  0.0592  0.1859
  750MPD2    H511143   0.073   0.670  10.874 -0.0172 -0.4499  0.3243
  750MPD2    N111144   4.650   1.052  11.262  0.0787 -0.1052  0.7206
  750MPD2    H711145   4.697   1.114  11.327  0.5364 -0.1160  0.3990
  751TMC3    C111146   4.605   0.686  10.707  0.4776 -0.5988  0.2375
  751TMC3    C211147   4.487   0.699  10.640  0.3071 -0.2489 -0.2375
  751TMC3    C311148   4.496   0.686  10.502 -0.3592  0.5168  0.0158
  751TMC3    C411149   4.720   0.655  10.642  0.0291  0.2037  0.1229
  751TMC3    C511150   4.726   0.636  10.506  0.0101  0.5285 -0.0056
  751TMC3    C611151   4.611   0.654  10.436 -0.2112 -0.0453 -1.3331
  751TMC3     C11152   4.611   0.738  10.841 -0.1811  0.5065  0.9852
  751TMC3     O11153   4.510   0.801  10.868  0.2582  0.1507  0.2042
  751TMC3     H11154   4.391   0.717  10.688  0.7739  0.0777  0.5778
  751TMC3    H111155   0.075   0.649  10.698  1.0460  0.5372 -1.5623
  751TMC3    H211156   4.613   0.650  10.327  0.0459  0.6211 -1.3528
  751TMC3    C711157   0.115   0.653  10.433  1.0471 -0.0810 -0.0361
  751TMC3    C811158   4.380   0.700  10.417  0.2471 -0.0585  0.2484
  751TMC3    O111159   0.210   0.691  10.502  0.0400 -0.3145  0.2232
  751TMC3    O211160   4.389   0.659  10.301  0.1046  0.5647 -0.5446
  752TMC3    C111161   3.640   0.853  16.845  0.0376  0.8671 -0.9534
  752TMC3    C211162   3.633   0.718  16.861  0.9865 -0.0078 -0.7279
  752TMC3    C311163   3.579   0.671  16.975 -0.2587 -0.3349  0.2784
  752TMC3    C411164   3.583   0.937  16.932  0.6179 -0.7088  0.0804
  752TMC3    C511165   3.541   0.886  17.051 -0.6717  0.2619 -0.1644
  752TMC3    C611166   3.533   0.749  17.074  0.1679 -0.1315  0.4899
  752TMC3     C11167   3.682   0.907  16.716  0.3920 -0.0011 -0.2782
  752TMC3     O11168   3.796   0.876  16.680 -0.3784  0.0911  0.2799
  752TMC3     H11169   3.661   0.659  16.775 -0.7637 -0.4631 -0.9851
  752TMC3    H111170   3.588   1.042  16.905 -1.4430 -0.3814  0.9431
  752TMC3    H211171   3.484   0.714  17.164 -1.2709  0.3099 -0.1263
  752TMC3    C711172   3.474   0.965  17.149  0.2792  0.2201 -0.2510
  752TMC3    C811173   3.525   0.539  16.963  0.2608 -0.5872 -0.3427
  752TMC3    O111174   3.468   0.926  17.265 -0.1276 -0.2642 -0.0848
  752TMC3    O211175   3.520   0.491  16.847  0.1343  0.1321  0.5334
  753TMC3    C111176   0.777   2.271  13.828 -0.1076  0.4363 -0.4919
  753TMC3    C211177   0.877   2.256  13.913 -0.9522  0.7922  0.4431
  753TMC3    C311178   0.914   2.125  13.946 -0.0039 -0.4116 -0.4630
  753TMC3    C411179   0.713   2.169  13.768 -0.0496  0.0445  0.1257
  753TMC3    C511180   0.754   2.040  13.796 -0.0156  0.4950 -0.6106
  753TMC3    C611181   0.852   2.021  13.891 -0.7747  0.7501  0.1803
  753TMC3     C11182   0.744   2.400  13.783  0.4645  0.4466  0.1570
  753TMC3     O11183   0.749   2.495  13.861  0.0210 -0.1116 -0.0082
  753TMC3     H11184   0.913   2.343  13.967 -2.4654  1.5851  0.1861
  753TMC3    H111185   0.633   2.186  13.696  0.1350 -2.4284 -0.6911
  753TMC3    H211186   0.883   1.922  13.924 -1.7943  0.6846  0.9342
  753TMC3    C711187   0.688   1.933  13.727  0.6447 -0.0218 -0.6119
  753TMC3    C811188   1.054   2.109  13.985 -0.2787 -0.0339 -0.3998
  753TMC3    O111189   0.623   1.965  13.628 -0.0906  0.4969  0.9461
  753TMC3    O211190   1.079   1.996  14.026 -0.0339 -0.7458 -0.1366
  754MPD2     C11191   3.760   1.063  13.272  0.3273  0.0266  0.9393
  754MPD2    C111192   3.679   0.959  13.215  0.3055 -1.0246  1.0808
  754MPD2    C211193   3.591   0.983  13.114  0.4063 -0.0668  0.1604
  754MPD2    C311194   3.575   1.110  13.063 -0.6665  0.0734 -0.1150
  754MPD2    C411195   3.655   1.210  13.118 -0.3472  0.2365  0.2816
  754MPD2    C511196   3.746   1.185  13.217 -0.1011  0.1129  0.1234
  754MPD2     H11197   3.529   0.902  13.078 -0.3435  1.5949 -2.2637
  754MPD2    H111198   3.656   1.314  13.085  0.6796  0.0220 -0.3504
  754MPD2    H211199   3.841   1.048  13.342 -0.9403  2.7903  3.0164
  754MPD2    H311200   3.813   1.260  13.257  0.0914  1.5058 -2.7485
  754MPD2     N11201   3.473   1.136  12.969  0.0931 -0.2687 -0.0368
  754MPD2    H511202   3.450   1.235  12.967  1.0765 -0.0404 -0.1638
  754MPD2    N111203   3.677   0.825  13.260  0.2231  0.0404 -0.5227
  754MPD2    H711204   3.640   0.753  13.199  0.5698  1.4600 -2.4037
  755MPD2     C11205   2.996   1.854  13.004 -0.5720  0.1831  0.3789
  755MPD2    C111206   2.889   1.761  12.997  0.1949 -0.3459  0.3566
  755MPD2    C211207   2.913   1.633  12.970  0.4230  0.1445 -0.7237
  755MPD2    C311208   3.045   1.583  12.967  0.1003 -0.8097  0.0702
  755MPD2    C411209   3.148   1.668  12.989  0.5377 -0.3316  0.1165
  755MPD2    C511210   3.122   1.801  13.003  0.3879  0.7804 -0.1403
  755MPD2     H11211   2.828   1.566  12.967  0.9140 -0.4092 -2.2074
  755MPD2    H111212   3.251   1.636  13.001  0.4937 -0.2165  0.7678
  755MPD2    H211213   2.978   1.960  13.013  1.0358  0.6394 -1.7154
  755MPD2    H311214   3.208   1.866  13.000 -0.6240  2.0682 -1.1214
  755MPD2     N11215   3.086   1.449  12.930 -0.4586 -0.3744 -0.1956
  755MPD2    H511216   3.186   1.431  12.933  0.0344  2.4297  0.2673
  755MPD2    N111217   2.753   1.794  13.006  0.2231  0.2665  0.0386
  755MPD2    H711218   2.690   1.719  12.979 -0.6306  0.7718  0.6111
  756MPD2     C11219   4.244   2.708   9.753 -0.3123  0.0187 -0.3318
  756MPD2    C111220   4.213   2.629   9.867  0.0180 -0.5124  0.4733
  756MPD2    C211221   4.095   2.550   9.859  0.1487 -0.1507 -0.4465
  756MPD2    C311222   4.011   2.546   9.748 -0.0045  0.3778 -0.5760
  756MPD2    C411223   4.038   2.627   9.648 -0.1118  0.0798  0.0531
  756MPD2    C511224   4.154   2.707   9.650  0.0937  0.3810  0.1580
  756MPD2     H11225   4.069   2.498   9.950  1.5926  2.1357  1.2744
  756MPD2    H111226   3.969   2.639   9.566 -0.5354  1.6899  0.6545
  756MPD2    H211227   4.332   2.771   9.753  0.1926 -0.6851  1.3826
  756MPD2    H311228   4.160   2.781   9.572 -0.6627 -0.9511 -1.1654
  756MPD2     N11229   3.905   2.455   9.748  0.4115  0.0579 -0.0785
  756MPD2    H511230   3.899   2.387   9.823 -0.7239 -0.9649 -1.0984
  756MPD2    N111231   4.283   2.638   9.997  0.2234  0.0035 -0.1855
  756MPD2    H711232   4.250   2.583  10.076  0.8211 -0.0893  0.0042
  757MPD2     C11233   3.949   1.517  10.005  0.1534  0.4493  0.6630
  757MPD2    C111234   3.852   1.498   9.907 -0.0113  0.4661  0.4512
  757MPD2    C211235   3.797   1.614   9.852 -0.0312  0.0967  0.0120
  757MPD2    C311236   3.838   1.744   9.890  0.0940 -0.5761  0.7851
  757MPD2    C411237   3.935   1.756   9.990  0.8452  0.3107  0.3208
  757MPD2    C511238   3.989   1.643  10.038 -0.1382  0.2565  0.2537
  757MPD2     H11239   3.734   1.593   9.766 -0.5083 -1.4780  0.7424
  757MPD2    H111240   3.973   1.852  10.024  0.5818  0.3724  0.4452
  757MPD2    H211241   4.003   1.429  10.037 -1.6058 -1.5910 -2.0041
  757MPD2    H311242   4.078   1.661  10.098 -0.5690 -0.8781  1.2527
  757MPD2     N11243   3.783   1.858   9.828  0.3609 -0.3035 -0.1026
  757MPD2    H511244   3.705   1.849   9.763  0.6064 -0.2366 -0.4076
  757MPD2    N111245   3.850   1.370   9.838 -0.3434  0.2548 -0.0677
  757MPD2    H711246   3.920   1.304   9.870 -1.3421 -0.6723  0.1745
  758MPD2     C11247   0.049   0.893  15.173 -0.1142  0.5723  0.6607
  758MPD2    C111248   0.100   0.775  15.223 -0.8065  0.1258  0.0427
  758MPD2    C211249   0.051   0.725  15.338 -0.8935 -0.2004 -0.1496
  758MPD2    C311250   4.686   0.792  15.409 -0.4300 -0.2588  0.2595
  758MPD2    C411251   4.642   0.916  15.359 -0.5401 -0.3525  0.1492
  758MPD2    C511252   4.697   0.961  15.241 -0.4808  0.3866 -0.0679
  758MPD2     H11253   0.087   0.631  15.377 -0.0279 -0.3864 -1.3914
  758MPD2    H111254   4.567   0.970  15.415 -1.5004  0.6006 -2.0456
  758MPD2    H211255   0.096   0.939  15.086 -3.7593 -1.6003 -2.4390
  758MPD2    H311256   4.667   1.058  15.203 -1.9705  0.3415  0.9882
  758MPD2     N11257   4.655   0.750  15.540  0.5311  0.3448  0.9297
  758MPD2    H511258   4.716   0.678  15.579  1.5775  0.5052 -0.4383
  758MPD2    N111259   0.213   0.711  15.161  0.3794  1.7196 -0.4995
  758MPD2    H711260   0.250   0.751  15.075  1.6124  0.0045 -0.7602
  759MPD2     C11261   3.339   4.016  10.149 -0.3290 -0.4893 -0.9925
  759MPD2    C111262   3.205   4.041  10.121 -0.1837 -0.4583 -0.1517
  759MPD2    C211263   3.165   4.137  10.032  0.1952 -0.5476 -0.1460
  759MPD2    C311264   3.257   4.199   9.954  0.3158 -0.4239 -0.6215
  759MPD2    C411265   3.397   4.177   9.977  0.3330  0.9262 -0.1678
  759MPD2    C511266   3.430   4.084  10.067 -0.0145 -0.4709 -0.7298
  759MPD2     H11267   3.063   4.163  10.008 -0.7775  0.3115  4.7946
  759MPD2    H111268   3.477   4.225   9.922 -0.9746  2.9619 -0.2899
  759MPD2    H211269   3.376   3.938  10.215  2.9582  1.4553 -0.5645
  759MPD2    H311270   3.536   4.068  10.084 -0.4933 -1.7744  1.0081
  759MPD2     N11271   3.216   4.283   9.847 -0.1575 -0.2562  0.7614
  759MPD2    H511272   3.119   4.311   9.848  0.0019  0.2811  0.8103
  759MPD2    N111273   3.097   3.968  10.175  0.0539 -0.1786  0.5758
  759MPD2    H711274   3.005   3.971  10.131  1.5652  2.3013 -2.4496
  760MPD2     C11275   2.239   0.962  12.131  0.4338  1.0501  0.0891
  760MPD2    C111276   2.301   1.055  12.051 -0.2171  0.1462  0.2892
  760MPD2    C211277   2.318   1.029  11.915 -0.9095 -0.0407 -0.5927
  760MPD2    C311278   2.257   0.911  11.863 -0.2247 -0.3409 -0.6979
  760MPD2    C411279   2.203   0.813  11.945  1.0694  0.1379  0.0328
  760MPD2    C511280   2.193   0.842  12.082 -0.7516 -0.9228 -0.1314
  760MPD2     H11281   2.362   1.105  11.851  0.0534  0.0504  0.1821
  760MPD2    H111282   2.152   0.725  11.906 -0.6731  1.8259 -1.5021
  760MPD2    H211283   2.227   0.971  12.238 -0.6070 -0.7912  0.1251
  760MPD2    H311284   2.145   0.771  12.148 -0.8950 -1.2081 -0.5375
  760MPD2     N11285   2.256   0.878  11.724  0.0348 -0.6222  0.4501
  760MPD2    H511286   2.226   0.785  11.697  2.0313 -0.9535 -0.6239
  760MPD2    N111287   2.352   1.174  12.098  0.1602  0.0547 -0.1517
  760MPD2    H711288   2.419   1.223  12.040  1.5382 -1.8966 -0.2176
  761MPD2     C11289   3.880   0.802  10.343  0.8496  0.2121  0.7840
  761MPD2    C111290   3.961   0.706  10.286  0.2227 -0.2848 -0.3329
  761MPD2    C211291   4.098   0.708  10.315  0.3168  0.0324 -0.1680
  761MPD2    C311292   4.149   0.785  10.421 -0.1578  0.1545  0.2111
  761MPD2    C411293   4.064   0.866  10.489 -0.2990  0.6805 -0.3420
  761MPD2    C511294   3.933   0.882  10.445  0.4510 -0.4469  0.3134
  761MPD2     H11295   4.167   0.640  10.268 -1.3910  0.1115 -2.7934
  761MPD2    H111296   4.095   0.937  10.565  0.6021  0.3739 -0.4314
  761MPD2    H211297   3.773   0.811  10.336  0.9577  0.6953 -0.3648
  761MPD2    H311298   3.860   0.941  10.499 -2.2005 -3.4819  0.1026
  761MPD2     N11299   4.285   0.779  10.467  0.1422  0.2681  0.5386
  761MPD2    H511300   4.305   0.814  10.559 -0.9890  2.8644 -0.2187
  761MPD2    N111301   3.893   0.604  10.206 -0.0657 -0.2915  0.6392
  761MPD2    H711302   3.819   0.647  10.151 -0.3158 -2.1473 -0.4739
  762MPD2     C11303   4.534   0.336  10.725 -0.4148  0.1579  0.1417
  762MPD2    C111304   4.514   0.319  10.588  0.3902 -0.7551  0.1524
  762MPD2    C211305   4.617   0.301  10.502 -0.1866 -0.2921  0.1040
  762MPD2    C311306   0.010   0.294  10.547 -0.3972  0.6887  0.3285
  762MPD2    C411307   0.030   0.325  10.685 -0.1464  0.4138  0.8431
  762MPD2    C511308   4.659   0.339  10.767 -0.1104  0.3444 -0.3587
  762MPD2     H11309   4.601   0.291  10.396  0.1802 -3.3782  0.3627
  762MPD2    H111310   0.125   0.327  10.736  1.1244  4.5929 -1.6674
  762MPD2    H211311   4.454   0.357  10.795  0.5663 -0.0382  1.3244
  762MPD2    H311312   4.675   0.354  10.873  0.6590 -2.7929 -0.0241
  762MPD2     N11313   0.117   0.264  10.460  0.3838 -0.0280 -0.1115
  762MPD2    H511314   0.088   0.228  10.369 -0.7023 -1.7057  0.9130
  762MPD2    N111315   4.379   0.338  10.547 -0.1403  0.0534  0.1173
  762MPD2    H711316   4.310   0.343  10.621  0.3344  3.5023  0.3385
  763MPD2     C11317   1.983   0.474  16.062 -0.3684  0.2076 -0.1034
  763MPD2    C111318   1.871   0.551  16.028 -0.9645  1.0249  0.1294
  763MPD2    C211319   1.852   0.681  16.063  0.6021  0.4931  0.4642
  763MPD2    C311320   1.952   0.744  16.128  0.0467  0.7411 -1.0731
  763MPD2    C411321   2.071   0.676  16.148 -0.1520 -0.0183 -1.1296
  763MPD2    C511322   2.086   0.548  16.102 -0.1377  1.2981 -0.1919
  763MPD2     H11323   1.753   0.723  16.051  0.0601 -0.9326 -0.0165
  763MPD2    H111324   2.154   0.723  16.199 -0.0012  0.4988 -1.8437
  763MPD2    H211325   2.010   0.371  16.043 -1.6633 -0.2864  0.7218
  763MPD2    H311326   2.174   0.488  16.121  1.2011  2.4816 -2.5553
  763MPD2     N11327   1.954   0.876  16.168 -0.2203  0.0382  0.2757
  763MPD2    H511328   2.045   0.913  16.193 -0.1995 -1.3123  2.1313
  763MPD2    N111329   1.759   0.491  15.961 -0.3017 -0.6021  1.0004
  763MPD2    H711330   1.680   0.549  15.933 -0.6352 -1.0117  1.1051
  764MPD2     C11331   4.414   2.426  17.212  0.1834 -0.5362  0.1045
  764MPD2    C111332   4.311   2.359  17.148 -0.0213  0.5034 -0.0190
  764MPD2    C211333   4.302   2.221  17.179  1.0192  0.2801  0.1419
  764MPD2    C311334   4.393   2.160  17.266  0.1080 -0.4984 -0.6933
  764MPD2    C411335   4.490   2.239  17.331 -0.5083 -0.0849 -0.4919
  764MPD2    C511336   4.498   2.366  17.296  0.3124  0.2776  0.0384
  764MPD2     H11337   4.217   2.162  17.149  1.4394  0.7601 -1.9943
  764MPD2    H111338   4.573   2.202  17.391 -0.4728 -2.7871 -2.1790
  764MPD2    H211339   4.437   2.532  17.200 -1.6227 -0.2848 -1.0617
  764MPD2    H311340   4.580   2.418  17.343  1.4916 -0.5854 -1.0611
  764MPD2     N11341   4.378   2.020  17.287 -0.0592  0.0653  0.6030
  764MPD2    H511342   4.298   1.973  17.247  0.2068  0.7983 -0.8071
  764MPD2    N111343   4.215   2.420  17.062  0.0218 -0.2439 -0.3361
  764MPD2    H711344   4.146   2.366  17.010  0.8537 -1.8235  0.1839
  765MPD2     C11345   4.694   0.477  14.910 -0.4014  0.0973  0.4092
  765MPD2    C111346   4.668   0.465  15.046  0.3868  0.0422  0.6032
  765MPD2    C211347   4.700   0.348  15.114 -0.4481  0.2711 -0.9945
  765MPD2    C311348   0.034   0.250  15.045  0.0593 -0.1236 -0.1125
  765MPD2    C411349   0.060   0.269  14.907 -0.1278 -0.0895 -0.4654
  765MPD2    C511350   0.020   0.379  14.844  0.4235 -0.1033 -0.1471
  765MPD2     H11351   4.679   0.327  15.218 -0.5258  0.8263 -0.8969
  765MPD2    H111352   0.102   0.190  14.846  0.6355  0.2337 -0.3550
  765MPD2    H211353   4.658   0.563  14.853  0.6462  1.2772  1.5461
  765MPD2    H311354   0.042   0.396  14.739 -0.3650 -0.0236 -0.2965
  765MPD2     N11355   0.074   0.126  15.108 -0.2806 -0.0393  0.0180
  765MPD2    H511356   0.051   0.120  15.207  2.3782 -2.3037  0.5165
  765MPD2    N111357   4.578   0.560  15.093 -0.5358  0.0991 -0.1801
  765MPD2    H711358   4.561   0.643  15.037  0.9730 -0.0408 -0.8368
  766MPD2     C11359   4.030   0.188  15.127 -0.2730 -0.5378 -0.1015
  766MPD2    C111360   4.010   0.319  15.085 -0.6759 -0.4239 -0.4490
  766MPD2    C211361   3.952   0.344  14.960 -0.0545  0.0073  0.1572
  766MPD2    C311362   3.930   0.236  14.879  0.2370 -0.2087 -0.3853
  766MPD2    C411363   3.947   0.102  14.924 -0.0233  1.2928  0.3604
  766MPD2    C511364   4.004   0.078  15.046  0.6597 -0.1766  0.0951
  766MPD2     H11365   3.935   0.443  14.921  0.7777 -0.4789 -1.4155
  766MPD2    H111366   3.911   0.021  14.861  0.2847 -0.1173  1.9920
  766MPD2    H211367   4.078   0.169  15.222  0.4084  0.0296 -0.3317
  766MPD2    H311368   4.024   4.718  15.087  0.0223  0.5969  2.2985
  766MPD2     N11369   3.910   0.257  14.739  0.2129  0.0738  0.7187
  766MPD2    H511370   3.894   0.172  14.685  1.3745 -0.4410  1.1757
  766MPD2    N111371   4.046   0.429  15.173 -0.0184 -0.2177 -0.1025
  766MPD2    H711372   4.076   0.404  15.266  3.7388  1.0939 -0.9474
  767MPD2     C11373   3.608   0.547  15.011  0.4405 -0.1935  0.0311
  767MPD2    C111374   3.632   0.623  14.902  0.1416  0.1974 -0.6186
  767MPD2    C211375   3.556   0.600  14.790 -0.7935  0.9767 -0.4211
  767MPD2    C311376   3.443   0.518  14.782  0.2081 -0.4130 -0.3041
  767MPD2    C411377   3.415   0.456  14.896  0.7491  0.3972 -0.4203
  767MPD2    C511378   3.498   0.472  15.008 -0.3130  0.0801 -0.4763
  767MPD2     H11379   3.588   0.655  14.702 -0.6103  3.7702  1.3982
  767MPD2    H111380   3.342   0.376  14.896  1.9048 -0.6704  1.0845
  767MPD2    H211381   3.671   0.542  15.100  0.5258  3.2438  0.1647
  767MPD2    H311382   3.470   0.406  15.088  1.8431  0.5676  0.6680
  767MPD2     N11383   3.380   0.497  14.654  0.0293  0.6590  0.4490
  767MPD2    H511384   3.433   0.536  14.577  0.9799 -0.5016  0.5115
  767MPD2    N111385   3.746   0.711  14.899  0.2905 -0.4187  0.5705
  767MPD2    H711386   3.821   0.700  14.966  0.5830  0.6922  0.4230
  768MPD2     C11387   3.856   3.807  10.482  0.0985 -0.1867  0.9555
  768MPD2    C111388   3.945   3.912  10.496  0.7057 -0.3614  0.3923
  768MPD2    C211389   4.063   3.897  10.564 -1.0041 -0.5629  0.8373
  768MPD2    C311390   4.089   3.773  10.619 -0.5437  0.1121 -0.0539
  768MPD2    C411391   4.000   3.670  10.608  0.3608  0.3682  0.0507
  768MPD2    C511392   3.879   3.685  10.539 -0.1038 -0.1567  0.4640
  768MPD2     H11393   4.127   3.983  10.581  0.4581 -1.2612 -1.0613
  768MPD2    H111394   4.025   3.577  10.659  0.8752  0.0759 -0.7333
  768MPD2    H211395   3.762   3.822  10.429 -0.8242 -1.6989  2.1740
  768MPD2    H311396   3.807   3.604  10.531  0.9300 -1.3496  3.3145
  768MPD2     N11397   4.203   3.770  10.697 -0.0861 -0.8514  0.1561
  768MPD2    H511398   4.251   3.859  10.709 -1.6081  0.1649 -1.2953
  768MPD2    N111399   3.931   4.042  10.439  0.1354  0.0818  0.7602
  768MPD2    H711400   4.008   4.107  10.455 -0.8534  1.3119  0.4680
  769MPD2     C11401   4.605   1.904  14.785 -0.2466  0.4579  0.6333
  769MPD2    C111402   4.720   1.840  14.764  0.4896  0.2298  0.1053
  769MPD2    C211403   0.085   1.860  14.856  0.3808  0.0926  0.1326
  769MPD2    C311404   0.069   1.937  14.974 -0.5565  0.0667 -0.3256
  769MPD2    C411405   4.687   2.001  14.985 -0.7291  0.2405  0.2411
  769MPD2    C511406   4.585   1.981  14.897 -0.6018 -0.3175  0.7911
  769MPD2     H11407   0.182   1.812  14.855  1.0669  1.5461 -2.6029
  769MPD2    H111408   4.650   2.064  15.065 -1.4271 -0.4829  0.4984
  769MPD2    H211409   4.525   1.891  14.712  0.5153  0.2020 -0.1591
  769MPD2    H311410   4.492   2.036  14.909  1.0020  3.0386 -2.0319
  769MPD2     N11411   0.175   1.936  15.067 -0.1296 -0.4432  0.7779
  769MPD2    H511412   0.264   1.901  15.033  0.0934  2.1201 -1.2949
  769MPD2    N111413   4.723   1.755  14.647 -0.0216  0.1360  0.2040
  769MPD2    H711414   4.645   1.762  14.582 -0.0567  0.6981  0.3118
  770MPD2     C11415   0.290   0.831  14.153 -0.4147 -0.0880 -0.8200
  770MPD2    C111416   0.152   0.830  14.160  0.0214 -0.7311  0.0569
  770MPD2    C211417   0.081   0.941  14.197 -0.1697 -0.3715  0.0484
  770MPD2    C311418   0.151   1.055  14.235 -0.1567  0.9296  0.0977
  770MPD2    C411419   0.286   1.058  14.220 -0.2751 -0.2710 -0.6192
  770MPD2    C511420   0.358   0.949  14.178 -0.1889 -0.1557 -0.3771
  770MPD2     H11421   4.712   0.945  14.203 -0.2651 -1.3263 -1.0038
  770MPD2    H111422   0.339   1.146  14.256  2.6257 -2.4953  0.6010
  770MPD2    H211423   0.342   0.741  14.125  1.6311  0.5492  0.8953
  770MPD2    H311424   0.465   0.965  14.180  0.3237 -3.6731  1.0071
  770MPD2     N11425   0.086   1.174  14.280  0.2901  0.4075 -0.1683
  770MPD2    H511426   4.726   1.181  14.255 -0.4197 -0.7923  2.2354
  770MPD2    N111427   0.092   0.704  14.154 -0.5042  0.0070 -0.6647
  770MPD2    H711428   0.152   0.623  14.139 -1.7928 -1.2486  0.9705
  771MPD2     C11429   1.504   4.617  13.837 -0.3942 -0.6035 -0.1582
  771MPD2    C111430   1.465   4.698  13.728  0.4665  0.0549  0.1932
  771MPD2    C211431   1.496   4.652  13.602 -0.0089 -0.2317  0.3753
  771MPD2    C311432   1.537   4.516  13.583  0.2303  0.8282 -0.0365
  771MPD2    C411433   1.560   4.437  13.692 -0.5172 -0.3621  0.1357
  771MPD2    C511434   1.547   4.490  13.815  0.0261  0.1617  0.3451
  771MPD2     H11435   1.490   4.712  13.512 -1.8078  1.0080  1.3167
  771MPD2    H111436   1.592   4.335  13.675 -0.9844 -0.3950 -0.5569
  771MPD2    H211437   1.512   4.642  13.942 -0.0173 -3.4616  0.5008
  771MPD2    H311438   1.568   4.419  13.895 -0.6663  0.9954  1.2590
  771MPD2     N11439   1.531   4.463  13.450 -0.6036  0.1252  0.0405
  771MPD2    H511440   1.497   4.528  13.379 -0.0941  0.1697 -0.1621
  771MPD2    N111441   1.415   0.095  13.749  0.1535  0.2304  0.0231
  771MPD2    H711442   1.377   0.138  13.665 -0.6894  1.3254  0.9593
  772MPD2     C11443   0.825   0.605  14.056 -0.4519  0.5543  0.0108
  772MPD2    C111444   0.853   0.499  13.972  0.1653 -0.1328 -0.4733
  772MPD2    C211445   0.763   0.411  13.931 -0.0529 -1.1575 -0.3459
  772MPD2    C311446   0.636   0.415  13.989  0.2882 -0.1278  0.0383
  772MPD2    C411447   0.607   0.522  14.070  0.3403 -0.0470  0.0986
  772MPD2    C511448   0.699   0.623  14.102 -0.4736  0.1665 -0.2039
  772MPD2     H11449   0.785   0.323  13.873  0.3593  0.8412 -3.2290
  772MPD2    H111450   0.508   0.528  14.113 -0.3272 -1.3937 -1.2571
  772MPD2    H211451   0.903   0.673  14.089  0.9677 -0.4361 -1.3295
  772MPD2    H311452   0.675   0.708  14.165  0.2458 -0.6649  1.1945
  772MPD2     N11453   0.536   0.326  13.951 -0.3825  0.0217 -0.2787
  772MPD2    H511454   0.449   0.332  14.003  0.1437 -0.7170  0.6829
  772MPD2    N111455   0.981   0.477  13.918  0.0020  0.8790  0.1081
  772MPD2    H711456   0.984   0.392  13.863  2.4784  1.6918 -1.0304
  773MPD2     C11457   0.644   1.060   0.112 -0.1065  0.4900 -1.1475
  773MPD2    C111458   0.597   0.979   0.005 -0.6630  0.4666  0.9134
  773MPD2    C211459   0.657   0.853  17.739  0.0616 -0.1588 -0.4957
  773MPD2    C311460   0.756   0.817   0.074  0.1693 -0.5636  0.8963
  773MPD2    C411461   0.794   0.882   0.187  0.5337  0.1192 -0.4514
  773MPD2    C511462   0.736   1.005   0.198 -0.5474 -1.2506 -0.0541
  773MPD2     H11463   0.634   0.792  17.652 -0.8222  0.9551 -1.0520
  773MPD2    H111464   0.874   0.847   0.251 -0.8067  1.1159  1.7755
  773MPD2    H211465   0.610   1.161   0.129 -1.7187 -0.2994  0.3288
  773MPD2    H311466   0.776   1.073   0.273 -2.0301 -1.7386  1.1680
  773MPD2     N11467   0.824   0.702   0.029 -0.1886 -0.0539  0.2773
  773MPD2    H511468   0.799   0.676  17.687  0.8898 -0.2635  0.0508
  773MPD2    N111469   0.494   1.023  17.674  0.5407  0.0989 -0.1985
  773MPD2    H711470   0.466   0.956  17.603 -1.0741  0.6426 -0.0756
  774MPD2     C11471   3.637   4.657  13.208  0.1020 -0.4993 -0.0488
  774MPD2    C111472   3.703   4.727  13.303  0.3036  0.2594  0.4377
  774MPD2    C211473   3.687   0.123  13.322  0.9075 -0.1049  0.8424
  774MPD2    C311474   3.586   0.189  13.251  0.1994 -0.2620 -0.2335
  774MPD2    C411475   3.526   0.122  13.147 -0.3702  0.0251 -0.0635
  774MPD2    C511476   3.551   4.729  13.126 -0.0353 -0.1562 -0.2409
  774MPD2     H11477   3.742   0.180  13.397  1.6492  3.5562 -2.4945
  774MPD2    H111478   3.459   0.166  13.074 -0.0887  1.1520  0.3523
  774MPD2    H211479   3.657   4.551  13.193 -1.0057 -0.8943  1.3264
  774MPD2    H311480   3.521   4.685  13.032 -1.6347 -0.7153  0.5238
  774MPD2     N11481   3.559   0.324  13.287 -0.7783  0.0822 -0.6640
  774MPD2    H511482   3.608   0.367  13.364  0.3615  0.3511 -1.5513
  774MPD2    N111483   3.791   4.650  13.391  0.6127  0.6251  0.1846
  774MPD2    H711484   3.768   4.552  13.408 -1.3366  0.7435 -1.6633
  775MPD2     C11485   0.918   1.747  15.576 -0.0371  0.0765  0.5293
  775MPD2    C111486   0.913   1.876  15.628  0.4194 -0.5715  0.5294
  775MPD2    C211487   1.017   1.963  15.601  0.1371 -0.6174  0.1192
  775MPD2    C311488   1.119   1.915  15.517  0.5906 -0.9798 -0.1868
  775MPD2    C411489   1.112   1.793  15.452  0.1137  0.3569 -0.0498
  775MPD2    C511490   1.012   1.709  15.487 -0.0676 -0.2873  0.2399
  775MPD2     H11491   1.017   2.059  15.650 -0.4537 -0.4299 -0.2391
  775MPD2    H111492   1.197   1.751  15.399  0.0499 -1.2912  1.1383
  775MPD2    H211493   0.851   1.669  15.609  1.8746 -1.5056  0.6987
  775MPD2    H311494   0.994   1.606  15.457 -0.4733 -0.7578  2.0693
  775MPD2     N11495   1.233   1.999  15.482 -0.3972 -0.4520 -0.0035
  775MPD2    H511496   1.311   1.951  15.438  0.7936  0.4693  1.1131
  775MPD2    N111497   0.813   1.907  15.723  0.1018 -0.5525 -0.1706
  775MPD2    H711498   0.736   1.841  15.731 -1.7477  1.8031  1.4433
  776MPD2     C11499   0.108   1.601  11.460 -0.4190  0.4180 -0.1253
  776MPD2    C111500   4.705   1.615  11.448 -0.1511  0.4631  0.3927
  776MPD2    C211501   4.647   1.743  11.454  0.1897 -0.1440 -0.3766
  776MPD2    C311502   4.726   1.850  11.478  0.5121  0.2147 -0.1375
  776MPD2    C411503   0.127   1.831  11.492  0.0405 -0.7067  0.0673
  776MPD2    C511504   0.186   1.706  11.488 -0.1290 -0.1269  0.1400
  776MPD2     H11505   4.541   1.747  11.431 -0.1046 -0.3921  0.9496
  776MPD2    H111506   0.190   1.918  11.509 -0.8182 -0.4784  2.0412
  776MPD2    H211507   0.162   1.507  11.455 -0.2525  0.6242 -2.0647
  776MPD2    H311508   0.293   1.693  11.501  0.0513 -0.6326 -1.8481
  776MPD2     N11509   4.677   1.984  11.488  0.8553  0.6519  0.7089
  776MPD2    H511510   0.012   2.052  11.505  0.5399  1.0029  0.6716
  776MPD2    N111511   4.624   1.506  11.425 -0.1272 -0.1598  0.9229
  776MPD2    H711512   4.673   1.428  11.383  0.6795  1.4897 -1.1861
  777MPD2     C11513   0.134   0.112   0.576 -0.1289  0.2641 -0.0169
  777MPD2    C111514   0.209   0.003   0.630  0.0170  0.5060  0.0926
  777MPD2    C211515   0.184   4.611   0.592  0.3873  0.0780  0.3361
  777MPD2    C311516   0.102   4.590   0.484  0.1704 -0.6095  0.0958
  777MPD2    C411517   0.037   4.696   0.432 -0.2232  0.1293 -0.3946
  777MPD2    C511518   0.039   0.084   0.483 -0.2789 -0.2042  0.0608
  777MPD2     H11519   0.247   4.533   0.632  2.2957  2.0621  1.1694
  777MPD2    H111520   4.715   4.673   0.345 -0.8577  1.5414 -0.3170
  777MPD2    H211521   0.145   0.214   0.611  1.8777  0.5699 -1.6149
  777MPD2    H311522   4.708   0.159   0.446  0.9707  0.6783 -0.5153
  777MPD2     N11523   0.096   4.454   0.430 -0.2161  0.6131  0.1530
  777MPD2    H511524   0.137   4.372   0.473 -1.2556 -0.6320 -1.2483
  777MPD2    N111525   0.304   0.044   0.729 -0.1823 -0.2561 -0.1563
  777MPD2    H711526   0.326   0.143   0.731 -0.4203 -0.1941 -0.5620
  778MPD2     C11527   1.133   3.940  15.001  0.2443 -0.4106  0.3461
  778MPD2    C111528   1.111   3.960  14.868  0.0223 -0.6015  0.7479
  778MPD2    C211529   1.193   4.042  14.794  0.3362  0.2012 -0.9853
  778MPD2    C311530   1.306   4.102  14.848  0.3791 -0.5585 -0.4042
  778MPD2    C411531   1.333   4.088  14.980  0.1647  1.1947 -0.1454
  778MPD2    C511532   1.243   4.011  15.045  0.7414 -0.0985  0.6768
  778MPD2     H11533   1.171   4.060  14.689  1.9694 -0.3873 -1.4280
  778MPD2    H111534   1.404   4.153  15.031 -1.8801  2.9169  0.4771
  778MPD2    H211535   1.074   3.887  15.074  1.9177 -2.2414  0.3810
  778MPD2    H311536   1.262   3.986  15.148 -1.0203  1.1343  1.2962
  778MPD2     N11537   1.387   4.178  14.759 -0.5877  0.6822  0.5607
  778MPD2    H511538   1.367   4.166  14.661  0.2085  1.4000  0.3166
  778MPD2    N111539   1.001   3.898  14.806  0.0042 -0.0915 -0.2159
  778MPD2    H711540   1.006   3.887  14.705 -3.1839  1.1129 -0.4952
  779MPD2     C11541   1.215   3.142  13.627 -0.2415 -0.0446  0.5505
  779MPD2    C111542   1.350   3.166  13.630 -0.8384  0.3906 -0.5992
  779MPD2    C211543   1.404   3.291  13.636 -0.0705  0.3159  0.5026
  779MPD2    C311544   1.322   3.406  13.617 -0.5573 -0.2891 -0.4856
  779MPD2    C411545   1.181   3.384  13.616  0.3639 -0.1800 -0.0652
  779MPD2    C511546   1.136   3.253  13.631  0.2756  0.1666 -0.2337
  779MPD2     H11547   1.510   3.310  13.633 -0.1708  0.0133 -4.3013
  779MPD2    H111548   1.107   3.461  13.601 -1.3443 -1.8658 -0.2769
  779MPD2    H211549   1.181   3.038  13.625  1.8331 -0.7213  0.8826
  779MPD2    H311550   1.031   3.233  13.653  0.4826 -1.6327 -0.8485
  779MPD2     N11551   1.375   3.539  13.614  0.2229  0.0757 -0.2090
  779MPD2    H511552   1.476   3.547  13.625  0.0400  2.3016 -0.1619
  779MPD2    N111553   1.434   3.051  13.624  0.0686  0.0442  0.4835
  779MPD2    H711554   1.393   2.962  13.597  0.9347 -0.7183  1.6922
  780MPD2     C11555   1.816   2.951   0.110  0.6245 -0.3320 -0.0585
  780MPD2    C111556   1.711   2.959   0.196  0.7403  0.0429 -0.5333
  780MPD2    C211557   1.579   2.970   0.147  0.0736  1.0208 -0.4327
  780MPD2    C311558   1.559   2.985   0.013  0.7005  0.1956 -0.7806
  780MPD2    C411559   1.669   2.983  17.685  0.2245  0.0860  0.0046
  780MPD2    C511560   1.793   2.964  17.727 -0.1155 -0.0171 -1.1011
  780MPD2     H11561   1.495   2.969   0.216 -1.4807 -1.3118 -2.3419
  780MPD2    H111562   1.659   2.981  17.577  3.3001  0.7599 -0.3033
  780MPD2    H211563   1.917   2.934   0.145  0.8620 -0.2995 -0.7405
  780MPD2    H311564   1.880   2.982  17.664 -0.1076  1.1078 -0.7541
  780MPD2     N11565   1.431   2.986  17.714 -0.3316 -0.5588 -0.7708
  780MPD2    H511566   1.348   2.968   0.015 -0.6565  0.4222 -0.9402
  780MPD2    N111567   1.748   2.961   0.335  0.3653  0.2603  0.0230
  780MPD2    H711568   1.844   2.940   0.359 -0.4846 -1.2174  2.1993
  781MPD2     C11569   2.724   0.232  11.781 -0.2401  0.4841  0.1886
  781MPD2    C111570   2.797   0.150  11.865  0.2313  0.0262 -0.1390
  781MPD2    C211571   2.908   0.077  11.824  0.0901 -0.3651 -0.2111
  781MPD2    C311572   2.941   0.070  11.685 -0.0765  0.4524  0.7196
  781MPD2    C411573   2.870   0.151  11.595 -0.1757  0.2090 -0.6425
  781MPD2    C511574   2.766   0.222  11.649 -0.3919 -0.0764  0.7979
  781MPD2     H11575   2.963   0.019  11.897 -0.5334  0.4591  0.9058
  781MPD2    H111576   2.890   0.162  11.489 -0.3705 -0.4664 -0.7478
  781MPD2    H211577   2.632   0.286  11.801  0.2948  0.6886  2.1016
  781MPD2    H311578   2.733   0.294  11.575 -0.8301  1.3995  2.4138
  781MPD2     N11579   3.052   4.724  11.647  0.0461  0.0736  0.2170
  781MPD2    H511580   3.090   4.664  11.720 -1.2633 -0.6645  0.2783
  781MPD2    N111581   2.746   0.141  11.998  0.3276 -0.2129  0.3725
  781MPD2    H711582   2.780   0.067  12.058  1.6553 -0.0779 -0.2274
  782MPD2     C11583   0.460   1.261  10.154 -0.3742 -0.1063  0.5874
  782MPD2    C111584   0.589   1.269  10.209 -0.0614 -0.0732  0.4007
  782MPD2    C211585   0.619   1.377  10.289 -0.7442  0.7391 -0.3109
  782MPD2    C311586   0.526   1.469  10.326 -0.3108  0.7567  0.1895
  782MPD2    C411587   0.398   1.466  10.272  0.2075  0.1095  0.2816
  782MPD2    C511588   0.371   1.367  10.178 -0.5189 -0.1095  0.2207
  782MPD2     H11589   0.716   1.386  10.337 -0.3306  0.3970 -1.0944
  782MPD2    H111590   0.312   1.529  10.289  0.6373  1.6239 -3.0456
  782MPD2    H211591   0.417   1.172  10.108  1.0356 -0.3923 -0.1648
  782MPD2    H311592   0.274   1.361  10.130 -0.6827  2.2896  0.2500
  782MPD2     N11593   0.563   1.561  10.425  0.2213  0.4684 -0.3234
  782MPD2    H511594   0.652   1.552  10.474 -1.0422 -3.2947  1.2594
  782MPD2    N111595   0.665   1.152  10.188  0.0915  0.2109 -0.5198
  782MPD2    H711596   0.623   1.072  10.142 -0.9949  1.1865 -1.2373
  783MPD2     C11597   0.204   0.506  10.103  0.2585  0.1529  0.3709
  783MPD2    C111598   0.222   0.583  10.215 -0.6527  0.1953  0.2714
  783MPD2    C211599   0.338   0.653  10.234  0.2307  0.0827  0.0782
  783MPD2    C311600   0.445   0.622  10.161 -0.1495 -1.0495 -0.2170
  783MPD2    C411601   0.437   0.539  10.043  0.3439 -0.2595  0.1535
  783MPD2    C511602   0.313   0.486  10.018 -0.0712 -0.1906 -0.0495
  783MPD2     H11603   0.349   0.718  10.320  1.5948  0.6763 -0.5531
  783MPD2    H111604   0.519   0.512   9.978  0.6746 -1.6981  1.1417
  783MPD2    H211605   0.109   0.457  10.083  0.7205 -1.0548  1.1324
  783MPD2    H311606   0.294   0.418   9.936  1.3375  0.3194 -0.7994
  783MPD2     N11607   0.569   0.688  10.188 -0.4045 -0.3344  0.4450
  783MPD2    H511608   0.561   0.762  10.257  0.4777 -0.1305  0.3261
  783MPD2    N111609   0.111   0.609  10.302  0.3634 -0.2879 -0.5462
  783MPD2    H711610   0.028   0.562  10.267  0.0434 -1.0545  1.2940
  784MPD2     C11611   3.125   1.257   0.539 -1.0326 -0.6509 -0.1162
  784MPD2    C111612   3.083   1.325   0.649 -0.3888 -0.1656  0.4109
  784MPD2    C211613   2.953   1.389   0.648  0.2760 -0.1807  0.0406
  784MPD2    C311614   2.864   1.368   0.543  0.2047  0.0027 -0.0620
  784MPD2    C411615   2.907   1.295   0.435  0.2471 -0.5280 -0.4166
  784MPD2    C511616   3.035   1.242   0.435 -0.1367 -0.1682 -0.4765
  784MPD2     H11617   2.930   1.454   0.732  0.8925 -0.3008  0.3032
  784MPD2    H111618   2.858   1.294   0.338 -0.3905 -0.9042 -0.0932
  784MPD2    H211619   3.222   1.212   0.521 -0.4773  0.7310 -0.6010
  784MPD2    H311620   3.068   1.193   0.344 -1.3669 -2.0042  0.0664
  784MPD2     N11621   2.742   1.431   0.544 -0.3795 -0.1128  0.2143
  784MPD2    H511622   2.732   1.510   0.607 -1.7863 -0.5569  0.5646
  784MPD2    N111623   3.163   1.336   0.770 -0.2371 -0.1618 -0.4785
  784MPD2    H711624   3.121   1.387   0.848 -0.3045 -1.8090  0.5575
  785MPD2     C11625   3.149   4.707  10.857  0.0282  0.6117 -0.4301
  785MPD2    C111626   3.085   0.090  10.867 -0.5811 -0.0286  0.4432
  785MPD2    C211627   2.953   0.080  10.852 -0.1740  0.6502 -0.0442
  785MPD2    C311628   2.892   4.702  10.822  0.2193 -0.3170  0.1830
  785MPD2    C411629   2.955   4.587  10.807  0.4192  0.2340 -0.3155
  785MPD2    C511630   3.087   4.593  10.821  0.2089 -0.0764  0.5594
  785MPD2     H11631   2.900   0.171  10.877 -1.9422 -0.0994 -1.0266
  785MPD2    H111632   2.906   4.491  10.791  1.9795 -0.3354 -1.7500
  785MPD2    H211633   3.256   4.699  10.875 -0.1552 -1.0114 -0.0207
  785MPD2    H311634   3.150   4.509  10.797 -1.0929 -0.8657 -0.1434
  785MPD2     N11635   2.751   4.705  10.803  0.3544 -0.1320  0.3452
  785MPD2    H511636   2.704   0.054  10.822  2.0674  1.1830 -1.4776
  785MPD2    N111637   3.150   0.216  10.890  0.4519  0.6621  0.4692
  785MPD2    H711638   3.250   0.209  10.877  0.6940  2.6594  1.3449
  786MPD2     C11639   1.738   2.595  14.855 -0.3436 -0.5787 -0.0420
  786MPD2    C111640   1.857   2.642  14.806 -0.4744 -0.6840 -0.4765
  786MPD2    C211641   1.946   2.692  14.901 -0.2771  0.4557  0.4540
  786MPD2    C311642   1.916   2.685  15.038 -1.1729  0.5489  0.1341
  786MPD2    C411643   1.801   2.625  15.085  0.6115  1.0383  0.1409
  786MPD2    C511644   1.714   2.586  14.988 -0.9718  0.2800  0.7993
  786MPD2     H11645   2.042   2.735  14.878 -0.3915 -0.1329 -1.1398
  786MPD2    H111646   1.784   2.616  15.192  0.9889 -0.0732  0.1096
  786MPD2    H211647   1.657   2.554  14.795 -3.1641  2.0012  1.9538
  786MPD2    H311648   1.626   2.537  15.028 -0.7625  0.4100  1.4295
  786MPD2     N11649   2.000   2.734  15.139 -1.0116  0.1117  0.2626
  786MPD2    H511650   1.971   2.734  15.237  0.4958 -0.9451  0.7012
  786MPD2    N111651   1.898   2.628  14.667  0.0546  0.4711  0.1010
  786MPD2    H711652   1.994   2.654  14.643 -0.0684 -1.0304 -1.9954
  787MPD2     C11653   2.407   2.293  14.710 -0.6206  0.2709  0.5642
  787MPD2    C111654   2.336   2.254  14.601 -0.1530 -0.4820 -0.1251
  787MPD2    C211655   2.333   2.119  14.568  0.3923  0.0614  0.2646
  787MPD2    C311656   2.396   2.024  14.650 -0.3293  0.6807  0.3771
  787MPD2    C411657   2.470   2.067  14.760  0.7227  0.1574 -0.1813
  787MPD2    C511658   2.477   2.200  14.788 -0.4102  0.3205  0.2387
  787MPD2     H11659   2.287   2.078  14.479  1.7326  1.2631 -0.9770
  787MPD2    H111660   2.535   2.009  14.826  0.1202 -0.8822 -0.5012
  787MPD2    H211661   2.397   2.399  14.729 -0.0690  0.3731  0.2995
  787MPD2    H311662   2.538   2.233  14.871  0.8959 -0.3414 -0.4600
  787MPD2     N11663   2.374   1.890  14.620 -0.3641 -0.0755 -0.3085
  787MPD2    H511664   2.323   1.864  14.537  2.2307 -0.5952 -1.7361
  787MPD2    N111665   2.258   2.348  14.531  0.4265  0.9031  0.3612
  787MPD2    H711666   2.275   2.444  14.561  0.6750  0.1234  2.6929
  788MPD2     C11667   4.212   0.881   0.479  0.6319 -0.1246 -0.5095
  788MPD2    C111668   4.176   0.790   0.379  0.7862 -0.3143  0.4092
  788MPD2    C211669   4.203   0.819   0.247 -0.2577 -0.3488 -0.8698
  788MPD2    C311670   4.247   0.949   0.216 -0.3031 -0.0179  0.4531
  788MPD2    C411671   4.265   1.039   0.313  0.2360 -0.5067 -0.3433
  788MPD2    C511672   4.258   1.005   0.446 -0.4940  0.4733 -0.3759
  788MPD2     H11673   4.166   0.746   0.176  1.1054  0.5186 -2.4884
  788MPD2    H111674   4.294   1.139   0.283  1.6876 -0.2679  1.8519
  788MPD2    H211675   4.193   0.850   0.581 -1.2473 -1.5599 -1.3078
  788MPD2    H311676   4.278   1.069   0.531 -2.2848 -0.2881  0.6183
  788MPD2     N11677   4.259   0.995   0.087 -0.0177 -0.2996 -0.5890
  788MPD2    H511678   4.271   1.095   0.074 -1.0171 -0.2115 -0.8554
  788MPD2    N111679   4.105   0.670   0.406 -0.2153  0.5231 -0.5200
  788MPD2    H711680   4.107   0.597   0.335 -0.1342 -1.1253  1.1938
  789MPD2     C11681   3.996   0.423  16.468 -0.3072  0.1391 -0.1565
  789MPD2    C111682   3.916   0.455  16.364 -0.6683 -0.3618 -0.5320
  789MPD2    C211683   3.794   0.510  16.393 -0.2529  0.1757 -0.0441
  789MPD2    C311684   3.739   0.503  16.523  0.2720  0.4392 -0.0071
  789MPD2    C411685   3.816   0.446  16.621  0.0062  0.1067 -0.2470
  789MPD2    C511686   3.944   0.417  16.595  0.3804 -0.0602 -0.3023
  789MPD2     H11687   3.738   0.539  16.305 -0.6958 -1.2986 -0.2429
  789MPD2    H111688   3.772   0.427  16.718  1.0981  0.0735  0.2415
  789MPD2    H211689   4.095   0.380  16.460 -1.4051 -2.4913  0.4366
  789MPD2    H311690   4.011   0.372  16.668 -1.5709 -0.6583  1.1051
  789MPD2     N11691   3.600   0.525  16.534 -0.6036 -0.3046 -0.2632
  789MPD2    H511692   3.553   0.504  16.622 -1.4421  0.7092 -0.4599
  789MPD2    N111693   3.959   0.450  16.230 -0.1863 -0.7008 -0.8905
  789MPD2    H711694   3.893   0.484  16.161 -1.7097 -1.0270  0.3958
  790MPD2     C11695   0.378   2.516  13.464  0.3140 -0.2455  1.0779
  790MPD2    C111696   0.354   2.416  13.560  0.8109  0.2759 -0.0946
  790MPD2    C211697   0.316   2.291  13.512  0.1604  0.7814 -0.1607
  790MPD2    C311698   0.306   2.267  13.380 -0.1287  0.0853 -0.4654
  790MPD2    C411699   0.336   2.362  13.287  0.5245  0.0239 -0.2483
  790MPD2    C511700   0.370   2.487  13.329 -0.1965  0.3781  0.0608
  790MPD2     H11701   0.283   2.216  13.583  2.5664  1.7286  1.9544
  790MPD2    H111702   0.318   2.350  13.181  0.4954 -0.3808 -0.1968
  790MPD2    H211703   0.402   2.617  13.495 -0.9153  0.1206  0.8361
  790MPD2    H311704   0.387   2.557  13.247  2.3143  1.8607  1.8582
  790MPD2     N11705   0.248   2.146  13.341  0.2108 -0.7727 -0.4403
  790MPD2    H511706   0.193   2.094  13.409 -0.4149  2.3975  1.4573
  790MPD2    N111707   0.369   2.460  13.698 -0.4047  0.5876  0.1342
  790MPD2    H711708   0.377   2.560  13.713 -1.7277  0.9738 -1.6569
  791MPD2     C11709   4.407   2.155  13.056 -0.1128 -1.0927  0.2423
  791MPD2    C111710   4.420   2.021  13.091  0.3086  0.0864  0.3689
  791MPD2    C211711   4.326   1.928  13.051  0.2699 -1.0308 -1.2804
  791MPD2    C311712   4.215   1.968  12.977  0.5090  0.4651  1.0207
  791MPD2    C411713   4.199   2.107  12.945  0.3418  0.6083  0.2506
  791MPD2    C511714   4.299   2.191  12.987 -0.3412  0.4021 -0.1826
  791MPD2     H11715   4.335   1.823  13.074  0.0662 -0.3566  1.8876
  791MPD2    H111716   4.111   2.151  12.900  0.0072  1.3177  1.5708
  791MPD2    H211717   4.485   2.228  13.078 -1.5333  0.9451 -1.4770
  791MPD2    H311718   4.299   2.293  12.951 -0.2884  0.0774 -1.1172
  791MPD2     N11719   4.122   1.861  12.950  0.2720 -0.2340 -0.1120
  791MPD2    H511720   4.134   1.775  13.002  1.0410 -0.2051 -0.2481
  791MPD2    N111721   4.544   1.988  13.153 -0.4422 -0.1612 -0.1866
  791MPD2    H711722   4.587   2.073  13.189  0.5118  0.1884 -2.1700
  792MPD2     C11723   0.453   2.188  11.229  0.6386 -0.2222  0.3845
  792MPD2    C111724   0.342   2.264  11.210 -0.5801 -0.6731 -0.3817
  792MPD2    C211725   0.220   2.200  11.204 -0.4483 -0.0216  0.7755
  792MPD2    C311726   0.198   2.062  11.206  0.0207 -0.1509  0.1073
  792MPD2    C411727   0.310   1.987  11.231  0.2911  0.4398  0.0108
  792MPD2    C511728   0.429   2.055  11.231  0.5891  0.0022 -0.5922
  792MPD2     H11729   0.133   2.264  11.202  0.9609  1.7059 -3.8198
  792MPD2    H111730   0.315   1.880  11.247 -1.2811  0.5050  0.9044
  792MPD2    H211731   0.554   2.216  11.258  0.7304 -0.3732  0.2146
  792MPD2    H311732   0.514   1.997  11.264 -0.0025 -0.4913  0.0526
  792MPD2     N11733   0.065   2.005  11.179 -0.2738  0.4380  0.5600
  792MPD2    H511734   0.069   1.903  11.178  0.3456  0.4715 -0.3944
  792MPD2    N111735   0.369   2.402  11.188 -0.7412  0.6091  0.0109
  792MPD2    H711736   0.465   2.434  11.186 -0.8220  0.7729 -1.0567
  793MPD2     C11737   4.086   2.442  10.617 -0.1019  0.0810  0.5255
  793MPD2    C111738   4.224   2.460  10.626  0.2611 -0.8526  1.1516
  793MPD2    C211739   4.298   2.368  10.704  1.1483 -0.1271  0.6257
  793MPD2    C311740   4.230   2.270  10.778 -0.0252 -0.2432 -0.2327
  793MPD2    C411741   4.092   2.253  10.767  0.5406 -0.2037  0.1908
  793MPD2    C511742   4.022   2.339  10.686 -0.4047 -0.0862  0.7450
  793MPD2     H11743   4.405   2.380  10.707  1.0040  1.3555 -0.1971
  793MPD2    H111744   4.034   2.177  10.819 -0.9669 -0.6028 -2.1033
  793MPD2    H211745   4.018   2.501  10.556  0.6001 -0.1849 -0.5260
  793MPD2    H311746   3.918   2.326  10.657  0.9378 -2.6360 -2.9827
  793MPD2     N11747   4.305   2.174  10.851 -0.6223 -0.9510  0.1318
  793MPD2    H511748   4.406   2.189  10.848 -0.8546  0.5067 -0.2754
  793MPD2    N111749   4.303   2.557  10.558  0.2454 -0.1015 -0.4600
  793MPD2    H711750   4.402   2.560  10.577  0.1651 -0.8740  0.0672
  794MPD2     C11751   0.102   1.679  17.226  0.5433  0.6935 -0.7906
  794MPD2    C111752   0.068   1.547  17.185  0.4383  0.9295  0.4737
  794MPD2    C211753   4.696   1.535  17.098  0.0231 -0.1370 -0.4915
  794MPD2    C311754   4.622   1.641  17.062 -0.3499  1.0470  0.2106
  794MPD2    C411755   4.651   1.766  17.102  0.1872 -0.3067  0.3137
  794MPD2    C511756   0.025   1.784  17.176  0.4979 -0.1681 -0.0025
  794MPD2     H11757   4.649   1.439  17.083  0.1150  0.2281 -3.0632
  794MPD2    H111758   4.598   1.857  17.077  1.1533  0.4533  0.9926
  794MPD2    H211759   0.188   1.706  17.286  1.4890 -2.0775 -0.8619
  794MPD2    H311760   0.051   1.881  17.217  0.6378  0.2254 -1.0357
  794MPD2     N11761   4.503   1.615  16.991 -0.1518 -0.0386  0.5226
  794MPD2    H511762   4.487   1.519  16.965  0.2139 -0.3858  1.5753
  794MPD2    N111763   0.123   1.429  17.235  0.0424  0.1858 -0.4985
  794MPD2    H711764   0.085   1.344  17.197 -1.5113  0.9062 -0.5514
  795MPD2     C11765   2.617   4.055  13.476 -0.1985 -0.5240  0.4842
  795MPD2    C111766   2.581   3.930  13.441  0.1885 -0.8247  0.3492
  795MPD2    C211767   2.675   3.830  13.446  0.2776 -0.2510 -0.3086
  795MPD2    C311768   2.808   3.853  13.478  0.3640  0.0955 -0.6068
  795MPD2    C411769   2.847   3.980  13.501  0.2722 -0.2984 -0.7708
  795MPD2    C511770   2.753   4.075  13.499  0.6459 -0.5703 -0.3188
  795MPD2     H11771   2.647   3.730  13.416  1.8388 -1.4885  2.4019
  795MPD2    H111772   2.952   4.006  13.512 -0.9457  3.0097  3.0265
  795MPD2    H211773   2.555   4.143  13.471  0.3669 -0.2725 -1.8941
  795MPD2    H311774   2.771   4.177  13.532 -1.2646 -0.4503  0.3458
  795MPD2     N11775   2.895   3.739  13.473  0.6100 -0.1254 -0.6336
  795MPD2    H511776   2.851   3.648  13.475  1.2979 -0.4320  1.3087
  795MPD2    N111777   2.445   3.906  13.406  0.3166  0.3702 -1.0016
  795MPD2    H711778   2.417   3.812  13.379 -0.7174  0.7154 -1.1148
  796MPD2     C11779   2.094   0.120  15.699 -0.0608 -0.3752 -0.5669
  796MPD2    C111780   2.171   0.190  15.785 -0.3012  0.4164 -0.6105
  796MPD2    C211781   2.162   0.330  15.791  0.2961  0.2693  0.2505
  796MPD2    C311782   2.058   0.399  15.725  0.0340 -0.6608  0.0911
  796MPD2    C411783   1.971   0.320  15.650 -0.5194  0.3088 -0.0592
  796MPD2    C511784   1.995   0.186  15.633 -0.1320 -0.8944 -0.9888
  796MPD2     H11785   2.230   0.391  15.849 -0.9400  2.7928 -0.9325
  796MPD2    H111786   1.894   0.371  15.593 -1.7775 -0.6966  0.7374
  796MPD2    H211787   2.100   0.012  15.684 -0.1382 -0.9673  3.6386
  796MPD2    H311788   1.931   0.134  15.563 -1.4758 -1.6193  0.7572
  796MPD2     N11789   2.047   0.538  15.745  0.3653  0.0173  0.6202
  796MPD2    H511790   2.118   0.587  15.800  1.1874 -2.0334  1.3885
  796MPD2    N111791   2.263   0.114  15.861 -0.2903 -0.0199  0.1048
  796MPD2    H711792   2.248   0.015  15.843 -2.0135  0.5022 -1.2717
  797MPD2     C11793   2.951   4.581  17.399  0.2369 -0.4156  0.4640
  797MPD2    C111794   2.998   4.700  17.456 -0.1646  0.2855  0.0866
  797MPD2    C211795   2.937   0.075  17.398  0.0823 -0.0095 -0.1510
  797MPD2    C311796   2.840   0.065  17.302 -0.1196  0.2556 -0.5793
  797MPD2    C411797   2.789   4.682  17.255 -0.2678  0.5487 -0.6006
  797MPD2    C511798   2.846   4.571  17.312 -0.0054  0.7067 -0.0774
  797MPD2     H11799   2.976   0.172  17.428  0.2217 -0.1453  0.1089
  797MPD2    H111800   2.713   4.670  17.178  0.2842 -0.8377 -0.9292
  797MPD2    H211801   2.997   4.487  17.428  0.7472 -0.2465  0.2214
  797MPD2    H311802   2.821   4.470  17.280 -0.6332  0.3828  1.4179
  797MPD2     N11803   2.808   0.191  17.243 -1.1602 -0.5434 -0.3838
  797MPD2    H511804   2.847   0.272  17.291 -1.9827  0.3411 -1.1943
  797MPD2    N111805   3.105   4.710  17.544  0.0483 -0.1988  0.1132
  797MPD2    H711806   3.109   0.065  17.581 -0.5016 -0.5169  0.9734
  798MPD2     C11807   3.301   0.666  17.389 -0.2524 -0.0016  0.3003
  798MPD2    C111808   3.210   0.568  17.369 -0.3880  0.6236  0.5088
  798MPD2    C211809   3.215   0.464  17.458  0.5200 -0.8192  0.1659
  798MPD2    C311810   3.329   0.447  17.539 -0.1978  0.0348  0.9812
  798MPD2    C411811   3.429   0.544  17.551 -0.3532 -0.4998 -0.5203
  798MPD2    C511812   3.404   0.659  17.480 -0.3445  0.9400  0.4064
  798MPD2     H11813   3.152   0.376  17.448 -0.6920  0.0223  0.3650
  798MPD2    H111814   3.516   0.535  17.614 -0.4033  0.0846 -0.3709
  798MPD2    H211815   3.298   0.757  17.330  1.5194 -0.5709 -0.6729
  798MPD2    H311816   3.475   0.741  17.485  1.4584 -0.5524 -0.5720
  798MPD2     N11817   3.340   0.322  17.605  0.3935 -0.1253  0.4532
  798MPD2    H511818   3.261   0.260  17.597  1.4703 -1.7113  1.9376
  798MPD2    N111819   3.115   0.581  17.266 -0.1896  0.1139  0.6061
  798MPD2    H711820   3.126   0.647  17.189 -1.1775 -2.0643 -1.4172
  799MPD2     C11821   1.571   1.380  14.832 -0.6359  0.6659  0.3040
  799MPD2    C111822   1.468   1.316  14.758 -0.4308 -1.0907 -0.0562
  799MPD2    C211823   1.361   1.393  14.708  0.1200  0.0840 -0.4222
  799MPD2    C311824   1.372   1.532  14.711  0.5677  0.4646  0.0259
  799MPD2    C411825   1.470   1.594  14.793  0.3046  0.3994  0.3217
  799MPD2    C511826   1.570   1.518  14.852  0.8634 -0.0495  0.1397
  799MPD2     H11827   1.281   1.353  14.646 -0.7105 -1.9482  1.9826
  799MPD2    H111828   1.484   1.701  14.782  0.0479  0.4831  0.8253
  799MPD2    H211829   1.664   1.333  14.861 -2.4313 -1.5885  2.4121
  799MPD2    H311830   1.652   1.570  14.899  1.3186  0.4188 -1.1732
  799MPD2     N11831   1.282   1.613  14.637  0.3866 -0.1473 -0.0810
  799MPD2    H511832   1.305   1.711  14.641 -1.6146  0.2382  1.9684
  799MPD2    N111833   1.462   1.175  14.723 -0.8882  0.8314  0.7417
  799MPD2    H711834   1.384   1.131  14.675 -0.3050  0.4126  0.1727
  800MPD2     C11835   2.581   2.112  14.058 -0.2126  0.1168  0.1647
  800MPD2    C111836   2.683   2.211  14.052 -0.5104  0.6996  0.2277
  800MPD2    C211837   2.708   2.267  13.928 -0.1304 -0.1351 -0.4061
  800MPD2    C311838   2.619   2.243  13.824  0.0430 -0.0280  0.1612
  800MPD2    C411839   2.532   2.137  13.831 -0.0194 -0.1615  0.0127
  800MPD2    C511840   2.518   2.062  13.947 -0.2651  0.0619  0.0264
  800MPD2     H11841   2.795   2.330  13.912 -1.4486  1.1184 -2.5118
  800MPD2    H111842   2.467   2.118  13.746 -1.8126  1.9232  0.8885
  800MPD2    H211843   2.558   2.067  14.153  0.0858  1.2054  0.7578
  800MPD2    H311844   2.435   1.995  13.961  2.0227 -2.6218  0.5894
  800MPD2     N11845   2.611   2.350  13.728  0.3222  0.2758 -0.3217
  800MPD2    H511846   2.679   2.426  13.725  1.9655 -1.2132 -0.5608
  800MPD2    N111847   2.750   2.246  14.168 -0.2344  0.5330  0.4582
  800MPD2    H711848   2.715   2.222  14.260 -1.7620 -0.6640 -0.4447
  801MPD2     C11849   2.625   2.887  14.148  0.3806 -0.6070  0.1299
  801MPD2    C111850   2.683   2.858  14.271  0.4251  0.2317 -0.6213
  801MPD2    C211851   2.678   2.963  14.368 -0.0036  0.3867  0.3877
  801MPD2    C311852   2.600   3.083  14.345  0.4738  0.4272 -0.0412
  801MPD2    C411853   2.533   3.099  14.222 -0.6416 -0.2884 -0.3603
  801MPD2    C511854   2.552   3.008  14.120 -0.2769 -0.6801 -0.0838
  801MPD2     H11855   2.717   2.948  14.468  1.5835  0.4355 -0.2244
  801MPD2    H111856   2.462   3.179  14.206 -0.2209  0.1222 -0.1622
  801MPD2    H211857   2.632   2.802  14.081 -2.5203  0.0949 -1.0643
  801MPD2    H311858   2.505   3.017  14.023 -0.1701  1.0454  0.0318
  801MPD2     N11859   2.575   3.184  14.442  0.5573  0.4424  0.3073
  801MPD2    H511860   2.511   3.254  14.407  1.2910  0.8486 -0.1975
  801MPD2    N111861   2.763   2.741  14.284  0.5635  0.4673 -0.0249
  801MPD2    H711862   2.762   2.673  14.209 -1.9153  2.0194 -1.3927
  802MPD2     C11863   1.403   3.792  16.994  0.1096 -1.0692 -0.3142
  802MPD2    C111864   1.505   3.786  17.088 -0.1905 -0.3409  0.6217
  802MPD2    C211865   1.589   3.674  17.091 -0.8316  0.0562  1.2008
  802MPD2    C311866   1.581   3.581  16.995 -0.6728 -0.5688 -0.4879
  802MPD2    C411867   1.478   3.588  16.904  0.1701 -0.3970  0.3582
  802MPD2    C511868   1.385   3.687  16.911  0.3889 -0.4722 -0.1093
  802MPD2     H11869   1.649   3.655  17.180  0.2131 -0.9649  0.2689
  802MPD2    H111870   1.465   3.515  16.824 -1.3187  0.1163  0.1307
  802MPD2    H211871   1.320   3.861  17.007 -1.3368 -2.4740 -2.1580
  802MPD2    H311872   1.291   3.683  16.858  0.3238 -0.8087  0.0320
  802MPD2     N11873   1.672   3.472  17.003  0.1046  0.0590 -0.5871
  802MPD2    H511874   1.740   3.473  17.079 -0.6368  0.7616  0.0719
  802MPD2    N111875   1.517   3.874  17.195  0.9295  0.1461 -0.8085
  802MPD2    H711876   1.597   3.860  17.257  0.7929 -0.5805 -0.7940
  803MPD2     C11877   2.503   2.050  11.956 -0.1317  0.0302  0.5190
  803MPD2    C111878   2.635   2.112  11.948 -0.1690  0.0074 -0.1203
  803MPD2    C211879   2.710   2.114  12.064 -0.5897  0.1379 -0.7350
  803MPD2    C311880   2.659   2.058  12.178  0.0547  0.2325 -0.4044
  803MPD2    C411881   2.525   2.015  12.187  0.2995 -0.6721 -0.1835
  803MPD2    C511882   2.452   2.008  12.077  0.1801 -0.3322 -0.6652
  803MPD2     H11883   2.809   2.155  12.049  0.0541 -1.1255  0.0474
  803MPD2    H111884   2.488   1.963  12.275  2.1358 -1.7594 -0.0468
  803MPD2    H211885   2.446   2.046  11.864 -0.0862  1.8162  0.4026
  803MPD2    H311886   2.354   1.962  12.078  0.8145 -1.7152 -1.0008
  803MPD2     N11887   2.741   2.035  12.292 -0.0074  0.0907 -0.3716
  803MPD2    H511888   2.684   2.005  12.371  1.1442 -1.3638 -0.0871
  803MPD2    N111889   2.694   2.164  11.826  0.0549 -0.0649  0.6712
  803MPD2    H711890   2.789   2.200  11.833  0.5243 -0.8922 -1.5274
  804MPD2     C11891   2.590   3.312  16.890 -0.2121 -0.3959 -0.0292
  804MPD2    C111892   2.573   3.289  17.026 -0.3591  0.1146  0.4314
  804MPD2    C211893   2.624   3.375  17.115  0.5670 -0.2331  0.3154
  804MPD2    C311894   2.692   3.484  17.074  0.9682  0.6461 -0.5908
  804MPD2    C411895   2.714   3.504  16.938 -0.3838  0.0947  0.5667
  804MPD2    C511896   2.661   3.416  16.847 -0.1187 -0.2174  0.4605
  804MPD2     H11897   2.628   3.356  17.221 -0.8592  0.3714  0.4815
  804MPD2    H111898   2.783   3.582  16.909  0.7912 -0.5720  1.5400
  804MPD2    H211899   2.536   3.251  16.819  0.1743  2.9637 -3.1703
  804MPD2    H311900   2.666   3.442  16.742 -1.4390 -1.1367  0.1716
  804MPD2     N11901   2.739   3.566  17.181  0.1940  0.0331  0.6485
  804MPD2    H511902   2.703   3.533  17.270  0.6357  0.8515  1.1249
  804MPD2    N111903   2.498   3.177  17.076  0.0573  0.2376 -0.3092
  804MPD2    H711904   2.510   3.154  17.174 -2.0917 -2.2240 -0.6458
  805MPD2     C11905   1.941   1.924  15.190  0.1526  0.1166 -0.2837
  805MPD2    C111906   1.927   1.799  15.255 -0.4255 -0.9297  0.4985
  805MPD2    C211907   2.030   1.768  15.340 -0.5534  1.1255  0.1091
  805MPD2    C311908   2.147   1.831  15.351  0.0340  0.8288  0.0061
  805MPD2    C411909   2.160   1.949  15.283 -0.2691 -0.4532  0.9663
  805MPD2    C511910   2.056   2.001  15.214  0.0210 -0.0461  0.1889
  805MPD2     H11911   2.021   1.686  15.410  0.2661  1.6352  0.8195
  805MPD2    H111912   2.247   2.012  15.296 -1.4700  1.6373 -1.2282
  805MPD2    H211913   1.867   1.964  15.123  1.1039 -0.0139 -1.4178
  805MPD2    H311914   2.070   2.100  15.172  2.0199 -0.5853 -0.4463
  805MPD2     N11915   2.249   1.798  15.441  0.5992 -0.5182 -0.0421
  805MPD2    H511916   2.326   1.863  15.427 -0.5332  0.7799 -0.2656
  805MPD2    N111917   1.809   1.713  15.243 -0.3460 -0.1292 -0.7840
  805MPD2    H711918   1.808   1.624  15.292  0.3506  1.5459  2.3059
  806MPD2     C11919   1.920   1.079   0.198 -0.3490  0.4892 -0.0863
  806MPD2    C111920   1.966   1.200   0.238 -0.6191  0.5433 -0.3549
  806MPD2    C211921   2.045   1.277   0.152 -0.2650 -0.8931 -0.4518
  806MPD2    C311922   2.075   1.233   0.020  0.3105 -0.1545  0.4892
  806MPD2    C411923   2.022   1.111  17.730 -0.2404 -0.4725 -0.1223
  806MPD2    C511924   1.950   1.036   0.069  0.5175 -0.3103  0.2717
  806MPD2     H11925   2.095   1.367   0.186  2.7609 -2.7393  0.0251
  806MPD2    H111926   2.039   1.065  17.633  1.1638  0.0605 -0.1367
  806MPD2    H211927   1.871   1.007   0.261  1.7790 -0.2663  0.7039
  806MPD2    H311928   1.903   0.941   0.047 -0.1426  0.5715 -2.0066
  806MPD2     N11929   2.142   1.322  17.684  0.3419 -0.2910  0.0142
  806MPD2    H511930   2.171   1.415  17.713 -1.0130  0.4306 -0.9254
  806MPD2    N111931   1.945   1.226   0.375 -0.4014 -0.1559 -0.4108
  806MPD2    H711932   1.922   1.149   0.437  0.1951 -0.8817 -1.0990
  807MPD2     C11933   1.681   0.851   0.892 -0.3540  0.2010  0.6974
  807MPD2    C111934   1.790   0.855   0.806  0.1285 -0.2672  0.5932
  807MPD2    C211935   1.856   0.733   0.770 -0.4622  1.3545  0.3700
  807MPD2    C311936   1.815   0.614   0.827  0.0665  0.3264  0.0010
  807MPD2    C411937   1.712   0.616   0.921 -0.1949  0.3871  0.0265
  807MPD2    C511938   1.647   0.733   0.956 -0.6124 -0.4131  0.6820
  807MPD2     H11939   1.950   0.736   0.717  0.2401 -1.1947  1.4503
  807MPD2    H111940   1.671   0.526   0.965  1.3535  0.1121  0.9156
  807MPD2    H211941   1.620   0.936   0.918  1.1791  1.3075  0.6945
  807MPD2    H311942   1.566   0.724   1.028 -0.4701  0.8392  1.0091
  807MPD2     N11943   1.882   0.498   0.780  0.1376  0.6484 -0.7325
  807MPD2    H511944   1.957   0.517   0.713  0.6972  2.8986  0.5242
  807MPD2    N111945   1.847   0.975   0.759  0.5798 -0.3604  0.1084
  807MPD2    H711946   1.902   0.972   0.674  0.3839 -0.2119 -0.0241
  808MPD2     C11947   1.807   3.142   9.354 -0.4407  0.0689  0.7019
  808MPD2    C111948   1.887   3.120   9.456  0.2480 -0.3591  0.1666
  808MPD2    C211949   1.940   3.230   9.517  0.2718 -0.0706 -0.2758
  808MPD2    C311950   1.917   3.356   9.465  0.3963 -0.0461  0.0526
  808MPD2    C411951   1.834   3.371   9.359  0.3368  0.1627 -0.3961
  808MPD2    C511952   1.781   3.261   9.302  0.3528 -0.2614 -0.4434
  808MPD2     H11953   2.021   3.232   9.589  1.0218 -2.8262 -1.0569
  808MPD2    H111954   1.805   3.472   9.331  0.0450  0.6410  1.6153
  808MPD2    H211955   1.753   3.064   9.303  0.1054 -0.9417  1.6583
  808MPD2    H311956   1.700   3.273   9.231  0.9205  3.3652 -0.4705
  808MPD2     N11957   1.977   3.480   9.510  0.2518  0.1846  0.1379
  808MPD2    H511958   1.962   3.567   9.459  0.7484 -0.4170 -1.0265
  808MPD2    N111959   1.903   2.994   9.517 -0.9290 -0.6159  0.2483
  808MPD2    H711960   1.961   2.985   9.600 -0.5426 -0.3844  0.0004
  809MPD2     C11961   2.252   3.883   8.837 -0.6896  0.0150  0.5696
  809MPD2    C111962   2.331   3.955   8.927  0.0549  1.1238  0.5758
  809MPD2    C211963   2.311   3.926   9.059  0.2381  0.5333  0.5936
  809MPD2    C311964   2.208   3.844   9.102  0.1337 -0.4631 -0.6742
  809MPD2    C411965   2.140   3.766   9.014  0.3485  0.1806 -0.2392
  809MPD2    C511966   2.162   3.789   8.883  0.0620 -0.6121 -0.3092
  809MPD2     H11967   2.366   3.985   9.131  1.0975 -0.1886  0.5230
  809MPD2    H111968   2.073   3.689   9.050  1.9370 -0.5570  1.1249
  809MPD2    H211969   2.264   3.894   8.730  0.1398  3.1934  0.9684
  809MPD2    H311970   2.106   3.735   8.807 -2.0660  1.8653 -0.5064
  809MPD2     N11971   2.183   3.818   9.237  0.1306 -0.3480  0.2395
  809MPD2    H511972   2.118   3.745   9.265  0.5782 -1.7229 -2.3017
  809MPD2    N111973   2.436   4.053   8.893  0.5380 -0.2051 -0.3141
  809MPD2    H711974   2.501   4.081   8.966 -0.6431  0.7888  0.3411
  810MPD2     C11975   1.891   2.459  10.633 -0.2193  0.6123 -0.0260
  810MPD2    C111976   1.852   2.369  10.722  0.6158 -0.4103 -0.0502
  810MPD2    C211977   1.814   2.412  10.849 -0.5330 -0.0442 -0.2226
  810MPD2    C311978   1.835   2.536  10.889 -0.0641 -0.6455  0.8467
  810MPD2    C411979   1.877   2.628  10.793 -0.2343  0.0176  0.1076
  810MPD2    C511980   1.912   2.589  10.666  0.5194  0.2828  0.4555
  810MPD2     H11981   1.771   2.339  10.917  1.9724  0.3261  1.7651
  810MPD2    H111982   1.891   2.730  10.828  1.9762  0.2087 -1.3148
  810MPD2    H211983   1.915   2.431  10.531 -0.5767 -1.4851  0.4593
  810MPD2    H311984   1.954   2.670  10.608  0.0102  0.9606  1.0373
  810MPD2     N11985   1.785   2.589  11.017 -0.6395  0.5705 -0.2982
  810MPD2    H511986   1.786   2.690  11.031 -1.1710  0.7090 -1.2950
  810MPD2    N111987   1.830   2.241  10.672 -1.0489 -0.3125 -0.5128
  810MPD2    H711988   1.817   2.239  10.571  2.7189 -2.0923 -0.9674
  811MPD2     C11989   1.162   1.998  10.246 -0.6006  0.8482  0.6742
  811MPD2    C111990   1.281   2.060  10.270 -0.4689 -0.7679 -0.0484
  811MPD2    C211991   1.301   2.189  10.223 -0.4898  1.0828 -0.4092
  811MPD2    C311992   1.205   2.254  10.143  0.1028 -0.1198  0.3589
  811MPD2    C411993   1.085   2.194  10.117  0.1857 -0.0132  0.2704
  811MPD2    C511994   1.069   2.068  10.174  0.3877  0.2014  0.0505
  811MPD2     H11995   1.395   2.239  10.245 -1.3402  2.0211  1.1014
  811MPD2    H111996   1.006   2.242  10.060 -0.0121 -0.7151 -0.0415
  811MPD2    H211997   1.130   1.901  10.281  1.9105  0.3268  1.4634
  811MPD2    H311998   0.984   2.008  10.143  1.2000 -2.0890  2.2617
  811MPD2     N11999   1.243   2.383  10.100  0.1192  0.0580 -0.2733
  811MPD2    H512000   1.338   2.413  10.118 -0.1190  0.8462 -0.3486
  811MPD2    N112001   1.372   1.990  10.353 -0.1718  0.8049 -0.6414
  811MPD2    H712002   1.332   1.910  10.401 -1.2769  0.5284 -2.0086
  812MPD2     C12003   0.676   1.844  12.060  0.1211 -0.4456  0.0724
  812MPD2    C112004   0.704   1.952  12.131  0.8758  0.0490  1.3268
  812MPD2    C212005   0.707   1.941  12.270 -0.0798 -0.4724 -0.7276
  812MPD2    C312006   0.682   1.827  12.339  1.0570  0.0810 -0.3128
  812MPD2    C412007   0.660   1.713  12.263 -0.3940  0.1608 -0.1107
  812MPD2    C512008   0.663   1.729  12.126  0.6603 -0.0127  0.4722
  812MPD2     H12009   0.708   2.037  12.321  1.9678 -0.6058 -0.5191
  812MPD2    H112010   0.652   1.622  12.322  0.9793 -0.0989 -0.3134
  812MPD2    H212011   0.664   1.839  11.953 -1.5862  0.7474  0.2106
  812MPD2    H312012   0.649   1.638  12.068  1.1700  0.4564 -0.3738
  812MPD2     N12013   0.666   1.826  12.479  0.1667 -0.5254 -0.9081
  812MPD2    H512014   0.703   1.905  12.532 -1.1927 -0.4752 -0.0420
  812MPD2    N112015   0.721   2.072  12.058  1.0498  0.0534 -0.7505
  812MPD2    H712016   0.680   2.074  11.965 -2.4349  0.5392  0.7822
  813MPD2     C12017   4.690   3.747  12.589 -0.1533 -0.4033 -0.6056
  813MPD2    C112018   4.676   3.878  12.591 -0.4617 -0.0248  0.8551
  813MPD2    C212019   4.564   3.935  12.648 -0.1149 -0.0534  0.1374
  813MPD2    C312020   4.470   3.855  12.695  0.7990  0.7450 -0.3511
  813MPD2    C412021   4.486   3.723  12.697  0.1562  1.1572 -0.4452
  813MPD2    C512022   4.593   3.662  12.632  0.7423  0.3607 -0.4137
  813MPD2     H12023   4.548   4.042  12.652 -0.8835 -0.1858  0.5411
  813MPD2    H112024   4.420   3.650  12.743  1.9763  0.4261  1.0269
  813MPD2    H212025   0.047   3.704  12.562  0.8399 -0.0943  2.3753
  813MPD2    H312026   4.611   3.555  12.632 -1.2566  0.0347  1.8414
  813MPD2     N12027   4.373   3.921  12.777  0.5802 -0.2313  0.2367
  813MPD2    H512028   4.391   4.020  12.783 -0.2395  0.0076 -1.3677
  813MPD2    N112029   0.045   3.952  12.542  1.0983  0.1251  0.5958
  813MPD2    H712030   0.124   3.893  12.515  0.2504 -0.7791  0.0850
  814MPD2     C12031   4.648   0.084  12.240 -0.5992 -0.2400 -0.5600
  814MPD2    C112032   0.007   0.155  12.167 -0.1792  0.7726  0.2953
  814MPD2    C212033   0.085   0.244  12.238 -0.5809  0.7371 -0.1645
  814MPD2    C312034   0.069   0.252  12.375  0.1661  0.5343 -0.3218
  814MPD2    C412035   4.710   0.179  12.444  0.5708  0.6742  0.4850
  814MPD2    C512036   4.626   0.100  12.372  0.4771  0.0896  0.8974
  814MPD2     H12037   0.168   0.294  12.190 -0.6481  1.3278  0.3262
  814MPD2    H112038   4.709   0.194  12.551 -2.1074 -0.1471  0.5675
  814MPD2    H212039   4.569   0.029  12.189 -1.3736 -0.6471  1.0724
  814MPD2    H312040   4.543   0.047  12.418  1.4675 -2.6662 -0.4244
  814MPD2     N12041   0.139   0.337  12.462 -0.0833 -0.2634 -0.2691
  814MPD2    H512042   0.101   0.350  12.555 -1.2497  0.2670 -0.8208
  814MPD2    N112043   0.025   0.143  12.028  0.0414  0.0047  0.6705
  814MPD2    H712044   0.097   0.192  11.977  0.0531 -2.2558 -1.4888
  815MPD2     C12045   0.992   4.043  11.725 -0.7552  0.1841  0.0199
  815MPD2    C112046   0.999   3.912  11.759 -0.1989  0.1842 -0.4744
  815MPD2    C212047   0.883   3.845  11.783  0.3811 -0.0382 -0.6409
  815MPD2    C312048   0.758   3.903  11.748  0.0551  0.1151 -0.0107
  815MPD2    C412049   0.753   4.034  11.698  0.0439 -0.5929  0.0111
  815MPD2    C512050   0.875   4.101  11.696  0.4976 -1.1743 -0.3506
  815MPD2     H12051   0.886   3.742  11.815  1.0393 -0.0140 -0.6372
  815MPD2    H112052   0.670   4.102  11.685 -1.1971 -2.0405  0.3931
  815MPD2    H212053   1.074   4.112  11.714 -1.1701  0.8655  1.1713
  815MPD2    H312054   0.870   4.203  11.659  2.4394 -1.0075 -0.1066
  815MPD2     N12055   0.644   3.822  11.767 -0.1718 -0.1482  0.3132
  815MPD2    H512056   0.666   3.728  11.795  0.3796  0.1974  1.0426
  815MPD2    N112057   1.128   3.849  11.763  0.3045  0.6778  0.1994
  815MPD2    H712058   1.202   3.899  11.714  0.9738 -0.6037 -0.0831
  816MPD2     C12059   1.237   3.001  17.159 -0.6687  0.5729 -0.2569
  816MPD2    C112060   1.197   2.948  17.037 -0.3843  0.4907 -0.5776
  816MPD2    C212061   1.287   2.954  16.924  0.3646 -0.7954 -0.0474
  816MPD2    C312062   1.410   3.000  16.956 -0.2388  0.2059 -0.3225
  816MPD2    C412063   1.446   3.054  17.082 -0.1142  0.7991 -1.0935
  816MPD2    C512064   1.363   3.057  17.181  0.0381 -0.5166 -0.6363
  816MPD2     H12065   1.255   2.907  16.831 -1.7149 -0.4769  0.5052
  816MPD2    H112066   1.550   3.075  17.099 -0.6084  1.0544  1.5847
  816MPD2    H212067   1.170   3.003  17.244  0.0054  0.6722  0.2753
  816MPD2    H312068   1.395   3.080  17.282 -3.4439  2.1803 -0.1414
  816MPD2     N12069   1.518   2.989  16.857 -0.2052  0.0130 -0.6242
  816MPD2    H512070   1.494   2.968  16.761  1.3613 -0.0655 -1.0029
  816MPD2    N112071   1.063   2.903  17.030 -0.2563  1.0231 -0.0511
  816MPD2    H712072   1.016   2.890  17.118  0.1658 -3.5698 -0.5212
  817MPD2     C12073   0.639   0.033   9.820  0.3465 -1.0794  0.6796
  817MPD2    C112074   0.767   0.029   9.769  0.8383 -0.8154  0.6970
  817MPD2    C212075   0.850   0.144   9.790 -0.4186 -0.2814  0.2071
  817MPD2    C312076   0.805   0.255   9.852  0.3302  0.0831 -0.9770
  817MPD2    C412077   0.674   0.257   9.898  0.4541 -0.0789  0.2394
  817MPD2    C512078   0.593   0.151   9.878 -0.1139 -0.2262  0.0920
  817MPD2     H12079   0.946   0.143   9.740  0.3030 -0.9879  1.6269
  817MPD2    H112080   0.625   0.339   9.949  1.1987  0.9383 -0.6981
  817MPD2    H212081   0.569   4.690   9.819 -0.8106 -0.0688 -2.0547
  817MPD2    H312082   0.492   0.148   9.918 -0.6709 -2.1395 -1.4561
  817MPD2     N12083   0.887   0.370   9.882  0.1718  0.7260  0.0592
  817MPD2    H512084   0.851   0.447   9.938  0.6123  0.3497  0.8417
  817MPD2    N112085   0.818   4.658   9.701 -0.2813 -0.9021 -0.1929
  817MPD2    H712086   0.908   4.675   9.656 -0.7129  1.5698 -0.1385
  818MPD2     C12087   4.026   0.420   9.541  0.4484 -0.7803  0.1211
  818MPD2    C112088   3.947   0.319   9.597  0.4174 -0.0383 -0.1219
  818MPD2    C212089   4.008   0.206   9.651  0.8471  0.0704  0.4685
  818MPD2    C312090   4.144   0.181   9.649  0.1419 -0.0392  0.4634
  818MPD2    C412091   4.221   0.285   9.599 -0.1810 -0.5954 -0.1087
  818MPD2    C512092   4.163   0.404   9.551  0.8336  0.4496  0.1400
  818MPD2     H12093   3.946   0.131   9.699  0.6505  0.1760  0.3779
  818MPD2    H112094   4.328   0.272   9.589 -0.3094 -0.2282 -2.0020
  818MPD2    H212095   4.001   0.513   9.491  2.1385  0.2246  1.1224
  818MPD2    H312096   4.229   0.477   9.504  1.7670  0.7659  1.9263
  818MPD2     N12097   4.188   0.052   9.682  0.1590  0.1638 -0.0385
  818MPD2    H512098   4.121   4.726   9.722 -0.7507  0.0077 -1.7950
  818MPD2    N112099   3.811   0.320   9.590 -0.0370  0.2198 -0.1650
  818MPD2    H712100   3.763   0.240   9.628 -2.0965  1.2756 -0.5617
  819MPD2     C12101   2.265   1.089  15.201 -0.6702 -0.4141 -0.5842
  819MPD2    C112102   2.284   0.994  15.306 -0.1695 -1.1400  0.3759
  819MPD2    C212103   2.400   0.999  15.393  0.0884  0.0531 -0.5285
  819MPD2    C312104   2.493   1.094  15.368 -0.1991 -0.6822  0.0645
  819MPD2    C412105   2.467   1.195  15.278  0.3497  0.5996 -0.5091
  819MPD2    C512106   2.358   1.187  15.195  0.1325  0.6337 -0.0979
  819MPD2     H12107   2.416   0.927  15.472 -1.6355  1.3557  0.9997
  819MPD2    H112108   2.522   1.288  15.270  2.0246 -0.5352 -2.2568
  819MPD2    H212109   2.180   1.093  15.134  0.0995 -0.8692 -1.5807
  819MPD2    H312110   2.346   1.267  15.122 -1.6554  0.4456 -0.0085
  819MPD2     N12111   2.614   1.082  15.441 -0.0873 -0.3151 -0.0138
  819MPD2    H512112   2.613   1.017  15.519 -0.2808 -0.7863 -0.4120
  819MPD2    N112113   2.184   0.901  15.318 -0.2026 -0.3270  0.8128
  819MPD2    H712114   2.112   0.909  15.246  1.1359  1.4231 -0.3126
  820MPD2     C12115   1.356   1.009  15.069 -0.0126  0.1605  0.8335
  820MPD2    C112116   1.456   1.070  15.146 -0.3456  0.0586 -0.0269
  820MPD2    C212117   1.540   0.992  15.220 -0.4948 -0.0883  0.1562
  820MPD2    C312118   1.538   0.851  15.202 -0.1764  0.3084  0.0726
  820MPD2    C412119   1.454   0.800  15.108 -0.4223  0.1140 -0.9821
  820MPD2    C512120   1.351   0.876  15.061 -0.4506 -0.2524  0.0245
  820MPD2     H12121   1.606   1.036  15.294  0.5127 -0.4836 -0.5172
  820MPD2    H112122   1.448   0.693  15.090 -2.6247 -0.3771  2.7090
  820MPD2    H212123   1.284   1.065  15.011 -1.4490 -3.6423 -1.0562
  820MPD2    H312124   1.292   0.826  14.985 -1.9559 -2.1201  2.4314
  820MPD2     N12125   1.634   0.762  15.254  1.0093  0.0861  0.1861
  820MPD2    H512126   1.635   0.665  15.225  2.5155  0.6623 -1.6379
  820MPD2    N112127   1.454   1.208  15.147  0.4632 -0.2266 -0.1715
  820MPD2    H712128   1.379   1.254  15.094 -2.4327 -1.9354  2.4627
  821MPD2     C12129   3.067   2.465  13.293  0.5438  0.4742  0.3156
  821MPD2    C112130   3.019   2.592  13.275 -0.1662 -0.1495  0.1677
  821MPD2    C212131   3.106   2.700  13.246 -0.4145  0.3106 -0.5779
  821MPD2    C312132   3.244   2.687  13.239 -0.1219 -0.4971  0.5888
  821MPD2    C412133   3.293   2.559  13.269 -0.8433 -0.2755  0.4471
  821MPD2    C512134   3.203   2.450  13.282  0.7198 -0.2674 -0.1409
  821MPD2     H12135   3.054   2.795  13.255 -0.4287  0.2140  0.3575
  821MPD2    H112136   3.400   2.541  13.265 -0.6269  1.2429 -0.6498
  821MPD2    H212137   2.998   2.382  13.305  1.6492 -0.4278  0.3966
  821MPD2    H312138   3.240   2.349  13.283 -0.4126 -0.6752  0.8519
  821MPD2     N12139   3.334   2.795  13.227 -0.2843 -0.1211  0.4461
  821MPD2    H512140   3.431   2.772  13.241  0.4868  1.3489 -2.4028
  821MPD2    N112141   2.886   2.617  13.296 -0.0256  0.5267  1.0089
  821MPD2    H712142   2.857   2.712  13.318  0.5110  0.5214  1.7417
  822MPD2     C12143   3.409   2.646  15.715 -0.2540  0.2438  0.3617
  822MPD2    C112144   3.361   2.607  15.841  0.5685  0.4257  0.1535
  822MPD2    C212145   3.283   2.697  15.904  0.4045 -0.8032 -0.6130
  822MPD2    C312146   3.244   2.815  15.843 -0.5541  0.0580  0.2113
  822MPD2    C412147   3.291   2.854  15.724  0.5417 -0.0298 -0.1726
  822MPD2    C512148   3.373   2.770  15.656  0.0764 -0.1719  0.0594
  822MPD2     H12149   3.256   2.673  16.006 -0.3486  0.0297 -0.6175
  822MPD2    H112150   3.253   2.941  15.672  1.1074  1.1747  1.4197
  822MPD2    H212151   3.474   2.581  15.658 -0.9282  0.8813 -1.1389
  822MPD2    H312152   3.407   2.797  15.557 -2.7289 -2.4040 -1.5007
  822MPD2     N12153   3.174   2.896  15.937  0.6878 -0.6212 -0.6524
  822MPD2    H512154   3.136   2.851  16.020 -3.3726  0.9836 -1.6535
  822MPD2    N112155   3.405   2.497  15.915  0.2151 -0.2236 -0.3941
  822MPD2    H712156   3.389   2.501  16.015  1.8895  1.3792 -0.1852
  823MPD2     C12157   2.812   3.098  16.669 -0.2937  0.4436 -0.3681
  823MPD2    C112158   2.857   3.021  16.568  0.2145 -0.0867 -0.4327
  823MPD2    C212159   2.887   2.894  16.601 -0.3723 -0.4689  0.2674
  823MPD2    C312160   2.863   2.837  16.724 -0.1098 -0.0353  0.6219
  823MPD2    C412161   2.801   2.916  16.820  0.1256  0.2828 -0.7252
  823MPD2    C512162   2.786   3.044  16.792 -0.0846  0.1935 -0.1581
  823MPD2     H12163   2.930   2.832  16.524 -0.3712 -0.4883  0.2836
  823MPD2    H112164   2.783   2.880  16.921 -0.2210 -0.6712 -1.1202
  823MPD2    H212165   2.782   3.202  16.659 -1.5700  0.0092 -1.0872
  823MPD2    H312166   2.740   3.106  16.868  1.0988  2.3624 -1.2162
  823MPD2     N12167   2.909   2.709  16.762  0.0244 -0.3062  0.3015
  823MPD2    H512168   2.900   2.685  16.861 -1.3718  0.9757  0.4676
  823MPD2    N112169   2.886   3.083  16.443 -0.3300 -1.0848  0.1026
  823MPD2    H712170   2.880   3.184  16.439 -0.8608 -1.0552  1.6707
  824MPD2     C12171   3.827   1.747  15.906  1.1612  0.2427  0.1924
  824MPD2    C112172   3.809   1.864  15.831  0.1768  0.1198  0.0221
  824MPD2    C212173   3.859   1.871  15.703 -0.1632 -0.3093 -0.6299
  824MPD2    C312174   3.933   1.765  15.658 -0.0813 -0.2209 -0.1430
  824MPD2    C412175   3.937   1.650  15.731 -0.2299  0.0882  0.5898
  824MPD2    C512176   3.887   1.638  15.856  0.9639  0.5527  0.0904
  824MPD2     H12177   3.843   1.968  15.656  2.2142  0.1676 -0.4788
  824MPD2    H112178   3.978   1.559  15.689 -0.9599 -0.2899  0.6845
  824MPD2    H212179   3.795   1.734  16.009  0.0169  2.7110  0.1603
  824MPD2    H312180   3.882   1.542  15.907 -0.3264  2.1636  3.0189
  824MPD2     N12181   3.991   1.777  15.533  0.6861 -0.6005  0.4367
  824MPD2    H512182   3.979   1.867  15.488 -1.1217 -1.6271 -1.1156
  824MPD2    N112183   3.752   1.981  15.890  0.2247 -0.1442  0.0535
  824MPD2    H712184   3.758   2.059  15.825  0.0450 -1.0615 -1.0700
  825MPD2     C12185   4.407   2.174  15.671 -0.8760  0.5600 -0.0133
  825MPD2    C112186   4.405   2.186  15.535  0.8393  0.1116 -0.6165
  825MPD2    C212187   4.427   2.307  15.474  0.4318 -0.1194  0.0768
  825MPD2    C312188   4.468   2.416  15.547  0.3546 -0.6270  0.3808
  825MPD2    C412189   4.486   2.404  15.684  0.3834 -0.0118 -0.0402
  825MPD2    C512190   4.458   2.280  15.742  0.5444 -0.2745 -0.5540
  825MPD2     H12191   4.415   2.319  15.367  1.7281  2.0992  0.1861
  825MPD2    H112192   4.514   2.485  15.750 -1.5213  0.8622 -0.3092
  825MPD2    H212193   4.380   2.084  15.725  0.2269 -0.0493 -0.4619
  825MPD2    H312194   4.477   2.264  15.848 -1.5812 -0.1795 -0.1513
  825MPD2     N12195   4.493   2.542  15.494 -0.0723 -0.2835 -0.2441
  825MPD2    H512196   4.521   2.616  15.559 -0.4631 -0.7872  0.5024
  825MPD2    N112197   4.359   2.066  15.469  0.1452  0.2729 -0.4298
  825MPD2    H712198   4.334   1.991  15.533 -2.4623 -1.3979 -3.4250
  826MPD2     C12199   2.938   1.961  13.404  0.5610 -0.4564  0.2222
  826MPD2    C112200   3.068   1.993  13.404  0.1338 -0.3904 -0.2152
  826MPD2    C212201   3.102   2.107  13.475  0.0401 -0.1271  0.3733
  826MPD2    C312202   3.010   2.189  13.529  0.3131  0.8462  0.0456
  826MPD2    C412203   2.877   2.158  13.515  0.5166  0.0868  0.0374
  826MPD2    C512204   2.838   2.043  13.460 -0.4041  0.9168  0.0275
  826MPD2     H12205   3.207   2.134  13.481 -0.0703  0.3228  0.2392
  826MPD2    H112206   2.791   2.212  13.553 -0.2021 -0.5297 -0.7320
  826MPD2    H212207   2.906   1.873  13.349 -0.0673 -0.1464  0.0801
  826MPD2    H312208   2.731   2.026  13.459 -0.5097  1.6131 -0.2385
  826MPD2     N12209   3.059   2.310  13.582 -0.7037 -0.3150  0.3654
  826MPD2    H512210   3.160   2.309  13.585 -0.7618 -0.5770  2.4562
  826MPD2    N112211   3.153   1.898  13.345 -0.1378 -0.0721  0.1435
  826MPD2    H712212   3.107   1.814  13.309  1.9203 -1.9209  1.8311
  827MPD2     C12213   4.596   3.520  10.073 -0.5863  0.6395  0.4339
  827MPD2    C112214   4.530   3.443  10.166  0.0080  0.7227  0.0811
  827MPD2    C212215   4.408   3.385  10.134 -0.5401 -0.3237 -0.7409
  827MPD2    C312216   4.346   3.417  10.012  0.3236  0.7043 -0.6596
  827MPD2    C412217   4.411   3.514   9.929  0.1895  0.0171 -0.6528
  827MPD2    C512218   4.533   3.560   9.962  0.3178  0.2922 -0.1265
  827MPD2     H12219   4.361   3.315  10.203  1.0262 -0.5906  0.0733
  827MPD2    H112220   4.347   3.559   9.854  1.2174  2.5565 -0.0131
  827MPD2    H212221   4.692   3.565  10.093 -0.7933  1.0339  0.5368
  827MPD2    H312222   4.569   3.650   9.915 -1.9688  0.7718 -0.9419
  827MPD2     N12223   4.215   3.369   9.996  0.3893  0.1216 -0.3939
  827MPD2    H512224   4.172   3.310  10.067 -1.6921  0.8026 -1.1162
  827MPD2    N112225   4.606   3.421  10.286 -0.2469 -0.0695 -0.4231
  827MPD2    H712226   4.702   3.454  10.294  0.3575 -1.6254 -1.4367
  828MPD2     C12227   3.439   3.189  12.318 -0.0435  0.5268 -0.4250
  828MPD2    C112228   3.357   3.234  12.222 -0.1244 -0.4958  0.0849
  828MPD2    C212229   3.379   3.200  12.084  0.1242  0.5633  0.4079
  828MPD2    C312230   3.492   3.121  12.053  0.2154 -1.1113 -0.2761
  828MPD2    C412231   3.587   3.095  12.152 -0.5524  0.1714 -0.0266
  828MPD2    C512232   3.560   3.125  12.280  0.5132  0.3570 -0.3840
  828MPD2     H12233   3.320   3.243  12.004 -1.1702  0.0511  1.0809
  828MPD2    H112234   3.668   3.032  12.119 -1.7217 -1.3152 -0.0388
  828MPD2    H212235   3.436   3.216  12.423  0.7289 -0.6225 -0.1081
  828MPD2    H312236   3.635   3.097  12.354  0.4129 -2.1237 -1.2061
  828MPD2     N12237   3.520   3.070  11.924  0.6222  0.2141 -0.3346
  828MPD2    H512238   3.617   3.047  11.905  0.3656 -0.2939 -1.0054
  828MPD2    N112239   3.252   3.316  12.249 -0.1516  0.2535  0.3366
  828MPD2    H712240   3.197   3.344  12.169  0.3807  2.3619  0.7025
  829MPD2     C12241   2.514   3.568  11.746 -0.0623  0.8030 -0.1958
  829MPD2    C112242   2.651   3.536  11.729 -0.1759  0.0575  0.8766
  829MPD2    C212243   2.734   3.534  11.838  0.2954  0.2085 -0.2881
  829MPD2    C312244   2.671   3.543  11.959  0.1230 -0.2754 -0.3353
  829MPD2    C412245   2.538   3.572  11.975  0.3012  0.8037  0.4718
  829MPD2    C512246   2.462   3.590  11.866  0.5093  0.4294  0.1295
  829MPD2     H12247   2.841   3.526  11.826  0.3956 -1.5759  1.7725
  829MPD2    H112248   2.493   3.587  12.073 -0.9490 -1.3229  0.2004
  829MPD2    H212249   2.451   3.572  11.658 -1.6064 -0.7113  0.8573
  829MPD2    H312250   2.356   3.597  11.886  0.3536  1.4282 -1.0643
  829MPD2     N12251   2.741   3.532  12.080 -0.0793  0.1681  0.4417
  829MPD2    H512252   2.693   3.564  12.164 -1.0501  2.1927 -0.8782
  829MPD2    N112253   2.694   3.530  11.596 -0.8269  0.6955  0.4664
  829MPD2    H712254   2.618   3.514  11.531  0.0658 -0.2537 -0.3420
  830MPD2     C12255   3.491   0.971  15.536  0.6766  0.2968 -0.0491
  830MPD2    C112256   3.408   1.049  15.458  0.0710 -0.1706  0.4427
  830MPD2    C212257   3.460   1.159  15.388 -0.2946  0.6943 -0.5177
  830MPD2    C312258   3.596   1.191  15.410  0.2082 -0.1550 -1.0849
  830MPD2    C412259   3.674   1.117  15.494 -0.3911 -0.0648  0.9633
  830MPD2    C512260   3.623   1.006  15.553  0.6503  0.0576  0.5156
  830MPD2     H12261   3.401   1.224  15.324  0.1231  1.8410  0.2588
  830MPD2    H112262   3.783   1.117  15.498 -0.4301  0.8272  1.9593
  830MPD2    H212263   3.463   0.870  15.565  3.8128 -0.6463 -0.2986
  830MPD2    H312264   3.688   0.936  15.606 -1.0106 -1.5555  0.4170
  830MPD2     N12265   3.664   1.299  15.353  0.1997  0.3678  0.1082
  830MPD2    H512266   3.757   1.316  15.390  0.6644  0.5136 -1.1222
  830MPD2    N112267   3.283   0.993  15.440  0.3103  0.1585  0.2309
  830MPD2    H712268   3.253   0.922  15.507  0.4922 -0.3994 -0.2848
  831MPD2     C12269   3.378   3.007  16.316 -0.1788 -0.1711  0.1570
  831MPD2    C112270   3.415   2.910  16.231 -0.5861 -0.5880 -0.0187
  831MPD2    C212271   3.358   2.784  16.252  0.8758  0.6497  0.9818
  831MPD2    C312272   3.246   2.765  16.332 -0.0811 -0.6568  0.0318
  831MPD2    C412273   3.215   2.862  16.424  0.4542  0.3731  0.4423
  831MPD2    C512274   3.282   2.979  16.416  0.9439  0.2466 -0.5945
  831MPD2     H12275   3.389   2.709  16.180 -0.6515 -0.9726  2.0202
  831MPD2    H112276   3.138   2.848  16.500 -1.3703  2.7189 -0.9546
  831MPD2    H212277   3.417   3.108  16.309  0.1871 -0.2760  0.6857
  831MPD2    H312278   3.249   3.060  16.480 -2.0735 -1.8740  0.5180
  831MPD2     N12279   3.157   2.656  16.320 -0.2898  0.4203  0.2648
  831MPD2    H512280   3.068   2.669  16.366 -1.5400  0.3372 -2.1575
  831MPD2    N112281   3.504   2.943  16.125 -0.0825 -0.6195 -0.0535
  831MPD2    H712282   3.516   3.040  16.098 -0.9172 -1.1207 -2.2049
  832MPD2     C12283   1.732   3.640  16.583 -0.4023  0.2229 -0.5451
  832MPD2    C112284   1.722   3.760  16.648  0.1062  0.4489  0.4529
  832MPD2    C212285   1.613   3.839  16.631 -0.2480  0.8138 -0.5437
  832MPD2    C312286   1.494   3.798  16.565  0.3564  0.1431 -0.4881
  832MPD2    C412287   1.510   3.675  16.508  0.0687 -0.5229  0.2633
  832MPD2    C512288   1.628   3.599  16.505  0.0536  0.0983 -0.2201
  832MPD2     H12289   1.608   3.935  16.680 -0.1987 -0.4348  1.8789
  832MPD2    H112290   1.434   3.641  16.438  2.7396 -2.5404 -1.6428
  832MPD2    H212291   1.821   3.578  16.584 -0.4201  0.1853 -1.6324
  832MPD2    H312292   1.633   3.507  16.448  1.3434  0.5445 -0.8147
  832MPD2     N12293   1.374   3.864  16.551 -0.3419 -0.1748 -0.2831
  832MPD2    H512294   1.296   3.821  16.502 -0.0176 -0.6864 -0.3510
  832MPD2    N112295   1.828   3.778  16.741  0.1746 -0.3136  0.7715
  832MPD2    H712296   1.904   3.710  16.740  1.8706  1.5704  1.8018
  833MPD2     C12297   3.210   0.769  12.236  0.2573 -0.1126  0.3710
  833MPD2    C112298   3.161   0.809  12.119  0.4678 -0.0881  0.1704
  833MPD2    C212299   3.233   0.786  12.000 -1.0832  1.2743 -0.2245
  833MPD2    C312300   3.346   0.713  12.005  0.3745 -0.1215 -0.4777
  833MPD2    C412301   3.401   0.676  12.124  0.2763  0.3918  0.0064
  833MPD2    C512302   3.332   0.698  12.243  0.3243  0.4316 -0.1293
  833MPD2     H12303   3.200   0.815  11.901 -0.8930  0.3063 -0.5714
  833MPD2    H112304   3.492   0.618  12.132  0.6138  1.1395  1.6422
  833MPD2    H212305   3.165   0.794  12.331  0.9155  1.1914  0.3361
  833MPD2    H312306   3.379   0.670  12.337 -2.9196 -1.4251  0.9321
  833MPD2     N12307   3.414   0.693  11.881  0.2641  0.5022  0.8433
  833MPD2    H512308   3.366   0.735  11.802 -1.0143  0.2060  1.4754
  833MPD2    N112309   3.045   0.889  12.124  0.1090  0.4566 -0.6164
  833MPD2    H712310   3.003   0.895  12.216 -1.7099  0.5135 -1.4504
  834MPD2     C12311   3.520   4.643  11.187 -0.6194 -0.1277 -0.2433
  834MPD2    C112312   3.497   0.014  11.112 -0.9364  0.4968 -0.8824
  834MPD2    C212313   3.469   0.135  11.179 -0.3036  0.2429  0.0200
  834MPD2    C312314   3.462   0.146  11.319 -0.1513 -0.5248 -0.8056
  834MPD2    C412315   3.472   0.025  11.386  0.3186 -0.2004 -0.1358
  834MPD2    C512316   3.502   4.648  11.325  0.6157 -0.0671 -0.6927
  834MPD2     H12317   3.455   0.232  11.131  3.1240  0.4074 -0.6580
  834MPD2    H112318   3.461   0.019  11.494  0.4854 -0.5653 -0.1391
  834MPD2    H212319   3.545   4.553  11.133 -0.0011  0.4828 -0.9703
  834MPD2    H312320   3.503   4.562  11.390 -0.5244  0.3470 -0.1242
  834MPD2     N12321   3.445   0.276  11.378 -0.0459  0.1600  0.3046
  834MPD2    H512322   3.473   0.355  11.322 -0.0329  0.7998  1.2107
  834MPD2    N112323   3.498   0.000  10.969  0.1612 -0.4485  0.1301
  834MPD2    H712324   3.520   4.647  10.932 -2.6357 -1.0692 -0.0027
  835MPD2     C12325   3.532   2.914  10.866  0.1119 -0.5161  0.2283
  835MPD2    C112326   3.634   3.005  10.879  0.2341  0.0816 -0.1544
  835MPD2    C212327   3.737   2.982  10.969 -0.6271 -0.2647 -0.0572
  835MPD2    C312328   3.728   2.869  11.050 -0.5446  0.4536  0.0355
  835MPD2    C412329   3.628   2.775  11.039  0.6297  0.3077  0.1966
  835MPD2    C512330   3.537   2.795  10.937 -0.1604  0.0811  0.6312
  835MPD2     H12331   3.810   3.059  10.991  0.8763 -1.1196 -1.9516
  835MPD2    H112332   3.627   2.694  11.111  0.3541  1.4732  1.5079
  835MPD2    H212333   3.444   2.921  10.804 -0.9069 -0.5028  1.6594
  835MPD2    H312334   3.453   2.728  10.920  2.1945 -2.1117 -2.3109
  835MPD2     N12335   3.812   2.856  11.161  0.0821  0.3091  0.1570
  835MPD2    H512336   3.774   2.801  11.238  0.3114 -1.2358 -0.8350
  835MPD2    N112337   3.650   3.123  10.795  0.2580 -0.6648  0.2259
  835MPD2    H712338   3.730   3.184  10.810  1.6858 -2.0919 -1.6505
  836MPD2     C12339   3.522   3.337  11.473  0.3536  0.9540 -1.2041
  836MPD2    C112340   3.625   3.304  11.554  0.1152  0.3968  0.4402
  836MPD2    C212341   3.622   3.349  11.684  0.5265 -0.4857  0.5864
  836MPD2    C312342   3.510   3.419  11.733  0.2871  0.1521  0.0131
  836MPD2    C412343   3.407   3.447  11.643 -0.3219  0.9694 -0.0969
  836MPD2    C512344   3.414   3.400  11.518  0.1808  0.3969 -0.1255
  836MPD2     H12345   3.704   3.330  11.752 -0.1357  0.9578  1.7530
  836MPD2    H112346   3.320   3.505  11.671  0.3371  2.2781 -0.7812
  836MPD2    H212347   3.526   3.315  11.367 -1.4056  0.8636 -1.2555
  836MPD2    H312348   3.333   3.430  11.454  0.1315  1.2761  0.3513
  836MPD2     N12349   3.509   3.469  11.869  0.4582 -0.3309  0.6661
  836MPD2    H512350   3.425   3.519  11.895  1.0034  0.4444  0.9227
  836MPD2    N112351   3.731   3.234  11.491 -0.4356 -0.1808  0.4657
  836MPD2    H712352   3.724   3.215  11.392 -0.2905 -0.9163  0.5974
  837MPD2     C12353   1.659   3.022  10.214 -0.9035  0.2064  0.3525
  837MPD2    C112354   1.562   3.041  10.123 -0.3249  0.0287 -0.3216
  837MPD2    C212355   1.546   3.167  10.072 -0.8047 -0.5882  0.2621
  837MPD2    C312356   1.629   3.270  10.110 -0.4993 -0.0622 -0.0518
  837MPD2    C412357   1.729   3.242  10.197 -0.1369  0.8591 -0.3755
  837MPD2    C512358   1.736   3.125  10.260 -0.0117  0.0475  0.8646
  837MPD2     H12359   1.461   3.181  10.006 -0.9386 -0.9708  0.3553
  837MPD2    H112360   1.775   3.330  10.241 -0.1823  0.3140  0.7588
  837MPD2    H212361   1.674   2.930  10.270 -2.0484  0.3024  0.8278
  837MPD2    H312362   1.804   3.118  10.344  1.5678  2.0232 -0.2334
  837MPD2     N12363   1.599   3.395  10.050  0.4459 -0.1980 -0.5207
  837MPD2    H512364   1.517   3.390   9.990  0.8025  2.2441 -1.1848
  837MPD2    N112365   1.471   2.945  10.082  0.1646 -0.0284 -0.4281
  837MPD2    H712366   1.407   2.980  10.010  0.7665  2.1297  0.0687
  838MPD2     C12367   0.267   1.710  12.072 -0.2070 -0.0008 -0.3492
  838MPD2    C112368   0.281   1.571  12.084 -0.7671  0.0335 -0.2492
  838MPD2    C212369   0.196   1.505  12.176 -0.5880  0.3859 -0.0164
  838MPD2    C312370   0.098   1.573  12.247 -0.0730  0.2419 -0.4597
  838MPD2    C412371   0.086   1.708  12.229  0.1439 -0.5060 -0.5193
  838MPD2    C512372   0.166   1.777  12.147 -0.1725 -0.8914  0.3741
  838MPD2     H12373   0.203   1.397  12.181  2.0719  0.4497 -2.7416
  838MPD2    H112374   0.014   1.772  12.280  1.4133  3.1598 -3.3485
  838MPD2    H212375   0.328   1.775  12.010  0.0947 -0.4944 -0.5695
  838MPD2    H312376   0.149   1.882  12.126  0.8451 -0.3738  2.0575
  838MPD2     N12377   0.006   1.502  12.332 -0.1318 -0.2078  0.2447
  838MPD2    H512378   0.026   1.403  12.338 -0.3232 -0.2738 -0.2267
  838MPD2    N112379   0.360   1.494  11.993  0.4635  0.2508 -0.0564
  838MPD2    H712380   0.346   1.393  11.997  3.6412 -0.2021  0.0465
  839MPD2     C12381   4.526   0.999  11.697  0.4119 -0.1613 -0.3870
  839MPD2    C112382   4.625   0.961  11.604  0.5362  0.2110  0.0416
  839MPD2    C212383   0.006   1.033  11.599 -0.4274 -0.4726  0.2323
  839MPD2    C312384   0.023   1.150  11.678 -0.6322 -0.3242  0.1899
  839MPD2    C412385   4.658   1.185  11.762 -0.1429  0.2556  0.2045
  839MPD2    C512386   4.544   1.110  11.776 -0.0081  0.6049 -0.8170
  839MPD2     H12387   0.089   0.997  11.539 -0.6202 -0.7952  0.1610
  839MPD2    H112388   4.675   1.277  11.817 -1.3631 -0.2336  1.4066
  839MPD2    H212389   4.433   0.946  11.712  0.6889 -0.6739 -0.4701
  839MPD2    H312390   4.471   1.132  11.852  1.2896 -0.8115  0.8486
  839MPD2     N12391   0.140   1.229  11.682  0.0695 -0.2443 -0.6224
  839MPD2    H512392   0.138   1.305  11.749  1.1084 -0.6033 -0.1835
  839MPD2    N112393   4.621   0.848  11.519  0.2061  0.5462  0.2720
  839MPD2    H712394   4.697   0.835  11.452  0.6356  0.6529  0.7419
  840MPD2     C12395   0.457   3.450  10.231 -0.8007  0.2407 -0.7833
  840MPD2    C112396   0.428   3.474  10.358 -0.0238 -0.2373  0.8060
  840MPD2    C212397   0.509   3.563  10.427  0.5321  0.3101 -0.5218
  840MPD2    C312398   0.614   3.637  10.372 -0.0784  0.1664  0.4905
  840MPD2    C412399   0.641   3.616  10.236  0.0850 -0.5847  0.2675
  840MPD2    C512400   0.570   3.516  10.174 -0.5120  0.1703  0.1585
  840MPD2     H12401   0.502   3.586  10.533  0.8248 -0.5535 -0.3140
  840MPD2    H112402   0.729   3.644  10.179  0.6817  0.0735  1.4976
  840MPD2    H212403   0.408   3.371  10.176  0.4775 -0.5265 -0.8110
  840MPD2    H312404   0.602   3.483  10.075 -1.3284 -0.0249 -0.0419
  840MPD2     N12405   0.696   3.738  10.431  0.4253  0.3521 -0.5086
  840MPD2    H512406   0.759   3.784  10.367 -0.2401  1.0998 -0.6270
  840MPD2    N112407   0.311   3.412  10.417 -0.0769 -0.0966 -0.0897
  840MPD2    H712408   0.258   3.346  10.362 -0.3737  0.0130  0.0661
  841MPD2     C12409   4.708   2.661  15.048  0.1023 -0.3416 -0.3588
  841MPD2    C112410   0.022   2.779  14.992  0.5963 -0.1664  0.4265
  841MPD2    C212411   0.094   2.863  15.075  0.2887 -0.0122 -0.9753
  841MPD2    C312412   0.119   2.830  15.206  0.0646  0.1970 -0.1513
  841MPD2    C412413   0.072   2.714  15.254  0.4487 -0.2263 -0.4865
  841MPD2    C512414   0.012   2.624  15.171 -0.1218 -0.6033 -0.7476
  841MPD2     H12415   0.141   2.951  15.031  2.9833 -1.9723 -2.0464
  841MPD2    H112416   0.081   2.677  15.355  0.3765 -0.5644 -0.6032
  841MPD2    H212417   4.658   2.588  14.985  0.4728 -0.4879 -0.4800
  841MPD2    H312418   4.713   2.531  15.211 -1.3349  0.1708 -0.0744
  841MPD2     N12419   0.191   2.920  15.287 -0.2434 -0.1915 -0.1521
  841MPD2    H512420   0.225   3.009  15.251  0.5545 -0.1580  0.6638
  841MPD2    N112421   0.009   2.808  14.853  0.2597  0.0340  0.0614
  841MPD2    H712422   0.027   2.905  14.828 -1.3033  0.9534  2.4778
  842MPD2     C12423   0.701   4.055  16.865 -0.1092 -0.0796  0.3780
  842MPD2    C112424   0.607   4.115  16.783  0.4452  0.1047  0.0046
  842MPD2    C212425   0.564   4.234  16.815  0.8268  0.0011 -0.0467
  842MPD2    C312426   0.576   4.284  16.939  0.5662 -0.4273  0.8208
  842MPD2    C412427   0.658   4.220  17.031  0.1083 -0.1562  0.1973
  842MPD2    C512428   0.725   4.102  16.995  0.1382 -0.2327  0.6268
  842MPD2     H12429   0.481   4.269  16.754 -0.5049 -2.4387  0.3521
  842MPD2    H112430   0.673   4.259  17.131 -2.1549 -0.0892  0.5154
  842MPD2    H212431   0.745   3.959  16.837 -0.2717 -0.5289  1.6763
  842MPD2    H312432   0.787   4.048  17.065  1.4323 -2.0707 -1.9178
  842MPD2     N12433   0.496   4.400  16.966  0.6027  0.2059 -0.1185
  842MPD2    H512434   0.449   4.441  16.887 -0.1243  0.6649  0.5536
  842MPD2    N112435   0.573   4.061  16.653 -0.5152 -0.2594 -0.7889
  842MPD2    H712436   0.522   4.123  16.591 -1.1488  1.4489  1.4484
  843MPD2     C12437   2.715   0.635  17.440  0.1842  1.2293  0.0055
  843MPD2    C112438   2.741   0.538  17.538 -0.1383  0.7521  0.2161
  843MPD2    C212439   2.853   0.555  17.626  0.4585 -0.3370 -0.1565
  843MPD2    C312440   2.930   0.668  17.615 -0.4300 -0.5121 -0.2658
  843MPD2    C412441   2.897   0.760  17.518 -0.3817  0.3650 -0.1280
  843MPD2    C512442   2.795   0.748  17.429 -0.2629 -0.2274  0.1152
  843MPD2     H12443   2.861   0.482  17.706 -1.2871  1.3323  1.5360
  843MPD2    H112444   2.947   0.855  17.509  3.3254 -1.5087  0.7406
  843MPD2    H212445   2.630   0.621  17.374 -0.0234 -1.9040  0.9039
  843MPD2    H312446   2.790   0.825  17.352  1.6056  1.3522  1.6030
  843MPD2     N12447   3.041   0.695  17.706  0.1223  0.0896 -0.3235
  843MPD2    H512448   3.089   0.781  17.684  2.0586 -1.3175 -1.5806
  843MPD2    N112449   2.650   0.430  17.538  0.0916 -0.1788 -0.1638
  843MPD2    H712450   2.571   0.445  17.477 -1.0342  0.1065  1.3617
  844MPD2     C12451   1.412   4.179  16.343  0.2573 -0.0098 -0.3136
  844MPD2    C112452   1.494   4.070  16.326 -0.8000 -0.0589 -0.9228
  844MPD2    C212453   1.624   4.078  16.382 -0.0946  0.0101  0.0047
  844MPD2    C312454   1.668   4.188  16.445 -1.2309 -0.0327 -0.6713
  844MPD2    C412455   1.586   4.296  16.458  0.3100  0.4856  0.0029
  844MPD2    C512456   1.461   4.289  16.402  0.4067  0.2429  0.0011
  844MPD2     H12457   1.700   4.002  16.369  0.4058  0.2699  1.3787
  844MPD2    H112458   1.610   4.392  16.501  1.6478 -0.9149  2.3728
  844MPD2    H212459   1.312   4.176  16.303  0.6898 -0.8317 -1.3148
  844MPD2    H312460   1.398   4.377  16.408 -0.5390 -0.5812  2.1353
  844MPD2     N12461   1.802   4.189  16.484  0.1191  0.1331  0.7228
  844MPD2    H512462   1.861   4.111  16.459 -0.3045  0.3690 -1.0331
  844MPD2    N112463   1.458   3.963  16.236  0.0408 -0.2644  0.0652
  844MPD2    H712464   1.529   3.893  16.215  0.9813  0.4424  0.8629
  845MPD2     C12465   1.710   4.674  17.127 -0.3119  0.1161 -0.2068
  845MPD2    C112466   1.668   4.630  17.003  0.2813 -0.5602  0.0339
  845MPD2    C212467   1.753   4.555  16.926 -0.1331  0.5521  0.9435
  845MPD2    C312468   1.883   4.545  16.961  0.5566  0.6185 -0.0313
  845MPD2    C412469   1.936   4.599  17.074  0.6168  0.2421  0.4703
  845MPD2    C512470   1.844   4.664  17.161  0.4941 -0.0946  0.3249
  845MPD2     H12471   1.722   4.531  16.825 -1.1085  0.4809  1.2601
  845MPD2    H112472   2.037   4.586  17.110  0.5059 -0.2246  0.6162
  845MPD2    H212473   1.648   4.716  17.205  3.3011  2.8707  1.1806
  845MPD2    H312474   1.879   4.697  17.258 -0.6108  0.5404  0.5056
  845MPD2     N12475   1.963   4.476  16.872  0.1845  0.5596  0.4736
  845MPD2    H512476   1.914   4.442  16.790 -0.4606  1.0772  0.6458
  845MPD2    N112477   1.529   4.629  16.970 -0.2664 -0.6777  0.1884
  845MPD2    H712478   1.507   4.573  16.888  0.4190  1.1882 -1.2753
  846MPD2     C12479   2.858   0.440  13.656 -0.2146  0.3457 -0.1954
  846MPD2    C112480   2.719   0.451  13.690  0.9672 -0.2496 -0.4510
  846MPD2    C212481   2.676   0.421  13.820  0.1189  0.1607  1.0718
  846MPD2    C312482   2.763   0.359  13.916  0.6118  0.3506  0.2987
  846MPD2    C412483   2.892   0.343  13.869  0.1046 -0.1679  0.0567
  846MPD2    C512484   2.943   0.387  13.753 -0.2320 -0.1556  0.2328
  846MPD2     H12485   2.573   0.437  13.849 -0.2984 -0.8715  0.1642
  846MPD2    H112486   2.970   0.301  13.930 -1.9525 -1.5004  1.7732
  846MPD2    H212487   2.890   0.452  13.553 -0.9582 -1.4998 -0.6322
  846MPD2    H312488   3.049   0.373  13.735  0.0903  3.6061 -0.8758
  846MPD2     N12489   2.718   0.314  14.045  1.1783 -0.7098 -0.0444
  846MPD2    H512490   2.618   0.330  14.057  1.5959  2.1552 -0.4292
  846MPD2    N112491   2.619   0.483  13.599  0.1087 -0.1260  0.0088
  846MPD2    H712492   2.526   0.509  13.631 -0.5738 -1.4598 -0.8393
  847MPD2     C12493   3.015   0.734  14.654  0.0739 -0.5455 -0.3102
  847MPD2    C112494   3.033   0.872  14.630  0.1357 -0.1494  0.1855
  847MPD2    C212495   3.095   0.955  14.722  0.6539  0.0703  0.5214
  847MPD2    C312496   3.134   0.901  14.842 -0.5209 -0.3162  1.2940
  847MPD2    C412497   3.115   0.767  14.866  0.7455 -0.3375 -0.5921
  847MPD2    C512498   3.056   0.683  14.770  0.2220  0.4352 -0.3950
  847MPD2     H12499   3.105   1.063  14.714 -2.0433  0.2716 -0.1486
  847MPD2    H112500   3.148   0.726  14.961 -1.9640 -0.8160  0.1502
  847MPD2    H212501   2.970   0.670  14.579  0.2037  1.9051 -2.4649
  847MPD2    H312502   3.041   0.577  14.784  3.9288 -0.3294 -2.0491
  847MPD2     N12503   3.207   0.976  14.939 -0.2413  0.5741 -0.0523
  847MPD2    H512504   3.266   0.909  14.988 -1.0643 -2.8055 -3.7074
  847MPD2    N112505   3.003   0.930  14.509  0.4295  0.1890 -0.1407
  847MPD2    H712506   3.032   1.027  14.501 -1.0949  0.9054  2.8018
  848MPD2     C12507   0.746   3.887  16.159  0.2533 -1.0144  0.3339
  848MPD2    C112508   0.871   3.941  16.184  0.1384  0.4589 -0.7592
  848MPD2    C212509   0.919   4.047  16.102  0.7756 -0.1344 -0.6297
  848MPD2    C312510   0.846   4.084  15.987  0.1569  0.6259 -0.5560
  848MPD2    C412511   0.724   4.023  15.965  0.0877 -0.7860  0.0249
  848MPD2    C512512   0.673   3.929  16.048  1.0634 -0.0917  0.2479
  848MPD2     H12513   1.015   4.094  16.118  0.3356  1.2828 -2.1087
  848MPD2    H112514   0.665   4.051  15.878  1.0644  0.3155 -0.2764
  848MPD2    H212515   0.695   3.821  16.228 -0.5765 -2.3806 -1.5818
  848MPD2    H312516   0.581   3.880  16.021 -0.5941  1.4682  3.0875
  848MPD2     N12517   0.892   4.177  15.887 -0.3793  0.0221  0.4329
  848MPD2    H512518   0.833   4.191  15.806 -0.4312 -0.3437  0.4068
  848MPD2    N112519   0.956   3.922  16.296  0.1800  0.7875 -0.5241
  848MPD2    H712520   1.035   3.985  16.304  1.6094 -0.8879 -1.3616
  849MPD2     C12521   0.181   3.771  14.049  0.4254  0.5690 -0.5486
  849MPD2    C112522   0.299   3.846  14.035 -0.2564 -0.4963 -0.0369
  849MPD2    C212523   0.418   3.804  14.098  0.1770 -0.1515 -0.3829
  849MPD2    C312524   0.419   3.700  14.185  0.5640 -0.2855  0.5100
  849MPD2    C412525   0.296   3.637  14.213  0.0099 -0.0221 -0.0260
  849MPD2    C512526   0.186   3.671  14.145 -0.1356  0.3261  0.4484
  849MPD2     H12527   0.510   3.856  14.070 -1.3625  2.5175 -0.5225
  849MPD2    H112528   0.285   3.554  14.282  1.0937 -0.7410 -0.7216
  849MPD2    H212529   0.093   3.803  13.995 -0.5144 -1.1099  0.0124
  849MPD2    H312530   0.093   3.616  14.159  0.9506 -2.0602 -1.7978
  849MPD2     N12531   0.535   3.646  14.243 -0.1537  0.6276 -0.3717
  849MPD2    H512532   0.522   3.566  14.304 -0.7342  2.8427  2.4083
  849MPD2    N112533   0.303   3.941  13.934  0.3016  0.0297  0.3717
  849MPD2    H712534   0.230   3.930  13.864 -0.0238  1.0079  0.5672
  850MPD2     C12535   3.169   2.514  14.867 -0.0867  0.2627 -1.1812
  850MPD2    C112536   3.228   2.545  14.984 -0.1765 -0.0968  0.4939
  850MPD2    C212537   3.359   2.594  14.978 -0.4571 -0.3893  0.8991
  850MPD2    C312538   3.421   2.598  14.851 -0.1719  0.6701 -0.5984
  850MPD2    C412539   3.362   2.550  14.740 -0.0963  0.5536  0.2712
  850MPD2    C512540   3.229   2.525  14.745  0.8049  0.6408  0.0193
  850MPD2     H12541   3.415   2.627  15.065 -0.3790 -1.5607  1.2901
  850MPD2    H112542   3.416   2.540  14.646 -0.3660  0.4706  0.1218
  850MPD2    H212543   3.069   2.473  14.860  0.0003 -0.2406  0.6999
  850MPD2    H312544   3.169   2.485  14.663  2.5912 -1.4617 -0.2763
  850MPD2     N12545   3.561   2.629  14.836 -0.0332 -0.1883  0.1178
  850MPD2    H512546   3.593   2.638  14.740 -0.7044  0.5388 -0.0441
  850MPD2    N112547   3.150   2.543  15.109 -0.2689  0.1339 -0.1853
  850MPD2    H712548   3.056   2.503  15.115  0.7723 -1.9499  2.4175
  851MPD2     C12549   3.310   2.044  15.784  0.2436  0.9718  0.3610
  851MPD2    C112550   3.317   2.093  15.658 -0.7371 -0.0751 -0.6931
  851MPD2    C212551   3.407   2.042  15.570  0.3853 -0.3746 -0.9993
  851MPD2    C312552   3.484   1.936  15.597 -0.2666 -0.3443  0.1450
  851MPD2    C412553   3.476   1.883  15.726 -0.2361  0.5074 -0.2382
  851MPD2    C512554   3.393   1.939  15.815 -0.4529  0.6343  0.5403
  851MPD2     H12555   3.429   2.100  15.481 -1.1892 -0.4483 -1.4367
  851MPD2    H112556   3.540   1.803  15.761  2.3628  2.1927 -1.1331
  851MPD2    H212557   3.242   2.083  15.858  0.0478  0.2424  0.5723
  851MPD2    H312558   3.388   1.899  15.915 -1.1905 -1.1688 -0.2254
  851MPD2     N12559   3.572   1.879  15.500  0.3291  0.2275  0.1758
  851MPD2    H512560   3.576   1.936  15.416 -0.3415 -0.7271 -0.4961
  851MPD2    N112561   3.233   2.206  15.631 -0.2581  0.2070 -0.3728
  851MPD2    H712562   3.182   2.255  15.703  0.5980 -0.2873  0.5632
  852MPD2     C12563   2.345   0.252  10.218 -0.0085 -0.2507 -0.2223
  852MPD2    C112564   2.458   0.266  10.293 -0.1393 -0.1012 -0.3248
  852MPD2    C212565   2.568   0.340  10.249  0.4459 -0.0047  0.5480
  852MPD2    C312566   2.568   0.396  10.120  0.1005 -0.1993 -0.1049
  852MPD2    C412567   2.450   0.401  10.054  0.1282  0.0608  0.5278
  852MPD2    C512568   2.344   0.328  10.106 -0.2812  0.3284 -0.6749
  852MPD2     H12569   2.666   0.346  10.296  1.1589  0.9076 -1.0473
  852MPD2    H112570   2.443   0.464   9.966 -1.8404 -1.7586 -0.6137
  852MPD2    H212571   2.256   0.201  10.252 -0.5477  0.5669 -0.4075
  852MPD2    H312572   2.251   0.334  10.050 -0.8893  1.1222  0.4169
  852MPD2     N12573   2.682   0.456  10.076 -0.3847 -0.0582  0.6186
  852MPD2    H512574   2.767   0.435  10.127  1.2438  4.1052 -0.3943
  852MPD2    N112575   2.480   0.190  10.406  0.0523  0.3029  0.1279
  852MPD2    H712576   2.568   0.194  10.457  0.5484 -2.9447 -0.4747
  853MPD2     C12577   4.260   4.452  12.062  0.1503 -0.4415  0.0275
  853MPD2    C112578   4.256   4.584  12.038 -0.3871  0.2439  0.0182
  853MPD2    C212579   4.247   4.624  11.904 -0.2336 -0.9043  0.1970
  853MPD2    C312580   4.247   4.521  11.807  0.2839  0.6100 -0.1050
  853MPD2    C412581   4.268   4.388  11.834  0.6166 -0.6131  0.0287
  853MPD2    C512582   4.256   4.359  11.963 -0.5868  0.2890  0.2656
  853MPD2     H12583   4.233   4.726  11.870 -2.2244 -0.4878  2.2783
  853MPD2    H112584   4.278   4.303  11.767  0.8228  0.8512 -1.8093
  853MPD2    H212585   4.256   4.432  12.168 -0.1896 -0.9832 -0.0898
  853MPD2    H312586   4.256   4.255  11.992  2.8280  0.1389 -0.1948
  853MPD2     N12587   4.236   4.550  11.670 -0.6067  0.1534  0.0238
  853MPD2    H512588   4.264   4.477  11.605 -3.3772 -0.1527 -0.8300
  853MPD2    N112589   4.261   4.671  12.154 -0.0332  0.4040  0.4201
  853MPD2    H712590   4.274   4.619  12.240 -0.1571  1.9240  1.3455
  854MPD2     C12591   1.424   0.106  12.765 -0.2418  0.5711  0.3901
  854MPD2    C112592   1.517   0.167  12.686  0.1789  0.1191  0.3243
  854MPD2    C212593   1.656   0.158  12.711 -0.4429 -0.3213  0.9025
  854MPD2    C312594   1.702   0.092  12.825 -0.2722 -0.1486 -0.4223
  854MPD2    C412595   1.608   0.048  12.920  0.3962  0.5719 -0.6918
  854MPD2    C512596   1.470   0.054  12.889  0.8673  0.3079 -0.4474
  854MPD2     H12597   1.736   0.175  12.640 -0.4950  1.3604  1.2330
  854MPD2    H112598   1.637   0.011  13.017  0.1851 -0.5911 -1.0713
  854MPD2    H212599   1.317   0.111  12.745 -0.4482 -2.2098  0.7776
  854MPD2    H312600   1.406   0.007  12.963  2.6597 -2.0775 -0.4110
  854MPD2     N12601   1.834   0.077  12.851  0.0197 -0.2537 -0.1683
  854MPD2    H512602   1.861   0.022  12.932  0.1048  0.3839  0.2396
  854MPD2    N112603   1.468   0.228  12.565 -0.3674  0.1338 -0.2336
  854MPD2    H712604   1.371   0.213  12.541 -0.0453 -0.9974 -0.8084
  855MPD2     C12605   2.105   0.012  13.677 -0.4515  0.0153 -0.5597
  855MPD2    C112606   2.179   4.660  13.601 -0.2201 -0.1101 -0.3500
  855MPD2    C212607   2.178   4.680  13.462 -0.0280  0.5848 -0.3431
  855MPD2    C312608   2.109   0.047  13.396 -0.9711  0.5130  0.0017
  855MPD2    C412609   2.038   0.132  13.475  0.2357 -0.0281  0.1513
  855MPD2    C512610   2.037   0.115  13.612  0.4217  0.5259  0.5709
  855MPD2     H12611   2.239   4.612  13.404 -1.1285  0.3568 -1.2386
  855MPD2    H112612   1.983   0.218  13.437  1.6924  1.0203  0.4106
  855MPD2    H212613   2.088   4.726  13.781  1.5576 -1.3863 -0.5590
  855MPD2    H312614   1.984   0.186  13.675 -3.0962  0.5368 -2.4129
  855MPD2     N12615   2.112   0.070  13.258 -0.0084  0.2880 -0.4314
  855MPD2    H512616   2.045   0.139  13.227 -1.3056 -0.8064 -0.0789
  855MPD2    N112617   2.219   4.536  13.651  0.5604  0.5986  0.7298
  855MPD2    H712618   2.250   4.465  13.585 -0.0825  1.6844 -0.7279
  856MPD2     C12619   3.440   0.660  13.749  0.4435  0.1411  0.3853
  856MPD2    C112620   3.510   0.780  13.760  0.6333 -0.6574  0.3701
  856MPD2    C212621   3.442   0.902  13.758  0.1222  0.2307 -0.0645
  856MPD2    C312622   3.304   0.907  13.728 -0.7052  0.6110  0.5752
  856MPD2    C412623   3.243   0.786  13.711  0.1682 -0.0097 -0.1672
  856MPD2    C512624   3.309   0.667  13.725 -0.2896  0.0106 -0.4550
  856MPD2     H12625   3.501   0.991  13.778 -1.7472  1.9433 -2.1182
  856MPD2    H112626   3.140   0.790  13.679  0.3966  0.1034 -0.9048
  856MPD2    H212627   3.489   0.565  13.768  0.0951  0.0490  0.8160
  856MPD2    H312628   3.261   0.576  13.691  0.4466 -1.5763  2.7292
  856MPD2     N12629   3.223   1.022  13.705 -0.1576 -0.0420  0.1705
  856MPD2    H512630   3.132   1.007  13.663  0.8167 -1.5497 -1.4208
  856MPD2    N112631   3.648   0.791  13.775  0.3933  0.0495  0.1886
  856MPD2    H712632   3.679   0.885  13.797 -0.2149  0.0777  0.9292
  857MPD2     C12633   0.689   2.721  12.978 -0.1987  0.1361 -0.3793
  857MPD2    C112634   0.820   2.693  12.957  0.4126 -0.8907  0.2422
  857MPD2    C212635   0.912   2.768  13.017 -0.0960 -0.4165 -0.5032
  857MPD2    C312636   0.873   2.893  13.059 -0.6510  0.0421  0.4714
  857MPD2    C412637   0.741   2.935  13.066  0.8230  0.1435 -0.7473
  857MPD2    C512638   0.648   2.841  13.038 -0.3186 -0.2168 -0.2792
  857MPD2     H12639   1.015   2.755  12.987 -0.4010 -0.3669 -1.5987
  857MPD2    H112640   0.702   3.029  13.103 -2.2090 -2.1368  1.8074
  857MPD2    H212641   0.603   2.670  12.938 -1.5341 -0.1193  2.8344
  857MPD2    H312642   0.541   2.859  13.042 -0.7797 -3.3847  1.3264
  857MPD2     N12643   0.969   2.986  13.105  0.1521 -0.2060  0.1518
  857MPD2    H512644   0.932   3.074  13.137 -1.0451 -0.8643  0.5794
  857MPD2    N112645   0.844   2.570  12.882 -0.2129 -0.5984  0.0612
  857MPD2    H712646   0.763   2.519  12.848  0.6921 -1.5831 -0.6008
  858MPD2     C12647   1.364   1.375  16.341  0.3675  0.4096 -0.1873
  858MPD2    C112648   1.481   1.437  16.298 -0.1337  0.4329  0.1335
  858MPD2    C212649   1.468   1.576  16.262 -0.3549  0.1169 -0.0416
  858MPD2    C312650   1.357   1.656  16.292  0.0706  0.2013 -0.1907
  858MPD2    C412651   1.251   1.593  16.355  0.1318  0.3847 -0.0262
  858MPD2    C512652   1.255   1.455  16.367 -0.3080 -0.0974  0.0944
  858MPD2     H12653   1.555   1.622  16.218 -1.2032  0.5058 -1.2992
  858MPD2    H112654   1.159   1.647  16.372  0.9571  1.2454  1.7498
  858MPD2    H212655   1.355   1.270  16.369 -1.3920  0.7918  0.7329
  858MPD2    H312656   1.163   1.415  16.408 -0.4326  0.0787 -0.0167
  858MPD2     N12657   1.359   1.791  16.275  0.6830 -0.3499 -0.7272
  858MPD2    H512658   1.278   1.839  16.314  0.8749 -0.0448 -0.7044
  858MPD2    N112659   1.595   1.360  16.277  0.6905 -0.5482 -0.8130
  858MPD2    H712660   1.581   1.259  16.275  1.0721 -0.6655  2.1946
  859MPD2     C12661   4.644   3.890  14.999 -0.2862 -1.0439  0.0707
  859MPD2    C112662   0.016   3.969  15.035 -0.0841 -0.2635  1.1877
  859MPD2    C212663   0.046   4.003  15.168  0.0196 -0.7347 -0.6119
  859MPD2    C312664   4.694   3.957  15.267  0.7678  0.1095 -0.2323
  859MPD2    C412665   4.581   3.887  15.236 -0.1928 -0.4691  0.0655
  859MPD2    C512666   4.555   3.860  15.102 -0.6647 -0.2744  0.3650
  859MPD2     H12667   0.137   4.057  15.191 -1.0159  1.4883 -1.6900
  859MPD2    H112668   4.517   3.852  15.317 -0.7871  1.6490  0.5016
  859MPD2    H212669   4.624   3.857  14.898  1.4654  0.0980 -0.6417
  859MPD2    H312670   4.462   3.811  15.075 -0.0105 -1.6544  0.6308
  859MPD2     N12671   4.728   3.974  15.407 -0.3042  0.4461  0.6456
  859MPD2    H512672   4.672   3.926  15.476  0.9824 -0.4926  1.0452
  859MPD2    N112673   0.107   4.010  14.928 -0.1263  0.8919 -0.5819
  859MPD2    H712674   0.084   3.994  14.830 -0.5031 -0.4643 -0.2744
  860MPD2     C12675   2.456   3.838  11.523  0.6567  0.2329  0.0424
  860MPD2    C112676   2.520   3.879  11.642  0.9901  0.5063  0.1325
  860MPD2    C212677   2.451   3.906  11.755  0.6725  0.5711  0.2907
  860MPD2    C312678   2.316   3.893  11.764  0.2586  0.4318 -0.4564
  860MPD2    C412679   2.252   3.859  11.646  0.2146 -0.3370 -0.3540
  860MPD2    C512680   2.320   3.828  11.528 -0.0411  0.3010  0.0625
  860MPD2     H12681   2.507   3.926  11.846  1.5710 -0.2689 -0.0771
  860MPD2    H112682   2.150   3.824  11.653 -0.2038  0.7399 -1.1475
  860MPD2    H212683   2.511   3.816  11.432 -0.3117 -1.2209 -0.1835
  860MPD2    H312684   2.261   3.788  11.446  1.0046 -0.8663 -0.1289
  860MPD2     N12685   2.243   3.896  11.889  0.5289 -0.5114 -0.1961
  860MPD2    H512686   2.146   3.866  11.890  0.3445  0.1529  1.6670
  860MPD2    N112687   2.660   3.885  11.647  0.2333  0.3011 -0.2260
  860MPD2    H712688   2.703   3.894  11.739 -0.2476 -0.3662  0.0628
  861MPD2     C12689   0.715   2.779  10.929  0.1810  0.1654  0.5123
  861MPD2    C112690   0.796   2.865  11.001  0.2325  0.4489  0.6116
  861MPD2    C212691   0.776   3.001  11.005 -0.2134 -0.1145 -0.4877
  861MPD2    C312692   0.676   3.061  10.929  0.3495  0.1429 -0.0659
  861MPD2    C412693   0.586   2.975  10.862  0.6047  0.7539 -0.6770
  861MPD2    C512694   0.605   2.839  10.856 -0.4211 -0.0292 -0.2284
  861MPD2     H12695   0.850   3.061  11.057 -0.3718  0.5701 -1.0500
  861MPD2    H112696   0.509   3.023  10.802 -0.1193 -1.0935 -1.2065
  861MPD2    H212697   0.719   2.671  10.927 -0.6980  0.1567 -1.6161
  861MPD2    H312698   0.529   2.771  10.819  0.7549 -1.4939  0.0061
  861MPD2     N12699   0.661   3.199  10.921  0.0247 -0.4052  0.4973
  861MPD2    H512700   0.582   3.223  10.863  1.6842  1.5766 -0.9520
  861MPD2    N112701   0.903   2.814  11.080  0.4789 -0.2700 -0.3758
  861MPD2    H712702   0.965   2.883  11.122  0.2832  1.9813 -3.7617
  862MPD2     C12703   0.743   3.279  10.434 -0.2054 -0.2541 -0.2457
  862MPD2    C112704   0.808   3.233  10.550  0.4829 -0.5868  0.2068
  862MPD2    C212705   0.801   3.099  10.587 -0.6889 -0.8211  1.0656
  862MPD2    C312706   0.731   3.012  10.507 -0.5185  0.3509 -0.3330
  862MPD2    C412707   0.659   3.057  10.398  0.1825  0.1838  0.2248
  862MPD2    C512708   0.673   3.184  10.362 -0.1874 -0.0743  0.0771
  862MPD2     H12709   0.847   3.073  10.681  0.8335  1.2253  0.8701
  862MPD2    H112710   0.592   2.989  10.347  1.3254  0.6500 -1.9383
  862MPD2    H212711   0.714   3.378  10.400 -1.1136 -0.2767  0.4739
  862MPD2    H312712   0.612   3.215  10.277 -1.9005 -2.3382  0.4656
  862MPD2     N12713   0.730   2.875  10.533  0.0314  0.2072 -0.0959
  862MPD2    H512714   0.658   2.821  10.485  0.7840 -1.0188  0.1624
  862MPD2    N112715   0.856   3.324  10.644  0.0578  0.3835  0.0994
  862MPD2    H712716   0.865   3.297  10.741  2.6042  1.8639  0.2581
  863MPD2     C12717   0.393   0.679  15.912  0.1499  0.7041  0.1748
  863MPD2    C112718   0.287   0.632  15.989 -0.4911 -0.3694 -0.4286
  863MPD2    C212719   0.319   0.554  16.098 -0.5969 -0.6837  0.3982
  863MPD2    C312720   0.453   0.534  16.131 -0.7229 -0.5376  0.2923
  863MPD2    C412721   0.555   0.588  16.048 -0.3362 -0.4888 -0.5028
  863MPD2    C512722   0.527   0.662  15.940  0.2808  0.0591 -0.2133
  863MPD2     H12723   0.241   0.531  16.169  0.4055 -1.2311  1.3255
  863MPD2    H112724   0.659   0.570  16.070  0.0656 -1.5360 -3.4016
  863MPD2    H212725   0.369   0.739  15.824  0.9612 -2.8263 -2.4470
  863MPD2    H312726   0.600   0.710  15.875  0.0795 -0.9955 -1.2248
  863MPD2     N12727   0.500   0.462  16.244  0.3672  0.0699  0.6549
  863MPD2    H512728   0.600   0.466  16.258  0.6794  2.7371 -2.2907
  863MPD2    N112729   0.158   0.663  15.951  0.0196 -0.2707 -0.2343
  863MPD2    H712730   0.152   0.729  15.874 -0.1292 -0.2137 -0.1726
  864MPD2     C12731   0.436   1.991  17.125  1.0532  0.1995  0.2963
  864MPD2    C112732   0.463   1.919  17.009 -0.5071  0.0454 -0.2891
  864MPD2    C212733   0.517   1.978  16.893 -0.2740  0.1625 -1.2003
  864MPD2    C312734   0.543   2.116  16.897 -0.2338  0.6770  0.0240
  864MPD2    C412735   0.516   2.182  17.012  0.2241 -0.9388  0.1101
  864MPD2    C512736   0.453   2.125  17.120  0.4644 -0.1140  0.1827
  864MPD2     H12737   0.527   1.923  16.801 -0.6385 -2.1772  0.1658
  864MPD2    H112738   0.544   2.287  17.012 -0.8256 -0.6576  3.8813
  864MPD2    H212739   0.387   1.948  17.212 -0.4101  0.0455 -0.5988
  864MPD2    H312740   0.437   2.195  17.201 -0.4719 -1.1468  0.8682
  864MPD2     N12741   0.592   2.193  16.785  0.1262 -0.3853 -0.7236
  864MPD2    H512742   0.595   2.294  16.796 -0.8142 -0.5308  0.8000
  864MPD2    N112743   0.429   1.783  17.009 -0.5590  0.1563 -0.1833
  864MPD2    H712744   0.400   1.749  17.100 -0.7338 -0.3646 -0.4307
  865MPD2     C12745   0.517   2.562  16.056 -0.4861 -0.3520 -0.5828
  865MPD2    C112746   0.541   2.458  16.142  0.7141 -0.1362  0.6372
  865MPD2    C212747   0.577   2.493  16.267 -0.6052 -0.2980 -0.1698
  865MPD2    C312748   0.606   2.627  16.308 -0.7814 -0.1738  0.3291
  865MPD2    C412749   0.574   2.726  16.218  0.0223  1.1739 -0.3282
  865MPD2    C512750   0.524   2.690  16.094 -0.5324 -0.2775  1.3653
  865MPD2     H12751   0.589   2.413  16.339 -1.0637 -0.4589 -0.2710
  865MPD2    H112752   0.599   2.830  16.235 -1.2150  1.3857  0.1959
  865MPD2    H212753   0.492   2.546  15.952 -1.2763  1.7431 -0.7017
  865MPD2    H312754   0.502   2.773  16.028 -1.3978 -1.8849 -0.3657
  865MPD2     N12755   0.650   2.670  16.440  0.5106  0.0540  0.6421
  865MPD2    H512756   0.652   2.770  16.455 -2.1390 -0.1202  2.1019
  865MPD2    N112757   0.541   2.326  16.092 -0.0093 -0.4620  0.6019
  865MPD2    H712758   0.522   2.309  15.994  0.3977  0.5146  0.3525
  866MPD2     C12759   1.902   2.921  11.410  0.9710 -0.1231  0.0555
  866MPD2    C112760   1.905   2.977  11.286 -0.1578 -0.5046 -0.1130
  866MPD2    C212761   1.795   3.054  11.258  0.0490 -0.0902 -0.3208
  866MPD2    C312762   1.705   3.095  11.350  0.3970  0.0215 -0.5774
  866MPD2    C412763   1.717   3.056  11.478 -0.2247  0.1204 -0.3116
  866MPD2    C512764   1.816   2.960  11.510 -0.2216  0.9380  0.2739
  866MPD2     H12765   1.775   3.075  11.154  0.4250 -1.6735 -0.7084
  866MPD2    H112766   1.658   3.085  11.564 -0.9370 -1.2310 -0.3475
  866MPD2    H212767   1.984   2.863  11.451  1.2770  1.3200  1.4830
  866MPD2    H312768   1.838   2.925  11.611 -0.7609 -0.6526 -0.1661
  866MPD2     N12769   1.599   3.184  11.320 -0.1206 -0.3742  0.1130
  866MPD2    H512770   1.527   3.192  11.391 -1.2381  0.3159 -1.0907
  866MPD2    N112771   2.002   2.936  11.193 -0.7209  0.0398 -0.1443
  866MPD2    H712772   2.070   2.863  11.212 -0.4568  0.8424  1.9809
  867MPD2     C12773   3.874   1.858  16.571 -0.1066 -0.0214 -0.4160
  867MPD2    C112774   3.896   1.881  16.704  0.3083 -0.2733 -0.2112
  867MPD2    C212775   3.873   2.007  16.764  0.1649  0.2377  0.8460
  867MPD2    C312776   3.848   2.113  16.679 -0.3756  0.0446 -0.1342
  867MPD2    C412777   3.813   2.094  16.546 -0.0240  0.5770 -1.0966
  867MPD2    C512778   3.816   1.963  16.497  0.0930  0.0733  0.5681
  867MPD2     H12779   3.870   2.024  16.871 -1.2489 -1.5716  1.1070
  867MPD2    H112780   3.782   2.178  16.485 -1.5446 -0.7168 -2.0827
  867MPD2    H212781   3.891   1.760  16.528  1.6405 -0.5712  1.5121
  867MPD2    H312782   3.786   1.927  16.399  0.3264 -0.0051  0.5243
  867MPD2     N12783   3.851   2.246  16.721 -0.1304  0.2836  0.5177
  867MPD2    H512784   3.808   2.314  16.659  0.5873  1.0370  0.8336
  867MPD2    N112785   3.923   1.762  16.776  0.9967 -0.7558 -0.6452
  867MPD2    H712786   3.933   1.676  16.723 -3.3578 -0.2194 -2.3322
  868MPD2     C12787   0.349   1.391  13.132 -0.2861  0.7862 -0.1297
  868MPD2    C112788   0.418   1.326  13.232  0.5211 -0.1869  0.1055
  868MPD2    C212789   0.352   1.279  13.339 -0.4169 -0.2163  0.2524
  868MPD2    C312790   0.215   1.302  13.351  0.7253  0.2492 -0.3115
  868MPD2    C412791   0.143   1.359  13.254 -0.4681  0.5227 -0.5101
  868MPD2    C512792   0.210   1.407  13.148 -0.4521  0.5527 -0.0320
  868MPD2     H12793   0.409   1.233  13.419 -0.7276  1.0117  1.1786
  868MPD2    H112794   0.037   1.378  13.250 -0.5161  0.2334 -0.5830
  868MPD2    H212795   0.399   1.425  13.042  0.7593 -0.6200 -0.0754
  868MPD2    H312796   0.153   1.466  13.077 -0.4573  0.3852 -0.1671
  868MPD2     N12797   0.151   1.238  13.462  0.0497  0.0174 -0.8148
  868MPD2    H512798   0.213   1.197  13.531  1.4908  3.9319  0.1999
  868MPD2    N112799   0.558   1.301  13.215  0.6409 -0.0206  0.1268
  868MPD2    H712800   0.599   1.350  13.136  0.3206  1.3014  0.7859
  869MPD2     C12801   2.161   3.335   0.289 -0.0833 -0.7109  0.0447
  869MPD2    C112802   2.124   3.446   0.220 -0.0546  0.9061 -0.4359
  869MPD2    C212803   2.195   3.565   0.235 -0.2333 -0.0928  0.0565
  869MPD2    C312804   2.283   3.578   0.342  0.0298 -0.7461 -0.5241
  869MPD2    C412805   2.300   3.464   0.416 -0.0888  0.6795  0.0542
  869MPD2    C512806   2.264   3.340   0.377  0.2432  0.2387  0.4991
  869MPD2     H12807   2.152   3.656   0.194  2.1231  0.1204 -1.9780
  869MPD2    H112808   2.348   3.465   0.514 -1.6690 -1.5790  0.8565
  869MPD2    H212809   2.131   3.234   0.261  1.2506 -1.4420  1.2482
  869MPD2    H312810   2.295   3.253   0.433  1.5917  0.3560 -0.0495
  869MPD2     N12811   2.340   3.695   0.388  0.0795 -0.8186 -0.4077
  869MPD2    H512812   2.373   3.686   0.484  2.8947  1.3145 -1.2081
  869MPD2    N112813   2.015   3.445   0.123  0.1145  0.5224 -0.0569
  869MPD2    H712814   1.997   3.532   0.073 -0.5167  0.4760  0.0885
  870MPD2     C12815   2.346   2.583   1.942 -0.3719 -0.3193 -0.2963
  870MPD2    C112816   2.346   2.512   1.828  1.0509  0.2245 -0.8967
  870MPD2    C212817   2.296   2.564   1.708 -0.4463 -1.1723 -0.3528
  870MPD2    C312818   2.234   2.688   1.714  0.1617  0.0854  0.6273
  870MPD2    C412819   2.226   2.753   1.833 -0.2042 -0.7886 -0.4551
  870MPD2    C512820   2.292   2.710   1.944 -0.3184  0.2024  0.7594
  870MPD2     H12821   2.299   2.521   1.609  0.2880 -0.7901 -0.4945
  870MPD2    H112822   2.190   2.855   1.837 -0.5889 -1.0558  2.9566
  870MPD2    H212823   2.388   2.549   2.036 -0.7733 -1.9466 -0.7115
  870MPD2    H312824   2.309   2.769   2.034  2.3336  0.0207  0.3731
  870MPD2     N12825   2.158   2.724   1.598  0.0357 -0.0751 -0.2000
  870MPD2    H512826   2.167   2.664   1.516  1.4586  0.7735 -0.6657
  870MPD2    N112827   2.403   2.379   1.829  0.1294  0.1652 -0.1158
  870MPD2    H712828   2.434   2.334   1.915  1.2990 -1.7732 -1.5621
  871MPD2     C12829   3.242   2.195  16.274 -0.1159  0.0592  0.6523
  871MPD2    C112830   3.199   2.129  16.386 -0.0099 -0.1560 -0.3107
  871MPD2    C212831   3.164   1.995  16.372  0.1392  0.4314  0.1600
  871MPD2    C312832   3.171   1.930  16.248  0.2083 -0.7275 -0.4196
  871MPD2    C412833   3.210   2.002  16.133  0.2790  0.7376  0.0667
  871MPD2    C512834   3.247   2.133  16.153 -0.6965  0.2019  0.6080
  871MPD2     H12835   3.116   1.932  16.446 -0.9674  0.6510 -0.3617
  871MPD2    H112836   3.207   1.953  16.036  0.2155 -0.3630  0.6302
  871MPD2    H212837   3.282   2.296  16.286  0.6678 -0.3168  1.1833
  871MPD2    H312838   3.281   2.194  16.069  0.7398 -1.2466  0.1434
  871MPD2     N12839   3.140   1.794  16.244 -0.4438 -0.3648  0.1707
  871MPD2    H512840   3.097   1.744  16.321  0.1924 -3.2199 -1.2974
  871MPD2    N112841   3.198   2.199  16.502  0.1152 -0.6324 -0.3129
  871MPD2    H712842   3.250   2.286  16.495 -0.0972 -0.4860 -0.0421
  872MPD2     C12843   4.066   4.274  14.125 -0.3086  0.2984  0.1521
  872MPD2    C112844   3.971   4.359  14.068  0.2079 -0.2432  0.3978
  872MPD2    C212845   3.865   4.402  14.144 -0.3096  0.5237  0.1184
  872MPD2    C312846   3.843   4.351  14.270  0.1039  0.4352  0.7717
  872MPD2    C412847   3.926   4.255  14.317  0.5744 -0.1118 -0.1397
  872MPD2    C512848   4.041   4.226  14.249 -1.1254  1.3906  0.0243
  872MPD2     H12849   3.801   4.483  14.113 -1.5627 -0.8783 -0.9651
  872MPD2    H112850   3.905   4.208  14.412  0.9703  0.4009  0.2076
  872MPD2    H212851   4.154   4.239  14.071  0.6831  2.7097  0.1845
  872MPD2    H312852   4.106   4.154  14.297 -1.4243 -1.0981 -3.2737
  872MPD2     N12853   3.734   4.375  14.356  0.9592  0.0737  0.0713
  872MPD2    H512854   3.728   4.324  14.444  2.2512 -2.6008 -1.4041
  872MPD2    N112855   3.994   4.406  13.935 -0.3820  0.0367 -0.2595
  872MPD2    H712856   4.087   4.378  13.907  0.3229  0.5377  1.5807
  873MPD2     C12857   0.443   0.405   0.631  0.7699 -0.1326 -0.8781
  873MPD2    C112858   0.551   0.355   0.704 -0.4674 -0.1712  0.4674
  873MPD2    C212859   0.603   0.235   0.663  0.2050 -0.5041  0.0545
  873MPD2    C312860   0.549   0.172   0.553  0.3977 -0.0657 -0.5642
  873MPD2    C412861   0.444   0.225   0.483  0.2176 -0.3766  0.5988
  873MPD2    C512862   0.390   0.345   0.525  0.0346 -0.0509  0.5240
  873MPD2     H12863   0.677   0.182   0.722 -0.1241  0.3345  1.2194
  873MPD2    H112864   0.413   0.188   0.386  0.4936  2.2409 -0.5068
  873MPD2    H212865   0.402   0.500   0.664  0.5304 -0.5697  0.0818
  873MPD2    H312866   0.301   0.384   0.476  1.1698  2.7422  0.6848
  873MPD2     N12867   0.601   0.045   0.508 -0.6474 -0.2891 -0.6527
  873MPD2    H512868   0.543   0.002   0.437  1.4386 -2.0678 -1.2939
  873MPD2    N112869   0.591   0.424   0.821 -0.6150  0.1698 -0.1095
  873MPD2    H712870   0.524   0.491   0.857 -1.5510 -0.3121 -0.9457
  874MPD2     C12871   0.311   4.430  16.042  0.1368 -0.3440  0.1800
  874MPD2    C112872   0.417   4.345  16.081  0.2391 -0.9225  0.2566
  874MPD2    C212873   0.531   4.352  16.007  0.8491 -0.4095 -0.0807
  874MPD2    C312874   0.554   4.445  15.902 -0.0742  0.7540  1.1403
  874MPD2    C412875   0.447   4.527  15.873 -0.6259  0.4740 -0.2115
  874MPD2    C512876   0.327   4.519  15.940  0.0447  0.6087 -0.1464
  874MPD2     H12877   0.606   4.278  16.035 -0.5290 -2.5083 -1.9416
  874MPD2    H112878   0.452   4.606  15.799  1.4708 -0.6008 -1.2162
  874MPD2    H212879   0.215   4.429  16.093  0.3118 -0.3245  0.5090
  874MPD2    H312880   0.242   4.577  15.905  0.3231  0.1577 -1.5719
  874MPD2     N12881   0.683   4.454  15.846  0.4294 -0.1466 -0.4299
  874MPD2    H512882   0.753   4.386  15.874  2.4314  1.2880 -1.9847
  874MPD2    N112883   0.390   4.252  16.184 -0.7265 -0.4380 -0.2132
  874MPD2    H712884   0.294   4.243  16.214 -0.9297 -0.0927 -0.7435
  875MPD2     C12885   1.958   2.905  14.278 -0.4890  0.2567  0.4277
  875MPD2    C112886   1.815   2.898  14.263 -0.7217  0.3126 -0.3868
  875MPD2    C212887   1.744   2.892  14.383  0.4514 -0.1613 -1.2181
  875MPD2    C312888   1.799   2.921  14.508  0.3857  0.7031 -0.1783
  875MPD2    C412889   1.934   2.916  14.516  0.2715 -0.3595 -0.4578
  875MPD2    C512890   2.010   2.908  14.400 -0.6741  0.3088 -0.4024
  875MPD2     H12891   1.637   2.896  14.370  0.4730 -0.7160 -1.5527
  875MPD2    H112892   1.988   2.944  14.605 -0.6390  0.9441 -0.3171
  875MPD2    H212893   2.021   2.903  14.190 -1.2312  1.1558 -0.1322
  875MPD2    H312894   2.115   2.932  14.411 -0.9058  1.2840 -0.3117
  875MPD2     N12895   1.724   2.949  14.625 -0.0434 -0.3468  0.4349
  875MPD2    H512896   1.772   2.967  14.713  0.4429  1.1919 -0.1405
  875MPD2    N112897   1.755   2.884  14.138  0.0800 -0.3437 -0.8556
  875MPD2    H712898   1.654   2.873  14.132 -0.2003  1.6209  0.0813
  876MPD2     C12899   0.493   4.290  15.613  0.4166 -0.0500 -0.0798
  876MPD2    C112900   0.592   4.225  15.536 -0.2856  0.1660  0.3541
  876MPD2    C212901   0.622   4.090  15.563 -0.0740  0.4856  0.3172
  876MPD2    C312902   0.553   4.018  15.660  0.2234  0.6881  0.0244
  876MPD2    C412903   0.459   4.090  15.733  0.1338 -0.7304 -0.1969
  876MPD2    C512904   0.423   4.216  15.704 -0.2179  0.6832 -0.3420
  876MPD2     H12905   0.693   4.040  15.498 -1.9281 -1.0155 -0.5655
  876MPD2    H112906   0.389   4.038  15.797 -0.0750 -0.4809 -0.2197
  876MPD2    H212907   0.467   4.394  15.597 -0.1525 -0.0448  0.9051
  876MPD2    H312908   0.341   4.261  15.760  0.0080  2.9243 -1.7975
  876MPD2     N12909   0.593   3.880  15.677  0.2259 -0.4952 -0.3101
  876MPD2    H512910   0.667   3.852  15.613  0.0552 -0.5480 -0.4852
  876MPD2    N112911   0.653   4.291  15.424  0.1848 -0.1609 -0.1560
  876MPD2    H712912   0.611   4.379  15.395  1.1116 -0.0934 -1.3340
  877MPD2     C12913   0.499   4.649  14.758  0.8869 -0.6844 -0.0731
  877MPD2    C112914   0.619   4.591  14.742  0.9500  0.5181  0.7937
  877MPD2    C212915   0.681   4.597  14.616 -0.0525 -0.6760  0.5171
  877MPD2    C312916   0.609   4.643  14.502 -1.3055  0.0496  0.7517
  877MPD2    C412917   0.481   4.689  14.520 -0.2534 -0.5012 -0.0747
  877MPD2    C512918   0.430   4.708  14.649 -0.2639 -0.7103  0.2976
  877MPD2     H12919   0.780   4.552  14.615  0.2051 -0.0692 -1.1369
  877MPD2    H112920   0.416   4.719  14.439 -1.2520  1.2414  1.3647
  877MPD2    H212921   0.444   4.664  14.851 -0.1774  1.8643 -1.1018
  877MPD2    H312922   0.334   0.011  14.675 -0.1225 -0.8737  1.1119
  877MPD2     N12923   0.663   4.639  14.374 -0.7790  0.1595  0.1880
  877MPD2    H512924   0.589   4.646  14.306  0.2975  2.5154 -0.7519
  877MPD2    N112925   0.694   4.536  14.847 -0.1882  0.0172 -0.2401
  877MPD2    H712926   0.789   4.503  14.832  0.4444  2.4860 -1.6974
  878MPD2     C12927   0.031   3.988  12.987 -0.2560  0.3272 -0.3209
  878MPD2    C112928   0.161   4.034  12.976  0.6679 -0.6070  0.4490
  878MPD2    C212929   0.233   4.043  13.096  0.8027 -0.3580 -0.3383
  878MPD2    C312930   0.177   4.021  13.224  0.7473 -0.7842  0.3990
  878MPD2    C412931   0.046   3.984  13.224  0.1164 -0.6720  0.6875
  878MPD2    C512932   4.712   3.965  13.114 -0.1703  0.0840 -0.2407
  878MPD2     H12933   0.338   4.065  13.086  0.8909 -0.7805 -0.3344
  878MPD2    H112934   4.726   3.963  13.313  0.2172  1.5421  1.2671
  878MPD2    H212935   4.713   3.976  12.895 -2.6321  0.1133  1.1611
  878MPD2    H312936   4.611   3.926  13.111  1.0668 -3.1460 -0.5442
  878MPD2     N12937   0.252   4.040  13.341 -0.7066 -0.6838  0.1526
  878MPD2    H512938   0.352   4.056  13.332 -1.1307  1.3220 -1.0821
  878MPD2    N112939   0.212   4.058  12.846  0.8474  0.1777 -0.0831
  878MPD2    H712940   0.136   4.050  12.779  0.3769 -0.8614  0.5686
  879MPD2     C12941   0.864   4.692  16.799 -0.2256 -0.0327 -0.5149
  879MPD2    C112942   0.931   0.055  16.728 -0.3595  0.1691 -0.3042
  879MPD2    C212943   0.919   0.066  16.589 -0.3945  0.1703 -0.0011
  879MPD2    C312944   0.831   4.722  16.521  0.7443  0.0131 -0.2872
  879MPD2    C412945   0.782   4.612  16.597  0.3833 -0.3668  0.5726
  879MPD2    C512946   0.794   4.599  16.733 -0.2664 -0.6963 -0.3544
  879MPD2     H12947   0.982   0.140  16.542  0.1609  0.0389  0.5351
  879MPD2    H112948   0.726   4.537  16.544  1.1715 -0.9114  0.5100
  879MPD2    H212949   0.855   4.694  16.907 -1.4364 -0.6400 -0.6067
  879MPD2    H312950   0.752   4.514  16.784  1.3302 -0.5853  1.1820
  879MPD2     N12951   0.792   4.735  16.385 -0.0889  0.0687  0.7757
  879MPD2    H512952   0.736   4.657  16.353  0.7692 -0.5098  0.7096
  879MPD2    N112953   1.015   0.139  16.813  0.5512 -0.3085  0.2865
  879MPD2    H712954   1.002   0.124  16.913  2.0399  0.2401  0.5577
  880MPD2     C12955   2.115   2.033  17.732  0.0725  0.0075  0.1275
  880MPD2    C112956   2.140   2.070   0.106 -0.0258 -0.4674 -0.6302
  880MPD2    C212957   2.178   1.970   0.188  0.1403 -0.6635 -0.3401
  880MPD2    C312958   2.184   1.837   0.154 -0.4047 -0.6824  0.1241
  880MPD2    C412959   2.156   1.795   0.025  0.3272  0.0137 -0.2958
  880MPD2    C512960   2.133   1.898  17.694 -0.4697  0.3431  0.1203
  880MPD2     H12961   2.212   1.988   0.290  0.4371  0.0981 -0.5736
  880MPD2    H112962   2.156   1.691  17.749  0.8207 -0.0368 -0.1151
  880MPD2    H212963   2.095   2.109  17.657  0.8273 -0.0466 -0.1293
  880MPD2    H312964   2.126   1.875  17.588 -1.9007 -0.6016  0.4175
  880MPD2     N12965   2.231   1.746   0.245  0.2616  0.2326 -0.5088
  880MPD2    H512966   2.259   1.797   0.328 -2.0239  0.1929  0.2803
  880MPD2    N112967   2.134   2.208   0.147 -0.9318  0.8492  0.1863
  880MPD2    H712968   2.103   2.281   0.084  0.8832 -0.4902 -2.2188
  881MPD2     C12969   2.353   3.116  17.649 -0.3120 -0.6989 -0.1589
  881MPD2    C112970   2.366   2.985  17.617 -0.4539 -0.4292  0.0097
  881MPD2    C212971   2.316   2.889  17.704  0.1051 -0.7310 -1.1367
  881MPD2    C312972   2.283   2.929   0.078 -0.3065  0.2308 -1.5007
  881MPD2    C412973   2.285   3.061   0.118  0.4262  0.2740  0.1214
  881MPD2    C512974   2.325   3.152   0.029  0.6091 -0.4103  0.3540
  881MPD2     H12975   2.301   2.786  17.673  1.6795 -1.3247  0.0639
  881MPD2    H112976   2.264   3.080   0.223 -0.9573 -0.3741 -0.0318
  881MPD2    H212977   2.388   3.190  17.578  1.7325 -1.6452 -0.1206
  881MPD2    H312978   2.326   3.256   0.061 -0.0072  0.4275 -2.3475
  881MPD2     N12979   2.248   2.836   0.179  0.0909  0.3526  0.1984
  881MPD2    H512980   2.229   2.863   0.275 -0.2260 -0.5620  0.4022
  881MPD2    N112981   2.382   2.962  17.483 -0.1605  0.4864  0.0732
  881MPD2    H712982   2.392   3.040  17.419  1.0615 -1.3954 -2.0414
  882MPD2     C12983   0.399   4.431  13.647  0.5752 -0.5107  0.1259
  882MPD2    C112984   0.403   4.452  13.786 -0.7780 -0.2759  0.1031
  882MPD2    C212985   0.289   4.447  13.865  0.8337 -0.0117  0.4435
  882MPD2    C312986   0.173   4.415  13.806 -0.3000  0.4276  0.0751
  882MPD2    C412987   0.171   4.392  13.674 -0.5449 -0.1601 -0.6461
  882MPD2    C512988   0.278   4.411  13.595  0.4467  0.1087 -0.0583
  882MPD2     H12989   0.301   4.444  13.972 -2.4403 -2.1198  0.7340
  882MPD2    H112990   0.082   4.361  13.620 -0.7985  1.7210 -1.3132
  882MPD2    H212991   0.489   4.424  13.586  0.6573  1.1876  0.0598
  882MPD2    H312992   0.272   4.395  13.488  1.8549 -1.3748  0.0854
  882MPD2     N12993   0.066   4.396  13.894 -0.0707 -0.3805  0.0968
  882MPD2    H512994   0.070   4.423  13.992 -0.7642  0.2383 -0.0483
  882MPD2    N112995   0.530   4.491  13.834  0.5593  0.0036  0.0167
  882MPD2    H712996   0.613   4.463  13.783 -1.5261  1.4035 -4.1406
  883MPD2     C12997   2.529   4.219  16.053 -0.5685  0.8664 -1.1446
  883MPD2    C112998   2.545   4.329  15.975 -0.0403 -0.0669 -0.3536
  883MPD2    C212999   2.635   4.425  16.022  0.3629  1.0184  0.0287
  883MPD2    C313000   2.700   4.412  16.143  0.0393 -0.5561 -0.2522
  883MPD2    C413001   2.685   4.301  16.217  0.6107  0.2820 -0.0375
  883MPD2    C513002   2.599   4.197  16.167  0.9639 -0.8315 -0.1861
  883MPD2     H13003   2.653   4.503  15.949  3.4391 -0.2494 -0.5559
  883MPD2    H113004   2.746   4.281  16.305  2.0885 -0.8846 -1.3349
  883MPD2    H213005   2.467   4.139  16.015  2.9222 -2.1306 -0.4564
  883MPD2    H313006   2.583   4.105  16.221  0.4510 -0.4164  0.3783
  883MPD2     N13007   2.799   4.508  16.169 -0.1699  0.0709 -0.6549
  883MPD2    H513008   2.817   4.575  16.095  2.7939 -0.4828 -0.4087
  883MPD2    N113009   2.470   4.342  15.853  0.5032 -0.1019  0.3820
  883MPD2    H713010   2.470   4.435  15.812 -0.0026 -1.0612 -1.8099
  884MPD2     C13011   4.449   0.330  14.741 -0.0721  0.3489  0.1836
  884MPD2    C113012   4.461   0.449  14.663  0.5838 -0.2944 -0.0503
  884MPD2    C213013   4.405   0.572  14.702  0.3268 -0.6598  0.4426
  884MPD2    C313014   4.314   0.573  14.810  0.0920  0.1244 -0.0634
  884MPD2    C413015   4.303   0.458  14.882 -0.7170  0.2975 -0.4893
  884MPD2    C513016   4.366   0.340  14.848  0.0601  0.5136  0.0634
  884MPD2     H13017   4.416   0.657  14.635  1.2693  0.0421  1.4692
  884MPD2    H113018   4.238   0.449  14.968 -1.0590  2.0673 -0.5728
  884MPD2    H213019   4.493   0.236  14.709 -1.9444 -1.3929  2.7320
  884MPD2    H313020   4.341   0.254  14.909 -0.3214  0.3164 -0.3688
  884MPD2     N13021   4.236   0.676  14.842  0.0305 -0.1620 -0.1623
  884MPD2    H513022   4.162   0.658  14.909 -0.9276 -1.9250 -1.7175
  884MPD2    N113023   4.524   0.443  14.537  0.1992 -0.2469 -0.2337
  884MPD2    H713024   4.540   0.537  14.503 -0.7845 -0.5897 -1.6673
  885MPD2     C13025   2.636   1.315   0.042 -0.2246 -0.3153 -0.8528
  885MPD2    C113026   2.619   1.181   0.031  0.0421  0.3256 -0.0558
  885MPD2    C213027   2.573   1.124  17.665 -0.2665 -0.1782  0.5010
  885MPD2    C313028   2.540   1.208  17.558 -0.5261 -0.6972  0.5357
  885MPD2    C413029   2.547   1.344  17.576 -0.4089 -0.9554  0.4335
  885MPD2    C513030   2.601   1.390  17.688 -0.0223 -0.2363  0.2669
  885MPD2     H13031   2.544   1.020  17.668  0.8181 -0.5518 -1.8849
  885MPD2    H113032   2.538   1.422  17.501 -0.4377 -1.8239 -0.4632
  885MPD2    H213033   2.685   1.351   0.132  0.9549  1.3585 -2.1633
  885MPD2    H313034   2.628   1.495  17.685  0.9162 -0.5074 -0.4530
  885MPD2     N13035   2.493   1.150  17.436 -0.5319  0.2405  0.2437
  885MPD2    H513036   2.492   1.049  17.424 -2.6909  0.2561  0.2450
  885MPD2    N113037   2.664   1.113   0.146 -0.3016 -0.0130 -0.6093
  885MPD2    H713038   2.690   1.168   0.228 -2.0878 -0.2738  0.1247
  886MPD2     C13039   3.747   4.182  15.258  0.3718 -0.2082  0.4292
  886MPD2    C113040   3.873   4.147  15.220  1.2558  0.0491 -0.5956
  886MPD2    C213041   3.931   4.214  15.123  0.6814 -0.3305  0.0365
  886MPD2    C313042   3.865   4.324  15.063  0.9923  0.6732  0.2173
  886MPD2    C413043   3.737   4.357  15.102 -0.4935 -0.1368 -0.8514
  886MPD2    C513044   3.678   4.278  15.194  0.2432  0.0476 -0.4871
  886MPD2     H13045   4.031   4.186  15.091  1.1711  2.3897 -0.8098
  886MPD2    H113046   3.675   4.434  15.057  2.9117  2.1479 -1.6571
  886MPD2    H213047   3.689   4.117  15.322 -0.5278 -0.0789 -0.2461
  886MPD2    H313048   3.575   4.300  15.221 -0.0159  0.4650 -1.7692
  886MPD2     N13049   3.923   4.389  14.954  0.1251 -0.2915 -0.3495
  886MPD2    H513050   3.864   4.450  14.898 -1.1726 -1.3805 -0.1544
  886MPD2    N113051   3.943   4.034  15.274 -0.2794  0.2232 -0.6076
  886MPD2    H713052   4.029   3.999  15.233 -1.5437  0.0097 -3.0950
  887MPD2     C13053   4.427   4.261  15.657 -0.6749  0.2301  0.7386
  887MPD2    C113054   4.443   4.215  15.528 -0.6640  0.9166  0.5660
  887MPD2    C213055   4.531   4.281  15.442  0.2083 -0.0395  0.2482
  887MPD2    C313056   4.605   4.383  15.497 -0.5174  0.3198 -1.3391
  887MPD2    C413057   4.580   4.433  15.624 -0.0071  0.4498 -0.1863
  887MPD2    C513058   4.489   4.372  15.705 -0.4253  0.1527 -0.3402
  887MPD2     H13059   4.549   4.241  15.343  2.9848  1.8919 -0.0003
  887MPD2    H113060   4.630   4.522  15.659  1.7259  0.1709 -1.9476
  887MPD2    H213061   4.355   4.211  15.720 -0.0100 -1.1823  0.3677
  887MPD2    H313062   4.455   4.413  15.799  0.5663  0.5783 -0.1678
  887MPD2     N13063   4.706   4.442  15.423 -0.2839 -0.2330 -0.0230
  887MPD2    H513064   4.715   4.407  15.328  1.0320 -1.4247  0.5473
  887MPD2    N113065   4.379   4.100  15.484 -0.9170 -0.3738  0.2283
  887MPD2    H713066   4.377   4.080  15.385  0.1890  1.1668 -0.1046
  888MPD2     C13067   1.439   3.734  14.843  0.6019  0.3607 -0.9680
  888MPD2    C113068   1.483   3.736  14.974  0.5358 -0.1602  0.4300
  888MPD2    C213069   1.576   3.828  15.013  0.8434  0.1718  0.3612
  888MPD2    C313070   1.625   3.917  14.913 -0.5030 -0.4392 -0.4805
  888MPD2    C413071   1.584   3.909  14.784  0.1297  0.4106 -0.4012
  888MPD2    C513072   1.490   3.811  14.752  0.6579 -0.7065  0.0801
  888MPD2     H13073   1.589   3.847  15.119 -0.4437  2.1682  0.1668
  888MPD2    H113074   1.604   3.985  14.710  0.9772  0.5413 -0.0438
  888MPD2    H213075   1.353   3.678  14.808 -0.3481 -0.6541  3.0306
  888MPD2    H313076   1.459   3.818  14.649  1.1867 -0.9309 -0.0962
  888MPD2     N13077   1.714   4.024  14.953  0.3918 -0.0524 -0.3001
  888MPD2    H513078   1.732   4.047  15.050 -1.0866  0.6168 -0.1802
  888MPD2    N113079   1.435   3.652  15.074  0.2013 -0.3195  0.1271
  888MPD2    H713080   1.467   3.671  15.168  0.0741 -0.3108  0.1695
  889MPD2     C13081   1.316   3.627  12.781  0.2861  0.2939 -0.3264
  889MPD2    C113082   1.314   3.628  12.917 -0.6243 -0.1833 -0.0927
  889MPD2    C213083   1.370   3.741  12.976  0.0345  0.1920  0.2692
  889MPD2    C313084   1.363   3.865  12.917  0.4465 -0.2806 -0.0202
  889MPD2    C413085   1.343   3.871  12.785  1.0962  0.0595 -0.0428
  889MPD2    C513086   1.316   3.753  12.719 -0.2477 -0.6114  0.3246
  889MPD2     H13087   1.372   3.738  13.084  0.1901 -2.7896  0.1954
  889MPD2    H113088   1.331   3.961  12.726 -0.3390  1.9999  3.2390
  889MPD2    H213089   1.285   3.543  12.720  3.5570  0.1285 -1.8180
  889MPD2    H313090   1.306   3.756  12.611 -0.3030 -2.0078  0.2824
  889MPD2     N13091   1.376   3.984  12.977 -0.3027 -0.4385 -0.8933
  889MPD2    H513092   1.351   4.062  12.917  0.9913  0.9568  0.3677
  889MPD2    N113093   1.310   3.508  12.996 -0.7265 -0.8336  0.2744
  889MPD2    H713094   1.349   3.512  13.089 -2.4120 -0.3426  0.9418
  890MPD2     C13095   0.594   0.893  14.473  0.2949  0.4328  0.0835
  890MPD2    C113096   0.683   0.967  14.539 -0.1024 -0.1909 -0.5927
  890MPD2    C213097   0.791   0.902  14.602 -0.2221  0.9595  0.5673
  890MPD2    C313098   0.795   0.764  14.623 -0.0419 -0.3473  0.2095
  890MPD2    C413099   0.700   0.693  14.555 -0.7052  0.4170 -1.0328
  890MPD2    C513100   0.608   0.751  14.470 -0.1636 -0.1319 -0.6461
  890MPD2     H13101   0.876   0.956  14.639  2.0696 -1.5403 -1.0616
  890MPD2    H113102   0.710   0.585  14.554 -0.3310  0.4583 -1.8291
  890MPD2    H213103   0.505   0.929  14.424 -0.9407 -0.7815  1.4413
  890MPD2    H313104   0.530   0.692  14.424  0.6634 -2.0604  0.4625
  890MPD2     N13105   0.909   0.708  14.697 -0.6716 -0.1819  0.1863
  890MPD2    H513106   0.981   0.767  14.739 -0.9507  1.2863 -1.3829
  890MPD2    N113107   0.667   1.108  14.538  0.8567  0.2715 -0.1076
  890MPD2    H713108   0.570   1.135  14.526  0.7583  1.0739  2.4424
  891MPD2     C13109   3.360   3.624  16.627 -0.0215 -0.4396 -0.5935
  891MPD2    C113110   3.362   3.756  16.646 -0.4216  0.3653 -0.2324
  891MPD2    C213111   3.449   3.810  16.736 -0.6224 -0.1370 -0.1877
  891MPD2    C313112   3.551   3.731  16.800  0.5105  0.0204  1.1187
  891MPD2    C413113   3.546   3.598  16.778 -0.0082  0.0416 -0.4153
  891MPD2    C513114   3.453   3.545  16.691  0.4861 -0.5708  0.4877
  891MPD2     H13115   3.448   3.918  16.745  1.6018 -0.0067 -1.7402
  891MPD2    H113116   3.616   3.535  16.832 -1.0785  0.3338  1.2971
  891MPD2    H213117   3.286   3.576  16.564 -2.1287 -0.6872  2.0722
  891MPD2    H313118   3.464   3.441  16.663  1.8848 -0.6762  1.4707
  891MPD2     N13119   3.663   3.787  16.867  0.1332 -0.0170 -0.5209
  891MPD2    H513120   3.653   3.882  16.901 -0.1219  0.1522 -1.0743
  891MPD2    N113121   3.268   3.823  16.570 -0.1565 -0.0487 -0.4788
  891MPD2    H713122   3.233   3.765  16.495  0.6189  0.3456 -1.1424
  892MPD2     C13123   4.327   0.344  14.104 -0.2719 -0.7627 -0.2874
  892MPD2    C113124   4.262   0.252  14.177 -0.5003  0.1045  0.5235
  892MPD2    C213125   4.309   0.122  14.179 -0.2888 -0.7336  0.4747
  892MPD2    C313126   4.434   0.091  14.125  0.1334 -0.4083  0.3410
  892MPD2    C413127   4.503   0.190  14.057  0.0697 -0.5945  0.4400
  892MPD2    C513128   4.452   0.316  14.052 -0.2381  0.0213 -0.1421
  892MPD2     H13129   4.267   0.049  14.247  1.8183 -0.3861  2.1500
  892MPD2    H113130   4.594   0.168  14.001  0.7509 -0.6038  1.5548
  892MPD2    H213131   4.289   0.446  14.102  0.9152 -0.3011  0.5799
  892MPD2    H313132   4.499   0.390  13.987 -2.2797  0.5110 -1.0382
  892MPD2     N13133   4.479   4.699  14.109 -0.8549 -0.1090  0.1729
  892MPD2    H513134   4.569   4.685  14.064 -0.4749 -0.7413  1.1349
  892MPD2    N113135   4.141   0.274  14.247  0.0365  0.1039  0.3689
  892MPD2    H713136   4.109   0.194  14.301 -3.0921  1.7964  0.9846
  893MPD2     C13137   0.914   3.752   1.231  0.1094  0.4654 -0.3027
  893MPD2    C113138   0.929   3.730   1.095  0.1235 -0.5574 -0.2667
  893MPD2    C213139   0.829   3.777   1.014 -0.2579  0.1598 -0.7093
  893MPD2    C313140   0.726   3.851   1.062  0.4089  0.3849 -0.2502
  893MPD2    C413141   0.712   3.867   1.196  0.3319 -0.3122  0.3080
  893MPD2    C513142   0.803   3.818   1.276  0.3045 -0.0675 -0.4952
  893MPD2     H13143   0.848   3.787   0.908 -1.2908  0.2881 -0.8860
  893MPD2    H113144   0.630   3.929   1.232  0.1501  0.0307 -0.6905
  893MPD2    H213145   0.985   3.707   1.299 -0.1198 -0.8432 -0.9306
  893MPD2    H313146   0.806   3.835   1.384 -0.9618  0.8576 -0.6011
  893MPD2     N13147   0.638   3.925   0.990  0.1902  0.1401  0.1377
  893MPD2    H513148   0.568   3.978   1.040 -0.2981  0.4666 -0.8871
  893MPD2    N113149   1.032   3.637   1.059 -0.1392 -0.0205  0.7556
  893MPD2    H713150   1.083   3.602   1.140  0.8736  0.4332  0.3169
  894MPD2     C13151   4.278   0.292   0.689 -0.5762 -0.1084  0.3838
  894MPD2    C113152   4.274   0.421   0.742 -0.3952  0.7888 -0.2832
  894MPD2    C213153   4.335   0.524   0.676 -0.9235  0.4478  0.2141
  894MPD2    C313154   4.405   0.508   0.559  0.3292  0.1786 -0.7314
  894MPD2    C413155   4.406   0.381   0.507  0.0555  0.3088 -0.1535
  894MPD2    C513156   4.347   0.276   0.571  0.3156  0.2290 -0.4818
  894MPD2     H13157   4.339   0.624   0.718  2.8740  0.8524 -1.0419
  894MPD2    H113158   4.454   0.351   0.414 -2.7909 -1.6640 -1.0051
  894MPD2    H213159   4.234   0.204   0.736 -1.4555  0.8514  1.3444
  894MPD2    H313160   4.357   0.180   0.521  1.6314 -0.0895  0.3745
  894MPD2     N13161   4.456   0.619   0.489 -0.8145 -0.2586  0.1920
  894MPD2    H513162   4.442   0.701   0.546  1.1217  1.4267 -1.7648
  894MPD2    N113163   4.216   0.443   0.868 -0.5062  0.5809  0.4349
  894MPD2    H713164   4.195   0.537   0.898  1.7731  2.0360 -2.5375
  895MPD2     C13165   3.033   4.252  13.978  0.3358 -0.0685 -0.8168
  895MPD2    C113166   3.110   4.341  13.913  0.0972 -0.5036 -0.3961
  895MPD2    C213167   3.248   4.350  13.934  0.2123 -0.0395  0.3065
  895MPD2    C313168   3.310   4.273  14.030 -0.3348 -0.3524 -0.8830
  895MPD2    C413169   3.226   4.187  14.100  0.1939  0.2816 -0.1588
  895MPD2    C513170   3.097   4.170  14.074  0.3695 -0.2390  0.1873
  895MPD2     H13171   3.303   4.408  13.862 -0.8571 -1.5869 -1.7628
  895MPD2    H113172   3.264   4.118  14.175  1.0917  0.4254 -0.4765
  895MPD2    H213173   2.929   4.228  13.957 -0.2924  2.7615 -1.0033
  895MPD2    H313174   3.050   4.094  14.136  1.9683  0.7754  2.6466
  895MPD2     N13175   3.449   4.281  14.035  0.0895 -0.1671  0.1521
  895MPD2    H513176   3.492   4.341  13.966  0.9384 -0.7456  0.1731
  895MPD2    N113177   3.064   4.424  13.810 -0.1275  0.0111 -0.0338
  895MPD2    H713178   3.139   4.478  13.770 -0.8937  1.0513 -0.0538
  896MPD2     C13179   1.401   1.900   1.403 -0.4701  0.4134  0.2867
  896MPD2    C113180   1.423   1.842   1.276  0.1832  0.1311  0.6912
  896MPD2    C213181   1.311   1.789   1.220  0.0500  0.5410  0.6017
  896MPD2    C313182   1.182   1.819   1.264 -0.0113 -0.5301 -0.0587
  896MPD2    C413183   1.171   1.890   1.382 -0.6071  0.2841 -0.9941
  896MPD2    C513184   1.279   1.916   1.448 -0.1562  0.4244  0.8080
  896MPD2     H13185   1.323   1.720   1.137  0.4919  1.9211 -0.4765
  896MPD2    H113186   1.070   1.918   1.411 -0.4628  0.6595 -0.8502
  896MPD2    H213187   1.482   1.922   1.472  1.3143  0.7821 -1.9175
  896MPD2    H313188   1.263   1.961   1.545 -0.2561  0.2576  0.8693
  896MPD2     N13189   1.072   1.769   1.193 -0.0730  0.4868 -0.6670
  896MPD2    H513190   1.101   1.717   1.111  1.7359 -0.7239  0.7384
  896MPD2    N113191   1.553   1.826   1.222 -0.0493  0.0833  0.0723
  896MPD2    H713192   1.631   1.846   1.284 -0.5845 -0.8987  1.0749
  897MPD2     C13193   2.171   3.559  10.184  0.0755 -0.1378  0.2114
  897MPD2    C113194   2.183   3.649  10.288  0.1951 -0.4378 -0.3474
  897MPD2    C213195   2.141   3.605  10.417  0.0934  0.2133  0.2088
  897MPD2    C313196   2.083   3.479  10.444 -0.3506  0.5865 -0.3112
  897MPD2    C413197   2.072   3.391  10.340 -0.1042  0.1029  0.3381
  897MPD2    C513198   2.103   3.433  10.210 -0.1426 -0.0976  0.9095
  897MPD2     H13199   2.125   3.673  10.500 -2.0538 -0.3093  0.2041
  897MPD2    H113200   2.043   3.287  10.351  0.5826 -0.0024  1.1318
  897MPD2    H213201   2.206   3.577  10.083  0.4062  0.4565  0.4308
  897MPD2    H313202   2.088   3.365  10.127 -1.4299  2.2036 -0.7511
  897MPD2     N13203   2.038   3.452  10.575 -0.1887  0.3236 -0.1267
  897MPD2    H513204   2.066   3.528  10.635 -2.4695 -0.5807  2.0920
  897MPD2    N113205   2.217   3.781  10.251 -0.0228  0.0379  0.3965
  897MPD2    H713206   2.251   3.798  10.157  1.9945  0.5481  1.2287
  898MPD2     C13207   4.323   4.104  17.114  0.1231 -0.4618 -0.1718
  898MPD2    C113208   4.304   4.239  17.146 -0.3712  0.7854  0.7520
  898MPD2    C213209   4.238   4.320  17.058  0.2999 -0.3709 -1.1512
  898MPD2    C313210   4.186   4.261  16.944  0.4048  0.5041  0.5527
  898MPD2    C413211   4.206   4.133  16.913  0.0078 -0.1835 -0.5589
  898MPD2    C513212   4.278   4.054  16.998  0.0448  0.1434  0.0970
  898MPD2     H13213   4.219   4.425  17.077 -2.7153 -1.2897  0.9019
  898MPD2    H113214   4.170   4.094  16.818  0.5602  0.2439 -0.9471
  898MPD2    H213215   4.381   4.031  17.170  2.2405  1.2522 -0.1305
  898MPD2    H313216   4.287   3.949  16.973 -1.7698 -0.0903  0.4898
  898MPD2     N13217   4.111   4.348  16.860 -0.3370 -0.3081  0.3899
  898MPD2    H513218   4.090   4.436  16.907 -1.4444  0.1702 -0.9987
  898MPD2    N113219   4.354   4.294  17.265  0.0391 -0.1906  0.2266
  898MPD2    H713220   4.361   4.394  17.279 -1.5032  0.0756 -0.9354
  899MPD2     C13221   0.041   0.124  16.756 -0.7170  0.9553 -0.2996
  899MPD2    C113222   0.177   0.135  16.793 -0.5070  0.3295  0.2707
  899MPD2    C213223   0.201   0.132  16.933  0.0358 -0.7865  0.4673
  899MPD2    C313224   0.103   0.115  17.025 -0.3177  0.1195 -0.8507
  899MPD2    C413225   4.715   0.110  16.982  0.1935  0.0652 -0.3628
  899MPD2    C513226   4.683   0.120  16.853  0.1236  0.0905  0.1252
  899MPD2     H13227   0.301   0.141  16.974 -0.0874  0.4449  0.5117
  899MPD2    H113228   4.633   0.092  17.051 -1.6350  1.0300 -2.2735
  899MPD2    H213229   0.010   0.130  16.652 -0.3520 -0.5646 -0.5020
  899MPD2    H313230   4.578   0.117  16.830 -0.0294 -0.1494  0.8593
  899MPD2     N13231   0.119   0.119  17.166 -0.2730 -0.1088 -0.3213
  899MPD2    H513232   0.042   0.092  17.226 -1.2520 -0.8952 -1.9295
  899MPD2    N113233   0.276   0.156  16.695  0.3540  0.3441  0.1276
  899MPD2    H713234   0.246   0.175  16.600  0.3079  1.5924  0.3930
  900MPD2     C13235   4.311   1.714  12.603 -0.1668  0.8160  0.6628
  900MPD2    C113236   4.257   1.604  12.662 -0.0295 -0.8471  0.1151
  900MPD2    C213237   4.143   1.541  12.610 -0.1385 -0.7520  0.0021
  900MPD2    C313238   4.074   1.605  12.502  0.2020  0.0164 -0.1632
  900MPD2    C413239   4.129   1.725  12.455 -0.7343 -0.7220  0.2327
  900MPD2    C513240   4.247   1.773  12.498  0.0314 -0.0737 -0.3579
  900MPD2     H13241   4.102   1.452  12.657 -1.9478  0.2569  0.3447
  900MPD2    H113242   4.097   1.781  12.367 -1.5698 -2.0013 -0.2977
  900MPD2    H213243   4.405   1.756  12.637  0.1563 -1.3306  2.4815
  900MPD2    H313244   4.298   1.860  12.461 -0.5517  0.6302  0.4776
  900MPD2     N13245   3.966   1.550  12.441 -0.2278 -0.3770 -0.7040
  900MPD2    H513246   3.936   1.462  12.482 -2.6432  1.2981  1.1168
  900MPD2    N113247   4.321   1.545  12.778  0.3847  0.1530  0.4458
  900MPD2    H713248   4.407   1.588  12.809 -0.3482  0.3685  2.1714
  901MPD2     C13249   4.047   0.760  13.068 -0.2937  0.0872  0.5209
  901MPD2    C113250   4.185   0.767  13.101  0.0926 -0.4566 -0.3864
  901MPD2    C213251   4.241   0.886  13.138 -0.0448  0.2224 -0.5476
  901MPD2    C313252   4.176   1.005  13.125  0.6487  0.4763  0.6486
  901MPD2    C413253   4.043   0.999  13.074  0.1760  0.0177 -1.0947
  901MPD2    C513254   3.984   0.875  13.050  0.4077  0.0002 -0.2220
  901MPD2     H13255   4.346   0.877  13.166 -0.3004 -0.7270  0.1202
  901MPD2    H113256   3.977   1.085  13.069 -1.2373 -1.0154 -0.2080
  901MPD2    H213257   4.003   0.665  13.038  1.1899 -0.4592  0.0856
  901MPD2    H313258   3.880   0.866  13.020 -0.2108  4.1218  0.5573
  901MPD2     N13259   4.240   1.126  13.142 -0.4482  0.6635 -0.2431
  901MPD2    H513260   4.207   1.202  13.084 -1.1120 -0.6022 -1.5214
  901MPD2    N113261   4.270   0.657  13.089  0.0579 -0.0414 -0.9272
  901MPD2    H713262   4.368   0.673  13.109  0.6123 -1.5037 -2.5310
  902MPD2     C13263   3.374   0.039  12.393  0.0250 -0.2448  0.4576
  902MPD2    C113264   3.345   0.066  12.264 -0.3996  0.4731 -0.3406
  902MPD2    C213265   3.424   0.003  12.166 -0.1638  0.1390  0.1280
  902MPD2    C313266   3.528   4.652  12.195  0.6279  0.0070  0.1224
  902MPD2    C413267   3.552   4.619  12.322 -0.0739 -0.0521 -0.2565
  902MPD2    C513268   3.483   4.686  12.420  0.8380  0.4699  0.4871
  902MPD2     H13269   3.412   0.028  12.061  1.4870 -0.0931 -0.1102
  902MPD2    H113270   3.629   4.545  12.340 -0.5510 -1.0055 -2.2578
  902MPD2    H213271   3.329   0.087  12.479 -1.2669 -1.3770  0.4094
  902MPD2    H313272   3.509   4.666  12.523 -0.4159 -0.0627  0.7019
  902MPD2     N13273   3.620   4.593  12.098 -0.1135  0.6230  0.1258
  902MPD2    H513274   3.699   4.541  12.135 -1.9078 -0.3734  2.5170
  902MPD2    N113275   3.253   0.171  12.239  0.8330 -0.6020  0.3757
  902MPD2    H713276   3.208   0.213  12.320 -1.2907  0.4874 -1.3821
  903MPD2     C13277   3.606   4.329  11.327 -0.2294  0.3891 -0.0300
  903MPD2    C113278   3.600   4.305  11.471  0.1560  0.2429 -0.1259
  903MPD2    C213279   3.520   4.211  11.517 -0.1688  0.5206 -0.4258
  903MPD2    C313280   3.428   4.148  11.437  0.0071  0.4358  0.0244
  903MPD2    C413281   3.424   4.168  11.297 -0.3941  0.1451  0.4052
  903MPD2    C513282   3.512   4.267  11.247 -0.0757 -0.4868  0.5395
  903MPD2     H13283   3.527   4.180  11.621  0.1051 -5.1072 -2.0799
  903MPD2    H113284   3.351   4.134  11.223  0.6588 -3.0315  0.8219
  903MPD2    H213285   3.654   4.418  11.287  1.4399 -0.3935  0.2445
  903MPD2    H313286   3.496   4.288  11.142 -0.8344  1.1414  0.9716
  903MPD2     N13287   3.334   4.066  11.510 -0.1588  0.8107  0.5292
  903MPD2    H513288   3.347   4.044  11.608  0.4949  1.2638  0.5379
  903MPD2    N113289   3.678   4.374  11.577  0.3757  0.4902  0.4389
  903MPD2    H713290   3.645   4.355  11.671 -0.3715 -0.4562 -0.0151
  904MPD2     C13291   3.634   3.412  14.400 -0.6230  0.3961  0.0504
  904MPD2    C113292   3.626   3.516  14.312  0.2264  0.1935 -0.2870
  904MPD2    C213293   3.741   3.590  14.280  0.6933  0.0424  0.1223
  904MPD2    C313294   3.861   3.560  14.331 -0.2350  0.1474 -0.6278
  904MPD2    C413295   3.867   3.464  14.428  0.2644 -0.5412 -0.1823
  904MPD2    C513296   3.755   3.387  14.466  0.0166 -0.3054 -0.4417
  904MPD2     H13297   3.733   3.664  14.201 -0.4442  0.1915  0.3773
  904MPD2    H113298   3.966   3.443  14.468  1.0483  1.2997 -1.1338
  904MPD2    H213299   3.554   3.342  14.417 -0.0534 -0.1359  0.5575
  904MPD2    H313300   3.756   3.312  14.544 -1.8939 -0.3528 -0.4793
  904MPD2     N13301   3.978   3.630  14.282 -0.4059 -0.0479 -0.5683
  904MPD2    H513302   3.952   3.699  14.212 -3.6630  0.7223  1.3494
  904MPD2    N113303   3.506   3.558  14.247 -0.0287  0.4661 -1.0032
  904MPD2    H713304   3.514   3.631  14.176  1.6712 -0.7346 -2.0237
  905MPD2     C13305   3.182   4.015  13.652 -0.9719 -0.3094 -0.2123
  905MPD2    C113306   3.264   3.959  13.749  0.1454  0.2887  0.0654
  905MPD2    C213307   3.389   4.003  13.756  0.4455 -0.4490  0.3357
  905MPD2    C313308   3.427   4.119  13.687  0.7230  0.1440 -0.8222
  905MPD2    C413309   3.338   4.184  13.600  1.0883 -0.6070  0.5061
  905MPD2    C513310   3.229   4.123  13.576 -0.3616  0.2911  0.3319
  905MPD2     H13311   3.459   3.957  13.825  2.9213 -1.2455 -2.6777
  905MPD2    H113312   3.369   4.265  13.535 -0.7717  1.3702  2.1015
  905MPD2    H213313   3.088   3.961  13.648 -0.2975 -1.5362  0.3985
  905MPD2    H313314   3.159   4.178  13.515  2.0848  1.3097 -1.5278
  905MPD2     N13315   3.559   4.168  13.697 -0.5684 -0.3967 -0.0880
  905MPD2    H513316   3.570   4.267  13.679  1.2249 -0.7872 -1.0806
  905MPD2    N113317   3.217   3.842  13.827 -0.3694  0.1648 -0.1592
  905MPD2    H713318   3.121   3.815  13.807 -0.2985 -0.8093  0.8489
  906MPD2     C13319   0.850   3.963  11.238  0.1040  0.2295 -0.3332
  906MPD2    C113320   0.764   3.894  11.153 -0.1660  0.4731  0.1002
  906MPD2    C213321   0.702   3.777  11.200  0.1249 -0.0449 -0.0955
  906MPD2    C313322   0.710   3.740  11.338  0.5353  0.4806  0.4663
  906MPD2    C413323   0.793   3.809  11.419  0.7100 -0.5571 -0.4562
  906MPD2    C513324   0.863   3.917  11.367 -0.3823  0.2613  0.1291
  906MPD2     H13325   0.639   3.722  11.130 -0.9251 -0.3944  1.1017
  906MPD2    H113326   0.805   3.790  11.525 -0.1214 -3.6310 -0.9169
  906MPD2    H213327   0.911   4.051  11.221 -1.0224  1.0314 -0.2354
  906MPD2    H313328   0.928   3.979  11.428  1.5758 -0.0853 -1.5870
  906MPD2     N13329   0.643   3.619  11.375  0.1673 -0.5106  0.1566
  906MPD2    H513330   0.572   3.596  11.306 -0.1854  3.9597 -1.0252
  906MPD2    N113331   0.769   3.912  11.008 -0.1094 -0.0689  0.0848
  906MPD2    H713332   0.704   3.854  10.955  0.5730  0.1142 -0.9438
  907MPD2     C13333   4.214   2.992  15.903  0.2167  0.4363 -0.6211
  907MPD2    C113334   4.327   2.921  15.874  0.0112  0.2638  0.3842
  907MPD2    C213335   4.393   2.850  15.971  0.2189 -0.8813  0.0030
  907MPD2    C313336   4.355   2.865  16.106 -0.2702 -0.4080 -0.7249
  907MPD2    C413337   4.259   2.958  16.132  0.1810 -0.1537  0.1631
  907MPD2    C513338   4.190   3.013  16.031  0.1149  0.1534 -0.4031
  907MPD2     H13339   4.479   2.791  15.941  0.4936  0.6480 -2.2029
  907MPD2    H113340   4.228   2.984  16.233  1.4395 -1.9829  1.0147
  907MPD2    H213341   4.163   3.055  15.830 -2.4940 -0.4368  0.5220
  907MPD2    H313342   4.098   3.059  16.063 -0.8387 -0.3839 -2.3492
  907MPD2     N13343   4.430   2.798  16.199 -0.3246  0.1029  0.5141
  907MPD2    H513344   4.502   2.739  16.158 -0.4852 -0.4730  1.0434
  907MPD2    N113345   4.376   2.900  15.740  0.4169 -0.4336  0.4264
  907MPD2    H713346   4.454   2.838  15.727  1.8001  0.9849  1.9918
  908MPD2     C13347   1.866   3.993   9.535 -0.3360 -1.2254 -0.4635
  908MPD2    C113348   1.828   3.905   9.632 -0.4900  0.0690  0.4468
  908MPD2    C213349   1.868   3.924   9.764 -0.0498  0.2422 -0.5302
  908MPD2    C313350   1.946   4.030   9.792 -0.0862 -0.1961  0.3759
  908MPD2    C413351   1.986   4.116   9.695  0.1632 -0.0075 -0.2881
  908MPD2    C513352   1.952   4.091   9.564  0.0185 -0.4377 -0.5126
  908MPD2     H13353   1.835   3.872   9.853  1.9993  3.7706  2.2802
  908MPD2    H113354   2.059   4.194   9.714 -1.0372  1.3356 -1.2044
  908MPD2    H213355   1.830   3.987   9.433  0.6052 -0.4067 -0.8393
  908MPD2    H313356   1.978   4.165   9.489 -0.4388  1.4794  1.2367
  908MPD2     N13357   1.988   4.040   9.928  0.2489  0.0597 -0.3205
  908MPD2    H513358   1.964   3.958   9.984  3.3149 -0.2241  0.5872
  908MPD2    N113359   1.752   3.793   9.588 -0.8661  0.8767  0.0184
  908MPD2    H713360   1.724   3.779   9.492 -0.8856 -0.3443  0.2014
  909MPD2     C13361   2.186   2.296  11.906 -0.4305 -0.0953 -0.2414
  909MPD2    C113362   2.105   2.240  11.812  0.4337  0.2984  0.0617
  909MPD2    C213363   1.976   2.206  11.852 -0.1667 -0.3673  0.1031
  909MPD2    C313364   1.930   2.231  11.978  0.0118  0.5279  0.0374
  909MPD2    C413365   2.003   2.288  12.069 -0.0848  0.5820  0.4853
  909MPD2    C513366   2.135   2.317  12.031  0.0607  0.5069  0.2492
  909MPD2     H13367   1.910   2.152  11.786  0.5688  0.2277 -1.1205
  909MPD2    H113368   1.978   2.298  12.174  0.8100 -1.4922  0.9071
  909MPD2    H213369   2.293   2.308  11.890 -0.7060  3.9015  0.9299
  909MPD2    H313370   2.200   2.354  12.110 -0.8860  0.7328  0.9195
  909MPD2     N13371   1.797   2.185  12.006 -0.3639 -0.7533  0.2420
  909MPD2    H513372   1.733   2.161  11.930 -0.0069 -2.5404  0.5096
  909MPD2    N113373   2.146   2.230  11.677 -0.0365 -0.2299 -0.2725
  909MPD2    H713374   2.090   2.164  11.623 -0.5588 -0.6946  0.8462
  910MPD2     C13375   3.891   3.467  16.359  0.0492 -0.1474 -0.3585
  910MPD2    C113376   3.870   3.353  16.279 -0.0769 -0.1316  0.8707
  910MPD2    C213377   3.808   3.375  16.157 -0.2997 -0.6370 -0.5080
  910MPD2    C313378   3.775   3.503  16.120 -0.0624  0.2531  0.9590
  910MPD2    C413379   3.798   3.615  16.199  0.2216 -0.4811 -0.6203
  910MPD2    C513380   3.849   3.593  16.316  0.5411  0.0532 -0.1476
  910MPD2     H13381   3.803   3.294  16.084 -0.1806 -1.7507  0.7173
  910MPD2    H113382   3.775   3.717  16.170 -0.9314 -0.1201  1.5011
  910MPD2    H213383   3.939   3.466  16.456  2.8157  0.3233 -1.7038
  910MPD2    H313384   3.871   3.673  16.386 -0.2904 -1.5316  1.9247
  910MPD2     N13385   3.702   3.531  15.996  0.0459  0.1956 -0.1240
  910MPD2    H513386   3.659   3.622  15.983  1.8184  1.0403 -0.1428
  910MPD2    N113387   3.921   3.228  16.319 -0.6293  0.0179  0.2207
  910MPD2    H713388   4.002   3.240  16.379  0.3391  0.8244 -1.2417
  911MPD2     C13389   1.780   3.881  15.928  0.4690 -0.5652  0.2770
  911MPD2    C113390   1.838   3.908  16.047  0.3344 -0.1810 -0.2199
  911MPD2    C213391   1.815   4.035  16.104  0.2180 -0.0847  0.4074
  911MPD2    C313392   1.736   4.129  16.042 -0.6980  0.3618 -0.6508
  911MPD2    C413393   1.674   4.101  15.924  0.7981  0.2122 -0.5206
  911MPD2    C513394   1.704   3.977  15.869 -1.0484 -0.2032  0.3939
  911MPD2     H13395   1.858   4.061  16.200  2.8876  0.3990 -0.9158
  911MPD2    H113396   1.607   4.172  15.876  1.7028  2.1293  1.0376
  911MPD2    H213397   1.806   3.796  15.865 -0.7576  0.1878 -1.2429
  911MPD2    H313398   1.658   3.946  15.776 -0.1543  3.6671 -1.3381
  911MPD2     N13399   1.714   4.259  16.092 -0.1863  0.3516  0.0453
  911MPD2    H513400   1.628   4.308  16.070 -0.4165 -0.3964 -0.7213
  911MPD2    N113401   1.908   3.812  16.122  0.6379  0.0782 -0.7229
  911MPD2    H713402   1.936   3.729  16.071  0.0986 -0.6897  0.2216
  912MPD2     C13403   1.476   4.409  15.598 -0.0701 -0.4356 -0.1170
  912MPD2    C113404   1.446   4.404  15.733 -0.5008  0.2323  0.3205
  912MPD2    C213405   1.385   4.291  15.779 -0.4120  0.4007  0.1177
  912MPD2    C313406   1.361   4.178  15.698  0.7669 -0.6528  0.2461
  912MPD2    C413407   1.400   4.183  15.570 -0.2460 -0.1800 -0.0079
  912MPD2    C513408   1.454   4.299  15.515  0.5783 -0.4768  0.0016
  912MPD2     H13409   1.353   4.278  15.882  1.6680 -2.3354  0.4139
  912MPD2    H113410   1.376   4.103  15.500 -0.2158  0.3646 -0.6443
  912MPD2    H213411   1.527   4.494  15.554  2.6442 -0.7716  2.3832
  912MPD2    H313412   1.486   4.318  15.413 -2.3721 -2.3401 -1.2811
  912MPD2     N13413   1.323   4.061  15.774  0.3110  0.5422  0.4442
  912MPD2    H513414   1.303   4.077  15.873 -2.0003 -2.1991  0.4264
  912MPD2    N113415   1.488   4.510  15.807  0.8491 -0.4806  0.3861
  912MPD2    H713416   1.538   4.583  15.757 -0.5236  0.2876  0.1199
  913MPD2     C13417   1.492   0.272  10.636 -0.7726  0.1803 -0.2189
  913MPD2    C113418   1.574   0.350  10.712  0.0784 -0.9893  0.2381
  913MPD2    C213419   1.638   0.454  10.653  0.1110  0.0101  0.2465
  913MPD2    C313420   1.633   0.471  10.517  0.2126  0.5710  0.2072
  913MPD2    C413421   1.567   0.381  10.436  0.6417  0.2116 -0.5891
  913MPD2    C513422   1.488   0.286  10.501  0.9883 -0.0099  0.5723
  913MPD2     H13423   1.700   0.518  10.714  2.2728 -0.6703 -1.2388
  913MPD2    H113424   1.579   0.367  10.329 -0.9584  1.2499 -0.9193
  913MPD2    H213425   1.449   0.182  10.678 -0.6773  0.1661 -0.1533
  913MPD2    H313426   1.427   0.220  10.442  1.6046  2.2303 -2.5665
  913MPD2     N13427   1.722   0.561  10.450  0.0060 -0.2479  0.1808
  913MPD2    H513428   1.721   0.558  10.349 -0.6126 -0.3518  0.1856
  913MPD2    N113429   1.588   0.321  10.851 -0.3666 -0.0278  0.1318
  913MPD2    H713430   1.516   0.260  10.890 -0.3978  0.6949  1.1950
  914MPD2     C13431   0.016   0.889  12.434  0.3579 -0.6796  0.0909
  914MPD2    C113432   4.670   0.932  12.528  0.4102  0.3423 -0.1581
  914MPD2    C213433   4.613   0.844  12.620  0.6169 -0.8377  0.5810
  914MPD2    C313434   4.649   0.711  12.614 -0.6827  0.5877 -0.8700
  914MPD2    C413435   0.004   0.668  12.525  0.0515  0.2663  0.7458
  914MPD2    C513436   0.047   0.755  12.430  0.3297 -0.1002 -0.4103
  914MPD2     H13437   4.534   0.876  12.687 -0.2613  0.0362 -0.8757
  914MPD2    H113438   0.038   0.565  12.532  0.3868  0.3797  0.7758
  914MPD2    H213439   0.049   0.955  12.354  0.3500  0.2862  0.8846
  914MPD2    H313440   0.121   0.719  12.359  1.4905 -0.8384  1.1737
  914MPD2     N13441   4.591   0.639  12.724 -0.7710  0.1821 -0.2463
  914MPD2    H513442   4.528   0.679  12.792 -0.5328 -2.6259  1.6132
  914MPD2    N113443   4.637   1.074  12.525  0.4995  0.0698 -0.4068
  914MPD2    H713444   4.671   1.134  12.451  3.8240 -0.6660  0.5305
  915MPD2     C13445   3.000   0.358  15.080  0.3623 -0.6757  0.4137
  915MPD2    C113446   2.872   0.411  15.080 -0.8598  0.0272 -0.4424
  915MPD2    C213447   2.822   0.472  15.193  0.2512  0.0008 -0.2505
  915MPD2    C313448   2.896   0.473  15.314  0.2850 -0.1565  0.1208
  915MPD2    C413449   3.023   0.413  15.315  0.8980 -0.1306 -0.5677
  915MPD2    C513450   3.077   0.361  15.200 -0.2289  0.3245  0.6061
  915MPD2     H13451   2.727   0.523  15.201  1.6972  2.3745  1.7303
  915MPD2    H113452   3.080   0.426  15.407 -1.0449 -0.5113  0.6749
  915MPD2    H213453   3.049   0.312  14.995  0.8622  1.9199 -0.7114
  915MPD2    H313454   3.178   0.323  15.199 -0.4286 -0.1327 -1.9908
  915MPD2     N13455   2.837   0.535  15.429 -0.2182 -0.3610  0.7491
  915MPD2    H513456   2.756   0.595  15.416 -0.4141 -0.6076  0.8281
  915MPD2    N113457   2.798   0.397  14.964 -0.2907  0.0081  0.6683
  915MPD2    H713458   2.836   0.338  14.891 -1.1153  0.6822 -0.3236
  916MPD2     C13459   0.948   3.583  15.264  0.1068 -0.3228 -0.8001
  916MPD2    C113460   0.893   3.488  15.339 -0.1950 -0.0301 -1.0672
  916MPD2    C213461   0.893   3.357  15.293  0.1475 -0.1935 -0.2608
  916MPD2    C313462   0.932   3.333  15.160 -0.2136 -0.6670  0.3221
  916MPD2    C413463   0.979   3.436  15.085  0.1397  0.1127  0.1800
  916MPD2    C513464   0.995   3.556  15.136 -0.5171  0.5756  0.5603
  916MPD2     H13465   0.847   3.280  15.353  0.8814  1.4543  2.3900
  916MPD2    H113466   1.019   3.421  14.986 -0.7129 -0.1392 -0.1235
  916MPD2    H213467   0.937   3.689  15.286  0.3186  0.0198 -2.3064
  916MPD2    H313468   1.036   3.631  15.069  1.1926 -1.1849 -0.3396
  916MPD2     N13469   0.929   3.198  15.111 -0.1534  0.1879 -0.5838
  916MPD2    H513470   0.897   3.128  15.177  3.6716  0.3324  1.4303
  916MPD2    N113471   0.835   3.528  15.464  0.8549  0.5569  0.3267
  916MPD2    H713472   0.831   3.627  15.483  1.8716  0.7610 -0.5295
  917MPD2     C13473   0.814   1.162  11.215 -0.5001  0.4618 -0.2350
  917MPD2    C113474   0.823   1.220  11.338  0.0283 -0.4345 -0.2788
  917MPD2    C213475   0.892   1.343  11.352 -0.6713 -0.4931 -0.2077
  917MPD2    C313476   0.948   1.407  11.244 -0.4748  0.1956  0.7862
  917MPD2    C413477   0.955   1.339  11.123 -0.0863  0.4751 -0.0916
  917MPD2    C513478   0.885   1.217  11.110  0.2560 -0.0846  0.0982
  917MPD2     H13479   0.896   1.397  11.446 -0.4116 -0.2408 -0.3630
  917MPD2    H113480   1.012   1.379  11.040  0.9136 -0.9113 -0.0685
  917MPD2    H213481   0.759   1.071  11.194  1.9206 -0.3942 -2.8729
  917MPD2    H313482   0.892   1.165  11.015 -0.1431 -0.0288  0.0353
  917MPD2     N13483   1.010   1.537  11.256  0.1396 -0.4750  0.6926
  917MPD2    H513484   1.049   1.575  11.170 -0.4666 -2.5491 -0.5077
  917MPD2    N113485   0.752   1.157  11.446  0.3965  0.3454  0.3741
  917MPD2    H713486   0.713   1.067  11.418 -1.1156  0.9330  0.5874
  918MPD2     C13487   0.741   1.280  12.477  0.3836  0.1445 -0.3754
  918MPD2    C113488   0.788   1.356  12.371  0.2447 -0.8004 -0.9368
  918MPD2    C213489   0.751   1.324  12.242  0.3345 -0.0930 -0.0264
  918MPD2    C313490   0.676   1.207  12.216 -1.0935  0.0518  0.2827
  918MPD2    C413491   0.640   1.127  12.319 -0.5821 -0.4288  0.8096
  918MPD2    C513492   0.678   1.157  12.447 -0.7118  0.5235 -0.2948
  918MPD2     H13493   0.793   1.385  12.163 -1.1311  0.9680  0.0186
  918MPD2    H113494   0.582   1.036  12.307  0.6125 -1.3784  2.2784
  918MPD2    H213495   0.750   1.302  12.583 -0.8995 -1.1634  0.0035
  918MPD2    H313496   0.641   1.091  12.525 -0.3086  0.5252 -0.1012
  918MPD2     N13497   0.656   1.179  12.080 -0.5310 -0.6359  0.7550
  918MPD2    H513498   0.683   1.256  12.020 -0.9040 -1.4408 -0.4360
  918MPD2    N113499   0.866   1.472  12.400  0.0112  0.3681  0.0274
  918MPD2    H713500   0.875   1.529  12.316  1.9668  0.0364 -0.0062
  919MPD2     C13501   1.636   0.175  12.026  0.6688 -0.7261 -0.2484
  919MPD2    C113502   1.587   0.059  11.976 -0.5587  0.2465  0.5243
  919MPD2    C213503   1.543   0.045  11.846 -0.7352  0.4068 -0.6477
  919MPD2    C313504   1.545   0.158  11.765 -0.3851  0.7037 -0.0158
  919MPD2    C413505   1.588   0.279  11.817  0.7475  1.2168 -0.1246
  919MPD2    C513506   1.632   0.284  11.946  0.3293  0.2018  0.3437
  919MPD2     H13507   1.511   4.688  11.808 -0.2072  0.8150 -2.1406
  919MPD2    H113508   1.605   0.363  11.750 -0.5164  2.2593  0.8417
  919MPD2    H213509   1.673   0.185  12.128 -1.5647 -0.6332  0.5668
  919MPD2    H313510   1.682   0.375  11.976  0.1182  0.4895 -0.1954
  919MPD2     N13511   1.494   0.156  11.631  0.1968 -0.8012 -0.3379
  919MPD2    H513512   1.484   0.250  11.593  0.9812 -0.5229  0.1549
  919MPD2    N113513   1.583   4.679  12.062  0.1355  0.0061  0.0116
  919MPD2    H713514   1.555   4.598  12.008  0.5134  0.0274 -0.2204
  920MPD2     C13515   1.414   0.756  10.962  0.7447  0.3979 -0.3196
  920MPD2    C113516   1.362   0.649  10.888  1.2294 -0.2777  0.3893
  920MPD2    C213517   1.343   0.529  10.953  0.5562  0.2620  0.4578
  920MPD2    C313518   1.344   0.528  11.093 -0.0809  0.8708 -0.3023
  920MPD2    C413519   1.395   0.634  11.167  0.2746  0.2972 -0.3495
  920MPD2    C513520   1.440   0.743  11.094 -0.6548 -0.2487 -0.6659
  920MPD2     H13521   1.304   0.440  10.905  3.0330  0.3411 -1.7387
  920MPD2    H113522   1.398   0.631  11.275  1.8655 -0.7200 -0.4263
  920MPD2    H213523   1.431   0.857  10.925 -3.9920  1.1253 -0.5481
  920MPD2    H313524   1.483   0.824  11.152  1.0847  0.6149 -3.1749
  920MPD2     N13525   1.298   0.407  11.154 -0.1273  0.1032 -0.3073
  920MPD2    H513526   1.282   0.329  11.091  0.6858  0.1495 -0.5853
  920MPD2    N113527   1.342   0.658  10.746 -0.0524  0.2333 -0.4177
  920MPD2    H713528   1.304   0.575  10.701 -0.0887 -1.0676  1.9977
  921MPD2     C13529   2.669   3.871  16.745  0.2863  0.2351 -0.1400
  921MPD2    C113530   2.680   3.895  16.613 -0.3804 -0.6812  0.2707
  921MPD2    C213531   2.585   3.841  16.528  0.0246  0.7327 -0.2554
  921MPD2    C313532   2.496   3.745  16.574 -0.2460 -0.4120  0.3188
  921MPD2    C413533   2.500   3.702  16.705  0.0418 -0.0787  0.2981
  921MPD2    C513534   2.585   3.772  16.790  0.0621 -1.0993 -0.1834
  921MPD2     H13535   2.572   3.871  16.424  0.2943 -0.7445 -0.7090
  921MPD2    H113536   2.417   3.654  16.756  0.8025  0.9012  2.4598
  921MPD2    H213537   2.726   3.928  16.817  0.9266  1.1839 -1.4076
  921MPD2    H313538   2.584   3.758  16.898  0.0292  0.6164  0.0502
  921MPD2     N13539   2.381   3.717  16.496 -0.2043 -0.1974  0.4321
  921MPD2    H513540   2.364   3.770  16.412 -0.8346  1.0792  1.3634
  921MPD2    N113541   2.774   3.986  16.567 -0.3853  0.1057 -0.0104
  921MPD2    H713542   2.821   4.053  16.627 -1.9923  1.0727  0.1650
  922MPD2     C13543   3.037   1.165  17.719 -0.2887  0.7042 -0.0298
  922MPD2    C113544   3.082   1.286  17.674  0.0979 -0.7399 -0.5152
  922MPD2    C213545   3.023   1.352  17.570  0.4560 -0.0235 -0.8386
  922MPD2    C313546   2.922   1.282  17.504 -0.6440 -0.0916  0.4038
  922MPD2    C413547   2.884   1.154  17.548  0.3418 -1.0720 -0.1469
  922MPD2    C513548   2.937   1.102  17.660  0.2020  0.1997  0.1350
  922MPD2     H13549   3.042   1.454  17.539 -1.4862  0.2642 -1.0644
  922MPD2    H113550   2.801   1.101  17.502  0.2137  1.0432 -2.3783
  922MPD2    H213551   3.074   1.119   0.057 -1.1058  0.3981  0.1466
  922MPD2    H313552   2.887   1.016  17.703  0.7978 -0.7363 -1.0728
  922MPD2     N13553   2.869   1.340  17.388  0.3028 -0.2099 -0.1171
  922MPD2    H513554   2.907   1.433  17.369  0.7425 -0.5357 -0.8312
  922MPD2    N113555   3.189   1.352  17.735 -0.2794  0.4924  0.1354
  922MPD2    H713556   3.226   1.439  17.697  1.1436 -0.6497 -1.1011
  923MPD2     C13557   4.318   4.240   9.282  0.2446 -0.2165  0.6375
  923MPD2    C113558   4.391   4.354   9.292 -0.8590 -0.4452 -0.1530
  923MPD2    C213559   4.525   4.353   9.341  0.0499  0.4375 -0.4948
  923MPD2    C313560   4.576   4.238   9.385  1.2897 -0.4724 -0.0002
  923MPD2    C413561   4.503   4.122   9.369 -0.1920 -0.1619  0.3584
  923MPD2    C513562   4.378   4.123   9.325 -0.1664  0.1990  0.7818
  923MPD2     H13563   4.594   4.436   9.337 -2.5569  2.6181  0.2318
  923MPD2    H113564   4.539   4.022   9.393  1.0600 -0.1328 -1.4345
  923MPD2    H213565   4.213   4.241   9.254 -0.4166 -2.2952  3.0003
  923MPD2    H313566   4.327   4.027   9.312  0.1349 -0.0173  1.2221
  923MPD2     N13567   4.709   4.219   9.435  0.0553 -0.6913 -0.7820
  923MPD2    H513568   4.733   4.123   9.457 -1.8676 -0.6673  1.4688
  923MPD2    N113569   4.327   4.477   9.272  0.0566  0.1750 -0.3112
  923MPD2    H713570   4.230   4.471   9.243 -0.2647  0.1156  0.7836
  924MPD2     C13571   4.596   2.026  16.117 -0.4984 -0.3804 -0.0553
  924MPD2    C113572   4.586   2.049  16.252 -0.3423  0.2252  0.8409
  924MPD2    C213573   4.628   2.171  16.307 -0.6102 -0.6856 -0.4673
  924MPD2    C313574   4.673   2.275  16.223 -0.5551  0.1254  0.2429
  924MPD2    C413575   4.693   2.249  16.088 -0.0709  0.5827  0.3688
  924MPD2    C513576   4.656   2.119  16.038 -0.3609  0.3498 -0.2028
  924MPD2     H13577   4.611   2.194  16.412  0.9308  2.6554 -0.9388
  924MPD2    H113578   4.737   2.321  16.020  2.1179  0.1132  1.2788
  924MPD2    H213579   4.594   1.923  16.082 -1.6586  0.4728 -2.4956
  924MPD2    H313580   4.676   2.095  15.934 -1.1641 -1.8196  0.1482
  924MPD2     N13581   4.702   2.409  16.266  0.6547 -0.3275  0.3997
  924MPD2    H513582   4.718   2.476  16.191  0.3714  0.6037  1.1641
  924MPD2    N113583   4.532   1.947  16.338 -0.6198  0.6631 -0.0722
  924MPD2    H713584   4.508   1.860  16.291 -4.1676  1.2241  0.6955
  925MPD2     C13585   3.658   4.695  15.061 -0.0785  0.2561 -0.0691
  925MPD2    C113586   3.528   4.664  15.033  0.0764  0.3792 -0.2497
  925MPD2    C213587   3.433   4.679  15.130  0.3506  0.1484 -0.3842
  925MPD2    C313588   3.468   4.719  15.257  0.0827 -1.0327  0.6457
  925MPD2    C413589   3.600   0.009  15.283 -0.2860 -0.3949  0.3288
  925MPD2    C513590   3.694   0.002  15.181  0.3618  0.0784 -0.5476
  925MPD2     H13591   3.329   4.659  15.106  0.0181  0.9585  0.3542
  925MPD2    H113592   3.624   0.044  15.382 -1.8919 -0.3571  0.7039
  925MPD2    H213593   3.741   4.680  14.994 -0.1326 -2.7921  0.5216
  925MPD2    H313594   3.795   0.033  15.207  0.2243  0.0590  0.0129
  925MPD2     N13595   3.377   0.011  15.365  0.6752 -0.0489  0.2252
  925MPD2    H513596   3.416   0.013  15.458 -0.3170 -1.3089  0.6720
  925MPD2    N113597   3.491   4.609  14.905 -0.3239  0.3120 -0.1857
  925MPD2    H713598   3.392   4.603  14.885  0.4180 -0.3376 -3.6846
  926MPD2     C13599   2.462   3.241  13.628  0.1791 -0.0999 -0.0570
  926MPD2    C113600   2.367   3.298  13.543  0.0863 -0.1373  0.0923
  926MPD2    C213601   2.387   3.328  13.409  0.1219 -0.2616  0.1635
  926MPD2    C313602   2.500   3.283  13.356  0.1663  0.4846  0.9261
  926MPD2    C413603   2.590   3.219  13.432  0.2469  0.2848 -0.8815
  926MPD2    C513604   2.570   3.197  13.566 -0.4220  0.2922 -0.1638
  926MPD2     H13605   2.308   3.380  13.357  0.6489 -0.4909 -0.8500
  926MPD2    H113606   2.679   3.186  13.380  1.5378 -0.1412  1.6150
  926MPD2    H213607   2.455   3.228  13.736  3.1027 -1.0510  0.0291
  926MPD2    H313608   2.647   3.156  13.630  0.8446 -0.2099 -2.0262
  926MPD2     N13609   2.535   3.309  13.223 -0.6040 -0.0359 -0.0686
  926MPD2    H513610   2.634   3.305  13.203 -0.5911  0.9428 -0.2307
  926MPD2    N113611   2.236   3.322  13.593  1.0443  0.0104 -0.0738
  926MPD2    H713612   2.172   3.373  13.534  1.6366 -0.8894 -1.4823
  927MPD2     C13613   1.563   0.276  17.089  0.6909 -0.0122 -0.2366
  927MPD2    C113614   1.636   0.296  17.199  0.4984 -0.9769 -0.1671
  927MPD2    C213615   1.775   0.272  17.195  0.6472 -1.4565  0.2315
  927MPD2    C313616   1.835   0.245  17.074  0.3377 -0.4415 -0.3190
  927MPD2    C413617   1.762   0.250  16.962 -0.2525 -0.1916 -0.2984
  927MPD2    C513618   1.624   0.254  16.967  0.0022  0.4243  0.3760
  927MPD2     H13619   1.834   0.275  17.285 -1.2232  0.0042  1.4101
  927MPD2    H113620   1.801   0.224  16.864  1.9093 -0.9031  0.7479
  927MPD2    H213621   1.455   0.291  17.093  0.7392 -0.1079  1.4063
  927MPD2    H313622   1.560   0.257  16.880  0.6161  0.5538 -0.0693
  927MPD2     N13623   1.973   0.218  17.084 -0.2789 -0.1941  0.3137
  927MPD2    H513624   2.005   0.200  17.179  1.9225  0.5830 -0.2902
  927MPD2    N113625   1.567   0.325  17.323  0.2296 -0.6347  0.5272
  927MPD2    H713626   1.467   0.344  17.328  0.7021  1.6518  1.3772
  928MPD2     C13627   4.525   3.595   0.806 -0.2840 -0.2209 -0.2244
  928MPD2    C113628   4.629   3.686   0.828 -0.1422 -0.0261  0.2895
  928MPD2    C213629   4.664   3.785   0.738 -0.2301 -0.6188  0.4834
  928MPD2    C313630   4.597   3.790   0.618 -0.6299  0.3499 -0.4994
  928MPD2    C413631   4.490   3.704   0.599 -0.5213 -0.4856 -0.2757
  928MPD2    C513632   4.460   3.600   0.685 -0.5414  0.3349 -0.2570
  928MPD2     H13633   0.015   3.839   0.765  0.7035 -1.0627 -1.7723
  928MPD2    H113634   4.440   3.709   0.503  0.4527 -0.3993 -0.7873
  928MPD2    H213635   4.491   3.517   0.873 -0.0357  1.7686  2.2206
  928MPD2    H313636   4.378   3.531   0.671 -2.2477  2.6509 -1.8188
  928MPD2     N13637   4.624   3.888   0.521 -0.0291  0.6986 -0.5802
  928MPD2    H513638   4.584   3.877   0.428  1.5657 -1.0576 -1.0780
  928MPD2    N113639   4.696   3.670   0.954 -0.2017 -0.5126 -0.0781
  928MPD2    H713640   4.659   3.602   1.020 -1.2530  1.1325  1.0398
  929MPD2     C13641   0.104   4.178  10.024 -0.0524  0.3408 -0.2612
  929MPD2    C113642   4.722   4.116   9.999 -0.3470  0.3461  0.3875
  929MPD2    C213643   4.644   4.177   9.905  0.0177 -0.2186  0.7074
  929MPD2    C313644   4.682   4.288   9.829 -0.0941  0.5919  0.1992
  929MPD2    C413645   0.075   4.334   9.840 -0.4944 -0.2053 -0.3300
  929MPD2    C513646   0.153   4.278   9.939 -0.8429 -0.5387 -0.4214
  929MPD2     H13647   4.537   4.168   9.921  0.1998 -1.8883  0.9670
  929MPD2    H113648   0.109   4.407   9.768 -1.1164 -1.2741 -1.7070
  929MPD2    H213649   0.167   4.145  10.106  0.0547 -0.2038 -0.5641
  929MPD2    H313650   0.252   4.321   9.953 -1.6080  1.1438 -0.1118
  929MPD2     N13651   4.586   4.357   9.753 -0.3438  0.5432 -0.1392
  929MPD2    H513652   4.603   4.452   9.722  0.6547  0.3909 -0.0546
  929MPD2    N113653   4.666   4.017  10.088  0.1818 -0.6277 -0.0238
  929MPD2    H713654   4.723   4.000  10.170 -0.2300 -0.4749  0.2948
  930MPD2     C13655   0.982   1.107  14.305  0.1752  0.1039  0.6272
  930MPD2    C113656   1.109   1.123  14.260 -0.4650  0.6272  0.4629
  930MPD2    C213657   1.148   1.071  14.141  0.6398  0.3548  0.3400
  930MPD2    C313658   1.061   0.996  14.063 -0.6199 -0.2134  0.6295
  930MPD2    C413659   0.938   0.968  14.112 -0.1553 -0.7072 -0.2205
  930MPD2    C513660   0.893   1.032  14.227 -0.7713 -0.9625 -0.7176
  930MPD2     H13661   1.248   1.097  14.108  0.0750  0.8985 -0.9381
  930MPD2    H113662   0.866   0.910  14.056 -0.7588 -1.5194  1.3933
  930MPD2    H213663   0.948   1.154  14.397  1.0056 -0.9232  1.4599
  930MPD2    H313664   0.788   1.020  14.254 -0.4836  1.5520  1.5924
  930MPD2     N13665   1.093   0.971  13.930 -0.6095  0.4821 -0.5385
  930MPD2    H513666   1.012   0.950  13.873 -0.7623 -0.2216 -0.0677
  930MPD2    N113667   1.188   1.209  14.331  0.0740 -0.6308  0.5007
  930MPD2    H713668   1.149   1.273  14.400  1.0865  0.5676 -0.0371
  931MPD2     C13669   1.467   0.585   0.471  0.1013 -0.8311  0.0672
  931MPD2    C113670   1.533   0.484   0.403 -0.1040 -0.3012  0.0861
  931MPD2    C213671   1.569   0.372   0.469  0.5555  0.7161 -0.3208
  931MPD2    C313672   1.535   0.357   0.605 -0.1420  0.2229 -0.9515
  931MPD2    C413673   1.480   0.464   0.675  0.4877  0.1804  0.0902
  931MPD2    C513674   1.443   0.571   0.603  0.1409 -0.3704 -0.3722
  931MPD2     H13675   1.608   0.291   0.409  0.0387  0.9022 -0.9051
  931MPD2    H113676   1.456   0.463   0.781 -0.6784 -1.7394 -0.2024
  931MPD2    H213677   1.427   0.669   0.416  0.2605  0.9315  2.6362
  931MPD2    H313678   1.391   0.644   0.664  1.0478  0.1316 -0.2071
  931MPD2     N13679   1.545   0.234   0.677  0.2972  0.0840 -0.0478
  931MPD2    H513680   1.527   0.232   0.776 -0.6104 -2.0664 -0.2471
  931MPD2    N113681   1.545   0.497   0.264  0.2151 -0.4769 -0.2509
  931MPD2    H713682   1.524   0.587   0.224  1.3231  0.3618  1.0174
  932MPD2     C13683   3.475   4.178  10.514 -0.8322 -0.0106 -0.2625
  932MPD2    C113684   3.533   4.259  10.612 -0.4262 -0.4228 -0.0004
  932MPD2    C213685   3.609   4.194  10.710  0.1386 -0.2597  0.9789
  932MPD2    C313686   3.628   4.054  10.708  0.7302  0.6113  0.0159
  932MPD2    C413687   3.573   3.979  10.607 -0.2162 -0.0613 -0.4937
  932MPD2    C513688   3.489   4.040  10.517 -0.0394 -0.6748  0.0770
  932MPD2     H13689   3.664   4.259  10.776  2.8357 -2.9365  1.3556
  932MPD2    H113690   3.590   3.873  10.587  1.4166  0.0037  0.5683
  932MPD2    H213691   3.418   4.217  10.431 -1.2417 -2.4254 -1.1071
  932MPD2    H313692   3.449   3.983  10.434 -0.0735 -2.4944  1.3618
  932MPD2     N13693   3.703   3.985  10.799 -0.1717 -0.0422  0.2413
  932MPD2    H513694   3.714   3.884  10.787  0.7943 -0.0277  1.0516
  932MPD2    N113695   3.512   4.398  10.623 -0.1465 -0.3562 -0.2409
  932MPD2    H713696   3.559   4.446  10.699  0.9001  0.2581 -1.2777
  933MPD2     C13697   4.443   3.452   1.525  0.4443 -0.0145 -0.0994
  933MPD2    C113698   4.472   3.580   1.488  0.9031 -0.2635 -0.8025
  933MPD2    C213699   4.370   3.673   1.489  0.3077 -0.0635  0.7249
  933MPD2    C313700   4.251   3.639   1.551  0.6302 -0.0719  0.2041
  933MPD2    C413701   4.238   3.517   1.619  0.4122  0.0789 -0.4585
  933MPD2    C513702   4.334   3.420   1.606 -0.8255  0.1588 -0.6361
  933MPD2     H13703   4.385   3.765   1.433  0.7723  0.0876  1.0991
  933MPD2    H113704   4.155   3.495   1.685  0.6819  0.5297  0.0395
  933MPD2    H213705   4.518   3.375   1.509  1.9061  1.3842  0.0850
  933MPD2    H313706   4.325   3.321   1.649 -0.1525  0.7537  0.8664
  933MPD2     N13707   4.143   3.729   1.530  0.0448  0.2840  0.4864
  933MPD2    H513708   4.167   3.819   1.491  0.6888  0.1865  0.6571
  933MPD2    N113709   4.593   3.611   1.420  0.0069 -0.2060  0.0972
  933MPD2    H713710   4.607   3.702   1.377 -2.6504 -0.0716 -0.4989
  934MPD2     C13711   0.731   1.606   1.405  0.5457  0.5305  1.0268
  934MPD2    C113712   0.821   1.506   1.396 -0.0949  0.1097  0.0779
  934MPD2    C213713   0.805   1.403   1.305 -0.3633 -0.6902  0.2260
  934MPD2    C313714   0.685   1.390   1.229  0.1215  0.8899  0.0533
  934MPD2    C413715   0.594   1.494   1.245  0.9989  0.1997  0.2239
  934MPD2    C513716   0.624   1.603   1.320 -0.1893 -0.7624  0.5188
  934MPD2     H13717   0.892   1.340   1.291 -0.6871 -0.4873 -2.8703
  934MPD2    H113718   0.492   1.489   1.209  2.0374 -1.8467 -2.4864
  934MPD2    H213719   0.740   1.703   1.452 -0.6794 -0.3215  3.0313
  934MPD2    H313720   0.555   1.686   1.320  0.8840  0.1324 -0.6563
  934MPD2     N13721   0.651   1.289   1.142 -0.0607 -0.2740 -0.1954
  934MPD2    H513722   0.577   1.307   1.075 -0.4298 -1.8790 -0.2121
  934MPD2    N113723   0.947   1.514   1.468 -0.1705  0.0596  0.2809
  934MPD2    H713724   1.017   1.447   1.438  0.2542 -0.0324  1.4616
  935MPD2     C13725   1.187   0.455   0.894  0.3090  0.8695 -0.0890
  935MPD2    C113726   1.084   0.455   0.802 -0.6118 -0.4000 -0.1438
  935MPD2    C213727   0.997   0.557   0.803 -0.2740 -0.2266  0.5952
  935MPD2    C313728   0.999   0.655   0.898 -0.9308 -0.2520 -0.2851
  935MPD2    C413729   1.104   0.647   0.993  0.2495 -0.1520 -0.5207
  935MPD2    C513730   1.192   0.547   0.993  0.2414  0.0754 -0.1031
  935MPD2     H13731   0.913   0.547   0.734 -0.2407  0.3211  0.4782
  935MPD2    H113732   1.117   0.720   1.072  2.0252  0.4849 -1.3973
  935MPD2    H213733   1.260   0.374   0.891  1.1928  1.6129  1.0546
  935MPD2    H313734   1.274   0.537   1.064 -0.1430 -0.1477  0.3076
  935MPD2     N13735   0.916   0.773   0.911  0.1451 -0.2071  0.1633
  935MPD2    H513736   0.926   0.832   0.993  3.2211 -0.1313 -0.2690
  935MPD2    N113737   1.058   0.342   0.720 -0.1294  0.3104  0.2559
  935MPD2    H713738   0.974   0.342   0.663  0.9021  2.1636 -1.2615
  936MPD2     C13739   4.562   2.549  12.754 -0.4335 -0.4457 -0.5913
  936MPD2    C113740   4.604   2.663  12.686 -0.4378  0.0905 -0.4796
  936MPD2    C213741   4.615   2.643  12.557  0.3845 -0.0592 -0.5301
  936MPD2    C313742   4.592   2.529  12.493  1.0362  0.6193 -0.3215
  936MPD2    C413743   4.552   2.418  12.561  0.1419  0.1496  0.6672
  936MPD2    C513744   4.541   2.431  12.692 -0.0442 -0.2386 -0.0295
  936MPD2     H13745   4.636   2.735  12.504  0.1664 -1.2448 -2.6605
  936MPD2    H113746   4.545   2.319  12.517 -0.9454  0.2964  0.5164
  936MPD2    H213747   4.559   2.545  12.862  0.2358 -1.3667 -0.6030
  936MPD2    H313748   4.522   2.348  12.760  0.4884  0.3703  0.8689
  936MPD2     N13749   4.597   2.524  12.350 -0.3436 -0.0816 -0.1059
  936MPD2    H513750   4.552   2.450  12.298  0.4685 -0.2836 -0.5259
  936MPD2    N113751   4.616   2.787  12.752 -0.2413 -0.4540 -0.1156
  936MPD2    H713752   4.634   2.866  12.690  2.3789 -0.2841  0.8635
  937MPD2     C13753   1.727   3.992  11.888  0.0724 -0.8454 -0.2548
  937MPD2    C113754   1.793   4.108  11.903  0.1973  0.3323  0.3190
  937MPD2    C213755   1.865   4.156  11.794 -0.4444  0.4875  0.0549
  937MPD2    C313756   1.874   4.088  11.675 -0.1212  0.0637 -0.1467
  937MPD2    C413757   1.797   3.980  11.660  0.1739  0.0730 -0.3690
  937MPD2    C513758   1.720   3.930  11.764  0.3764 -0.1582 -0.3817
  937MPD2     H13759   1.930   4.241  11.809 -0.4241  0.2366  1.4685
  937MPD2    H113760   1.784   3.918  11.571  0.1598  1.5860 -1.4262
  937MPD2    H213761   1.667   3.949  11.968 -0.0478  1.7453  1.0370
  937MPD2    H313762   1.656   3.844  11.746  2.2188 -1.5391 -0.2979
  937MPD2     N13763   1.954   4.138  11.570  0.0313 -0.7194 -0.1117
  937MPD2    H513764   2.008   4.221  11.590 -0.7112  0.1323 -1.6107
  937MPD2    N113765   1.773   4.205  12.007  0.4866 -0.1899  0.1425
  937MPD2    H713766   1.826   4.292  12.012  1.2010 -0.7490  2.2180
  938MPD2     C13767   0.039   0.542   0.613 -0.0787  0.5762 -0.5050
  938MPD2    C113768   0.112   0.652   0.657  0.4810 -0.6122  0.0069
  938MPD2    C213769   0.103   0.696   0.785  0.1279  0.2108  0.1032
  938MPD2    C313770   0.028   0.637   0.884 -0.0507 -0.2066  0.1149
  938MPD2    C413771   4.690   0.532   0.844  0.3786 -0.1421  0.8182
  938MPD2    C513772   4.701   0.491   0.716 -0.4793  1.1796  0.3261
  938MPD2     H13773   0.154   0.789   0.808 -1.1969  0.4564  2.1399
  938MPD2    H113774   4.616   0.480   0.905  0.9517 -0.3159  1.3598
  938MPD2    H213775   0.034   0.500   0.514  0.8545  1.5834 -0.9779
  938MPD2    H313776   4.642   0.402   0.696  0.9546  0.0860  0.9647
  938MPD2     N13777   0.008   0.698   1.014  0.5315 -0.1326  0.6401
  938MPD2    H513778   4.674   0.655   1.070  0.5334 -2.5589 -1.1906
  938MPD2    N113779   0.207   0.721   0.577 -0.4820 -0.3246 -0.0830
  938MPD2    H713780   0.253   0.801   0.619 -3.6385  1.5095 -0.0716
  939MPD2     C13781   1.329   1.960  17.510 -0.0229 -0.8880 -0.1020
  939MPD2    C113782   1.380   2.060  17.594  0.5808  0.1003  0.8059
  939MPD2    C213783   1.457   2.163  17.531  0.8711 -0.1022 -0.3903
  939MPD2    C313784   1.485   2.161  17.393  0.4830  0.0525 -0.0181
  939MPD2    C413785   1.428   2.061  17.317  0.5329  0.1570  0.2229
  939MPD2    C513786   1.348   1.965  17.373  0.2854  1.0683  0.7713
  939MPD2     H13787   1.506   2.237  17.594  2.0254 -0.7575 -0.5174
  939MPD2    H113788   1.439   2.060  17.209 -0.6567 -0.8813  0.1224
  939MPD2    H213789   1.285   1.872  17.555 -0.6933 -0.5090 -0.0197
  939MPD2    H313790   1.306   1.886  17.312  2.0908  1.0341 -0.4222
  939MPD2     N13791   1.570   2.264  17.349  0.1278  0.3385 -0.2378
  939MPD2    H513792   1.627   2.312  17.417 -0.6795  2.8294 -1.3025
  939MPD2    N113793   1.361   2.042  17.734  0.3394  0.1770 -1.1705
  939MPD2    H713794   1.328   1.952   0.014  0.1135 -0.1652 -2.3429
  940MPD2     C13795   0.009   2.220  12.984 -0.5978  0.2549  0.2729
  940MPD2    C113796   0.054   2.341  13.022 -0.1396  0.2101  0.1908
  940MPD2    C213797   0.144   2.405  12.934  0.0282 -0.1382 -0.2363
  940MPD2    C313798   0.173   2.362  12.803 -0.1041 -0.3278 -0.1528
  940MPD2    C413799   0.116   2.239  12.763  0.6840 -0.0923 -0.3432
  940MPD2    C513800   0.040   2.169  12.859  0.3804 -0.8817 -0.1114
  940MPD2     H13801   0.187   2.501  12.960 -1.6094  0.0485  1.7742
  940MPD2    H113802   0.132   2.201  12.663 -1.9123 -1.1546 -0.3625
  940MPD2    H213803   4.707   2.144  13.051 -0.8393  0.1920  0.0532
  940MPD2    H313804   0.007   2.069  12.831  1.7540 -1.3758  0.0288
  940MPD2     N13805   0.251   2.429  12.703 -0.0370  0.3940  1.0617
  940MPD2    H513806   0.239   2.398  12.607 -1.1084  1.1967  0.9479
  940MPD2    N113807   0.032   2.400  13.147 -0.0975 -0.2223  0.0317
  940MPD2    H713808   0.074   2.490  13.168  0.1949 -0.3192 -0.1394
  941MPD2     C13809   3.620   2.323   9.985 -0.5568 -0.0865  0.4084
  941MPD2    C113810   3.712   2.429   9.996 -0.5217 -0.9334 -0.3159
  941MPD2    C213811   3.821   2.415  10.074 -1.1354  0.9933 -0.4484
  941MPD2    C313812   3.854   2.296  10.133 -0.4066 -0.0791  0.2806
  941MPD2    C413813   3.763   2.192  10.124 -0.3950 -0.1716 -0.4488
  941MPD2    C513814   3.644   2.208  10.048 -0.0431 -0.0431  0.1136
  941MPD2     H13815   3.887   2.500  10.088  0.3686 -0.2231 -0.0828
  941MPD2    H113816   3.782   2.098  10.175  0.0381 -0.1490 -0.5744
  941MPD2    H213817   3.533   2.320   9.920 -0.6410 -0.7706  0.5521
  941MPD2    H313818   3.583   2.123  10.017  2.3050 -1.3034 -1.0281
  941MPD2     N13819   3.972   2.267  10.208  0.0717 -0.2962 -0.3748
  941MPD2    H513820   3.980   2.172  10.244  4.0176  0.3740  0.5286
  941MPD2    N113821   3.692   2.558   9.940  0.4460  0.0692  0.1424
  941MPD2    H713822   3.762   2.629   9.957  0.8125 -0.1688 -0.3491
  942MPD2     C13823   4.097   0.112   8.912  0.1402  0.3553 -0.7774
  942MPD2    C113824   4.238   0.107   8.890 -0.1160 -0.1353  0.1904
  942MPD2    C213825   4.294   4.721   8.885  0.0876  0.4345  0.6017
  942MPD2    C313826   4.223   4.603   8.915  0.1965 -0.1766 -0.0058
  942MPD2    C413827   4.087   4.617   8.943 -0.1873  0.5376  0.0794
  942MPD2    C513828   4.021   4.738   8.936  0.3781 -0.4236 -0.3422
  942MPD2     H13829   4.400   4.715   8.862 -0.2658 -0.6975 -0.7309
  942MPD2    H113830   4.024   4.532   8.965  0.1646  0.6999  1.7218
  942MPD2    H213831   4.044   0.206   8.909 -0.4242  0.0392 -0.7322
  942MPD2    H313832   3.916   4.731   8.962  0.3384  2.1898  0.2187
  942MPD2     N13833   4.283   4.474   8.929 -0.3634  0.3716 -0.7567
  942MPD2    H513834   4.213   4.401   8.944  0.9472 -0.4862  1.2132
  942MPD2    N113835   4.311   0.224   8.853 -0.0757 -0.0355 -0.0857
  942MPD2    H713836   4.410   0.210   8.840  0.0119 -0.2300  0.7982
  943MPD2     C13837   3.114   1.467  10.237 -0.1090  0.1028  0.5076
  943MPD2    C113838   3.042   1.584  10.251 -0.8978  0.6315  0.0957
  943MPD2    C213839   3.118   1.701  10.260  0.6002 -0.0577 -0.0770
  943MPD2    C313840   3.256   1.699  10.263  0.5892  0.0746 -0.4328
  943MPD2    C413841   3.321   1.577  10.256  0.3744  0.3734 -0.5012
  943MPD2    C513842   3.251   1.461  10.235 -0.8488 -0.2604 -0.1059
  943MPD2     H13843   3.073   1.799  10.246 -0.0818 -0.6198 -1.7273
  943MPD2    H113844   3.428   1.580  10.267  0.2363  0.5713  0.7521
  943MPD2    H213845   3.060   1.374  10.226  1.0869 -0.6028  0.5597
  943MPD2    H313846   3.300   1.365  10.222  0.4052  0.8382 -3.2711
  943MPD2     N13847   3.321   1.825  10.280 -0.6265  0.6794 -0.4023
  943MPD2    H513848   3.261   1.907  10.283  0.5652  1.5550 -0.6999
  943MPD2    N113849   2.895   1.582  10.246  0.2937 -0.1628  0.2766
  943MPD2    H713850   2.854   1.490  10.233 -0.2631  0.4449 -2.2306
  944MPD2     C13851   2.337   1.542  11.235 -0.2434 -0.1870  0.0409
  944MPD2    C113852   2.250   1.440  11.202 -0.0860 -0.5624  0.1877
  944MPD2    C213853   2.135   1.421  11.286  0.2730 -0.0398  0.0515
  944MPD2    C313854   2.109   1.503  11.393  0.3551 -0.0246  0.4730
  944MPD2    C413855   2.195   1.610  11.422  0.2251 -0.5580  0.1779
  944MPD2    C513856   2.308   1.629  11.340 -0.0006 -0.1578  0.8120
  944MPD2     H13857   2.069   1.347  11.242 -0.5683  0.0902  1.1108
  944MPD2    H113858   2.183   1.685  11.498  1.0438 -0.6222  0.3699
  944MPD2    H213859   2.424   1.564  11.174  0.1474  1.1563  1.0957
  944MPD2    H313860   2.376   1.711  11.365  1.0364 -0.1415 -2.0246
  944MPD2     N13861   1.985   1.486  11.453  0.7972 -0.4521  0.6556
  944MPD2    H513862   1.938   1.402  11.421  2.7541 -0.6013 -1.9085
  944MPD2    N113863   2.292   1.351  11.102 -0.0743  1.1219 -0.1823
  944MPD2    H713864   2.370   1.386  11.049 -0.9833 -0.3011 -2.4374
    1TMC1    C113865   0.876   2.212  14.804  0.2484  0.2070  0.4700
    1TMC1    C213866   0.819   2.176  14.684  0.0175 -0.8574 -0.5916
    1TMC1    C313867   0.729   2.081  14.684 -0.2126  0.6588 -0.1516
    1TMC1    C413868   0.862   2.134  14.916  0.0384 -0.6629 -1.1214
    1TMC1    C513869   0.771   2.030  14.907  0.4790 -0.6191  0.3997
    1TMC1    C613870   0.704   2.001  14.789 -0.5509 -0.1631  0.2237
    1TMC1     C13871   0.992   2.308  14.797  0.5875 -0.3624  0.3260
    1TMC1     O13872   1.083   2.287  14.874 -0.3700 -0.4967 -0.1432
    1TMC1     H13873   0.817   2.252  14.607 -0.3942 -1.3036 -1.0184
    1TMC1    H113874   0.914   2.157  15.008 -0.3798 -0.4555 -0.9346
    1TMC1    H213875   0.650   1.907  14.785 -1.1680  0.3351 -2.7293
    1TMC1    C713876   0.752   1.951  15.027  0.6367  0.0913 -0.1308
    1TMC1    C813877   0.624   2.084  14.588 -0.6059 -0.1782  0.2814
    1TMC1    O113878   0.844   1.923  15.105  0.5602 -0.1450 -0.0970
    1TMC1    O213879   0.557   2.181  14.568  0.1255  0.8238 -0.7033
    1TMC1    O313880   0.636   1.884  15.020  0.4448  1.1137  0.3161
    1TMC1    H313881   0.571   1.934  14.967  0.6191 -0.9042 -1.7929
    1TMC1    O513882   0.600   1.956  14.559 -0.1887 -0.0960 -0.1283
    1TMC1    H513883   0.672   1.889  14.556 -0.3376 -0.1800 -2.3070
    2MPD2     C13884   1.252   2.645  14.530 -0.3043  0.1823 -0.2518
    2MPD2    C113885   1.125   2.647  14.486 -0.3557  0.3028  0.4677
    2MPD2    C213886   1.029   2.562  14.542  0.0178 -0.3716 -0.9584
    2MPD2    C313887   1.069   2.482  14.647 -0.0787 -0.6562  0.1641
    2MPD2    C413888   1.199   2.479  14.689 -0.0719  0.9612  0.5896
    2MPD2    C513889   1.286   2.556  14.624  0.3500 -0.4040 -0.2544
    2MPD2     H13890   0.926   2.572  14.511 -1.0651  0.3186  2.8493
    2MPD2    H113891   1.232   2.411  14.766  0.4223 -1.7408 -1.9896
    2MPD2    H213892   1.337   2.702  14.496 -1.0173  1.4132  0.0426
    2MPD2    H313893   1.390   2.565  14.654 -0.3376  0.0814  1.9551
    2MPD2     N13894   0.973   2.405  14.707 -0.1272  1.0365 -0.1348
    2MPD2    H513895   0.883   2.405  14.660  1.0836 -0.0707 -2.4919
    2MPD2    N113896   1.092   2.737  14.381 -0.6280  0.2443 -0.0513
    2MPD2    H713897   1.164   2.802  14.353 -0.3994  0.4750  1.0557
    3TMC2    C113898   0.973   2.834  14.198 -0.7483 -0.4194  0.2786
    3TMC2    C213899   1.084   2.862  14.120  0.0188 -0.6160 -0.2585
    3TMC2    C313900   1.071   2.963  14.029 -0.4034  0.4071 -0.2016
    3TMC2    C413901   0.858   2.908  14.192  0.0580  0.0300  0.0560
    3TMC2    C513902   0.850   3.003  14.097 -0.7931  0.1271 -0.2053
    3TMC2    C613903   0.952   3.028  14.005  0.2416  0.2030 -0.2797
    3TMC2     C13904   0.970   2.735  14.312  0.3765  0.5538 -0.2491
    3TMC2     O13905   0.867   2.669  14.329 -0.2202 -0.0134  0.6804
    3TMC2     H13906   1.167   2.794  14.134  0.4432  0.4101  2.1122
    3TMC2    H113907   0.777   2.890  14.262  3.6395 -0.1286  4.1516
    3TMC2    H213908   0.945   3.102  13.926 -2.0698  0.1071 -0.1767
    3TMC2    C713909   0.747   3.107  14.110  0.1041 -0.0138  0.0659
    3TMC2    C813910   1.192   3.014  13.963  0.0341 -0.6724  0.3346
    3TMC2    O113911   0.693   3.121  14.216 -0.1393 -0.4649 -0.2114
    3TMC2    O213912   1.288   2.942  13.933  0.4085  0.0721  0.8129
    3TMC2    O513913   1.194   3.145  13.995 -0.4396 -0.1476  0.0420
    3TMC2    H513914   1.105   3.175  14.025 -1.1819 -1.3829 -0.8911
    4TMC2    C113915   0.266   3.564  13.364 -0.1509 -0.0923 -0.2073
    4TMC2    C213916   0.246   3.488  13.247  0.3419  0.0172 -0.0924
    4TMC2    C313917   0.325   3.374  13.230  0.1307 -0.2053 -0.1308
    4TMC2    C413918   0.341   3.519  13.461 -0.7898 -0.2916 -0.4662
    4TMC2    C513919   0.414   3.407  13.446 -0.6952  0.5269 -0.1006
    4TMC2    C613920   0.416   3.337  13.323  0.3062  0.1135 -0.0274
    4TMC2     C13921   0.167   3.663  13.398  0.4174 -0.5097 -0.2876
    4TMC2     O13922   0.181   3.726  13.501 -0.3448 -0.3746  0.1007
    4TMC2     H13923   0.187   3.524  13.163 -0.0672  1.3778  0.7776
    4TMC2    H113924   0.349   3.576  13.553 -0.4108  1.0896 -1.3539
    4TMC2    H213925   0.480   3.253  13.300  0.9192  0.5477  0.0817
    4TMC2    C713926   0.478   3.354  13.566 -0.3863 -0.9294  0.4104
    4TMC2    C813927   0.337   3.314  13.098  0.2472  0.0609 -0.0473
    4TMC2    O113928   0.534   3.249  13.554 -0.3153  0.3635 -0.1466
    4TMC2    O213929   0.369   3.386  13.002 -0.4506  0.2535  0.1471
    4TMC2    O513930   0.381   3.186  13.114  0.7257  0.0251  0.8277
    4TMC2    H513931   0.349   3.155  13.201 -0.3873 -0.0674  0.3977
    5MPD2     C13932   4.401   3.759  13.436  0.0642 -0.5293  0.3094
    5MPD2    C113933   4.423   3.673  13.326  0.3258 -0.3584  0.1761
    5MPD2    C213934   4.549   3.637  13.294  0.5114 -0.7443 -0.3834
    5MPD2    C313935   4.657   3.683  13.371  0.3714  0.5282 -0.3247
    5MPD2    C413936   4.632   3.764  13.482  0.3524 -0.2693  0.3871
    5MPD2    C513937   4.506   3.803  13.514  0.2014  0.2968 -0.2464
    5MPD2     H13938   4.571   3.570  13.211  0.1655 -0.8948 -0.3544
    5MPD2    H113939   4.722   3.791  13.537  0.2170  4.4780 -1.6989
    5MPD2    H213940   4.298   3.779  13.462 -0.2196 -0.3149 -0.9357
    5MPD2    H313941   4.484   3.864  13.601 -0.9697 -0.9301  0.3079
    5MPD2     N13942   0.047   3.641  13.328 -0.3290 -0.1087  0.6901
    5MPD2    H513943   0.038   3.578  13.249  1.9085  0.9707 -0.4295
    5MPD2    N113944   4.308   3.627  13.257 -0.3607 -0.0548  0.7302
    5MPD2    H713945   4.220   3.670  13.283  0.6744  2.1907  0.6043
    6MPD1     C13946   3.840   0.265  12.388  0.4702 -0.3324 -1.1910
    6MPD1    C113947   3.850   0.193  12.270  0.1823 -0.4829 -0.5034
    6MPD1    C213948   3.864   0.058  12.282 -0.0842 -0.3123  0.4094
    6MPD1    C313949   3.880   0.001  12.410 -0.1198 -0.3326  0.1097
    6MPD1    C413950   3.848   0.072  12.524 -0.3238  0.1199  0.0351
    6MPD1    C513951   3.832   0.203  12.515  0.7888  0.0432  0.3765
    6MPD1     H13952   3.860   4.730  12.196  0.8459  0.0735  0.0588
    6MPD1    H113953   3.855   0.021  12.619  2.2547 -3.0439 -1.8439
    6MPD1    H213954   3.830   0.373  12.394 -0.1776 -0.4735  0.2627
    6MPD1    H313955   3.819   0.257  12.608  0.3037 -1.7995  1.3645
    6MPD1     N13956   3.895   4.597  12.438  0.5286 -0.1804  0.2029
    6MPD1    H513957   3.903   4.575  12.537 -0.0809  0.4394  0.3923
    6MPD1    N113958   3.833   0.250  12.145  0.1067  0.0122 -0.7421
    6MPD1    H613959   3.865   0.183  12.075 -1.0946  0.2225 -1.5018
    6MPD1    H713960   3.891   0.333  12.132  1.1754 -0.5372  0.5421
    7MPD2     C13961   3.762   4.131  13.018  0.2789 -0.0472  1.2797
    7MPD2    C113962   3.766   4.057  12.901 -0.1173 -0.1132 -0.0267
    7MPD2    C213963   3.780   3.924  12.910  0.2413  0.0934 -0.3047
    7MPD2    C313964   3.772   3.860  13.034  0.6800 -0.2471  0.0686
    7MPD2    C413965   3.755   3.940  13.143 -0.5494  0.1626 -0.0974
    7MPD2    C513966   3.770   4.073  13.139  0.6864 -0.0103  0.3418
    7MPD2     H13967   3.793   3.866  12.819  2.5039  1.5786 -0.9159
    7MPD2    H113968   3.740   3.896  13.241  0.4247  1.9537  0.8445
    7MPD2    H213969   3.758   4.239  13.027 -1.3948  0.0491 -0.6322
    7MPD2    H313970   3.745   4.136  13.224 -1.4155  4.2607 -3.3886
    7MPD2     N13971   3.808   3.724  13.039 -0.5238 -0.0659 -0.0775
    7MPD2    H513972   3.820   3.678  12.950 -1.9654  0.5340 -0.5833
    7MPD2    N113973   3.768   4.110  12.771 -0.3100 -0.1828 -1.2606
    7MPD2    H713974   3.772   4.040  12.697  0.7936 -1.4867  0.0484
    8TMC3    C113975   3.939   3.542  13.110  1.0118  0.0619 -0.0540
    8TMC3    C213976   4.067   3.560  13.163 -0.2332  0.0653  0.1810
    8TMC3    C313977   4.173   3.528  13.090  0.2627 -0.5186  0.3468
    8TMC3    C413978   3.919   3.502  12.977 -0.1403 -0.1288  0.6952
    8TMC3    C513979   4.037   3.482  12.902  0.5501  0.3250  0.5095
    8TMC3    C613980   4.158   3.483  12.960 -0.0139  0.0288 -0.4302
    8TMC3     C13981   3.853   3.660  13.150 -0.2400 -0.2250 -0.0506
    8TMC3     O13982   3.863   3.709  13.265 -0.0087  0.1317  0.0572
    8TMC3     H13983   4.072   3.575  13.270  0.5160  2.2753 -0.1515
    8TMC3    H113984   3.819   3.498  12.934  0.1922 -0.2378 -0.0724
    8TMC3    H213985   4.252   3.469  12.908  0.3127  2.0417 -0.3721
    8TMC3    C713986   4.021   3.564  12.785 -0.3847 -0.4009 -0.1495
    8TMC3    C813987   4.309   3.537  13.147 -1.1557 -0.9353  0.0998
    8TMC3    O113988   3.909   3.618  12.777  0.1147 -0.2543  0.2491
    8TMC3    O213989   4.403   3.469  13.103 -0.2728  0.5708 -0.0457
    9TMC3    C113990   3.871   4.368  12.406 -0.1432  0.2000  0.2718
    9TMC3    C213991   3.931   4.259  12.350  0.2196 -0.2049 -0.0187
    9TMC3    C313992   3.954   4.147  12.420 -0.0672  0.1988  0.4080
    9TMC3    C413993   3.828   4.358  12.534  0.7325  0.1332  0.8088
    9TMC3    C513994   3.846   4.247  12.597  0.0896 -0.0063 -0.2243
    9TMC3    C613995   3.915   4.139  12.552 -0.0802  0.0811  0.0714
    9TMC3     C13996   3.890   4.499  12.343  0.7361 -0.5384  0.6184
    9TMC3     O13997   3.891   4.508  12.220  1.0228 -0.1538 -0.2697
    9TMC3     H13998   3.958   4.274  12.246 -1.8767  1.1877 -0.3724
    9TMC3    H113999   3.774   4.437  12.585  1.3161  0.5909  0.7188
    9TMC3    H214000   3.930   4.052  12.616  0.5774  0.3295  0.2549
    9TMC3    C714001   3.793   4.241  12.737 -0.1963 -0.8763  0.2634
    9TMC3    C814002   4.020   4.041  12.355  0.5462 -0.9605 -0.7137
    9TMC3    O114003   3.779   4.343  12.805 -0.4477  0.2512  0.0449
    9TMC3    O214004   4.113   4.065  12.278 -0.0725  0.0208 -0.1553
   10MPD2     C14005   4.249   3.621  12.517 -0.0236  0.1467  0.4478
   10MPD2    C114006   4.137   3.644  12.591  0.5017  0.2162 -0.5742
   10MPD2    C214007   4.054   3.739  12.555  0.2562 -0.1105  0.4659
   10MPD2    C314008   4.076   3.817  12.440 -0.6800  0.2425 -0.1665
   10MPD2    C414009   4.190   3.798  12.361  0.0797 -0.5243 -0.6044
   10MPD2    C514010   4.273   3.695  12.402 -0.3423 -0.1788 -0.2511
   10MPD2     H14011   3.975   3.778  12.618  0.9549  0.9306  0.6890
   10MPD2    H114012   4.214   3.848  12.269 -1.8545  2.3916  0.4947
   10MPD2    H214013   4.318   3.541  12.543 -3.0680 -2.3728  0.6977
   10MPD2    H314014   4.357   3.669  12.339 -0.5077 -0.8528 -0.1936
   10MPD2     N14015   3.994   3.926  12.427 -0.7925  0.5339  0.2018
   10MPD2    H514016   3.915   3.928  12.490 -0.0059  0.4348  1.2020
   10MPD2    N114017   4.121   3.565  12.701  0.5171  0.4413 -0.7486
   10MPD2    H714018   4.199   3.504  12.724 -0.4253 -0.7707 -0.7898
   11MPD2     C14019   0.506   3.278  14.077  0.8429 -0.4479  0.0491
   11MPD2    C114020   0.590   3.239  13.971  0.5644  0.1872 -0.0804
   11MPD2    C214021   0.554   3.279  13.842  0.2705 -0.0608  0.0514
   11MPD2    C314022   0.451   3.369  13.815 -0.2213  0.5598  0.1826
   11MPD2    C414023   0.377   3.413  13.919 -0.0979 -0.3264  0.4555
   11MPD2    C514024   0.401   3.361  14.048 -0.5292  0.4288  0.2421
   11MPD2     H14025   0.625   3.250  13.765 -0.7755 -1.2582 -0.4492
   11MPD2    H114026   0.293   3.480  13.910  0.8270  0.5506 -1.6755
   11MPD2    H214027   0.526   3.247  14.178  0.4075  0.1985  0.3305
   11MPD2    H314028   0.335   3.375  14.132  0.7770 -1.3682  1.5775
   11MPD2     N14029   0.411   3.399  13.681  0.4629  0.1677 -0.8695
   11MPD2    H514030   0.330   3.459  13.666  1.3605  1.2052 -1.5502
   11MPD2    N114031   0.703   3.159  13.989  0.2595  0.0176 -0.2076
   11MPD2    H714032   0.749   3.127  13.904  3.0948 -1.1760  1.7901
    1MPD1     C14033   2.727   4.136  17.212 -0.4292  0.3008  0.0723
    1MPD1    C114034   2.711   4.078  17.332  0.2358 -0.5352 -0.2221
    1MPD1    C214035   2.814   4.084  17.423  0.2851 -0.8151  0.1728
    1MPD1    C314036   2.929   4.155  17.402 -0.0056 -0.1505  0.3593
    1MPD1    C414037   2.941   4.220  17.285  0.5682 -0.0835  0.8973
    1MPD1    C514038   2.844   4.203  17.189  0.1743  0.6276  0.8694
    1MPD1     H14039   2.798   4.028  17.514  4.3103 -1.1106  0.7268
    1MPD1    H114040   3.030   4.279  17.263 -0.5075  0.5337 -1.8065
    1MPD1    H214041   2.658   4.116  17.130  1.2762 -0.9563 -1.0519
    1MPD1    H314042   2.858   4.240  17.088 -0.7739 -0.7403  0.2503
    1MPD1     N14043   3.041   4.163  17.492 -0.5940 -0.1769 -0.0257
    1MPD1    H514044   3.120   4.216  17.456  0.2696 -2.0344 -0.8738
    1MPD1    N114045   2.599   3.996  17.342  0.1606  0.4150  0.0505
    1MPD1    H614046   2.524   4.043  17.292  0.2429  2.2716  1.6892
    1MPD1    H714047   2.567   3.968  17.435  1.1696 -0.9642 -0.0154
    2MPD1     C14048   4.012   4.208  17.433  1.1279 -0.1495  0.4837
    2MPD1    C114049   4.004   4.108  17.529  0.2822 -0.1375 -0.5130
    2MPD1    C214050   3.885   4.091  17.602 -0.8746  0.0705  0.1081
    2MPD1    C314051   3.767   4.145  17.548 -0.1207 -0.1664  0.3148
    2MPD1    C414052   3.777   4.232  17.441  0.0603  0.0831 -0.3520
    2MPD1    C514053   3.898   4.263  17.385 -0.2706 -0.1076  0.3286
    2MPD1     H14054   3.882   4.017  17.681  1.3085  0.5097  0.6138
    2MPD1    H114055   3.690   4.279  17.397  0.5222 -0.1526 -1.5029
    2MPD1    H214056   4.103   4.229  17.377 -0.5110  1.7856 -1.4319
    2MPD1    H314057   3.896   4.314  17.290  0.4158 -3.3495 -1.4126
    2MPD1     N14058   3.642   4.126  17.612 -0.2312 -0.1903  0.2496
    2MPD1    H514059   3.642   4.055  17.685  0.1656  0.7610  1.1882
    2MPD1    N114060   4.121   4.053  17.578 -0.4954 -0.6468 -0.4142
    2MPD1    H614061   4.194   4.038  17.509 -1.2208 -1.2102 -1.0680
    2MPD1    H714062   4.101   3.965  17.625  0.9080 -0.7529 -0.0318
    3TMC3    C114063   3.413   4.099  17.642  0.3477  0.1089  0.2620
    3TMC3    C214064   3.438   4.028   0.002 -0.0537 -0.5016 -0.1722
    3TMC3    C314065   3.326   4.000   0.075 -0.6616  0.2805  0.3214
    3TMC3    C414066   3.288   4.150  17.609  0.1649  0.2288  0.4627
    3TMC3    C514067   3.182   4.117  17.685 -0.2588 -0.3417 -0.5729
    3TMC3    C614068   3.198   4.039   0.045 -0.2709  0.7014 -1.0515
    3TMC3     C14069   3.517   4.154  17.570  0.0965 -0.3191 -0.2855
    3TMC3     O14070   3.484   4.216  17.472 -0.8879 -0.4177  0.4770
    3TMC3     H14071   3.532   3.985   0.033  0.1936  0.7300  0.7581
    3TMC3    H114072   3.281   4.222  17.529  0.3396 -1.1842 -0.8363
    3TMC3    H214073   3.109   4.002   0.095 -1.1423  2.7834 -1.0609
    3TMC3    C714074   3.053   4.095  17.614 -0.2220 -0.2353  0.2703
    3TMC3    C814075   3.336   3.923   0.200 -0.5092  1.2890  0.1187
    3TMC3    O114076   2.968   4.032  17.671  0.0175  0.6114 -0.1418
    3TMC3    O214077   3.241   3.934   0.275  0.2024  0.7009 -0.0903
    4MPD1     C14078   3.474   3.507   0.468 -0.0101 -0.7109  0.1337
    4MPD1    C114079   3.587   3.548   0.392  0.3076  0.2755  0.6578
    4MPD1    C214080   3.574   3.656   0.308  0.4649 -0.3660 -0.2436
    4MPD1    C314081   3.456   3.721   0.296  0.2627  0.8908 -0.1933
    4MPD1    C414082   3.343   3.672   0.359  0.1896  1.0622  0.3393
    4MPD1    C514083   3.354   3.562   0.445 -0.6397 -0.2964  0.0380
    4MPD1     H14084   3.661   3.687   0.251  0.0849 -1.6570 -1.5118
    4MPD1    H114085   3.247   3.721   0.367  1.2120  3.2262 -0.7430
    4MPD1    H214086   3.491   3.438   0.549 -2.7722 -1.3795  0.1369
    4MPD1    H314087   3.261   3.537   0.496 -0.3552  1.9611  1.6812
    4MPD1     N14088   3.445   3.834   0.206  0.2093  0.5473 -0.5260
    4MPD1    H514089   3.525   3.855   0.147  0.2783 -1.8067 -1.2372
    4MPD1    N114090   3.714   3.508   0.424 -0.2178 -0.0463 -0.1810
    4MPD1    H614091   3.724   3.407   0.436 -0.4266 -0.2391 -1.6819
    4MPD1    H714092   3.774   3.535   0.346  0.7667 -1.5389  0.0608
    1TCq1    O114093   4.142   4.286  11.448 -0.3884 -0.2633 -0.3124
    1TCq1    C114094   4.240   4.189  11.450  0.3930  0.6474  0.1940
    1TCq1    O214095   4.331   4.183  11.532 -0.5935  0.3123  0.3539
    1TCq1    C214096   4.245   4.125  11.325 -0.3363  0.0920  0.3536
    1TCq1    C314097   4.309   4.004  11.330 -0.3574  0.3592  0.1147
    1TCq1    C414098   4.308   3.925  11.221 -0.0142 -0.0393  0.3511
    1TCq1    C514099   4.235   3.969  11.112 -0.1435  0.0200  0.2267
    1TCq1    C614100   4.207   4.106  11.103 -0.5910  0.2997  0.1395
    1TCq1    C714101   4.198   4.182  11.208 -0.0138  0.2696 -0.1607
    1TCq1    C814102   4.149   4.141  10.976  0.3781  0.1390 -0.6009
    1TCq1    O414103   4.133   4.059  10.888  0.1355 -0.2057 -0.0888
    1TCq1    C914104   4.308   3.783  11.243  0.1853  0.1997  0.2077
    1TCq1    O514105   4.292   3.754  11.364  0.0636  0.0484  0.5177
    1TCq1    O614106   4.246   3.713  11.154  0.3251  0.2801 -0.3299
    1TCq1    H114107   4.077   4.275  11.375 -0.4257  1.0052 -0.4724
    1TCq1    H214108   4.319   3.958  11.427  1.0370  0.3358 -0.0387
    1TCq1    H314109   4.221   3.905  11.025  0.4599  0.0396  0.1157
    1TCq1    H414110   4.150   4.279  11.206 -1.3424 -0.3736 -0.0610
    2MPD1     C14111   3.924   4.492  10.674  0.2194  0.4379 -0.6898
    2MPD1    C114112   4.018   4.562  10.749  0.3681 -0.5186 -0.8334
    2MPD1    C214113   4.090   4.498  10.848 -0.1662 -0.0964 -0.4596
    2MPD1    C314114   4.081   4.356  10.861  0.6761 -0.2921 -0.5721
    2MPD1    C414115   3.997   4.287  10.769 -0.4445 -0.0177 -0.1167
    2MPD1    C514116   3.925   4.355  10.673  0.7101  0.2218  0.5998
    2MPD1     H14117   4.160   4.550  10.912 -0.0013 -0.7193 -0.1405
    2MPD1    H114118   3.984   4.179  10.769 -0.8203  0.0369 -1.6063
    2MPD1    H214119   3.882   4.545  10.589  0.1288 -0.3431 -1.1395
    2MPD1    H314120   3.861   4.303  10.603 -0.1653  0.5112  1.1847
    2MPD1     N14121   4.157   4.282  10.963  0.5403  0.3918 -0.4669
    2MPD1    H514122   4.217   4.327  11.031 -0.0646 -0.6206  0.7458
    2MPD1    N114123   4.035   4.697  10.715 -0.6795  0.1544 -0.1479
    2MPD1    H614124   4.011   4.722  10.619 -0.2359  0.5396 -0.1618
    2MPD1    H714125   4.129   4.736  10.723 -0.8518  0.8669 -1.5376
    1TMC1    C114126   1.858   3.562   0.965  0.5866 -0.2964 -0.0743
    1TMC1    C214127   1.954   3.577   0.863  0.2839  0.4635 -0.6916
    1TMC1    C314128   2.084   3.552   0.885 -0.5165 -0.4618 -0.3438
    1TMC1    C414129   1.911   3.554   1.088 -0.0783  0.6021  0.7780
    1TMC1    C514130   2.044   3.535   1.114  0.2003 -0.3014  0.0452
    1TMC1    C614131   2.131   3.532   1.011 -0.3087  0.1495  0.0241
    1TMC1     C14132   1.730   3.630   0.937  0.1531 -0.1355  0.6067
    1TMC1     O14133   1.692   3.656   0.822  0.2261 -0.2487  0.1374
    1TMC1     H14134   1.914   3.606   0.766  2.9918  0.8203 -1.6846
    1TMC1    H114135   1.848   3.527   1.171 -0.3620 -0.5334  0.1944
    1TMC1    H214136   2.237   3.535   1.032  0.4205 -2.4005 -3.3043
    1TMC1    C714137   2.098   3.518   1.248 -0.3705 -0.6159 -0.6106
    1TMC1    C814138   2.163   3.584   0.778 -0.5413 -0.5037 -0.6016
    1TMC1    O114139   2.211   3.467   1.261 -0.1343 -0.4257  0.0115
    1TMC1    O214140   2.141   3.674   0.698  0.2827 -0.0537 -0.0862
    1TMC1    O314141   2.025   3.573   1.348 -0.3222  0.4815  0.1311
    1TMC1    H314142   1.952   3.634   1.323  0.4350  1.1291 -0.4686
    1TMC1    O514143   2.287   3.523   0.794 -0.1514 -0.3116  0.4475
    1TMC1    H514144   2.283   3.442   0.848 -0.2740  0.5770  1.7641
    2MPD1     C14145   1.284   3.792   1.150  0.7280 -0.0157  0.2012
    2MPD1    C114146   1.358   3.723   1.248  0.0937 -0.7336 -0.7368
    2MPD1    C214147   1.486   3.684   1.212  0.6617 -0.1657  0.2117
    2MPD1    C314148   1.535   3.699   1.087  0.0049 -0.0820 -0.8273
    2MPD1    C414149   1.459   3.758   0.988 -0.3961  0.4229 -0.6417
    2MPD1    C514150   1.333   3.810   1.022 -0.7007 -0.1547 -0.2351
    2MPD1     H14151   1.551   3.632   1.282  2.0731  0.2448 -0.8008
    2MPD1    H114152   1.490   3.770   0.885  1.2666 -2.3613 -0.4627
    2MPD1    H214153   1.186   3.831   1.173  1.3942  2.0751 -0.5027
    2MPD1    H314154   1.273   3.863   0.950 -1.0136  1.1637  0.9882
    2MPD1     N14155   1.663   3.646   1.061  0.6833 -0.5987 -0.5039
    2MPD1    H514156   1.720   3.633   1.144 -2.5267  2.1691  2.1400
    2MPD1    N114157   1.313   3.711   1.381 -0.2471  0.1624  0.1470
    2MPD1    H614158   1.377   3.656   1.438 -0.9711 -0.8768 -0.0462
    2MPD1    H714159   1.215   3.693   1.400 -0.0422 -0.8251  0.2705
    1MPD1     C14160   0.253   3.654  12.888  0.0109 -0.3318  0.3293
    1MPD1    C114161   0.231   3.586  12.772  0.0712  0.2284 -0.4278
    1MPD1    C214162   0.318   3.614  12.668 -0.0597  0.4053  0.6266
    1MPD1    C314163   0.408   3.721  12.662 -0.8113  0.9022  0.3714
    1MPD1    C414164   0.427   3.784  12.784  0.2172 -0.2997  0.7277
    1MPD1    C514165   0.350   3.747  12.892 -0.0120 -0.1501  0.0975
    1MPD1     H14166   0.312   3.558  12.575 -0.5337  0.0924  0.8470
    1MPD1    H114167   0.508   3.855  12.796 -0.3589  0.3572  0.7219
    1MPD1    H214168   0.187   3.646  12.973 -0.2164  0.6737  0.2511
    1MPD1    H314169   0.362   3.787  12.992  0.5110  1.1861 -0.5023
    1MPD1     N14170   0.474   3.755  12.549 -0.1504  0.6742  0.4757
    1MPD1    H514171   0.445   3.720  12.458 -0.9188  0.1660  0.9184
    1MPD1    N114172   0.147   3.476  12.770 -0.3912 -0.0702  0.2806
    1MPD1    H614173   0.062   3.490  12.824 -0.8354 -1.3863 -0.0810
    1MPD1    H714174   0.119   3.448  12.677  1.4048  1.0985 -0.6041
    2MPD1     C14175   0.263   3.885  11.177  0.8529  0.1280  0.4449
    2MPD1    C114176   0.292   3.869  11.044 -0.4062  0.7377 -0.2792
    2MPD1    C214177   0.362   3.978  10.987  0.2817 -0.0818  0.0146
    2MPD1    C314178   0.392   4.095  11.056 -1.0185  0.7943 -0.2958
    2MPD1    C414179   0.355   4.109  11.187  0.1185 -1.1784 -0.1992
    2MPD1    C514180   0.298   4.002  11.243 -0.4435 -0.1131 -0.3267
    2MPD1     H14181   0.391   3.965  10.883 -2.3564  1.2130 -0.8731
    2MPD1    H114182   0.373   4.201  11.241 -2.1302 -0.6675 -0.3344
    2MPD1    H214183   0.215   3.805  11.232 -0.6514 -0.5406 -1.8678
    2MPD1    H314184   0.282   4.003  11.350  1.3273 -0.7184 -0.0503
    2MPD1     N14185   0.474   4.201  11.006 -0.2478 -0.2513 -0.1359
    2MPD1    H514186   0.489   4.275  11.074 -3.8582 -1.0360  1.4916
    2MPD1    N114187   0.289   3.748  10.983 -0.2823  0.0821 -0.6746
    2MPD1    H614188   0.294   3.759  10.882  0.6054  0.7975 -0.5591
    2MPD1    H714189   0.199   3.704  10.998 -0.6765  0.2327 -2.6102
    3MPD1     C14190   0.843   4.439  10.096  0.2109 -0.1093  0.6458
    3MPD1    C114191   0.718   4.439  10.142 -0.2758 -0.0521 -0.2547
    3MPD1    C214192   0.693   4.438  10.283  0.4282  0.2267  0.2475
    3MPD1    C314193   0.794   4.440  10.378  0.2569 -0.1990 -0.0946
    3MPD1    C414194   0.921   4.449  10.328  0.0010 -0.0193  0.8879
    3MPD1    C514195   0.946   4.438  10.191 -0.2221  0.6190  0.1183
    3MPD1     H14196   0.590   4.425  10.314 -0.2404  1.5125 -1.4142
    3MPD1    H114197   1.012   4.452  10.387  1.8672 -0.3971 -1.9717
    3MPD1    H214198   0.872   4.434   9.991 -0.5450  1.2871  0.3722
    3MPD1    H314199   1.051   4.452  10.168 -0.0159  0.8973  1.2383
    3MPD1     N14200   0.763   4.431  10.518  0.2662 -0.1761  0.5623
    3MPD1    H514201   0.667   4.457  10.539  0.0883 -1.0826  0.8360
    3MPD1    N114202   0.619   4.425  10.046  0.2353 -0.1292 -0.7027
    3MPD1    H614203   0.537   4.476  10.078  0.5125  0.2250 -0.5585
    3MPD1    H714204   0.643   4.456   9.951  0.7487 -0.8781 -0.8202
    4MPD2     C14205   0.473   4.163  11.908  1.1484  0.1107  0.4214
    4MPD2    C114206   0.585   4.151  11.979 -0.3803 -0.2981  0.0122
    4MPD2    C214207   0.683   4.242  11.972  0.0617 -0.6247 -0.0334
    4MPD2    C314208   0.661   4.356  11.898  0.8899 -0.2063 -0.3613
    4MPD2    C414209   0.541   4.373  11.834  0.2974 -0.1967  0.3100
    4MPD2    C514210   0.450   4.271  11.831  0.4598  0.5027  0.3967
    4MPD2     H14211   0.772   4.229  12.031 -0.6474 -0.1994  1.1321
    4MPD2    H114212   0.522   4.458  11.770  1.6222 -0.9173 -1.0388
    4MPD2    H214213   0.402   4.083  11.890 -2.3602  3.3408 -0.0799
    4MPD2    H314214   0.361   4.278  11.770  0.5463  2.0085  0.4563
    4MPD2     N14215   0.752   4.465  11.883  1.0343  0.5110 -0.4013
    4MPD2    H514216   0.733   4.538  11.815 -2.6901  0.3653  0.4707
    4MPD2    N114217   0.608   4.042  12.058  0.4925  0.1878  0.2949
    4MPD2    H714218   0.683   4.061  12.123  0.1574  0.4352  0.6113
    5TMC3    C114219   0.596   3.843  12.172  0.5768  0.6179  0.5471
    5TMC3    C214220   0.543   3.857  12.301 -0.0817  0.3550  0.4898
    5TMC3    C314221   0.637   3.867  12.404  1.0028 -0.0239 -0.2373
    5TMC3    C414222   0.733   3.850  12.156 -0.0223 -0.0340 -0.1513
    5TMC3    C514223   0.818   3.871  12.258 -0.4253 -0.1254 -0.3170
    5TMC3    C614224   0.769   3.880  12.388  0.1478 -0.3803  0.1368
    5TMC3     C14225   0.536   3.929  12.078  0.2545  0.0354  0.0620
    5TMC3     O14226   0.420   3.909  12.034 -0.3444  0.2269 -0.4047
    5TMC3     H14227   0.439   3.882  12.312  0.1912  2.7656 -2.3866
    5TMC3    H114228   0.775   3.881  12.061 -0.1232  1.9672  0.4634
    5TMC3    H214229   0.837   3.907  12.468 -1.4379 -0.4889  1.5210
    5TMC3    C714230   0.910   3.979  12.226  0.0069  0.3401 -0.2694
    5TMC3    C814231   0.596   3.823  12.540 -0.3188  0.0872  0.2225
    5TMC3    O114232   0.856   4.091  12.242  0.4166 -0.1192 -0.0491
    5TMC3    O214233   0.676   3.847  12.631  0.0946  0.4595  0.0277
    6TMC3    C114234   0.624   4.315  10.876  0.4954 -0.6599  0.4171
    6TMC3    C214235   0.669   4.354  10.751 -0.2234 -0.0071  0.1330
    6TMC3    C314236   0.786   4.431  10.745  0.3764  0.1843 -0.9726
    6TMC3    C414237   0.701   4.337  10.985 -0.3064 -0.4213  0.4016
    6TMC3    C514238   0.831   4.376  10.965 -0.0022  0.9489  0.3465
    6TMC3    C614239   0.871   4.435  10.852 -0.5502 -0.1460 -0.0455
    6TMC3     C14240   0.522   4.214  10.879  0.2315  0.1517  0.9234
    6TMC3     O14241   0.498   4.144  10.782  0.1809 -0.1543  0.4491
    6TMC3     H14242   0.604   4.337  10.667  1.7095 -2.6495 -0.8454
    6TMC3    H114243   0.679   4.309  11.087  0.6898  0.3444  0.8333
    6TMC3    H214244   0.966   4.485  10.835 -0.0803 -0.4496  1.7742
    6TMC3    C714245   0.900   4.402  11.091 -0.5015  0.2005 -0.0340
    6TMC3    C814246   0.848   4.433  10.616  0.1618 -0.1365  0.5115
    6TMC3    O114247   0.861   4.499  11.156  0.1073 -0.2237 -0.1480
    6TMC3    O214248   0.967   4.414  10.623 -0.1402  0.2958  0.1227
    7MPD2     C14249   1.350   4.181  12.053 -0.6096  0.9954 -1.1682
    7MPD2    C114250   1.241   4.242  12.100 -0.6171 -0.1861 -0.4811
    7MPD2    C214251   1.137   4.165  12.154 -0.2080 -0.5017 -0.4053
    7MPD2    C314252   1.147   4.023  12.142  0.3637 -0.5837 -0.5651
    7MPD2    C414253   1.258   3.965  12.088  0.0183  0.0396 -0.1364
    7MPD2    C514254   1.359   4.041  12.045  0.6205  0.1553  0.1388
    7MPD2     H14255   1.057   4.213  12.209 -2.0171 -3.5779 -0.3194
    7MPD2    H114256   1.263   3.859  12.067  0.6131 -0.1331  0.8981
    7MPD2    H214257   1.429   4.228  11.997  2.8609 -3.5711 -0.1051
    7MPD2    H314258   1.440   4.005  11.984 -1.5246 -1.7822 -1.5828
    7MPD2     N14259   1.038   3.939  12.183 -0.1392 -0.0945 -0.1429
    7MPD2    H514260   1.064   3.841  12.193  0.1735  0.0483  0.4329
    7MPD2    N114261   1.213   4.374  12.074  0.0786  0.6465  0.0605
    7MPD2    H714262   1.117   4.395  12.101  0.5258  0.2518  2.0152
    8TMC3    C114263   1.196   4.570  11.940  0.0477  0.6934 -0.1941
    8TMC3    C214264   1.205   4.580  11.802  0.1357  0.1945 -1.1068
    8TMC3    C314265   1.092   4.596  11.733  0.5060 -0.3765  0.4609
    8TMC3    C414266   1.074   4.567  12.001  0.3773  1.3472  0.1487
    8TMC3    C514267   0.956   4.578  11.922 -0.7504 -0.1620 -0.4278
    8TMC3    C614268   0.968   4.595  11.789  0.1784  0.4522  0.6706
    8TMC3     C14269   1.287   4.467  11.999  0.7960 -0.8931  0.1515
    8TMC3     O14270   1.405   4.464  11.964  0.1366  0.4710 -0.5091
    8TMC3     H14271   1.305   4.572  11.761  1.1192  1.2900  1.0664
    8TMC3    H114272   1.063   4.556  12.108 -1.1366  0.6754 -0.0695
    8TMC3    H214273   0.879   4.612  11.729 -0.1230 -2.1084  0.4091
    8TMC3    C714274   0.848   4.491  11.979  0.3608  0.5801 -0.1959
    8TMC3    C814275   1.098   4.570  11.589  0.1026 -0.1850  0.1030
    8TMC3    O114276   0.870   4.426  12.077 -0.4102 -0.3362 -0.4610
    8TMC3    O214277   1.009   4.609  11.519  0.6004 -0.0228  0.8884
    9MPD2     C14278   1.267   4.271  11.434 -0.3775  0.4567 -0.0017
    9MPD2    C114279   1.182   4.380  11.443 -0.2590 -0.1483 -0.1359
    9MPD2    C214280   1.100   4.398  11.329  0.0825  0.1265 -0.3581
    9MPD2    C314281   1.097   4.302  11.226 -0.5117  0.3085 -0.1322
    9MPD2    C414282   1.176   4.189  11.231  0.0866 -0.8452 -0.2212
    9MPD2    C514283   1.273   4.188  11.328 -0.1686 -0.1306 -0.2910
    9MPD2     H14284   1.032   4.482  11.323 -0.1171 -0.0182 -0.1306
    9MPD2    H114285   1.180   4.119  11.148  2.0752 -1.3375  0.2888
    9MPD2    H214286   1.336   4.249  11.514 -1.5817 -2.3453  0.2534
    9MPD2    H314287   1.336   4.100  11.336  0.6821  0.4515 -0.6511
    9MPD2     N14288   1.008   4.308  11.117  0.3257  0.1292 -0.1555
    9MPD2    H514289   1.002   4.231  11.051 -1.7822 -1.0336  1.4002
    9MPD2    N114290   1.180   4.464  11.561 -0.4749  0.0456  0.0091
    9MPD2    H714291   1.248   4.437  11.632 -1.1775  0.6513  0.9147
    1MPD1     C14292   0.498   2.966  15.848  0.1869 -0.7067 -0.1789
    1MPD1    C114293   0.375   2.922  15.889 -0.6345  0.7883  0.5921
    1MPD1    C214294   0.321   2.811  15.824  0.1798  0.8552  0.6487
    1MPD1    C314295   0.396   2.749  15.727  0.1939  0.3870 -0.4143
    1MPD1    C414296   0.528   2.781  15.695  0.3037 -0.5119 -0.6701
    1MPD1    C514297   0.578   2.895  15.759  0.2152  0.0116 -0.7361
    1MPD1     H14298   0.219   2.782  15.847  0.7039 -1.6012 -0.1250
    1MPD1    H114299   0.589   2.727  15.624  0.0879  0.8666 -1.9051
    1MPD1    H214300   0.544   3.055  15.887  0.7235  0.6923 -3.9586
    1MPD1    H314301   0.679   2.926  15.733  0.1710  0.0298 -0.8876
    1MPD1     N14302   0.341   2.637  15.657 -0.3989 -0.0484  0.3735
    1MPD1    H514303   0.392   2.600  15.577  1.4485  2.8890  0.1617
    1MPD1    N114304   0.291   2.994  15.980 -0.0417 -0.2394  0.8296
    1MPD1    H614305   0.341   3.064  16.035  1.6109 -1.0684  0.3892
    1MPD1    H714306   0.235   2.942  16.047 -0.4840  0.5673  1.0846
    2TMC2    C114307   0.054   2.294  15.539 -0.4166  0.1294  0.1741
    2TMC2    C214308   0.114   2.281  15.420 -0.3102  0.5674  0.0413
    2TMC2    C314309   0.188   2.379  15.373  0.3380  0.9639 -1.4375
    2TMC2    C414310   0.084   2.399  15.618 -0.0643  0.5170  0.0936
    2TMC2    C514311   0.181   2.487  15.580  0.0968 -0.5731 -0.2065
    2TMC2    C614312   0.227   2.485  15.447 -0.1591 -0.3161 -0.0877
    2TMC2     C14313   0.015   2.171  15.603  0.2882  0.7465 -0.4503
    2TMC2     O14314   0.040   2.165  15.723  0.8087 -0.2541  0.5417
    2TMC2     H14315   0.112   2.200  15.348  1.0307 -0.5472  1.2577
    2TMC2    H114316   0.034   2.411  15.713 -0.6023 -0.0823 -0.1158
    2TMC2    H214317   0.300   2.556  15.411 -0.8729  0.8916  0.8698
    2TMC2    C714318   0.211   2.597  15.668 -0.1837  0.0751  0.1053
    2TMC2    C814319   0.252   2.364  15.246  1.3411 -0.1082  0.2344
    2TMC2    O114320   0.124   2.613  15.754 -0.6967  0.5300 -0.0637
    2TMC2    O214321   0.354   2.427  15.222 -0.2565 -0.3726  1.2754
    2TMC2    O514322   0.162   2.323  15.154  0.1469  0.2793  0.1547
    2TMC2    H514323   0.073   2.315  15.194 -0.2710  1.9135 -0.4270
    3MPD1     C14324   4.582   1.674  15.610 -0.5351  0.4197 -0.0419
    3MPD1    C114325   4.567   1.726  15.483 -0.6142  0.4473  0.3142
    3MPD1    C214326   4.628   1.848  15.458 -0.0082  0.0250 -0.5400
    3MPD1    C314327   4.676   1.929  15.554  0.1544 -0.2896 -1.1026
    3MPD1    C414328   4.683   1.881  15.684  0.0574 -0.1682 -0.4258
    3MPD1    C514329   4.629   1.756  15.709  0.1553  1.2429 -1.0269
    3MPD1     H14330   4.621   1.875  15.353 -0.6633  3.2209  0.3219
    3MPD1    H114331   4.717   1.943  15.767 -1.0276  0.0249 -0.1190
    3MPD1    H214332   4.541   1.579  15.641 -2.0860  0.1127 -3.0038
    3MPD1    H314333   4.618   1.722  15.812 -1.0368  1.5831 -1.0376
    3MPD1     N14334   4.711   2.064  15.521  0.3590 -0.3119  0.9669
    3MPD1    H514335   4.700   2.082  15.421 -3.9264 -0.3057  1.4445
    3MPD1    N114336   4.525   1.643  15.376 -0.2992 -0.0053  0.1266
    3MPD1    H614337   4.452   1.587  15.418 -0.5745  0.6712  0.5510
    3MPD1    H714338   4.480   1.693  15.300  2.8291  0.5219 -1.3804
    1TMC1    C114339   3.952   2.573  12.899 -0.1102  0.5995 -0.2753
    1TMC1    C214340   3.961   2.569  12.761  0.3203  0.3912  0.2934
    1TMC1    C314341   3.855   2.624  12.694  0.8012 -0.0854  0.8080
    1TMC1    C414342   3.847   2.622  12.974  0.1685 -0.0638  0.3002
    1TMC1    C514343   3.758   2.685  12.890 -0.2472 -0.3969 -0.3641
    1TMC1    C614344   3.755   2.679  12.756  0.4318 -0.1746 -0.5757
    1TMC1     C14345   4.074   2.575  12.971  0.2993  0.5102  0.4421
    1TMC1     O14346   4.172   2.597  12.902 -0.4076  0.1821 -0.5408
    1TMC1     H14347   4.050   2.528  12.715  0.0365  1.2025 -0.9916
    1TMC1    H114348   3.853   2.644  13.080 -0.3306  1.4927  0.0007
    1TMC1    H214349   3.678   2.729  12.699 -0.3450 -0.0489  0.5771
    1TMC1    C714350   3.649   2.762  12.929  0.6380  0.0747  0.9430
    1TMC1    C814351   3.848   2.593  12.557  0.4397  0.2673  0.7157
    1TMC1    O114352   3.615   2.869  12.882 -0.6835  0.0576 -0.4520
    1TMC1    O214353   3.759   2.645  12.493 -0.0183 -0.0521  0.2500
    1TMC1    O314354   3.614   2.717  13.052  0.7732  0.2157  0.1626
    1TMC1    H314355   3.641   2.622  13.057 -2.4325 -0.7489 -1.0791
    1TMC1    O514356   3.897   2.472  12.531 -0.0035 -0.4386  0.1107
    1TMC1    H514357   3.944   2.430  12.607  0.6552  0.8741  0.4187
    2MPD2     C14358   4.313   2.576  13.162 -0.8666 -0.1675  0.2793
    2MPD2    C114359   4.190   2.507  13.179  0.1026  0.2052  0.0014
    2MPD2    C214360   4.190   2.418  13.279  0.1497 -0.3430 -0.0456
    2MPD2    C314361   4.295   2.396  13.366 -0.6939 -0.2995 -0.2754
    2MPD2    C414362   4.402   2.483  13.354  0.3935  0.3141  0.9162
    2MPD2    C514363   4.417   2.573  13.250 -0.8782 -0.0934 -0.4491
    2MPD2     H14364   4.105   2.351  13.282  0.8209 -1.1688  0.6044
    2MPD2    H114365   4.482   2.470  13.427  2.4348  1.4185 -1.0953
    2MPD2    H214366   4.316   2.648  13.082 -0.4696  0.1183  0.5523
    2MPD2    H314367   4.502   2.637  13.234  0.2541 -0.9057  2.3262
    2MPD2     N14368   4.279   2.303  13.470  0.2754 -0.5082  0.0106
    2MPD2    H514369   4.198   2.242  13.477  1.1821 -1.5215  1.6259
    2MPD2    N114370   4.077   2.521  13.097  0.0024  0.2517  0.2656
    2MPD2    H714371   3.992   2.477  13.131 -0.4305  2.0929  1.5580
    3TCq1    O114372   4.563   2.004  13.963 -0.5087 -0.0631  0.5834
    3TCq1    C114373   4.614   1.966  13.842 -0.2211  0.1678 -0.1413
    3TCq1    O214374   4.724   1.913  13.824 -0.2459 -0.0499 -0.0177
    3TCq1    C214375   4.517   2.001  13.736 -0.2310 -0.0690 -0.6358
    3TCq1    C314376   4.495   1.898  13.647  0.7010 -0.6907  0.3023
    3TCq1    C414377   4.392   1.922  13.554 -0.5757  0.0356 -0.0427
    3TCq1    C514378   4.334   2.045  13.548 -0.2694  0.7904  0.0778
    3TCq1    C614379   4.374   2.146  13.627  0.0748 -0.4339  1.3464
    3TCq1    C714380   4.464   2.130  13.728 -0.1085 -0.4851  0.3023
    3TCq1    C814381   4.363   2.287  13.580 -0.1423 -0.2345 -0.1330
    3TCq1    O414382   4.438   2.367  13.632 -0.9054  0.6214  0.1400
    3TCq1    C914383   4.342   1.812  13.469  0.2017  0.3643 -0.2709
    3TCq1    O514384   4.251   1.839  13.382 -0.4526 -0.4648  0.0135
    3TCq1    O614385   4.416   1.707  13.475 -0.2672 -0.1483  0.3677
    3TCq1    H114386   4.468   2.025  13.964  0.2205  3.1204  3.1260
    3TCq1    H214387   4.550   1.805  13.660  2.4068  0.6700  2.7206
    3TCq1    H314388   4.251   2.054  13.479  0.9385 -1.3969 -1.6654
    3TCq1    H414389   4.480   2.205  13.805  0.2381 -1.6127  1.3134
    1MPD2     C14390   3.663   3.094  14.154 -0.8073 -0.0300 -0.3647
    1MPD2    C114391   3.615   3.057  14.280 -0.1978  0.0712 -0.0497
    1MPD2    C214392   3.700   3.046  14.385  0.2204  0.5294  0.4657
    1MPD2    C314393   3.840   3.080  14.372  0.5813 -0.1000  0.7752
    1MPD2    C414394   3.879   3.127  14.251 -0.4264 -0.3949  0.5009
    1MPD2    C514395   3.795   3.128  14.139  0.5452 -0.1431 -0.0949
    1MPD2     H14396   3.662   3.015  14.481 -2.5554  1.2182 -0.4212
    1MPD2    H114397   3.983   3.153  14.235 -0.6817  1.4462  1.8261
    1MPD2    H214398   3.601   3.096  14.065 -1.8394  0.0371  0.3549
    1MPD2    H314399   3.819   3.164  14.039  1.0741  0.0606  0.1011
    1MPD2     N14400   3.920   3.107  14.486  0.4576  0.2540 -0.4401
    1MPD2    H514401   4.007   3.159  14.480  0.7833 -0.0600  1.4024
    1MPD2    N114402   3.478   3.032  14.286 -0.7052 -0.0602 -0.6144
    1MPD2    H714403   3.425   3.055  14.202 -2.0150  0.3159  0.3173
    2TMC3    C114404   3.270   2.963  14.396 -0.1872 -0.1766  0.2854
    2TMC3    C214405   3.230   2.885  14.504  0.1875  0.4128 -0.4807
    2TMC3    C314406   3.118   2.929  14.578  0.0582 -0.0521 -0.7237
    2TMC3    C414407   3.197   3.065  14.349 -0.5662 -0.1177  0.3078
    2TMC3    C514408   3.087   3.099  14.423 -0.8827 -0.9229  0.4623
    2TMC3    C614409   3.048   3.037  14.535  1.0257  1.1353 -0.4354
    2TMC3     C14410   3.413   2.977  14.393 -0.4999 -0.3112 -0.1116
    2TMC3     O14411   3.455   2.932  14.499 -0.7102  0.4012  0.5730
    2TMC3     H14412   3.286   2.793  14.521 -0.3446  0.1060 -0.3914
    2TMC3    H114413   3.248   3.132  14.281 -2.6779 -0.6839 -1.8698
    2TMC3    H214414   2.967   3.083  14.591  0.6390 -0.3557  0.2432
    2TMC3    C714415   3.016   3.225  14.385 -0.2489  0.0945  0.3001
    2TMC3    C814416   3.142   2.940  14.716  0.0714  0.5429 -0.5248
    2TMC3    O114417   2.981   3.234  14.267  0.1488 -0.2434 -0.2236
    2TMC3    O214418   3.053   2.966  14.799  0.4228  0.4399  0.5543
    3TCq1    O114419   2.782   4.061  15.129  0.1503  0.8901  0.1866
    3TCq1    C114420   2.876   4.154  15.107  0.7875  0.7635  0.0927
    3TCq1    O214421   2.925   4.213  15.196  0.1174  0.2239 -0.2570
    3TCq1    C214422   2.944   4.101  14.991  0.5772 -0.0417  0.2274
    3TCq1    C314423   3.074   4.077  15.007 -0.5390  0.1258 -0.1828
    3TCq1    C414424   3.137   3.988  14.920 -0.0868 -0.2600  0.1611
    3TCq1    C514425   3.068   3.916  14.832  0.4699  0.1505  0.3740
    3TCq1    C614426   2.937   3.937  14.825 -0.3367 -0.2676  0.5066
    3TCq1    C714427   2.873   4.030  14.899  0.0350  0.6104 -0.4119
    3TCq1    C814428   2.863   3.863  14.723 -0.1759  0.1508  0.2474
    3TCq1    O414429   2.768   3.919  14.671  0.7865  0.4516 -0.6161
    3TCq1    C914430   3.280   3.973  14.929 -0.5579 -0.4537  0.2822
    3TCq1    O514431   3.319   3.860  14.890 -0.0890  0.5061  0.3811
    3TCq1    O614432   3.337   4.023  15.030  0.2698  0.0830  0.5382
    3TCq1    H114433   2.743   4.019  15.049  0.1699  1.6119 -0.2017
    3TCq1    H214434   3.136   4.135  15.075  0.7077 -0.8037 -0.5298
    3TCq1    H314435   3.123   3.863  14.754 -0.7386  0.9387 -1.0021
    3TCq1    H414436   2.768   4.046  14.877 -0.2204 -0.3666  0.1049
    4MPD2     C14437   2.795   3.683  14.492 -0.4218  0.0125  0.2112
    4MPD2    C114438   2.890   3.656  14.593 -0.5713  1.0543 -0.3503
    4MPD2    C214439   2.949   3.533  14.593  0.6336  0.1892  0.2516
    4MPD2    C314440   2.934   3.442  14.492 -0.4419  0.1422  0.6086
    4MPD2    C414441   2.849   3.477  14.392 -0.3311  0.1347 -0.1978
    4MPD2    C514442   2.776   3.597  14.396  0.6333 -0.5262  0.1501
    4MPD2     H14443   3.012   3.498  14.675 -0.5851 -1.0073  0.6875
    4MPD2    H114444   2.827   3.415  14.306 -0.8432  0.0460 -0.0019
    4MPD2    H214445   2.751   3.782  14.480  1.1628  0.6261 -0.5855
    4MPD2    H314446   2.709   3.626  14.316  0.3159  1.8401  1.2732
    4MPD2     N14447   3.007   3.320  14.491  0.6680 -0.3714 -0.2044
    4MPD2    H514448   3.053   3.295  14.578 -1.1125 -0.0832  0.8029
    4MPD2    N114449   2.918   3.741  14.701  0.3017 -0.1406 -0.4015
    4MPD2    H714450   2.992   3.712  14.765  1.2419  3.7576  0.3061
    5TMC2    C114451   3.939   3.105  14.948  0.6418 -0.2984  0.2471
    5TMC2    C214452   3.980   3.236  14.952 -0.3849 -0.0884 -0.7130
    5TMC2    C314453   4.028   3.298  14.837 -0.0507 -0.4537 -0.4518
    5TMC2    C414454   3.952   3.029  14.836 -0.3780 -0.2816  0.4448
    5TMC2    C514455   3.984   3.092  14.715  0.2340  0.3816 -0.5008
    5TMC2    C614456   4.022   3.223  14.719 -0.0711  0.0326 -0.5427
    5TMC2     C14457   3.805   3.086  15.009  0.0568 -0.1070  0.0541
    5TMC2     O14458   3.781   3.159  15.106 -0.4845 -0.0245 -0.0264
    5TMC2     H14459   3.951   3.294  15.039 -1.1398 -0.7616 -0.5178
    5TMC2    H114460   3.913   2.928  14.831  0.0498 -0.2673 -2.8465
    5TMC2    H214461   4.063   3.272  14.632  2.6227 -1.0044  0.1428
    5TMC2    C714462   3.896   3.049  14.611  0.2966 -0.3477 -0.3719
    5TMC2    C814463   4.069   3.432  14.832  0.4466  0.1901 -0.5645
    5TMC2    O114464   3.805   2.980  14.658  0.7127 -0.4308 -0.2324
    5TMC2    O214465   4.088   3.489  14.723 -0.3090 -0.4401  0.7691
    5TMC2    O514466   4.168   3.420  14.921 -0.1714 -0.2111  0.2615
    5TMC2    H514467   4.156   3.359  14.997  3.0982  0.4609  1.3014
    6MPD2     C14468   3.309   2.952  14.980  0.0430  0.1764 -0.6310
    6MPD2    C114469   3.357   2.969  14.850 -0.4676 -0.0153 -0.0391
    6MPD2    C214470   3.490   2.989  14.835 -1.1063  0.6726 -0.3241
    6MPD2    C314471   3.576   3.013  14.944  0.7468 -0.6170  1.2486
    6MPD2    C414472   3.525   3.003  15.075  0.2097  0.3132  0.2994
    6MPD2    C514473   3.388   2.978  15.091  0.7264 -0.6653 -0.0959
    6MPD2     H14474   3.525   3.005  14.734  1.8058  1.3541  0.7957
    6MPD2    H114475   3.580   2.999  15.168 -1.5424  1.0526  1.3529
    6MPD2    H214476   3.204   2.937  15.001  0.1161  0.7458  0.1475
    6MPD2    H314477   3.355   2.978  15.194  0.5979  1.0147 -0.1300
    6MPD2     N14478   3.716   3.044  14.915  0.0978 -0.6598 -0.3532
    6MPD2    H514479   3.744   3.026  14.820  1.3119  0.5412 -0.2270
    6MPD2    N114480   3.280   2.955  14.732 -0.1585  0.5096  0.1554
    6MPD2    H714481   3.336   2.960  14.647 -0.0892  1.4208  0.2537
  945NH4     N114482   1.890   4.701  17.714  0.1922  0.0770  0.1622
  945NH4     H214483   1.831   4.617  17.699 -1.8769  1.5028  0.3637
  945NH4     H314484   1.876   0.016  17.626  1.5632  0.8891  0.4227
  945NH4     H414485   1.990   4.676  17.732  1.0618  2.5535 -1.1735
  945NH4     H514486   1.861   0.015   0.046  0.0593  0.1695  0.0581
  946SOD     NA14487   4.660   4.271  11.844 -0.4198 -0.3227 -0.3769
  947SOD     NA14488   3.452   3.810  15.053  0.0469  0.2381 -0.1065
  948SOD     NA14489   0.319   3.297  12.808 -0.9624  0.0403 -0.0013
  949SOD     NA14490   4.430   3.960  16.128 -0.1750  0.5444 -0.3231
  950SOD     NA14491   1.898   1.460   9.081 -0.2321 -0.1372  0.1249
  951SOD     NA14492   3.649   0.368  12.074  0.1233  0.0083  0.1286
  952SOD     NA14493   3.963   1.897  10.976  0.0024  0.2194 -0.2438
  953SOL     OW14494   3.668   1.658   3.420 -0.0113 -0.3012 -0.0099
  953SOL    HW114495   3.584   1.626   3.386 -1.0745  2.0093  0.4454
  953SOL    HW214496   3.704   1.700   3.342 -1.1978 -0.6728 -0.7618
  954SOL     OW14497   4.112   0.200   3.545  0.6058  0.1605 -0.3445
  954SOL    HW114498   4.189   0.223   3.493  0.6196 -0.5469 -0.6365
  954SOL    HW214499   4.106   0.107   3.523  1.4308 -0.1387  0.6973
  955SOL     OW14500   0.948   0.744   8.847 -1.0402 -0.5268 -0.0486
  955SOL    HW114501   0.964   0.666   8.795 -0.2096 -0.0726 -0.4706
  955SOL    HW214502   1.019   0.730   8.910 -0.6967  1.3666 -0.0125
  956SOL     OW14503   1.451   2.034   9.575  0.3671  0.1089 -0.2460
  956SOL    HW114504   1.362   2.063   9.555  0.5365  1.3220  0.7159
  956SOL    HW214505   1.443   1.946   9.612 -1.4853 -0.3215 -1.7182
  957SOL     OW14506   2.595   1.492   4.219  0.1345 -0.3968 -0.3544
  957SOL    HW114507   2.599   1.456   4.131 -0.4510 -0.5035 -0.3419
  957SOL    HW214508   2.508   1.467   4.250 -0.7523  2.2039 -0.7172
  958SOL     OW14509   4.318   4.632   7.890  0.0982 -0.4203  0.2357
  958SOL    HW114510   4.364   4.571   7.948 -1.9584 -1.4317  0.8197
  958SOL    HW214511   4.309   4.576   7.813  1.2905 -0.9191  0.4585
  959SOL     OW14512   2.825   0.489   1.304  0.2452 -0.0838 -0.7719
  959SOL    HW114513   2.766   0.422   1.339  1.9619 -1.1564  0.0633
  959SOL    HW214514   2.911   0.449   1.316  0.7287  1.2492  0.2050
  960SOL     OW14515   0.758   1.515   7.360 -0.3668 -0.4666 -0.2390
  960SOL    HW114516   0.741   1.428   7.325  0.6767  0.1972 -2.3840
  960SOL    HW214517   0.713   1.570   7.295 -0.6061 -0.9868 -0.5156
  961SOL     OW14518   1.712   1.355   8.949  0.6686  0.1924  0.0698
  961SOL    HW114519   1.696   1.419   8.880  0.1937  1.4772  1.4014
  961SOL    HW214520   1.630   1.337   8.994  1.4873  1.4078  2.0336
  962SOL     OW14521   0.718   3.050   6.591  0.4494 -0.1011 -0.5544
  962SOL    HW114522   0.700   2.975   6.533  0.6383 -0.1363 -0.5680
  962SOL    HW214523   0.786   3.090   6.537 -0.4768  0.6185 -1.1902
  963SOL     OW14524   4.015   1.210   5.380  0.3933  0.2004 -1.0196
  963SOL    HW114525   3.933   1.200   5.427  0.7366 -2.5160 -0.9781
  963SOL    HW214526   3.985   1.238   5.294 -0.6966 -0.4404 -0.8437
  964SOL     OW14527   3.155   2.799   8.044  0.8359  0.2995 -0.3615
  964SOL    HW114528   3.065   2.833   8.041  1.0490  0.8496 -0.5348
  964SOL    HW214529   3.141   2.708   8.019 -0.1733  0.6095 -0.9401
  965SOL     OW14530   4.166   3.976   2.558  0.4899  0.2556 -0.4855
  965SOL    HW114531   4.216   3.945   2.633  0.0244 -1.1911 -0.7657
  965SOL    HW214532   4.235   4.023   2.511 -1.2579  1.0684 -2.2322
  966SOL     OW14533   2.678   0.258   8.522 -0.2016 -0.8854  0.6345
  966SOL    HW114534   2.758   0.240   8.572  1.3186  0.4828 -1.3414
  966SOL    HW214535   2.729   0.269   8.442 -1.6495 -1.2340 -0.3234
  967SOL     OW14536   3.431   3.583   2.711  0.4447  0.1458 -0.0120
  967SOL    HW114537   3.361   3.637   2.749  2.2146  2.4582 -0.0642
  967SOL    HW214538   3.393   3.563   2.626 -1.7294 -0.5511  1.1235
  968SOL     OW14539   1.063   3.014  12.477 -0.1818  0.1489 -0.1201
  968SOL    HW114540   1.029   2.936  12.521  0.1778 -0.8966 -1.7306
  968SOL    HW214541   0.982   3.065  12.483 -0.0309  0.2853  0.8275
  969SOL     OW14542   0.009   4.558   5.500 -0.8050  0.4167 -1.0310
  969SOL    HW114543   0.068   4.605   5.558  1.2662 -2.2725 -1.0128
  969SOL    HW214544   4.716   4.629   5.444  0.5033  2.6034  1.0082
  970SOL     OW14545   2.706   0.893   3.810  0.0226 -0.4245  0.7890
  970SOL    HW114546   2.626   0.878   3.760  0.8340 -1.2234 -0.2578
  970SOL    HW214547   2.736   0.805   3.833 -0.7733 -0.8279  0.2536
  971SOL     OW14548   0.250   0.414   8.013 -0.0494 -0.1806  0.2305
  971SOL    HW114549   0.262   0.380   7.924 -1.2662 -1.1346  0.4263
  971SOL    HW214550   0.330   0.464   8.033  0.2328 -0.2540 -0.7415
  972SOL     OW14551   0.589   1.641  15.705 -0.3634 -0.0291 -0.0112
  972SOL    HW114552   0.546   1.559  15.680  0.3876 -0.2639 -0.5459
  972SOL    HW214553   0.552   1.656  15.792  0.3807 -0.8355  0.4394
  973SOL     OW14554   1.297   4.037   9.195  0.1218 -0.3442  0.5325
  973SOL    HW114555   1.224   3.998   9.243  1.5512  0.2069  3.1522
  973SOL    HW214556   1.252   4.061   9.114 -0.4284 -1.2689  0.5652
  974SOL     OW14557   2.197   0.312   7.353 -0.1069 -0.2651  0.6327
  974SOL    HW114558   2.141   0.345   7.423 -0.3582  2.3043 -0.8045
  974SOL    HW214559   2.280   0.322   7.398 -0.6545  3.3752  0.8232
  975SOL     OW14560   2.016   2.345  10.222 -0.5245 -0.4364  0.4941
  975SOL    HW114561   2.037   2.283  10.152  0.8157 -0.9921  1.4034
  975SOL    HW214562   1.937   2.309  10.263  1.5893 -3.6452  1.7692
  976SOL     OW14563   1.723   2.834   8.257  0.6990  0.1511  0.1057
  976SOL    HW114564   1.650   2.869   8.206  0.5631 -0.2703  0.0128
  976SOL    HW214565   1.770   2.918   8.258  0.6217  0.1867  0.9719
  977SOL     OW14566   3.841   0.967   9.086 -0.1598  0.4529 -0.8669
  977SOL    HW114567   3.917   1.019   9.111 -1.3893  1.7012  0.2586
  977SOL    HW214568   3.796   0.962   9.170  0.4838 -1.2397 -0.6177
  978SOL     OW14569   3.071   2.943   5.703  0.2580  0.8004  0.2624
  978SOL    HW114570   3.124   2.982   5.634  0.2401 -0.6811 -0.5887
  978SOL    HW214571   3.092   2.852   5.682 -2.4418  0.4929 -1.0967
  979SOL     OW14572   0.117   0.830  12.919 -0.5337 -0.0614 -0.2490
  979SOL    HW114573   0.038   0.878  12.943 -0.2595 -0.1042  0.7104
  979SOL    HW214574   0.190   0.863  12.972  2.5383 -0.2589 -4.2727
  980SOL     OW14575   0.223   0.095   7.508 -1.0546 -0.8742  0.1100
  980SOL    HW114576   0.230   0.055   7.595  3.7127  0.3895  0.2842
  980SOL    HW214577   0.131   0.120   7.496 -0.4483  0.3384 -2.0070
  981SOL     OW14578   1.230   3.873   8.351  0.5804  0.0911 -0.5891
  981SOL    HW114579   1.316   3.831   8.358  0.5067 -0.1480 -1.1988
  981SOL    HW214580   1.269   3.961   8.349 -0.5341  0.5507 -1.3922
  982SOL     OW14581   3.277   2.941   3.024  0.4392 -0.8133 -0.6400
  982SOL    HW114582   3.209   3.007   3.040 -1.1641 -2.9892  1.4968
  982SOL    HW214583   3.343   2.992   2.977  1.0982 -2.2297 -1.2353
  983SOL     OW14584   1.190   1.403   5.914  0.0404 -0.0269 -0.2553
  983SOL    HW114585   1.111   1.363   5.950  0.7742 -2.7315 -1.6728
  983SOL    HW214586   1.249   1.404   5.989  1.5594 -3.1476 -1.3958
  984SOL     OW14587   3.925   3.127   2.420  0.0250  0.4377 -0.0202
  984SOL    HW114588   3.948   3.159   2.508  0.1769  1.3956 -0.4123
  984SOL    HW214589   3.988   3.055   2.414 -0.8693 -0.3293 -0.3100
  985SOL     OW14590   4.336   2.590   6.058  0.1544  1.1903 -0.1799
  985SOL    HW114591   4.246   2.559   6.055  0.7552 -0.4780 -0.9689
  985SOL    HW214592   4.381   2.533   5.996 -1.2875  0.3666 -0.4639
  986SOL     OW14593   2.871   1.801  14.075  0.0501 -0.1426 -0.6594
  986SOL    HW114594   2.898   1.727  14.129  0.9347 -0.4575 -1.5288
  986SOL    HW214595   2.839   1.865  14.138  1.2223 -0.5366  0.3516
  987SOL     OW14596   2.440   3.229  10.973  0.2762 -0.5561  0.4869
  987SOL    HW114597   2.479   3.316  10.973  0.8989 -0.8358 -2.6528
  987SOL    HW214598   2.356   3.252  10.933  1.1273  0.8499 -0.4991
  988SOL     OW14599   3.287   3.397   9.953 -0.0956  0.1876  0.0822
  988SOL    HW114600   3.257   3.478   9.996  2.0547  1.0041  0.0609
  988SOL    HW214601   3.243   3.399   9.869 -0.2842  1.0352  0.2010
  989SOL     OW14602   2.202   2.716  14.134  0.6043  0.3297 -0.2199
  989SOL    HW114603   2.264   2.704  14.062  0.6593  1.6655 -0.3935
  989SOL    HW214604   2.166   2.799  14.104 -2.2914 -0.5845  0.7179
  990SOL     OW14605   3.784   1.661   4.801  0.6351 -0.7730  0.9786
  990SOL    HW114606   3.852   1.716   4.762 -0.7739  0.3832  0.1424
  990SOL    HW214607   3.705   1.712   4.783  1.6259  0.2511 -0.5122
  991SOL     OW14608   4.194   4.105   3.296  0.0149 -0.2309 -0.4558
  991SOL    HW114609   4.130   4.177   3.301  1.6893  1.1286  1.1982
  991SOL    HW214610   4.256   4.151   3.239  1.7554 -1.2360  0.6707
  992SOL     OW14611   0.882   3.184   3.307  0.0153 -0.2357  0.2428
  992SOL    HW114612   0.843   3.226   3.384  1.6686  1.4578  0.1365
  992SOL    HW214613   0.824   3.108   3.305  2.1580 -1.8816  1.6818
  993SOL     OW14614   1.237   1.175   6.840  0.2900  0.1545 -0.1559
  993SOL    HW114615   1.282   1.100   6.878 -2.2836 -0.9563  0.6170
  993SOL    HW214616   1.211   1.145   6.753  2.3202 -2.5935  0.1777
  994SOL     OW14617   1.688   0.573   5.530  0.2673  0.8076 -0.0607
  994SOL    HW114618   1.735   0.542   5.608  0.2054  0.5773 -0.1166
  994SOL    HW214619   1.732   0.525   5.460 -1.3540 -0.6412 -0.0819
  995SOL     OW14620   0.584   0.629  13.624  0.3901  0.7917  0.2587
  995SOL    HW114621   0.500   0.674  13.617 -1.4735 -2.9562 -1.1565
  995SOL    HW214622   0.651   0.686  13.587  1.5005 -1.0001 -0.4986
  996SOL     OW14623   3.458   1.201  11.139 -0.2273  0.2083  0.7757
  996SOL    HW114624   3.378   1.188  11.088 -1.0396  3.1356  1.2877
  996SOL    HW214625   3.423   1.196  11.228  0.1353 -0.7390  0.8609
  997SOL     OW14626   0.509   4.665   8.657 -0.0765  0.0406 -0.0984
  997SOL    HW114627   0.464   4.711   8.728  1.4995  0.7436  0.4579
  997SOL    HW214628   0.594   4.639   8.693  0.1328 -0.1708 -0.7366
  998SOL     OW14629   2.948   0.115   0.370 -0.2011 -0.1110  0.3188
  998SOL    HW114630   2.937   0.145   0.460  0.4172 -0.8335  0.6339
  998SOL    HW214631   2.915   0.026   0.377  1.2994 -0.8133 -1.4514
  999SOL     OW14632   0.640   1.353  16.767 -0.4509  0.0815 -0.4417
  999SOL    HW114633   0.640   1.331  16.674  0.8466  1.3254 -0.7322
  999SOL    HW214634   0.661   1.268  16.805  0.6995  1.2497  1.5273
 1000SOL     OW14635   2.004   1.749  10.044  0.3637  0.3178 -0.1136
 1000SOL    HW114636   1.984   1.822   9.985  2.2052  2.0341  1.3953
 1000SOL    HW214637   1.966   1.785  10.125  0.9075 -1.0712  0.7484
 1001SOL     OW14638   2.175   2.592   2.822 -0.2957 -0.0646  0.1190
 1001SOL    HW114639   2.165   2.506   2.862  0.7251 -1.7813 -3.3536
 1001SOL    HW214640   2.252   2.620   2.871  0.4567  0.4070 -1.3160
 1002SOL     OW14641   0.141   1.098   7.817 -0.2340 -0.2641  0.0949
 1002SOL    HW114642   0.171   1.188   7.824  0.8777 -0.4571 -2.2011
 1002SOL    HW214643   0.176   1.066   7.734 -2.6013 -0.4473 -0.8183
 1003SOL     OW14644   1.192   3.513  13.294 -0.4356  0.5034 -0.5863
 1003SOL    HW114645   1.173   3.556  13.377 -0.7990 -0.6543 -0.0691
 1003SOL    HW214646   1.285   3.496  13.309 -1.0196 -0.9802  1.4117
 1004SOL     OW14647   2.237   3.403   6.423 -0.4545 -0.5162 -0.5329
 1004SOL    HW114648   2.291   3.452   6.362 -1.3949  0.4735 -0.5623
 1004SOL    HW214649   2.155   3.452   6.430 -0.9362 -1.5353  1.1644
 1005SOL     OW14650   0.464   4.347   5.536  0.2389 -0.6400 -0.4157
 1005SOL    HW114651   0.518   4.282   5.490 -0.0864  0.2495 -2.0666
 1005SOL    HW214652   0.522   4.371   5.608 -2.4346  1.7826  0.9561
 1006SOL     OW14653   1.234   0.816  16.594 -0.2613 -0.0621  0.1840
 1006SOL    HW114654   1.167   0.781  16.653  0.0249 -0.7826  0.0905
 1006SOL    HW214655   1.212   0.755  16.523 -1.5497  0.0286  0.5185
 1007SOL     OW14656   2.358   2.636   6.782  0.1560  0.1247  0.2764
 1007SOL    HW114657   2.282   2.599   6.828  0.4794 -0.3923  0.3894
 1007SOL    HW214658   2.409   2.559   6.760  2.9200  2.0612 -0.0232
 1008SOL     OW14659   1.945   3.639   3.765  0.5590  0.4426 -0.0599
 1008SOL    HW114660   1.993   3.685   3.834  0.0521  0.4518  0.2836
 1008SOL    HW214661   1.962   3.699   3.692 -0.3075  0.8194  0.0479
 1009SOL     OW14662   0.813   0.021  10.553  0.1812  0.2185  0.0527
 1009SOL    HW114663   0.908   0.025  10.568  0.1905  1.0778 -0.2725
 1009SOL    HW214664   0.788   0.106  10.588  0.1209  1.0324 -1.9666
 1010SOL     OW14665   4.202   0.963   2.690 -0.0629  0.5398  0.0277
 1010SOL    HW114666   4.272   0.999   2.744  0.9079 -1.3003 -0.0086
 1010SOL    HW214667   4.231   0.874   2.673  0.8193  0.9496 -0.5909
 1011SOL     OW14668   3.773   2.392   4.275 -0.5119 -0.0305  0.2660
 1011SOL    HW114669   3.794   2.368   4.185  2.3699  2.0983  0.3880
 1011SOL    HW214670   3.722   2.471   4.257 -0.1846 -0.0782 -0.8521
 1012SOL     OW14671   4.585   4.366  13.064  0.6850 -0.1029  0.1471
 1012SOL    HW114672   4.671   4.346  13.026  0.3570  0.4171 -0.8538
 1012SOL    HW214673   4.577   4.457  13.037 -1.8063 -0.5596 -0.6325
 1013SOL     OW14674   1.822   0.612   5.035  0.1616 -1.3248  0.2869
 1013SOL    HW114675   1.729   0.593   5.021  0.0811 -0.7585  0.0343
 1013SOL    HW214676   1.856   0.530   5.000 -0.0204 -0.3555 -2.1014
 1014SOL     OW14677   4.058   0.881   5.435  0.2547 -0.5571 -0.0011
 1014SOL    HW114678   4.047   0.878   5.340 -2.4596 -0.1111  0.3013
 1014SOL    HW214679   4.121   0.953   5.443  0.3268 -0.7100  0.8021
 1015SOL     OW14680   1.648   1.224   1.604  1.1243 -0.0004 -0.4777
 1015SOL    HW114681   1.563   1.204   1.644  0.8804  1.3219 -0.3304
 1015SOL    HW214682   1.621   1.308   1.566  1.7396  0.7891  0.8405
 1016SOL     OW14683   3.230   0.011   5.107 -0.5727  0.1526  0.0574
 1016SOL    HW114684   3.250   0.066   5.182 -0.0138 -1.3101  0.9702
 1016SOL    HW214685   3.286   4.672   5.114 -0.2887  0.3687  0.2050
 1017SOL     OW14686   0.147   0.293  16.088  0.2374 -0.4461 -0.1541
 1017SOL    HW114687   0.205   0.218  16.078  1.0265  0.2631 -0.8023
 1017SOL    HW214688   0.199   0.330  16.159  0.8083  1.5358 -1.6099
 1018SOL     OW14689   4.096   2.690   0.482 -0.0690  0.1905  0.5765
 1018SOL    HW114690   4.017   2.714   0.433 -1.5881 -1.4350  2.2452
 1018SOL    HW214691   4.068   2.600   0.501 -2.5577  1.1775  1.6560
 1019SOL     OW14692   1.699   3.914   0.638 -0.3098  0.6028  0.4987
 1019SOL    HW114693   1.698   3.864   0.556 -2.1407 -1.3160  1.7211
 1019SOL    HW214694   1.728   3.846   0.698 -0.3435 -1.1694 -1.4960
 1020SOL     OW14695   2.095   2.394   8.587  0.3895 -0.0888 -0.5051
 1020SOL    HW114696   2.080   2.349   8.505 -0.8426 -0.0173 -0.3237
 1020SOL    HW214697   2.141   2.325   8.636 -0.8423  0.5315  1.5162
 1021SOL     OW14698   3.305   0.937   7.714  0.1506  0.4564  0.2893
 1021SOL    HW114699   3.275   0.880   7.785 -0.7922  0.6159  0.0275
 1021SOL    HW214700   3.400   0.928   7.712 -0.0154 -1.1316 -0.1482
 1022SOL     OW14701   0.687   3.957   5.375 -0.4949  0.0593  0.2848
 1022SOL    HW114702   0.710   3.867   5.396  4.0124  0.8830 -1.0219
 1022SOL    HW214703   0.656   3.978   5.463 -1.3966 -0.9403  0.2040
 1023SOL     OW14704   1.653   1.872   5.856 -0.5178 -0.1263 -0.0181
 1023SOL    HW114705   1.673   1.811   5.786  1.9979 -2.4763  2.7253
 1023SOL    HW214706   1.568   1.904   5.826 -0.7253 -2.3471 -1.7566
 1024SOL     OW14707   2.553   4.487  11.070  0.3937 -0.2976 -0.6397
 1024SOL    HW114708   2.610   4.542  11.124 -0.9435 -1.1890  1.6750
 1024SOL    HW214709   2.468   4.495  11.113  0.8095  0.1306  0.0991
 1025SOL     OW14710   1.745   2.475   6.504  0.4632  0.5164 -0.2235
 1025SOL    HW114711   1.783   2.556   6.538  0.4370  0.6824 -0.5821
 1025SOL    HW214712   1.774   2.474   6.412  0.3068 -3.4584 -0.2272
 1026SOL     OW14713   1.966   0.047   5.431 -0.1826  0.1182  0.5771
 1026SOL    HW114714   1.947   4.693   5.445 -0.5151  0.3724  1.8000
 1026SOL    HW214715   1.905   0.081   5.497  0.0743 -1.1613  1.4692
 1027SOL     OW14716   4.393   3.475   1.158  0.4194  0.1584 -0.8253
 1027SOL    HW114717   4.347   3.545   1.111 -0.1924  0.5038  0.2908
 1027SOL    HW214718   4.317   3.422   1.182  1.2005 -0.1860  0.8705
 1028SOL     OW14719   4.466   2.322   4.389 -0.2337  0.3336 -0.1496
 1028SOL    HW114720   4.396   2.300   4.450 -1.6509  0.1039 -1.8739
 1028SOL    HW214721   4.499   2.403   4.430 -1.6614 -0.1339  1.9410
 1029SOL     OW14722   0.391   2.164  11.585 -0.1132 -0.4342 -0.0170
 1029SOL    HW114723   0.430   2.225  11.648 -1.1733  0.6021 -0.3943
 1029SOL    HW214724   0.468   2.135  11.536 -1.4271  0.0191 -2.2932
 1030SOL     OW14725   0.836   4.604   5.887 -0.0685  0.1387  0.3482
 1030SOL    HW114726   0.927   4.632   5.894 -0.2818  0.9940 -0.3014
 1030SOL    HW214727   0.859   4.531   5.830 -2.3846 -0.5900  0.3385
 1031SOL     OW14728   0.626   4.023   8.701  0.7250  0.6176 -1.1189
 1031SOL    HW114729   0.655   3.981   8.619  2.1429 -1.3066  0.3640
 1031SOL    HW214730   0.594   4.104   8.662 -2.1786 -0.4796 -0.9920
 1032SOL     OW14731   2.309   1.577   8.149  0.1460  0.2576 -0.2719
 1032SOL    HW114732   2.288   1.593   8.241 -3.0351 -0.4891 -0.8750
 1032SOL    HW214733   2.375   1.645   8.132  0.3346 -0.2870 -1.7322
 1033SOL     OW14734   4.499   1.722   4.379 -0.6270  0.5536 -0.0886
 1033SOL    HW114735   4.433   1.768   4.432 -0.2743 -1.2732  1.9183
 1033SOL    HW214736   4.441   1.691   4.309 -1.6843 -0.2138  1.1367
 1034SOL     OW14737   2.628   3.325   7.154 -0.3784 -0.5274  0.1813
 1034SOL    HW114738   2.643   3.234   7.125 -1.1311 -0.6282  0.1098
 1034SOL    HW214739   2.593   3.310   7.242 -0.4411 -0.6791  0.1305
 1035SOL     OW14740   1.459   1.775   7.909 -0.3964 -0.0365  0.1168
 1035SOL    HW114741   1.440   1.826   7.988  0.5944  2.1016 -1.0272
 1035SOL    HW214742   1.424   1.834   7.842 -0.2992  1.5687  1.4610
 1036SOL     OW14743   3.376   3.628   3.836  0.5165 -0.0642  0.2880
 1036SOL    HW114744   3.336   3.643   3.922 -0.8667  0.8597 -0.5263
 1036SOL    HW214745   3.387   3.717   3.803 -0.3331 -0.3261 -0.7051
 1037SOL     OW14746   4.397   2.955   0.928  0.0356 -0.7269  0.1695
 1037SOL    HW114747   4.371   3.047   0.933  1.0311 -0.5937  2.6790
 1037SOL    HW214748   4.394   2.939   0.833  0.7856 -0.0589  0.0321
 1038SOL     OW14749   1.497   2.800   7.199  0.4221  0.1616 -0.8291
 1038SOL    HW114750   1.464   2.714   7.175 -2.3017  0.5791  1.3595
 1038SOL    HW214751   1.442   2.851   7.140 -0.2336 -1.4607 -1.5928
 1039SOL     OW14752   2.844   1.681  13.840  0.6106 -0.0280 -0.0293
 1039SOL    HW114753   2.798   1.610  13.884  1.0655 -0.1446  0.2523
 1039SOL    HW214754   2.846   1.741  13.915 -0.0156  0.7855 -0.6612
 1040SOL     OW14755   2.481   4.576   2.630 -0.0946 -0.1975 -0.1497
 1040SOL    HW114756   2.566   4.556   2.591  1.1556  1.6910  1.5901
 1040SOL    HW214757   2.425   4.580   2.553  0.2597 -0.1872 -0.4047
 1041SOL     OW14758   3.050   3.687   6.971 -0.0614 -0.1642  0.2741
 1041SOL    HW114759   3.057   3.631   6.894 -2.8005 -0.9278  0.5874
 1041SOL    HW214760   2.964   3.657   7.001  0.1772 -0.9175  0.2020
 1042SOL     OW14761   4.500   0.737   2.261  0.0268  0.3335 -0.3271
 1042SOL    HW114762   4.551   0.656   2.263 -0.3777  0.0458 -1.2399
 1042SOL    HW214763   4.420   0.704   2.221 -0.1304  1.6484 -1.0854
 1043SOL     OW14764   1.320   3.529   2.370  0.4539  0.3740  0.0359
 1043SOL    HW114765   1.322   3.563   2.280 -1.3793 -1.7798 -0.8221
 1043SOL    HW214766   1.404   3.567   2.398  0.0598  1.3900 -0.1873
 1044SOL     OW14767   3.144   2.490   7.512  0.6456  0.5636 -0.1759
 1044SOL    HW114768   3.230   2.459   7.485  0.8148  1.3128 -0.4810
 1044SOL    HW214769   3.113   2.403   7.539  1.5466  0.3278  0.0880
 1045SOL     OW14770   3.499   2.012   7.043 -0.2029  0.8092  0.1959
 1045SOL    HW114771   3.492   2.107   7.050 -0.2442  0.8507 -0.3695
 1045SOL    HW214772   3.463   1.978   7.125 -0.0911  0.4030  0.0791
 1046SOL     OW14773   0.361   2.352   3.217 -0.2168  0.8186  0.1466
 1046SOL    HW114774   0.354   2.358   3.122  0.2308 -1.1072 -0.0034
 1046SOL    HW214775   0.416   2.274   3.224 -0.4640  0.6016 -0.3142
 1047SOL     OW14776   2.002   4.210   7.457  0.0232 -0.2562 -0.2603
 1047SOL    HW114777   1.996   4.201   7.362  1.2730  1.2849 -0.4715
 1047SOL    HW214778   1.964   4.298   7.463  1.1921  0.1878  0.6416
 1048SOL     OW14779   2.456   0.416  16.855 -0.2283  0.1405 -0.1459
 1048SOL    HW114780   2.441   0.337  16.803  1.4470  0.3515 -0.9677
 1048SOL    HW214781   2.374   0.464  16.853 -0.5464 -0.4024 -0.0573
 1049SOL     OW14782   2.554   1.819   9.856  0.6621  0.0783 -0.1313
 1049SOL    HW114783   2.600   1.897   9.887  0.4518 -0.0969  0.6213
 1049SOL    HW214784   2.495   1.866   9.797  0.3533 -0.7318 -0.4663
 1050SOL     OW14785   1.904   2.763   8.730  0.2134  0.1147  0.4930
 1050SOL    HW114786   1.933   2.767   8.639 -2.7887  0.6683 -0.4634
 1050SOL    HW214787   1.810   2.783   8.731 -0.1124 -1.2526 -1.4639
 1051SOL     OW14788   4.659   3.356   6.132  0.8458 -0.3544  0.3920
 1051SOL    HW114789   4.723   3.288   6.157  1.3922  0.4000  1.0671
 1051SOL    HW214790   4.706   3.382   6.053 -0.8530  1.5430  0.0270
 1052SOL     OW14791   3.470   2.938  12.674 -0.5677  0.0213  0.2680
 1052SOL    HW114792   3.532   2.948  12.602 -1.0090 -0.1473 -0.1320
 1052SOL    HW214793   3.539   2.919  12.739 -1.1817  1.4107  1.3386
 1053SOL     OW14794   4.263   3.418   9.115  0.2071  0.0710  0.0694
 1053SOL    HW114795   4.281   3.434   9.208  0.6748  0.9449 -0.1763
 1053SOL    HW214796   4.188   3.477   9.112 -1.1440 -1.6700 -0.4479
 1054SOL     OW14797   2.831   2.541   0.548  0.4781 -0.0207  0.6610
 1054SOL    HW114798   2.739   2.542   0.575  0.4616 -1.0890  0.6301
 1054SOL    HW214799   2.850   2.635   0.546 -0.1707  0.1451  1.8670
 1055SOL     OW14800   2.270   2.354   6.342  0.0703 -0.2912 -0.3057
 1055SOL    HW114801   2.320   2.360   6.423 -0.2358  0.6693 -0.1824
 1055SOL    HW214802   2.279   2.263   6.314 -1.3038 -0.9484  1.3584
 1056SOL     OW14803   0.388   1.006  15.086  0.2265 -0.3744 -0.1140
 1056SOL    HW114804   0.334   1.075  15.047  2.2513 -0.4220 -3.0033
 1056SOL    HW214805   0.468   1.017  15.035  0.0120  2.2057  0.0986
 1057SOL     OW14806   3.888   0.409   6.209 -0.0345  0.2888  0.1036
 1057SOL    HW114807   3.906   0.334   6.266 -1.7768 -0.3146 -0.1490
 1057SOL    HW214808   3.809   0.451   6.244 -0.7650  0.1164 -1.3412
 1058SOL     OW14809   2.730   0.405   3.739 -0.3760 -0.4424 -0.1947
 1058SOL    HW114810   2.774   0.342   3.798 -0.0146  0.7309  0.7933
 1058SOL    HW214811   2.759   0.372   3.654  0.4458 -1.7763  0.5981
 1059SOL     OW14812   3.733   3.761  10.165 -0.3659  0.0965  0.0105
 1059SOL    HW114813   3.729   3.847  10.205 -0.4466  1.2646 -2.4892
 1059SOL    HW214814   3.667   3.720  10.220 -2.1795  0.0466 -2.1876
 1060SOL     OW14815   3.518   0.212  11.945 -0.6468 -0.0016 -0.2435
 1060SOL    HW114816   3.423   0.196  11.940 -0.5471 -0.9479  1.0041
 1060SOL    HW214817   3.539   0.125  11.910 -1.3895 -0.2124 -0.1631
 1061SOL     OW14818   3.931   0.212   2.703 -0.3280 -0.2751  0.4008
 1061SOL    HW114819   4.000   0.177   2.647 -0.6606 -0.6585  0.2310
 1061SOL    HW214820   3.920   0.295   2.657 -0.7391  1.3619  3.4082
 1062SOL     OW14821   2.986   3.319  16.942 -0.2340  0.0592 -0.3215
 1062SOL    HW114822   2.893   3.340  16.935  0.2709  1.8938 -1.6701
 1062SOL    HW214823   3.029   3.403  16.957  1.7447 -1.1579  0.8122
 1063SOL     OW14824   2.447   3.673   2.439 -0.1232  0.0631  0.7430
 1063SOL    HW114825   2.496   3.753   2.461 -1.7901  1.5408 -0.8307
 1063SOL    HW214826   2.380   3.702   2.377  0.6684 -3.3966 -1.7341
 1064SOL     OW14827   2.733   4.591   4.443 -0.3356 -0.1572  0.4544
 1064SOL    HW114828   2.800   4.596   4.511 -1.0867 -0.6329  1.2271
 1064SOL    HW214829   2.733   4.674   4.396 -1.2399 -0.1412  0.4946
 1065SOL     OW14830   3.631   2.700   3.886  0.0995 -0.0546  0.6062
 1065SOL    HW114831   3.560   2.648   3.848  0.1730 -0.1700  0.6244
 1065SOL    HW214832   3.695   2.687   3.816  2.1668 -1.8942  2.8477
 1066SOL     OW14833   2.821   2.734  12.869 -0.0213  0.3661  0.1370
 1066SOL    HW114834   2.885   2.795  12.832 -0.6840  0.4257 -0.9040
 1066SOL    HW214835   2.869   2.651  12.867  1.3669  1.1926 -1.5541
 1067SOL     OW14836   0.931   3.283  16.053  0.2401 -0.2787  0.4934
 1067SOL    HW114837   0.958   3.199  16.017  0.6842  1.8386 -4.0845
 1067SOL    HW214838   0.837   3.264  16.045 -0.2750  2.8336 -0.7752
 1068SOL     OW14839   3.949   3.527  12.346 -0.1556  0.3962 -0.2591
 1068SOL    HW114840   3.939   3.582  12.268  0.4730  0.4019 -0.3336
 1068SOL    HW214841   4.017   3.576  12.391  1.5819 -0.6973 -1.6992
 1069SOL     OW14842   2.222   0.611  16.880 -0.1819  0.0031 -0.2268
 1069SOL    HW114843   2.262   0.622  16.794 -1.9189 -1.5292 -1.2286
 1069SOL    HW214844   2.189   0.699  16.897  0.7304  0.1887  0.6008
 1070SOL     OW14845   3.658   4.697   0.923  0.3710  1.0148 -0.3140
 1070SOL    HW114846   3.624   0.045   0.900 -3.9256 -0.6829 -0.2852
 1070SOL    HW214847   3.746   4.700   0.883  0.1204  1.4904 -0.8306
 1071SOL     OW14848   2.582   0.409   6.270  0.4801 -0.2411  0.3151
 1071SOL    HW114849   2.661   0.407   6.216  0.7033 -1.9706  0.7220
 1071SOL    HW214850   2.572   0.504   6.281 -1.0000 -0.4444  0.7560
 1072SOL     OW14851   3.627   1.606  10.124  0.4060  0.5864 -0.4689
 1072SOL    HW114852   3.641   1.620  10.218  0.9337 -0.2123 -0.4307
 1072SOL    HW214853   3.712   1.631  10.087  1.4107  0.5976  1.8446
 1073SOL     OW14854   2.188   1.169  13.445  0.1624 -0.6467 -0.0180
 1073SOL    HW114855   2.097   1.190  13.463  0.3144  0.5097 -0.5764
 1073SOL    HW214856   2.183   1.152  13.351  2.5949 -0.3131 -0.2059
 1074SOL     OW14857   1.764   0.803   6.285  0.7908 -0.1567 -0.0851
 1074SOL    HW114858   1.766   0.793   6.381 -0.1166 -0.8719 -0.1423
 1074SOL    HW214859   1.817   0.882   6.273  1.3695 -0.5188  0.1261
 1075SOL     OW14860   0.729   0.374   2.240 -0.3311  0.0233  0.0248
 1075SOL    HW114861   0.820   0.401   2.250 -0.3657 -0.9176  2.8594
 1075SOL    HW214862   0.731   0.334   2.153 -3.2967 -0.8789  0.3514
 1076SOL     OW14863   4.451   0.529  17.649 -0.3329  0.1350 -0.1313
 1076SOL    HW114864   4.525   0.469  17.640 -0.8620 -0.7961  1.8061
 1076SOL    HW214865   4.484   0.616  17.624 -0.9703 -0.1650 -2.0228
 1077SOL     OW14866   3.914   0.702  14.553  0.2589  0.7517 -0.4478
 1077SOL    HW114867   3.913   0.644  14.629  0.0975  1.5685  0.1806
 1077SOL    HW214868   3.983   0.662  14.501 -0.9226 -2.3701  0.4049
 1078SOL     OW14869   4.611   0.904   3.199 -0.2758 -0.6052 -0.2775
 1078SOL    HW114870   4.531   0.876   3.245 -1.2239  1.9766 -0.3718
 1078SOL    HW214871   4.596   0.996   3.219  1.9620 -0.1741 -0.5715
 1079SOL     OW14872   0.614   3.779   3.552 -0.2466 -0.6339 -0.6404
 1079SOL    HW114873   0.529   3.739   3.571 -0.4639  0.3224  0.4552
 1079SOL    HW214874   0.667   3.737   3.620  0.2298  0.8167 -0.1180
 1080SOL     OW14875   1.749   0.789   1.319  0.0004  0.1905  0.0611
 1080SOL    HW114876   1.725   0.811   1.409  0.9055 -1.8415  0.8184
 1080SOL    HW214877   1.684   0.840   1.271  1.4430  0.7369 -1.3020
 1081SOL     OW14878   4.242   0.581   5.373 -0.6160 -0.0066  0.2823
 1081SOL    HW114879   4.210   0.578   5.283  1.9428 -3.3880 -0.5242
 1081SOL    HW214880   4.282   0.494   5.370  0.2941  0.3745  1.2040
 1082SOL     OW14881   3.221   0.205  12.716  0.3646 -0.2330 -0.8319
 1082SOL    HW114882   3.264   0.124  12.744  0.5089  0.7980  1.8590
 1082SOL    HW214883   3.279   0.273  12.750 -0.1951 -0.5067  0.6259
 1083SOL     OW14884   0.302   1.818   9.629  0.0998 -0.4477  0.6552
 1083SOL    HW114885   0.341   1.805   9.715  1.9036 -2.4124 -0.4330
 1083SOL    HW214886   0.208   1.805   9.643 -0.1162  0.9060  0.4758
 1084SOL     OW14887   3.098   2.011  10.039  0.4749 -0.3933  0.0388
 1084SOL    HW114888   3.169   2.070  10.015  1.2690 -2.2228 -2.1503
 1084SOL    HW214889   3.022   2.067  10.053  0.1002 -0.7258 -0.6413
 1085SOL     OW14890   0.814   3.102  12.520 -0.6088  0.1031  0.2827
 1085SOL    HW114891   0.783   3.191  12.504 -1.5188 -0.6589 -2.2821
 1085SOL    HW214892   0.737   3.045  12.520 -1.7342  1.6423 -0.1143
 1086SOL     OW14893   0.851   2.108   0.440 -0.0247  0.6728  0.3288
 1086SOL    HW114894   0.866   2.014   0.436 -0.7632  0.4619  2.2551
 1086SOL    HW214895   0.787   2.119   0.370 -0.2263  0.9545  0.5542
 1087SOL     OW14896   2.203   2.230   8.171  0.1360  0.7249  0.1832
 1087SOL    HW114897   2.159   2.269   8.096 -0.8583  0.3858  0.5887
 1087SOL    HW214898   2.291   2.213   8.136 -0.2009 -1.0072  0.1565
 1088SOL     OW14899   0.728   3.783   9.832  0.7648 -0.6389 -0.7964
 1088SOL    HW114900   0.779   3.739   9.900 -0.6017 -0.9387  0.0350
 1088SOL    HW214901   0.742   3.876   9.847 -0.4138 -1.0453  2.8592
 1089SOL     OW14902   3.565   1.766   9.654  0.7377 -0.2027  0.0560
 1089SOL    HW114903   3.626   1.765   9.581  0.8968  1.2591  0.1763
 1089SOL    HW214904   3.505   1.698   9.621  0.8613 -0.1039 -0.3756
 1090SOL     OW14905   1.189   2.807   6.221 -0.4137  0.0983 -0.4174
 1090SOL    HW114906   1.128   2.867   6.265  0.8351  0.3520  0.9709
 1090SOL    HW214907   1.178   2.727   6.273 -0.1281 -0.1711 -0.7755
 1091SOL     OW14908   2.740   1.724   8.729 -0.2501 -0.3364 -0.5134
 1091SOL    HW114909   2.669   1.775   8.769 -0.1723  0.5836 -1.5639
 1091SOL    HW214910   2.728   1.741   8.636 -1.6046 -2.0942 -0.6700
 1092SOL     OW14911   0.664   0.076   3.361 -0.3841  0.0572  0.1326
 1092SOL    HW114912   0.679   0.144   3.296 -0.2226 -0.6260 -0.5461
 1092SOL    HW214913   0.614   0.122   3.429  1.4892 -0.6588  2.0159
 1093SOL     OW14914   2.502   0.668   4.752  0.4101 -0.0206  0.2223
 1093SOL    HW114915   2.546   0.728   4.812  0.5145  0.4290 -0.3097
 1093SOL    HW214916   2.410   0.691   4.765  0.4644  1.4322 -2.1767
 1094SOL     OW14917   0.804   4.455  11.406 -0.2101  0.7854 -0.3415
 1094SOL    HW114918   0.871   4.511  11.445  1.4130 -1.2329 -0.1610
 1094SOL    HW214919   0.834   4.463  11.316 -2.0240 -0.1448 -1.0215
 1095SOL     OW14920   3.868   1.354   6.664 -0.1860 -0.3051 -0.1554
 1095SOL    HW114921   3.878   1.430   6.607  0.8595  0.1691  0.6453
 1095SOL    HW214922   3.863   1.408   6.743  0.0941  0.8380 -0.9151
 1096SOL     OW14923   2.917   4.533  12.960  0.0399  0.3860 -0.3341
 1096SOL    HW114924   2.832   4.505  12.926  1.2948 -0.3717 -2.8707
 1096SOL    HW214925   2.916   4.628  12.953  0.5092  0.5590  1.9245
 1097SOL     OW14926   4.298   3.984   4.359 -0.6639 -0.3465 -0.5036
 1097SOL    HW114927   4.231   3.939   4.411 -2.2448  0.0682 -2.2019
 1097SOL    HW214928   4.235   4.002   4.290  0.8723  1.1456 -1.5059
 1098SOL     OW14929   3.140   3.815   8.361  0.2482 -0.1039 -0.5772
 1098SOL    HW114930   3.048   3.828   8.341  0.1564  3.5395  2.2297
 1098SOL    HW214931   3.169   3.894   8.407  1.4316 -1.2994  0.7749
 1099SOL     OW14932   2.573   4.086  13.766 -0.1866  0.0091  0.4577
 1099SOL    HW114933   2.574   4.101  13.671  1.9150  0.3959  0.5509
 1099SOL    HW214934   2.557   4.177  13.790  0.2431  0.5286 -1.1776
 1100SOL     OW14935   2.585   3.956   9.340 -0.1547  0.6446  0.2329
 1100SOL    HW114936   2.492   3.975   9.353 -0.5047 -0.3245 -0.9209
 1100SOL    HW214937   2.616   3.914   9.420 -1.8356  1.3107  1.2349
 1101SOL     OW14938   4.032   2.852   2.346 -0.0436  0.1168 -0.7138
 1101SOL    HW114939   4.064   2.875   2.259  2.4181 -1.6057 -0.2584
 1101SOL    HW214940   4.106   2.811   2.390 -1.4176 -0.2402  1.3128
 1102SOL     OW14941   2.939   0.324  14.723 -0.6177 -0.4415 -0.5387
 1102SOL    HW114942   3.029   0.353  14.731 -1.5987  2.3736  0.3619
 1102SOL    HW214943   2.942   0.258  14.654  2.0870 -0.4648 -0.3831
 1103SOL     OW14944   1.412   0.358  16.036  0.1672  0.1610  0.0881
 1103SOL    HW114945   1.411   0.379  16.129  0.1142 -0.3577  0.2036
 1103SOL    HW214946   1.405   0.443  15.992 -1.4556  0.2102  0.4412
 1104SOL     OW14947   2.307   0.113  11.082  0.4384  0.2961  0.4228
 1104SOL    HW114948   2.220   0.146  11.058  0.8952  1.2529  0.0933
 1104SOL    HW214949   2.333   0.173  11.151 -0.4685 -0.3473  1.3369
 1105SOL     OW14950   3.739   3.237   0.417  0.0124  0.2095  0.4980
 1105SOL    HW114951   3.810   3.224   0.480  0.9864  0.3427 -0.5818
 1105SOL    HW214952   3.687   3.159   0.439 -1.9879  1.4844  0.2720
 1106SOL     OW14953   3.459   4.213   6.689  0.0406  0.1729  0.1834
 1106SOL    HW114954   3.417   4.174   6.766  0.3646  0.3944  0.4738
 1106SOL    HW214955   3.410   4.174   6.617  0.4963  1.5979 -0.8985
 1107SOL     OW14956   1.440   1.434  10.024 -0.3838  0.0497 -0.4113
 1107SOL    HW114957   1.397   1.493   9.962  1.7639  0.4712 -1.4796
 1107SOL    HW214958   1.525   1.441   9.982  0.0173  0.6496  0.5204
 1108SOL     OW14959   3.610   3.548   7.654 -0.3468  0.3866  0.1980
 1108SOL    HW114960   3.548   3.615   7.683  0.1057  0.3572  1.2290
 1108SOL    HW214961   3.696   3.591   7.655 -0.0820 -0.1640  1.4642
 1109SOL     OW14962   3.918   1.889  10.741 -0.2583 -1.0702 -0.4734
 1109SOL    HW114963   3.847   1.945  10.711 -0.8453 -2.0184 -0.8606
 1109SOL    HW214964   3.985   1.916  10.678 -1.3819 -0.4763 -1.3968
 1110SOL     OW14965   1.696   1.123  10.562 -0.1121  0.2454  0.2399
 1110SOL    HW114966   1.629   1.120  10.630 -1.3312 -2.2958 -1.0760
 1110SOL    HW214967   1.694   1.217  10.543 -2.2259  0.0899 -0.3086
 1111SOL     OW14968   2.010   2.800   4.300 -0.2559 -0.2425 -0.1376
 1111SOL    HW114969   1.964   2.821   4.219 -1.0028 -2.2596 -0.2413
 1111SOL    HW214970   2.090   2.849   4.280 -0.7875  0.5721 -0.2577
 1112SOL     OW14971   3.878   1.580   9.485  0.0862  0.5084 -0.2053
 1112SOL    HW114972   3.941   1.640   9.525  0.9746  0.1708 -1.0888
 1112SOL    HW214973   3.830   1.647   9.438  1.7710  2.2114  0.5262
 1113SOL     OW14974   1.104   3.461   1.352 -0.2509 -0.2785  0.4578
 1113SOL    HW114975   1.081   3.382   1.401  1.4483 -1.1176 -0.0956
 1113SOL    HW214976   1.193   3.437   1.325 -0.7754 -1.3951 -0.3020
 1114SOL     OW14977   0.908   1.497   6.338 -0.4092 -0.2824 -0.7541
 1114SOL    HW114978   0.930   1.456   6.421 -0.6246  1.2386  0.0587
 1114SOL    HW214979   0.831   1.548   6.364  0.9654  1.3793  0.0886
 1115SOL     OW14980   1.081   0.364   8.215 -0.0752 -0.2673  0.6124
 1115SOL    HW114981   1.056   0.303   8.284  2.3682 -0.6684  1.1638
 1115SOL    HW214982   0.999   0.366   8.166  0.6321 -1.1260 -0.6303
 1116SOL     OW14983   4.382   3.047   2.739 -0.3806  0.1321 -0.4882
 1116SOL    HW114984   4.452   3.009   2.686 -0.2804 -2.1521  1.3128
 1116SOL    HW214985   4.328   3.082   2.668 -0.1396 -0.8015 -1.1307
 1117SOL     OW14986   2.544   0.180  11.349 -0.0096 -0.3321  0.6610
 1117SOL    HW114987   2.484   0.251  11.326 -0.9502 -0.9732  1.1285
 1117SOL    HW214988   2.629   0.215  11.324 -0.5319  0.0257 -0.6053
 1118SOL     OW14989   3.052   4.676   3.172  0.4356  0.0240  0.1164
 1118SOL    HW114990   3.119   0.003   3.156 -0.8378  1.5676  1.2174
 1118SOL    HW214991   3.094   4.595   3.141  1.2928  1.1375 -1.6387
 1119SOL     OW14992   4.729   3.447  14.873  0.0465  0.3356 -0.1867
 1119SOL    HW114993   4.696   3.509  14.938 -0.7265  0.0699 -0.3291
 1119SOL    HW214994   4.678   3.458  14.793  0.6239  1.4002 -0.4152
 1120SOL     OW14995   2.985   1.748   8.152  0.8689 -0.7305  0.0848
 1120SOL    HW114996   2.940   1.815   8.205  1.5576  1.3339 -1.9276
 1120SOL    HW214997   2.905   1.700   8.130  0.9768 -2.0683  2.6818
 1121SOL     OW14998   0.289   1.167  12.058  0.2299  0.0561 -0.5389
 1121SOL    HW114999   0.315   1.120  12.137 -0.0396 -2.7756 -2.1293
 1121SOL    HW215000   0.203   1.131  12.035  0.8974 -3.3153  2.2017
 1122SOL     OW15001   4.531   4.094  11.996  0.4781  0.0012  0.5896
 1122SOL    HW115002   4.509   4.046  12.076 -0.8378  1.2394  0.9667
 1122SOL    HW215003   4.457   4.087  11.936  0.9276  0.2440  0.0005
 1123SOL     OW15004   3.927   0.354  13.440 -0.4675  0.2752 -0.2601
 1123SOL    HW115005   3.934   0.259  13.430  0.6440  0.3484 -0.2298
 1123SOL    HW215006   3.895   0.382  13.354  1.6104  2.3967 -0.3699
 1124SOL     OW15007   4.116   1.770   0.310 -0.4256  0.2592 -0.1845
 1124SOL    HW115008   4.105   1.814   0.226 -0.7869 -0.1010 -0.3251
 1124SOL    HW215009   4.116   1.841   0.374  2.2207  0.8237 -0.8232
 1125SOL     OW15010   3.754   0.513  12.596  0.0063  0.1693  0.4760
 1125SOL    HW115011   3.845   0.522  12.623 -0.0434 -0.2305  0.7821
 1125SOL    HW215012   3.747   0.595  12.548 -1.5590  0.2346  0.7851
 1126SOL     OW15013   2.944   4.655   6.629  0.0094  0.0192  0.1757
 1126SOL    HW115014   2.914   0.004   6.608 -0.1113 -0.4315 -1.4876
 1126SOL    HW215015   2.980   4.652   6.718 -1.8925  0.7453  0.9721
 1127SOL     OW15016   0.124   2.603   7.896  0.3119  0.2072  0.4990
 1127SOL    HW115017   0.067   2.637   7.965  2.1864  1.8029  1.2595
 1127SOL    HW215018   0.204   2.652   7.918  0.1928  0.5854  0.0823
 1128SOL     OW15019   3.227   3.542   6.100 -0.5027 -0.3039  0.2360
 1128SOL    HW115020   3.144   3.568   6.141 -0.5133 -0.2356  0.1709
 1128SOL    HW215021   3.215   3.548   6.006 -0.5113 -1.0321  0.1856
 1129SOL     OW15022   3.327   0.833   1.141  0.3394 -0.0366 -0.3719
 1129SOL    HW115023   3.400   0.894   1.133  1.2825 -1.0500  0.4504
 1129SOL    HW215024   3.358   0.742   1.137 -1.9414 -0.6530 -3.5880
 1130SOL     OW15025   4.041   2.931  10.258 -0.4846  0.1602 -0.0227
 1130SOL    HW115026   3.965   2.963  10.305 -0.7608  0.8779 -0.9583
 1130SOL    HW215027   4.018   2.964  10.171  1.3740  0.4041 -0.4430
 1131SOL     OW15028   2.242   3.973   4.421  0.0682 -0.5575 -0.8393
 1131SOL    HW115029   2.298   3.966   4.499 -1.6379 -1.0957  0.3189
 1131SOL    HW215030   2.185   4.043   4.453  1.3394 -1.5337  3.6923
 1132SOL     OW15031   3.569   4.466   5.671  0.1399 -0.2387 -0.0335
 1132SOL    HW115032   3.590   4.389   5.725 -2.3512 -1.0066 -0.1812
 1132SOL    HW215033   3.556   4.524   5.747 -0.4674 -1.2440  0.6274
 1133SOL     OW15034   2.006   4.698   3.063  0.0338  0.4372  0.5826
 1133SOL    HW115035   2.060   0.036   3.083  2.1203 -0.9258  0.1459
 1133SOL    HW215036   2.050   4.676   2.981 -0.5270  1.7389 -0.0726
 1134SOL     OW15037   3.083   1.293   8.590  0.0779 -0.0951  0.5466
 1134SOL    HW115038   3.028   1.330   8.660 -2.6805 -1.7228 -0.7885
 1134SOL    HW215039   3.161   1.268   8.639 -0.3733 -1.9267  0.3256
 1135SOL     OW15040   4.308   1.114   2.175  0.7809  0.0360  0.0921
 1135SOL    HW115041   4.308   1.207   2.151 -0.1701  0.0839  0.2728
 1135SOL    HW215042   4.228   1.090   2.129  0.5971  1.5002 -0.3584
 1136SOL     OW15043   3.047   3.244   7.016 -0.1371  0.5535 -0.5361
 1136SOL    HW115044   3.009   3.158   7.034  0.3052 -0.4077 -4.1544
 1136SOL    HW215045   3.074   3.241   6.924 -1.5575 -0.9955 -0.8981
 1137SOL     OW15046   4.496   2.494   0.673 -0.1069 -0.2479 -0.4508
 1137SOL    HW115047   4.433   2.494   0.601 -0.9608 -2.9212  0.3114
 1137SOL    HW215048   4.450   2.435   0.732  2.4728 -1.7926  0.0424
 1138SOL     OW15049   0.425   0.455   3.322 -0.9862 -0.0778 -0.0360
 1138SOL    HW115050   0.340   0.418   3.347 -0.5927 -2.0543 -1.6797
 1138SOL    HW215051   0.456   0.396   3.253  0.6842  1.5005 -0.6348
 1139SOL     OW15052   0.201   1.547   1.568  0.1726  0.1068 -0.2397
 1139SOL    HW115053   0.278   1.506   1.609  0.4270  0.7471 -0.0867
 1139SOL    HW215054   0.222   1.640   1.571  0.8637 -0.0327 -0.6465
 1140SOL     OW15055   0.648   0.763  16.730 -0.9814 -0.3498 -0.1820
 1140SOL    HW115056   0.556   0.744  16.749 -1.1699 -0.8695 -1.5763
 1140SOL    HW215057   0.688   0.676  16.727 -1.6224 -0.7400  2.3109
 1141SOL     OW15058   1.861   1.288   7.478  0.2925  0.3456 -0.0335
 1141SOL    HW115059   1.931   1.331   7.429 -0.2676  0.0941 -1.0457
 1141SOL    HW215060   1.917   1.238   7.538  0.6141  0.7235 -0.0151
 1142SOL     OW15061   0.279   4.582   4.890 -0.1760  0.3695  0.8023
 1142SOL    HW115062   0.237   4.635   4.958 -0.9816  3.7063 -2.2740
 1142SOL    HW215063   0.213   4.515   4.874  0.6881 -0.3279  0.1827
 1143SOL     OW15064   3.151   2.949   1.528 -0.5628  0.1334 -0.0878
 1143SOL    HW115065   3.088   2.877   1.535  1.3314 -1.3737  1.6625
 1143SOL    HW215066   3.206   2.922   1.602 -1.0277  1.6739  0.8038
 1144SOL     OW15067   2.238   0.909   9.055 -0.5345  0.0977  0.2167
 1144SOL    HW115068   2.180   0.976   9.018 -1.8331  0.6106  3.1895
 1144SOL    HW215069   2.311   0.918   8.993 -1.4068  2.2466 -0.4883
 1145SOL     OW15070   4.677   1.648   0.588  0.1384  0.1375 -0.1396
 1145SOL    HW115071   4.719   1.610   0.510  0.9632  1.4603 -0.3413
 1145SOL    HW215072   4.688   1.742   0.571 -1.6214 -0.2033 -3.2827
 1146SOL     OW15073   3.187   4.029   2.109 -0.2316 -0.4506  0.3266
 1146SOL    HW115074   3.235   3.951   2.084  1.0444  0.3909  0.1541
 1146SOL    HW215075   3.257   4.086   2.141  0.3919 -1.2800  0.4234
 1147SOL     OW15076   1.856   0.758   8.231 -0.5991 -0.4906 -0.5122
 1147SOL    HW115077   1.934   0.806   8.259 -0.0547 -0.7020 -1.6436
 1147SOL    HW215078   1.853   0.681   8.288 -3.2374 -0.5107 -0.6658
 1148SOL     OW15079   2.791   1.587   3.967  0.5737  0.4229 -0.0544
 1148SOL    HW115080   2.859   1.642   4.006 -0.1479  0.5414  1.0275
 1148SOL    HW215081   2.808   1.495   3.983 -0.5895 -0.3521 -3.1778
 1149SOL     OW15082   0.407   2.219   6.637  0.1907 -0.3877  0.3298
 1149SOL    HW115083   0.350   2.289   6.668  0.2360 -0.1412 -0.1412
 1149SOL    HW215084   0.486   2.268   6.616  0.1371 -0.4679 -0.0568
 1150SOL     OW15085   1.465   4.684   6.723  0.5968  0.0699 -0.8387
 1150SOL    HW115086   1.436   4.721   6.807  1.5390 -0.6530 -0.1908
 1150SOL    HW215087   1.522   0.019   6.699  1.0590  0.5164  1.6248
 1151SOL     OW15088   2.946   3.359   9.056 -0.3831 -0.3023  0.0349
 1151SOL    HW115089   2.950   3.311   9.139 -0.1571 -1.6193 -0.7257
 1151SOL    HW215090   2.923   3.446   9.085  2.7363  0.4432  0.2791
 1152SOL     OW15091   1.839   0.588  13.261  0.3803  0.0298  0.3823
 1152SOL    HW115092   1.809   0.609  13.349  0.4603  2.9260 -0.2979
 1152SOL    HW215093   1.790   0.649  13.207  2.2822  0.6820 -0.6272
 1153SOL     OW15094   2.722   2.595  16.089 -0.5062 -0.1712  0.1607
 1153SOL    HW115095   2.629   2.594  16.067 -0.7376 -2.2707  1.1844
 1153SOL    HW215096   2.717   2.621  16.181  0.7581 -1.1305  0.5044
 1154SOL     OW15097   3.880   3.509  17.298 -0.6273  1.0142 -0.0127
 1154SOL    HW115098   3.811   3.458  17.342  0.3103  1.6761  2.2461
 1154SOL    HW215099   3.882   3.587  17.353 -1.8496  0.4158  0.9005
 1155SOL     OW15100   0.944   3.926  15.297  0.3202 -0.0823  0.1324
 1155SOL    HW115101   0.881   3.987  15.335 -0.2984 -1.2944  1.0718
 1155SOL    HW215102   0.906   3.916  15.210 -2.0048 -2.1849  1.4172
 1156SOL     OW15103   4.404   4.442   6.428 -0.5718  0.1687 -0.0580
 1156SOL    HW115104   4.413   4.522   6.377 -0.6052  0.0604 -0.2359
 1156SOL    HW215105   4.361   4.471   6.508 -1.4410 -2.7729  0.5545
 1157SOL     OW15106   4.669   3.344  12.006 -0.3832  0.1225  0.4975
 1157SOL    HW115107   4.607   3.283  12.045  0.0648  0.4885  1.7936
 1157SOL    HW215108   4.646   3.409  12.072  0.0374  0.1244  0.6402
 1158SOL     OW15109   4.217   1.261   5.096 -0.0707 -0.4471  0.1149
 1158SOL    HW115110   4.135   1.310   5.087  0.1416 -0.2056 -0.4618
 1158SOL    HW215111   4.196   1.170   5.076  1.8013 -0.8237 -0.1213
 1159SOL     OW15112   3.761   3.314   2.283  0.4756 -0.3461  0.1999
 1159SOL    HW115113   3.805   3.248   2.336  0.7050 -3.1627 -3.5792
 1159SOL    HW215114   3.670   3.295   2.306  0.3694 -0.6021 -0.4241
 1160SOL     OW15115   1.272   1.015  17.115 -0.1637 -0.1459 -0.3515
 1160SOL    HW115116   1.339   1.037  17.050  0.2594 -1.0991 -0.2339
 1160SOL    HW215117   1.289   0.921  17.122 -0.1921 -0.0280  1.4272
 1161SOL     OW15118   0.073   4.202   5.904  0.1872  0.1137 -0.1871
 1161SOL    HW115119   0.164   4.175   5.890  0.0494  0.0271 -0.9289
 1161SOL    HW215120   0.069   4.222   5.997 -2.1780  0.1298 -0.2955
 1162SOL     OW15121   3.793   0.938   8.565  0.2303 -0.2297  0.5379
 1162SOL    HW115122   3.716   0.885   8.586  0.7873 -1.4082 -0.4428
 1162SOL    HW215123   3.752   0.979   8.489  2.2846 -1.4778 -1.2215
 1163SOL     OW15124   2.181   1.350  10.152 -0.1743  0.1308 -0.3060
 1163SOL    HW115125   2.183   1.272  10.207 -0.2200  0.5003  0.2121
 1163SOL    HW215126   2.188   1.306  10.067  0.2740 -1.0578  0.3369
 1164SOL     OW15127   3.211   3.019  10.735 -0.1065 -0.3033  0.7619
 1164SOL    HW115128   3.296   3.007  10.694  1.0645  0.9059  2.8080
 1164SOL    HW215129   3.211   3.115  10.733 -1.1390 -0.3077  0.6576
 1165SOL     OW15130   4.089   2.483   6.080 -0.0510 -0.6931 -0.4920
 1165SOL    HW115131   4.081   2.410   6.143 -1.1652 -0.8665 -0.8378
 1165SOL    HW215132   3.996   2.484   6.057  0.0057 -0.7107 -0.7162
 1166SOL     OW15133   1.036   3.419   5.413  0.4002 -0.4748  0.1200
 1166SOL    HW115134   1.128   3.415   5.387 -0.1870 -0.7931 -1.9020
 1166SOL    HW215135   1.019   3.507   5.447 -0.6515  0.0254 -1.7095
 1167SOL     OW15136   3.300   3.129   8.412  0.2788  0.4010  0.2059
 1167SOL    HW115137   3.394   3.116   8.403 -0.1644 -3.3023  1.0635
 1167SOL    HW215138   3.288   3.047   8.458  0.5490  0.2570  0.0189
 1168SOL     OW15139   0.544   2.147   3.254 -0.8171 -0.0430 -0.1505
 1168SOL    HW115140   0.597   2.115   3.181  0.7094 -1.6511  1.6443
 1168SOL    HW215141   0.608   2.192   3.310 -2.3454  0.9522  0.7903
 1169SOL     OW15142   3.430   3.242   9.372  0.2453  0.2053  0.0372
 1169SOL    HW115143   3.349   3.287   9.395 -0.1942 -0.8807  0.6542
 1169SOL    HW215144   3.451   3.292   9.294  0.9744  2.6618  1.8187
 1170SOL     OW15145   0.940   2.272   3.789 -0.2725  0.1295  0.0134
 1170SOL    HW115146   0.982   2.355   3.770 -0.9699  0.0697 -1.7319
 1170SOL    HW215147   0.973   2.214   3.720 -1.6474 -0.0898 -0.4521
 1171SOL     OW15148   1.769   0.119   1.868  0.0103  0.2644  0.2944
 1171SOL    HW115149   1.717   0.043   1.894  0.2707  0.2833  0.8649
 1171SOL    HW215150   1.765   0.177   1.944  1.2351  0.6417  0.0752
 1172SOL     OW15151   2.058   4.239   3.845  0.4313 -0.4490  0.5222
 1172SOL    HW115152   2.140   4.282   3.871  1.4746 -1.7729 -0.5991
 1172SOL    HW215153   2.013   4.318   3.817  1.2706 -0.2451 -0.2541
 1173SOL     OW15154   3.055   1.717  14.437 -0.3061  0.0578  0.2949
 1173SOL    HW115155   3.014   1.801  14.459 -0.5727 -0.1407  0.5430
 1173SOL    HW215156   3.146   1.749  14.442 -0.0866 -0.4493 -0.4616
 1174SOL     OW15157   2.538   4.486   4.680  0.3747 -0.0745 -0.2895
 1174SOL    HW115158   2.627   4.514   4.657  0.9596 -2.1084 -0.4698
 1174SOL    HW215159   2.535   4.503   4.774  1.3527  2.0295 -0.6210
 1175SOL     OW15160   1.153   4.488   4.406  0.7181  0.7873 -0.6540
 1175SOL    HW115161   1.089   4.533   4.461 -0.7524 -0.9404 -0.9511
 1175SOL    HW215162   1.089   4.487   4.335  0.6536 -0.4333 -0.5843
 1176SOL     OW15163   1.178   1.734   5.097  0.0005  0.8624 -0.1027
 1176SOL    HW115164   1.262   1.695   5.122  0.0190  1.6421  1.0511
 1176SOL    HW215165   1.117   1.664   5.120  1.7300 -0.9284 -1.0048
 1177SOL     OW15166   4.633   4.676  14.760 -0.2732  0.0008 -0.1035
 1177SOL    HW115167   4.693   4.617  14.806  0.1159  2.6055  2.7562
 1177SOL    HW215168   4.575   4.617  14.712  0.2637 -0.1516 -0.5573
 1178SOL     OW15169   0.021   3.109   7.495 -0.0176 -0.2070 -0.6490
 1178SOL    HW115170   0.048   3.017   7.499 -2.4061 -0.8195  1.4555
 1178SOL    HW215171   4.666   3.090   7.487  0.2711 -2.2207  0.6647
 1179SOL     OW15172   1.071   3.518   6.787 -0.1355  0.2479 -0.5381
 1179SOL    HW115173   1.060   3.559   6.873  1.4943  0.3070 -0.3645
 1179SOL    HW215174   1.146   3.572   6.761 -0.7345  0.7619 -1.2159
 1180SOL     OW15175   1.220   4.327   5.018 -0.1067 -0.2475  0.0416
 1180SOL    HW115176   1.149   4.311   5.081  0.3141 -0.2388  0.5229
 1180SOL    HW215177   1.178   4.397   4.968  0.1064 -0.5080 -0.4961
 1181SOL     OW15178   0.716   3.672  13.160 -0.7604  0.8874  1.3573
 1181SOL    HW115179   0.772   3.595  13.168 -1.0206  0.2977 -2.3862
 1181SOL    HW215180   0.671   3.628  13.088  2.1457  1.1597 -0.6270
 1182SOL     OW15181   1.111   3.208   1.421  0.7986 -0.2468  0.1423
 1182SOL    HW115182   1.197   3.170   1.442  0.9333 -1.8047 -3.2951
 1182SOL    HW215183   1.103   3.169   1.334  2.4085 -0.7489  0.2148
 1183SOL     OW15184   4.453   2.164   5.989  0.3440 -0.2298 -0.2369
 1183SOL    HW115185   4.539   2.149   6.028 -0.3312 -0.1949  1.2394
 1183SOL    HW215186   4.478   2.240   5.936 -0.0003 -1.2794 -1.9000
 1184SOL     OW15187   0.759   0.726   4.020  0.6975  0.8603 -0.4913
 1184SOL    HW115188   0.819   0.708   4.092 -1.8000 -0.6935  1.2088
 1184SOL    HW215189   0.795   0.661   3.960 -3.1513 -2.0980  0.4170
 1185SOL     OW15190   3.644   3.522   2.838  0.0611 -0.2507 -0.5259
 1185SOL    HW115191   3.614   3.443   2.884 -0.7849 -1.2749 -2.8359
 1185SOL    HW215192   3.559   3.532   2.794  0.3712 -0.2667 -1.1319
 1186SOL     OW15193   0.780   4.151   4.038  0.1730 -0.2997 -0.3549
 1186SOL    HW115194   0.728   4.079   4.003 -0.8506  0.1986  0.1337
 1186SOL    HW215195   0.818   4.113   4.117 -0.3418 -0.2503 -0.0840
 1187SOL     OW15196   4.370   3.984   3.490  0.5340  0.4463  0.2261
 1187SOL    HW115197   4.295   4.037   3.462  1.9173  1.0199 -2.3912
 1187SOL    HW215198   4.317   3.916   3.531  1.1109 -0.3844 -0.4152
 1188SOL     OW15199   4.476   3.209  15.951  0.5085 -0.1827  0.3469
 1188SOL    HW115200   4.441   3.266  16.018 -4.5212  0.3011 -2.6542
 1188SOL    HW215201   4.412   3.139  15.933  0.5296 -0.4921  1.5138
 1189SOL     OW15202   0.290   3.416   4.725  0.3695 -0.3451  0.0247
 1189SOL    HW115203   0.195   3.415   4.719  0.4004 -0.8720 -0.3929
 1189SOL    HW215204   0.313   3.325   4.703  0.9662 -0.3948  0.8554
 1190SOL     OW15205   2.978   1.520   0.139 -0.1784  0.1295  0.1564
 1190SOL    HW115206   2.999   1.448   0.080  0.4266  1.7282 -1.5745
 1190SOL    HW215207   2.956   1.590   0.078  2.3444  1.5900  0.9706
 1191SOL     OW15208   4.719   4.004   1.665 -0.3057  0.0787  0.2059
 1191SOL    HW115209   0.075   4.007   1.652 -0.5079 -0.1043 -1.3289
 1191SOL    HW215210   4.679   4.082   1.627 -1.3791  0.1403  1.4546
 1192SOL     OW15211   1.625   3.203   5.469 -0.5192  0.2725  0.0316
 1192SOL    HW115212   1.630   3.286   5.516 -1.4210  1.5446 -2.1349
 1192SOL    HW215213   1.573   3.216   5.390  0.5902 -1.5759 -0.9906
 1193SOL     OW15214   2.920   1.286  14.775 -0.7081 -0.1623  0.1752
 1193SOL    HW115215   3.010   1.260  14.792 -0.7524  0.0776  0.7519
 1193SOL    HW215216   2.889   1.297  14.865 -0.5019  0.5533  0.1602
 1194SOL     OW15217   4.429   3.556   4.669  0.2323 -0.2071  0.5480
 1194SOL    HW115218   4.416   3.646   4.698  0.3517  0.3878 -1.2514
 1194SOL    HW215219   4.503   3.558   4.610 -1.2374  0.9080 -1.2514
 1195SOL     OW15220   1.107   2.467   8.105  0.3494  0.2244 -0.0663
 1195SOL    HW115221   1.030   2.465   8.163 -0.6059 -1.7772 -1.4035
 1195SOL    HW215222   1.145   2.555   8.111 -1.4427  1.0146 -0.2640
 1196SOL     OW15223   2.422   3.498  10.437  0.3119 -0.5866  0.2903
 1196SOL    HW115224   2.417   3.575  10.494  1.9349 -0.5940  0.4551
 1196SOL    HW215225   2.333   3.491  10.403  0.4487  2.7638 -0.8126
 1197SOL     OW15226   1.946   2.958  16.345  0.3926 -0.2064 -0.0638
 1197SOL    HW115227   1.887   2.906  16.400  0.9390 -0.1464  0.5849
 1197SOL    HW215228   1.943   2.897  16.271 -2.1346  0.2623 -0.3195
 1198SOL     OW15229   4.113   3.875   5.795 -0.9468  0.7947  0.0600
 1198SOL    HW115230   4.127   3.818   5.871  1.4345 -1.0606 -1.7735
 1198SOL    HW215231   4.022   3.906   5.797 -1.3081 -0.0220 -2.9433
 1199SOL     OW15232   2.479   2.493   5.245 -0.3266  0.2874  0.1042
 1199SOL    HW115233   2.571   2.469   5.254  0.0446  1.6115 -0.1618
 1199SOL    HW215234   2.441   2.412   5.278  0.8141 -0.3452 -0.1138
 1200SOL     OW15235   1.367   1.716   3.724  0.3114 -0.0234  0.0561
 1200SOL    HW115236   1.285   1.681   3.757  0.1212 -1.7283 -2.1897
 1200SOL    HW215237   1.418   1.635   3.727 -0.8138 -0.7719 -0.9646
 1201SOL     OW15238   1.633   3.970   6.803  0.1695  0.0267  0.0021
 1201SOL    HW115239   1.644   4.065   6.809  0.5250  0.0648 -1.4212
 1201SOL    HW215240   1.583   3.958   6.722  0.5300 -0.2749 -0.1709
 1202SOL     OW15241   0.696   4.088   4.640 -0.6915 -0.4023 -0.2945
 1202SOL    HW115242   0.636   4.024   4.602 -0.2768 -0.4407 -0.8790
 1202SOL    HW215243   0.751   4.029   4.692 -2.5166 -0.6000  1.4359
 1203SOL     OW15244   3.957   0.861   8.857 -0.1329 -0.4532  0.7342
 1203SOL    HW115245   3.923   0.904   8.936 -1.1596 -1.1684  0.6837
 1203SOL    HW215246   3.974   0.935   8.799 -0.1677 -1.3445 -0.4165
 1204SOL     OW15247   4.509   0.050   8.603  0.3234 -0.5766 -0.1278
 1204SOL    HW115248   4.542   0.050   8.693  3.6288  0.3666 -1.3777
 1204SOL    HW215249   4.570   0.099   8.549  2.3228  0.2973  2.9184
 1205SOL     OW15250   2.786   2.674   8.714  0.1104 -0.0273 -0.7875
 1205SOL    HW115251   2.825   2.627   8.640 -0.5943 -0.0239 -1.1651
 1205SOL    HW215252   2.694   2.648   8.706  0.3662 -0.9562 -0.7528
 1206SOL     OW15253   3.178   1.946   3.918 -0.5613 -0.4665  0.9327
 1206SOL    HW115254   3.120   2.005   3.871  2.0295  2.1455  1.0525
 1206SOL    HW215255   3.247   1.931   3.854  0.2096 -1.6058  2.0169
 1207SOL     OW15256   1.666   3.549   7.703  0.3085  0.0716  0.2130
 1207SOL    HW115257   1.723   3.497   7.647  0.1704  0.1607 -0.0124
 1207SOL    HW215258   1.697   3.636   7.678  1.0715 -0.1842  0.2662
 1208SOL     OW15259   4.255   1.718   1.739  0.0488 -0.1899 -0.4875
 1208SOL    HW115260   4.343   1.718   1.703  0.4389 -0.2094  0.4864
 1208SOL    HW215261   4.214   1.651   1.684 -1.6836 -1.0596  1.8916
 1209SOL     OW15262   2.606   1.550   9.961  0.4478 -0.2073  0.2091
 1209SOL    HW115263   2.574   1.624   9.910  0.2572 -0.6574 -0.3195
 1209SOL    HW215264   2.701   1.560   9.962  0.4817 -0.5525  0.7613
 1210SOL     OW15265   1.280   1.999   3.863 -0.3898 -0.0807 -0.5075
 1210SOL    HW115266   1.191   1.972   3.840  0.4475 -2.8772 -0.5000
 1210SOL    HW215267   1.318   1.916   3.892  1.3109 -0.5621 -4.0530
 1211SOL     OW15268   3.981   2.305   1.527 -0.1877 -0.3207 -0.2269
 1211SOL    HW115269   3.951   2.275   1.441  1.1918 -0.9032 -0.5078
 1211SOL    HW215270   4.039   2.232   1.550 -1.4191 -1.1520  0.2218
 1212SOL     OW15271   2.584   1.026   6.853  0.0637 -0.3529  0.1082
 1212SOL    HW115272   2.586   0.939   6.893 -0.7968 -1.6875 -2.7111
 1212SOL    HW215273   2.555   1.081   6.925  0.0183 -1.7540  1.1599
 1213SOL     OW15274   0.437   2.832   5.286 -0.1282  0.1862  0.1996
 1213SOL    HW115275   0.416   2.925   5.286  0.1355  0.2340  1.4849
 1213SOL    HW215276   0.402   2.805   5.371 -1.1653  1.0324  0.0369
 1214SOL     OW15277   4.612   1.023   8.185 -0.3002 -0.1297  0.1899
 1214SOL    HW115278   4.587   0.967   8.259 -1.7148 -2.1067 -1.8092
 1214SOL    HW215279   4.526   1.030   8.145  0.2368  1.0007 -0.7642
 1215SOL     OW15280   0.645   3.844  15.348 -0.0980  0.2265  0.3561
 1215SOL    HW115281   0.659   3.920  15.291 -0.1568 -0.0015  0.0378
 1215SOL    HW215282   0.562   3.819  15.309  0.0854 -0.5381  0.4522
 1216SOL     OW15283   1.498   1.543   8.499  0.1172 -0.3240 -0.3077
 1216SOL    HW115284   1.421   1.597   8.480 -1.1295 -0.9057  3.1074
 1216SOL    HW215285   1.541   1.532   8.415  1.0198  0.3693  0.0587
 1217SOL     OW15286   2.571   1.718   9.130  0.6385 -0.0041 -0.2364
 1217SOL    HW115287   2.642   1.716   9.066  2.6567 -0.1710  1.9675
 1217SOL    HW215288   2.609   1.666   9.202  0.1969  1.1363  0.8161
 1218SOL     OW15289   3.087   4.285   5.272 -0.4052 -0.0870  0.8360
 1218SOL    HW115290   3.174   4.326   5.263 -0.4855 -0.2499 -0.7902
 1218SOL    HW215291   3.113   4.195   5.251  0.0652  0.1064  0.5699
 1219SOL     OW15292   3.107   2.078   4.332 -0.3099 -0.1881  0.7702
 1219SOL    HW115293   3.057   2.117   4.261  2.2758 -0.2863 -1.0954
 1219SOL    HW215294   3.175   2.022   4.293  1.4840  1.2359  1.8745
 1220SOL     OW15295   4.351   0.074  14.476  0.2434 -0.0227 -0.6858
 1220SOL    HW115296   4.421   0.140  14.468  3.1626 -2.9433  0.5678
 1220SOL    HW215297   4.314   0.099  14.561  1.3114 -2.9178  0.6058
 1221SOL     OW15298   0.786   0.914   7.622  0.1140  0.3647 -1.2230
 1221SOL    HW115299   0.878   0.938   7.626  0.4851 -0.9523 -1.8579
 1221SOL    HW215300   0.756   0.936   7.534  0.8387 -2.9345 -2.3125
 1222SOL     OW15301   2.313   3.441   5.774 -0.0926 -0.0262 -0.6463
 1222SOL    HW115302   2.373   3.452   5.701  0.0774  1.3923 -0.2885
 1222SOL    HW215303   2.351   3.388   5.843 -0.6507  0.6543  0.1951
 1223SOL     OW15304   2.096   4.246  16.018 -0.4547 -0.2613  0.1206
 1223SOL    HW115305   2.124   4.334  15.992  0.9117 -0.7409 -0.0164
 1223SOL    HW215306   2.040   4.263  16.093  1.6996  1.5412  1.3269
 1224SOL     OW15307   2.007   1.903  12.578  0.3505 -0.0684 -0.4045
 1224SOL    HW115308   2.085   1.942  12.538  0.5523 -0.4433 -0.3774
 1224SOL    HW215309   1.998   1.821  12.530 -3.2559  0.9036 -1.4366
 1225SOL     OW15310   2.116   2.305   5.324 -0.3587  0.2340  0.3557
 1225SOL    HW115311   2.111   2.233   5.262  0.8588 -0.2799  0.8542
 1225SOL    HW215312   2.210   2.305   5.345 -0.0699 -0.3184 -1.0012
 1226SOL     OW15313   1.729   2.718   2.503 -0.0652  0.2964  0.0483
 1226SOL    HW115314   1.789   2.652   2.469 -0.0994  1.1948 -1.7788
 1226SOL    HW215315   1.657   2.668   2.542  1.7421 -2.2670  0.0527
 1227SOL     OW15316   1.083   0.552  17.430 -0.1228  0.0688  0.4896
 1227SOL    HW115317   1.101   0.459  17.415 -1.6679 -0.2106  0.3842
 1227SOL    HW215318   1.171   0.590  17.430 -0.3266  0.5540  0.9298
 1228SOL     OW15319   0.129   3.732   4.259  0.5417  0.3059  0.3133
 1228SOL    HW115320   0.117   3.637   4.267 -0.3421  0.3390 -0.5293
 1228SOL    HW215321   0.212   3.722   4.212  0.0631  4.5010 -1.3901
 1229SOL     OW15322   3.374   2.774   8.205  0.0511 -0.6128  0.6564
 1229SOL    HW115323   3.371   2.678   8.205 -0.6953 -0.5721 -2.4840
 1229SOL    HW215324   3.297   2.795   8.153  0.6611  1.9213  0.7837
 1230SOL     OW15325   4.100   1.779  14.792  0.4103 -0.4917 -0.4312
 1230SOL    HW115326   4.161   1.823  14.733  0.6624 -1.1183 -0.6367
 1230SOL    HW215327   4.023   1.823  14.757 -0.0532 -1.1373 -0.2050
 1231SOL     OW15328   3.136   3.662   1.333  0.4947 -0.0808 -0.0656
 1231SOL    HW115329   3.143   3.606   1.255 -0.9819  1.9921 -1.6623
 1231SOL    HW215330   3.113   3.606   1.407  0.3321  0.6152  0.4096
 1232SOL     OW15331   2.045   3.187   7.504 -0.4594 -0.0900  0.0193
 1232SOL    HW115332   2.103   3.123   7.545 -0.5256 -0.2448 -0.1286
 1232SOL    HW215333   2.047   3.259   7.567  2.4545 -0.6784  0.5975
 1233SOL     OW15334   2.213   2.612   8.693  0.5620 -0.2920 -0.2751
 1233SOL    HW115335   2.159   2.534   8.687  1.2122 -0.8074  0.5912
 1233SOL    HW215336   2.192   2.639   8.782  0.3854  1.9229 -0.9883
 1234SOL     OW15337   0.883   1.144   5.761  0.0153  0.2100  0.1058
 1234SOL    HW115338   0.860   1.237   5.759  0.1831  0.2572  0.4064
 1234SOL    HW215339   0.852   1.105   5.843  0.4570 -0.9460 -0.2891
 1235SOL     OW15340   3.197   2.353   1.799  0.4320 -0.5321 -0.4289
 1235SOL    HW115341   3.199   2.354   1.894 -0.0642  3.0629 -0.4487
 1235SOL    HW215342   3.250   2.277   1.774  1.7875  0.5047 -0.6645
 1236SOL     OW15343   3.361   1.014  12.387  0.5956 -0.1490  0.2945
 1236SOL    HW115344   3.317   0.946  12.335  2.0673 -0.4313 -0.5959
 1236SOL    HW215345   3.327   1.086  12.334  1.6065  0.7009  0.8010
 1237SOL     OW15346   4.546   2.766   3.080 -0.4416  0.0537  0.2169
 1237SOL    HW115347   4.589   2.681   3.076  1.4200  0.9467  1.5295
 1237SOL    HW215348   4.483   2.751   3.151 -0.0258  2.1637  1.0397
 1238SOL     OW15349   2.583   2.941   5.382 -0.7301  0.6597 -0.1490
 1238SOL    HW115350   2.531   2.946   5.462 -1.0987 -1.1272 -0.2644
 1238SOL    HW215351   2.657   2.998   5.398 -0.0300  0.2574 -1.9468
 1239SOL     OW15352   0.199   3.692   5.815 -0.0408  0.4340  0.2018
 1239SOL    HW115353   0.128   3.681   5.752 -1.8017 -0.4030  2.3409
 1239SOL    HW215354   0.232   3.781   5.798 -0.7227  1.1731  2.7355
 1240SOL     OW15355   0.891   4.630   5.520  0.3373 -0.0694  0.5857
 1240SOL    HW115356   0.807   4.670   5.543  0.8237  0.3864  1.5762
 1240SOL    HW215357   0.947   4.683   5.578  0.8533 -0.0562  0.0741
 1241SOL     OW15358   3.843   0.157   3.630 -0.0333  0.2559 -0.4671
 1241SOL    HW115359   3.926   0.192   3.597  0.0632  0.8474  0.4189
 1241SOL    HW215360   3.782   0.229   3.616  0.0406 -0.0668 -2.5124
 1242SOL     OW15361   1.156   0.797   0.557 -1.2508 -0.3379 -0.0249
 1242SOL    HW115362   1.167   0.828   0.647 -1.0035 -0.6864  0.0634
 1242SOL    HW215363   1.218   0.854   0.511 -0.0820 -0.2004  1.6983
 1243SOL     OW15364   4.705   1.652   0.886  0.0597 -0.5897 -0.0604
 1243SOL    HW115365   4.650   1.581   0.918 -2.4856  1.1754 -0.5378
 1243SOL    HW215366   4.695   1.650   0.791 -0.6612  2.4068 -0.0431
 1244SOL     OW15367   2.021   1.819   3.506  0.1751  0.0100  0.2406
 1244SOL    HW115368   2.078   1.747   3.534  0.4515  0.2959  0.4202
 1244SOL    HW215369   1.955   1.832   3.574  1.0015 -1.1959  1.2835
 1245SOL     OW15370   2.106   4.629   7.533  0.0612  0.4450 -0.3144
 1245SOL    HW115371   2.131   4.719   7.512 -3.0792  1.6419  1.0733
 1245SOL    HW215372   2.096   4.641   7.628 -3.0948 -1.0506 -0.4416
 1246SOL     OW15373   3.934   2.135   0.671  0.0974  0.9206 -0.8520
 1246SOL    HW115374   3.917   2.229   0.680 -1.3787  0.5420  0.3387
 1246SOL    HW215375   4.027   2.128   0.651  0.1020 -1.0516 -0.1069
 1247SOL     OW15376   4.296   2.105   3.475 -0.0486 -0.0356 -0.4615
 1247SOL    HW115377   4.389   2.104   3.453 -0.1476  0.1017 -0.8765
 1247SOL    HW215378   4.265   2.027   3.430  0.8040 -0.6950  0.0968
 1248SOL     OW15379   0.357   4.268   2.161  0.0055 -0.2884 -0.5518
 1248SOL    HW115380   0.333   4.303   2.247 -1.8382 -1.2496 -0.6747
 1248SOL    HW215381   0.390   4.344   2.112 -0.0466  0.0551 -0.0563
 1249SOL     OW15382   1.761   4.736  14.918 -0.0682  0.4663  0.2065
 1249SOL    HW115383   1.685   0.003  14.860 -0.3612  1.4313  0.6849
 1249SOL    HW215384   1.748   0.062  14.987 -0.2788  0.3124  0.3115
 1250SOL     OW15385   4.375   2.083   4.930 -0.1577  0.2473 -0.3871
 1250SOL    HW115386   4.381   2.156   4.992 -0.3527  0.1106 -0.2076
 1250SOL    HW215387   4.281   2.070   4.943 -0.4833  4.3544  1.5453
 1251SOL     OW15388   2.241   3.568   4.564  0.2630  0.2278 -0.5063
 1251SOL    HW115389   2.325   3.592   4.525  1.7526  1.1567  3.1837
 1251SOL    HW215390   2.224   3.638   4.628 -2.1024 -0.5213 -0.2959
 1252SOL     OW15391   3.515   3.423   3.496 -0.5948 -0.3973 -0.0823
 1252SOL    HW115392   3.573   3.499   3.500 -0.1157 -0.7969  0.4163
 1252SOL    HW215393   3.580   3.353   3.490  0.4438  0.3555  2.4332
 1253SOL     OW15394   1.880   3.128   5.792  0.1341 -0.0965 -0.0369
 1253SOL    HW115395   1.840   3.208   5.827  0.4292  0.4813 -1.0127
 1253SOL    HW215396   1.920   3.171   5.717  3.2412 -2.3933  0.2957
 1254SOL     OW15397   0.436   0.437   5.807  0.2407 -0.5736 -0.1709
 1254SOL    HW115398   0.446   0.530   5.787 -1.5047 -0.1775  0.8184
 1254SOL    HW215399   0.343   0.422   5.823  0.0116 -2.2892 -3.1454
 1255SOL     OW15400   2.935   1.662  11.397 -0.0611  0.2233 -0.6995
 1255SOL    HW115401   2.912   1.708  11.316  0.4219 -1.3619 -1.7354
 1255SOL    HW215402   3.013   1.611  11.376 -0.2428  0.0137 -0.8648
 1256SOL     OW15403   2.290   1.095  13.713  0.3247  0.1165 -0.4434
 1256SOL    HW115404   2.273   1.102  13.619  0.1582 -0.2100 -0.4395
 1256SOL    HW215405   2.208   1.133  13.746  0.1980 -1.4165  0.9679
 1257SOL     OW15406   2.691   3.535   5.557 -0.7303 -0.8029 -0.4163
 1257SOL    HW115407   2.684   3.630   5.549  1.8647 -0.6739 -1.2917
 1257SOL    HW215408   2.613   3.511   5.508 -1.8065  0.1040  0.8816
 1258SOL     OW15409   4.606   1.619   3.914  0.2279 -0.0975  0.1419
 1258SOL    HW115410   4.562   1.536   3.931  0.6828 -1.0072 -3.1495
 1258SOL    HW215411   4.566   1.636   3.829  1.6726  1.2073 -0.2584
 1259SOL     OW15412   4.057   1.030   6.077 -0.3595 -0.2164 -0.3091
 1259SOL    HW115413   4.097   0.962   6.132  0.3961  0.5901  0.1409
 1259SOL    HW215414   3.964   1.017   6.096 -0.8322  1.2578 -1.6345
 1260SOL     OW15415   0.449   3.096   5.890 -0.4644 -0.0258 -0.2754
 1260SOL    HW115416   0.396   3.017   5.877 -0.6554 -0.4225  2.9360
 1260SOL    HW215417   0.380   3.161   5.876 -0.0129  0.2159 -1.4230
 1261SOL     OW15418   2.352   0.928   4.147  0.2637 -0.2920  0.0952
 1261SOL    HW115419   2.419   0.991   4.121 -0.9190  0.0489 -2.1409
 1261SOL    HW215420   2.401   0.846   4.143  0.3498 -0.1924 -0.9745
 1262SOL     OW15421   2.730   1.971   9.041  0.6219  0.5171  0.1784
 1262SOL    HW115422   2.703   2.061   9.061 -1.2004 -0.3958  1.7212
 1262SOL    HW215423   2.743   1.940   9.130  1.1541  0.0095 -0.0782
 1263SOL     OW15424   3.405   0.235  16.520 -0.3223  0.3537  0.1169
 1263SOL    HW115425   3.443   0.275  16.598  1.6009  2.3232 -1.8188
 1263SOL    HW215426   3.392   0.150  16.562 -2.3152  0.9867  0.7451
 1264SOL     OW15427   2.787   0.439   6.082  0.0801 -0.1450  0.1705
 1264SOL    HW115428   2.803   0.358   6.035  2.2459 -0.3386  1.2662
 1264SOL    HW215429   2.870   0.487   6.083 -0.0194  0.0565 -0.8867
 1265SOL     OW15430   3.097   0.073   6.043 -0.2880 -0.4558  0.2709
 1265SOL    HW115431   3.099   0.003   6.108  0.5273 -1.2022 -0.5652
 1265SOL    HW215432   3.025   0.059   5.982 -0.1146 -0.5000  0.0777
 1266SOL     OW15433   4.314   0.465   7.324 -0.0366  0.3434 -0.2336
 1266SOL    HW115434   4.220   0.480   7.331 -0.0702 -0.1379  0.3488
 1266SOL    HW215435   4.349   0.512   7.400  1.8190 -1.4649  0.0292
 1267SOL     OW15436   0.393   2.154   8.945 -0.1268 -0.2141 -0.2899
 1267SOL    HW115437   0.477   2.183   8.982 -1.5084  2.4918  0.7503
 1267SOL    HW215438   0.341   2.221   8.989 -1.0187 -1.1309  0.0494
 1268SOL     OW15439   3.836   0.034  11.400 -1.0906  0.5043  0.4168
 1268SOL    HW115440   3.886   4.691  11.392 -0.1123  1.0399  1.2498
 1268SOL    HW215441   3.783   0.009  11.324  0.8492  1.2395 -1.1545
 1269SOL     OW15442   2.883   3.492   5.295 -0.2893 -0.5243 -0.1397
 1269SOL    HW115443   2.811   3.433   5.271  0.2128 -0.6076 -1.4605
 1269SOL    HW215444   2.920   3.451   5.374 -0.4666  1.6723  1.0785
 1270SOL     OW15445   1.023   0.307   9.237 -0.2412  0.1840  0.0851
 1270SOL    HW115446   1.097   0.249   9.255 -2.4856 -2.1434  1.9662
 1270SOL    HW215447   0.970   0.256   9.176  0.3613  0.9989 -1.1034
 1271SOL     OW15448   0.825   2.676   8.649 -0.0142  0.5231 -0.1516
 1271SOL    HW115449   0.811   2.637   8.563 -0.2092 -0.7967  0.4738
 1271SOL    HW215450   0.893   2.618   8.684 -1.5947 -0.3632  1.4221
 1272SOL     OW15451   2.448   3.713   3.606  0.4369  0.3859  0.5879
 1272SOL    HW115452   2.511   3.769   3.562 -1.0603 -0.3220 -2.4598
 1272SOL    HW215453   2.411   3.656   3.538 -0.2861 -0.1867  1.4544
 1273SOL     OW15454   0.583   0.122   3.837 -0.3942 -0.5001 -0.0049
 1273SOL    HW115455   0.652   0.118   3.903 -0.8346 -0.7919  0.4332
 1273SOL    HW215456   0.514   0.094   3.897 -1.7714 -1.4231 -1.9909
 1274SOL     OW15457   3.418   4.428   7.523  0.5685  0.3448  0.2192
 1274SOL    HW115458   3.441   4.514   7.487  0.5920  0.6403  0.9414
 1274SOL    HW215459   3.461   4.441   7.607  0.0185  1.8018  0.2797
 1275SOL     OW15460   2.793   0.428  10.577 -0.0662  0.0703 -0.3131
 1275SOL    HW115461   2.709   0.463  10.548  0.8900  1.0817 -1.8524
 1275SOL    HW215462   2.833   0.513  10.592 -1.5708  0.4436  1.5755
 1276SOL     OW15463   2.335   4.365  13.469 -0.2899  0.0966  0.5417
 1276SOL    HW115464   2.418   4.389  13.427 -2.4623  0.7093 -3.3598
 1276SOL    HW215465   2.338   4.271  13.457  1.9796 -0.0316  2.0584
 1277SOL     OW15466   2.157   3.003   7.213  0.9110  0.2091 -0.0491
 1277SOL    HW115467   2.150   3.066   7.284 -1.2312 -1.9238  1.6133
 1277SOL    HW215468   2.075   2.956   7.224  1.5766 -1.3030 -1.5261
 1278SOL     OW15469   3.713   0.797   5.277  0.6698 -0.4491  0.1897
 1278SOL    HW115470   3.664   0.846   5.211 -0.1722  0.5301  1.5349
 1278SOL    HW215471   3.651   0.814   5.348  0.5773 -2.9660  0.7215
 1279SOL     OW15472   2.192   2.604   9.428  0.3801  0.5472 -0.3465
 1279SOL    HW115473   2.148   2.563   9.502  0.2841  0.2367 -0.5722
 1279SOL    HW215474   2.121   2.603   9.364 -1.1710  2.4828  1.3391
 1280SOL     OW15475   0.992   0.405   2.263  0.1125 -0.3943 -0.7130
 1280SOL    HW115476   1.016   0.343   2.332 -0.8249 -0.0557 -0.0898
 1280SOL    HW215477   1.010   0.358   2.181  0.3598 -0.9309 -0.3505
 1281SOL     OW15478   1.220   3.133  15.700 -0.4569  0.2275  0.2158
 1281SOL    HW115479   1.281   3.073  15.656  0.2662  1.5494 -0.5861
 1281SOL    HW215480   1.268   3.214  15.687  0.7439 -0.5044  0.0622
 1282SOL     OW15481   2.005   4.564   3.354  0.0169  0.0819  0.1943
 1282SOL    HW115482   2.052   4.513   3.419 -2.0178 -0.6527  1.0833
 1282SOL    HW215483   2.031   4.528   3.269 -0.8161  2.3770 -1.0460
 1283SOL     OW15484   3.534   1.959  12.771  0.1159 -0.3413 -0.6404
 1283SOL    HW115485   3.606   1.920  12.820 -0.8890 -0.7119  0.5404
 1283SOL    HW215486   3.539   1.908  12.690  0.9582 -1.8018  0.3558
 1284SOL     OW15487   1.593   1.247   4.058 -0.5127  0.3513  0.2675
 1284SOL    HW115488   1.519   1.259   4.117 -1.9242 -0.8816 -1.2495
 1284SOL    HW215489   1.665   1.239   4.121 -1.3586 -0.0408  1.1860
 1285SOL     OW15490   3.754   2.642   0.659 -0.6801 -0.4949 -0.1307
 1285SOL    HW115491   3.744   2.671   0.568  0.9777  2.1956  0.5442
 1285SOL    HW215492   3.692   2.700   0.702 -2.3861  0.0062 -3.2564
 1286SOL     OW15493   3.205   2.816   8.901  0.1527  0.0262 -0.1806
 1286SOL    HW115494   3.159   2.803   8.984 -0.3428  1.1660 -0.2834
 1286SOL    HW215495   3.172   2.900   8.871 -1.8371 -0.1694  1.4667
 1287SOL     OW15496   0.832   2.049  10.866  0.1789  0.1219  0.6994
 1287SOL    HW115497   0.925   2.027  10.866 -0.0801 -0.9708 -1.4059
 1287SOL    HW215498   0.843   2.144  10.864 -0.8116  0.1737 -1.9258
 1288SOL     OW15499   3.644   1.060   2.902 -0.2622 -0.0397  0.5047
 1288SOL    HW115500   3.693   1.141   2.884  1.1461 -1.6261 -2.7518
 1288SOL    HW215501   3.553   1.087   2.896 -0.5098 -1.0172 -0.0087
 1289SOL     OW15502   3.377   0.302   1.139  0.1404 -0.5035 -0.0248
 1289SOL    HW115503   3.348   0.223   1.184  1.2112  0.0281  1.6128
 1289SOL    HW215504   3.384   0.268   1.050  1.6062  1.1163 -0.5167
 1290SOL     OW15505   2.353   0.789   9.408  0.0236 -0.8153 -0.2035
 1290SOL    HW115506   2.315   0.811   9.493  1.7374 -1.2331  0.6816
 1290SOL    HW215507   2.288   0.722   9.387 -0.8925 -0.2585  0.8880
 1291SOL     OW15508   2.711   2.577   6.636  0.7199  0.0460  0.2487
 1291SOL    HW115509   2.670   2.664   6.635  0.2625 -0.1910 -1.5316
 1291SOL    HW215510   2.806   2.588   6.636  0.8245 -0.8873 -0.6566
 1292SOL     OW15511   2.010   4.692  16.321 -0.4512 -0.3301 -0.8235
 1292SOL    HW115512   2.055   4.617  16.281 -0.7300 -1.7593  1.5656
 1292SOL    HW215513   1.974   0.009  16.252 -0.6840  0.3286 -0.1551
 1293SOL     OW15514   0.088   0.940   7.498  0.5108  0.4014 -0.4863
 1293SOL    HW115515   0.125   0.909   7.415 -1.9093 -1.3021 -0.9320
 1293SOL    HW215516   0.154   1.006   7.519  1.0262 -0.4832  0.6412
 1294SOL     OW15517   2.257   1.939   9.659  0.7425 -0.0548 -0.1687
 1294SOL    HW115518   2.313   1.948   9.736  0.9457 -0.6378 -0.2446
 1294SOL    HW215519   2.308   1.983   9.590 -2.2120  1.9560 -1.0761
 1295SOL     OW15520   4.617   4.293  14.850  0.0975  0.0364 -0.1622
 1295SOL    HW115521   4.637   4.235  14.776 -0.8228  1.5601 -1.5873
 1295SOL    HW215522   4.688   4.356  14.839  0.4458 -0.4264 -0.5988
 1296SOL     OW15523   3.170   0.277   2.684 -0.4655 -0.1030  0.4800
 1296SOL    HW115524   3.252   0.326   2.693 -0.3102 -0.2863  0.0822
 1296SOL    HW215525   3.162   0.266   2.590  0.1476 -0.3489  0.4557
 1297SOL     OW15526   0.063   3.372   3.791 -0.2612 -0.3338 -0.1758
 1297SOL    HW115527   0.003   3.439   3.760  0.2051 -0.9287 -2.3375
 1297SOL    HW215528   0.090   3.335   3.707 -0.4348 -1.6768  0.3433
 1298SOL     OW15529   1.344   3.742   2.651 -0.6448  0.4106  0.5600
 1298SOL    HW115530   1.276   3.749   2.718 -1.0537 -0.1694  0.1984
 1298SOL    HW215531   1.290   3.685   2.597  0.3290  0.5677 -0.5744
 1299SOL     OW15532   4.118   2.235   2.613 -0.6404  0.6179 -0.4543
 1299SOL    HW115533   4.096   2.275   2.528  1.1067 -1.4258 -1.8672
 1299SOL    HW215534   4.196   2.285   2.635 -0.4237  0.4393 -0.8126
 1300SOL     OW15535   2.287   2.864   8.588 -0.8774  0.4007  0.1309
 1300SOL    HW115536   2.351   2.896   8.652 -2.1966 -0.6005  1.9472
 1300SOL    HW215537   2.268   2.778   8.625 -1.4349  0.1070 -0.8562
 1301SOL     OW15538   3.172   0.384   7.345 -0.0329  0.1507 -0.3207
 1301SOL    HW115539   3.228   0.309   7.326 -0.0803  0.2859 -0.9829
 1301SOL    HW215540   3.108   0.359   7.412  0.4850 -0.0345  0.1041
 1302SOL     OW15541   0.124   4.451   6.615  0.5815  0.1423  0.5877
 1302SOL    HW115542   0.037   4.428   6.648  0.8946  0.4016  1.5948
 1302SOL    HW215543   0.119   4.543   6.586  0.0971  0.2430  0.9912
 1303SOL     OW15544   2.672   0.770   4.262  0.2217 -0.4257  0.0441
 1303SOL    HW115545   2.632   0.786   4.347  2.3503  1.0748  0.7690
 1303SOL    HW215546   2.605   0.725   4.212  2.4464 -2.3338 -1.2359
 1304SOL     OW15547   2.170   4.370   3.157  0.4776 -0.0065 -0.2744
 1304SOL    HW115548   2.159   4.286   3.114  1.2532  0.2852 -1.0378
 1304SOL    HW215549   2.217   4.335   3.233 -0.5007  0.6389  0.6394
 1305SOL     OW15550   1.674   0.529   6.785  0.2635  0.1512  0.5411
 1305SOL    HW115551   1.585   0.560   6.802  0.6870 -0.5978  4.1167
 1305SOL    HW215552   1.711   0.533   6.873  0.5250 -0.0757  0.4436
 1306SOL     OW15553   2.004   3.028  11.967 -0.0962  0.1437 -0.2318
 1306SOL    HW115554   2.098   3.021  11.953 -0.0906 -1.1958  0.4469
 1306SOL    HW215555   1.994   3.024  12.062 -2.4494  5.2185 -0.2420
 1307SOL     OW15556   0.191   4.384   7.120  0.5465  0.2483 -0.2859
 1307SOL    HW115557   0.263   4.441   7.093  0.9667  0.8735  2.1488
 1307SOL    HW215558   0.212   4.380   7.214  1.9470 -0.6209 -0.6316
 1308SOL     OW15559   0.360   0.775  13.364  0.2415 -0.1221 -0.5787
 1308SOL    HW115560   0.400   0.786  13.450 -0.5317 -0.0378 -0.2285
 1308SOL    HW215561   0.271   0.803  13.385  0.8766  1.1914  0.3061
 1309SOL     OW15562   3.361   1.019   6.004  0.3644 -0.0236  0.3818
 1309SOL    HW115563   3.347   0.965   5.926 -0.0133 -2.1249  1.8790
 1309SOL    HW215564   3.454   1.038   5.989  0.2366  0.6146  0.4069
 1310SOL     OW15565   3.173   0.274  11.716 -0.1265  0.1412  0.5468
 1310SOL    HW115566   3.257   0.233  11.694  0.7540  2.6975 -0.8112
 1310SOL    HW215567   3.127   0.190  11.717  0.0527  0.0286 -0.5899
 1311SOL     OW15568   3.634   2.257  12.099  0.8267 -0.3061 -0.0704
 1311SOL    HW115569   3.609   2.325  12.161  2.3309 -0.4363  0.6761
 1311SOL    HW215570   3.728   2.274  12.098  0.4227  1.9817  0.9091
 1312SOL     OW15571   3.854   1.924  15.043  0.1494  0.0839  0.2113
 1312SOL    HW115572   3.869   1.830  15.028 -0.6570 -0.0809  0.4600
 1312SOL    HW215573   3.781   1.934  14.983  0.7292  1.0657 -0.3316
 1313SOL     OW15574   4.324   3.196   7.928  0.1067  0.0366  0.0235
 1313SOL    HW115575   4.322   3.263   7.860 -1.4009  0.4029  0.4305
 1313SOL    HW215576   4.411   3.162   7.907 -0.5093 -1.2013 -0.5647
 1314SOL     OW15577   0.481   1.429   3.901 -0.2445  0.4352 -0.1859
 1314SOL    HW115578   0.413   1.464   3.959  0.1689  0.1747  0.4595
 1314SOL    HW215579   0.480   1.494   3.831 -0.2773  0.4397 -0.1812
 1315SOL     OW15580   4.003   3.446  16.699  0.2376  0.7433 -0.2196
 1315SOL    HW115581   3.915   3.478  16.717  0.0935 -0.4355  1.2496
 1315SOL    HW215582   4.022   3.417  16.789 -0.4948 -2.1159 -1.0065
 1316SOL     OW15583   2.910   1.058   1.633 -0.1189 -0.0404 -0.5945
 1316SOL    HW115584   2.893   1.138   1.583 -0.7191  0.0344 -0.2666
 1316SOL    HW215585   2.827   1.051   1.679  0.8606 -0.6263  1.0842
 1317SOL     OW15586   1.580   0.885  13.894 -0.7450  0.0525  0.0321
 1317SOL    HW115587   1.492   0.898  13.927  0.1659  0.9298  2.1259
 1317SOL    HW215588   1.609   0.810  13.946 -0.7986 -0.8376 -1.2323
 1318SOL     OW15589   0.867   1.234   4.498 -0.2067 -0.0850 -0.0149
 1318SOL    HW115590   0.784   1.242   4.451  0.5228  1.3747 -1.0668
 1318SOL    HW215591   0.910   1.317   4.476  0.6742  0.1792  2.6742
 1319SOL     OW15592   4.212   0.571   8.186  0.1863 -0.3130  0.0824
 1319SOL    HW115593   4.222   0.656   8.143  1.7685 -1.0865 -1.1103
 1319SOL    HW215594   4.121   0.562   8.157  0.2684 -1.0016  0.0333
 1320SOL     OW15595   1.183   2.531   6.300  0.3266 -0.2188 -0.5418
 1320SOL    HW115596   1.090   2.514   6.285 -0.2841  2.2568  0.4722
 1320SOL    HW215597   1.225   2.445   6.288 -0.5363 -0.7139 -0.0102
 1321SOL     OW15598   1.589   0.118   2.478 -0.3532 -0.0174 -0.1517
 1321SOL    HW115599   1.647   0.192   2.494 -0.2249 -0.1823  0.1465
 1321SOL    HW215600   1.646   0.056   2.431  0.2007  2.3632 -2.6206
 1322SOL     OW15601   2.072   4.734  10.278  0.4653  0.2627 -0.2911
 1322SOL    HW115602   2.103   4.696  10.196  3.4719  2.2280 -0.0298
 1322SOL    HW215603   2.153   0.000  10.329 -0.5121  1.5607  1.1232
 1323SOL     OW15604   3.805   0.516  12.902 -0.2376 -0.1398 -0.4299
 1323SOL    HW115605   3.790   0.545  12.812  1.8339  1.2167 -0.3449
 1323SOL    HW215606   3.812   0.420  12.902 -0.8052 -0.1712 -2.8974
 1324SOL     OW15607   1.390   0.903   2.693 -0.2863 -0.3152 -0.5236
 1324SOL    HW115608   1.394   0.860   2.778 -0.3862  0.2577 -0.2303
 1324SOL    HW215609   1.321   0.853   2.650 -0.2084 -1.2173  0.4176
 1325SOL     OW15610   4.234   4.069   9.968  0.0140 -0.1056  0.0157
 1325SOL    HW115611   4.213   4.039   9.879 -1.9588 -2.3767  1.2699
 1325SOL    HW215612   4.321   4.031   9.975 -0.2911 -1.1415 -1.9331
 1326SOL     OW15613   1.578   2.793  11.771  0.2917  0.2367  0.1623
 1326SOL    HW115614   1.649   2.851  11.799 -0.8683  2.9867 -2.5624
 1326SOL    HW215615   1.524   2.792  11.850  0.0817 -0.8868  0.0081
 1327SOL     OW15616   4.491   0.210   5.598  0.0102  0.5564 -0.3751
 1327SOL    HW115617   4.413   0.160   5.573  0.1090  0.4554 -0.4808
 1327SOL    HW215618   4.474   0.207   5.692 -1.8157 -1.3492 -0.7456
 1328SOL     OW15619   4.072   0.666   5.584 -0.2474 -0.0831  0.0984
 1328SOL    HW115620   4.078   0.746   5.530  1.3475 -0.3020 -0.0744
 1328SOL    HW215621   4.122   0.603   5.531 -2.5673 -0.4557 -1.6372
 1329SOL     OW15622   3.193   1.126   8.400 -0.5714  0.1185 -0.0521
 1329SOL    HW115623   3.263   1.097   8.459  1.7197  2.6071 -1.5690
 1329SOL    HW215624   3.143   1.197   8.441  0.5330  0.8371  0.0709
 1330SOL     OW15625   2.043   1.296   7.272  0.4803 -0.3656 -0.0331
 1330SOL    HW115626   2.027   1.242   7.194  0.3438 -0.8506  0.3302
 1330SOL    HW215627   2.042   1.380   7.227 -0.8390 -0.6783 -0.5631
 1331SOL     OW15628   0.636   2.890   0.299  0.1891 -0.2726  0.1033
 1331SOL    HW115629   0.652   2.800   0.329  0.9354 -0.2514 -0.2384
 1331SOL    HW215630   0.547   2.876   0.265  0.4051 -3.0114  0.6238
 1332SOL     OW15631   2.985   3.621   6.177 -0.2964 -0.0240  0.0426
 1332SOL    HW115632   2.955   3.612   6.267  0.0607 -1.1748  0.0473
 1332SOL    HW215633   2.928   3.556   6.137 -0.3187 -0.3348  0.5799
 1333SOL     OW15634   2.384   3.260   7.343  0.1265  0.0241 -0.4803
 1333SOL    HW115635   2.373   3.174   7.302  4.2150 -1.1173  0.8804
 1333SOL    HW215636   2.380   3.237   7.436  2.5635  1.7057  0.0439
 1334SOL     OW15637   2.369   0.004   3.868 -0.2215  0.3155  0.1638
 1334SOL    HW115638   2.352   0.057   3.946  0.2666  2.0714 -0.9464
 1334SOL    HW215639   2.449   4.695   3.889  1.3233  3.1716  0.6735
 1335SOL     OW15640   4.668   2.313   0.209  0.1789 -0.0839 -0.6016
 1335SOL    HW115641   4.705   2.375   0.146 -2.4286  0.5829 -1.4763
 1335SOL    HW215642   4.684   2.228   0.169 -2.6476  0.0832 -2.1323
 1336SOL     OW15643   4.440   0.727  11.942 -0.1581  0.2946 -0.4806
 1336SOL    HW115644   4.374   0.720  11.873 -1.3864 -0.2312  0.7589
 1336SOL    HW215645   4.397   0.788  12.002  1.3358  0.6062  0.2723
 1337SOL     OW15646   3.732   4.512   3.254 -0.1389 -0.0600 -0.3291
 1337SOL    HW115647   3.805   4.574   3.247 -0.0447  0.0223  1.3758
 1337SOL    HW215648   3.770   4.435   3.213 -0.0429 -0.0196 -0.3171
 1338SOL     OW15649   4.691   2.503   0.864 -0.0664 -0.0187  0.3506
 1338SOL    HW115650   4.626   2.504   0.793  0.4510 -0.0837 -0.1261
 1338SOL    HW215651   4.676   2.413   0.891 -3.7060  0.6743  0.6671
 1339SOL     OW15652   2.944   2.994   3.222  0.1347 -0.6574 -0.1321
 1339SOL    HW115653   2.970   2.984   3.130 -1.5438  1.2420 -0.8132
 1339SOL    HW215654   2.850   2.982   3.211  0.2075 -0.2044 -1.2546
 1340SOL     OW15655   3.123   1.118   2.864 -0.2990 -0.0071 -0.0149
 1340SOL    HW115656   3.111   1.190   2.925  1.1905  0.7784 -0.6195
 1340SOL    HW215657   3.206   1.155   2.832 -0.2073 -0.6313 -0.4975
 1341SOL     OW15658   0.952   2.067   2.995 -0.0280  1.0233 -0.3271
 1341SOL    HW115659   1.046   2.064   2.974 -0.2515  4.0119 -1.6023
 1341SOL    HW215660   0.947   2.161   3.009  0.1651  0.8388  1.0420
 1342SOL     OW15661   2.551   0.972   1.511 -0.3326 -0.0556 -0.3414
 1342SOL    HW115662   2.603   0.971   1.430  0.3700  2.0414  0.0850
 1342SOL    HW215663   2.464   0.945   1.481  0.1170 -0.0432 -1.6446
 1343SOL     OW15664   1.475   0.927   4.776 -0.2375  0.1634  0.8759
 1343SOL    HW115665   1.417   0.922   4.852 -2.6944 -0.9489 -1.0751
 1343SOL    HW215666   1.428   1.000   4.735 -0.3861  0.6783  1.9467
 1344SOL     OW15667   1.638   4.654   0.304  0.0432  0.0046 -0.5408
 1344SOL    HW115668   1.634   4.704   0.385  1.1711 -3.6401  1.7324
 1344SOL    HW215669   1.729   4.626   0.297 -0.1561 -1.1370  1.5816
 1345SOL     OW15670   0.195   0.056   3.137 -0.0060  0.0015  0.3255
 1345SOL    HW115671   0.253   4.719   3.143  0.1666  0.1057 -0.0496
 1345SOL    HW215672   0.239   0.104   3.067 -0.4983  1.2686  0.8898
 1346SOL     OW15673   3.606   2.057   0.232 -0.0031  0.3420  0.3233
 1346SOL    HW115674   3.699   2.049   0.251  0.3609 -0.6632 -1.8932
 1346SOL    HW215675   3.566   1.971   0.244  0.2467  0.2099  0.2103
 1347SOL     OW15676   2.503   4.153   3.839  0.5067  0.4325 -0.2672
 1347SOL    HW115677   2.485   4.192   3.754  0.0557  0.9850  0.0810
 1347SOL    HW215678   2.533   4.230   3.887 -2.1315  0.8359  0.7217
 1348SOL     OW15679   1.479   4.280   7.346  0.8294  0.1411 -0.5302
 1348SOL    HW115680   1.385   4.278   7.364  0.8157  0.9813 -0.5309
 1348SOL    HW215681   1.502   4.194   7.311  0.9450 -0.7647  1.8274
 1349SOL     OW15682   3.897   1.861  12.047  0.1239  0.1482  0.1450
 1349SOL    HW115683   3.810   1.897  12.061  0.2812  0.6934 -0.2840
 1349SOL    HW215684   3.907   1.771  12.076  0.8027  0.7148  1.7110
 1350SOL     OW15685   4.581   1.613   5.841 -0.3611 -0.3682 -0.2866
 1350SOL    HW115686   4.500   1.620   5.891 -0.1291 -1.1444  0.2033
 1350SOL    HW215687   4.538   1.623   5.756 -1.0382  2.1273  0.3494
 1351SOL     OW15688   2.164   3.097   8.471  0.0996 -0.1156 -0.3185
 1351SOL    HW115689   2.216   3.177   8.469 -2.6121  1.6680  1.0711
 1351SOL    HW215690   2.222   3.028   8.503  0.2472  0.3626  0.4424
 1352SOL     OW15691   2.970   1.026  10.416  0.7079  0.0624 -0.0186
 1352SOL    HW115692   2.992   1.088  10.485  1.0321 -0.4082  0.3011
 1352SOL    HW215693   3.019   1.063  10.342 -0.4308  1.8130  0.1015
 1353SOL     OW15694   3.105   3.082   8.044  0.7450  0.3751  0.5927
 1353SOL    HW115695   3.185   3.074   8.096  1.7675  1.4821 -0.7996
 1353SOL    HW215696   3.058   3.152   8.089 -0.2331 -0.5641  1.0310
 1354SOL     OW15697   0.782   1.222   2.809 -0.4559 -0.6200  0.3896
 1354SOL    HW115698   0.803   1.170   2.731  0.3948 -1.0441  0.8990
 1354SOL    HW215699   0.694   1.186   2.824 -1.0295 -0.1065 -1.7767
 1355SOL     OW15700   2.195   0.355  10.828 -0.1759 -0.5254 -0.0584
 1355SOL    HW115701   2.143   0.317  10.899  0.5403 -0.8401  0.3024
 1355SOL    HW215702   2.136   0.429  10.818 -0.6495 -1.3562 -3.3479
 1356SOL     OW15703   1.424   2.259   4.389 -0.0970  0.3240  0.7664
 1356SOL    HW115704   1.444   2.314   4.465 -0.9333  3.6070 -1.4258
 1356SOL    HW215705   1.422   2.170   4.425 -1.0394 -0.2232 -0.6338
 1357SOL     OW15706   2.671   1.441   2.085 -0.0823 -0.1469 -0.0092
 1357SOL    HW115707   2.592   1.388   2.071 -1.1178  1.0194  1.3318
 1357SOL    HW215708   2.636   1.518   2.131 -1.8716 -1.1764  0.3973
 1358SOL     OW15709   0.341   1.797   5.284 -0.2864  0.1744 -0.4772
 1358SOL    HW115710   0.333   1.709   5.247 -2.7691  0.0094  0.4661
 1358SOL    HW215711   0.281   1.844   5.226  1.0464 -0.2668 -2.2158
 1359SOL     OW15712   1.540   0.315   1.617 -0.5442  0.2799  0.1357
 1359SOL    HW115713   1.613   0.273   1.573  0.4258 -1.5075  3.4145
 1359SOL    HW215714   1.588   0.355   1.690 -1.2497  0.2454  0.6182
 1360SOL     OW15715   3.018   2.419   2.327 -0.5180 -0.1803 -0.2364
 1360SOL    HW115716   3.010   2.384   2.416  1.2344 -0.8227 -0.3286
 1360SOL    HW215717   3.107   2.455   2.331 -0.8104  0.4479  0.6281
 1361SOL     OW15718   4.159   3.309   7.133 -0.3315  0.1154  0.5079
 1361SOL    HW115719   4.094   3.317   7.063  2.3796  1.2086 -1.8568
 1361SOL    HW215720   4.107   3.268   7.202 -0.9160 -1.1484 -0.6979
 1362SOL     OW15721   0.297   0.856  16.588 -0.1519  0.6114 -0.0241
 1362SOL    HW115722   0.368   0.794  16.568 -0.6352 -0.1639  0.6665
 1362SOL    HW215723   0.350   0.936  16.585  0.3556  0.3058  0.6047
 1363SOL     OW15724   2.395   0.670   8.789  0.5145 -0.3070  0.0970
 1363SOL    HW115725   2.458   0.609   8.749  0.2548  0.3531 -1.3447
 1363SOL    HW215726   2.383   0.631   8.875 -2.7708 -0.1582 -0.2833
 1364SOL     OW15727   4.529   3.965   5.361  0.0987  0.2758  0.1990
 1364SOL    HW115728   4.510   4.024   5.434  0.7383  1.6146 -0.7036
 1364SOL    HW215729   4.443   3.923   5.375 -0.1900  1.0021  0.6225
 1365SOL     OW15730   3.619   4.319   8.254 -0.2560 -0.8879  0.0115
 1365SOL    HW115731   3.691   4.335   8.315 -1.1478  4.1034 -0.2129
 1365SOL    HW215732   3.657   4.349   8.171 -0.7342  0.0027  0.1097
 1366SOL     OW15733   0.561   0.921   8.721  0.0244 -0.7129  0.2668
 1366SOL    HW115734   0.644   0.903   8.765  0.1105 -2.1603 -0.5102
 1366SOL    HW215735   0.590   0.982   8.654  2.5839  0.0829  2.1061
 1367SOL     OW15736   1.088   2.999  14.633  0.2736 -0.5542  0.4467
 1367SOL    HW115737   1.170   3.048  14.644  1.1658 -1.8571 -0.4094
 1367SOL    HW215738   1.096   2.991  14.538  0.5927 -0.4917  0.4678
 1368SOL     OW15739   4.532   2.384   1.521  0.1760  0.3959  0.0145
 1368SOL    HW115740   4.610   2.418   1.478  1.5969  0.0111  2.2734
 1368SOL    HW215741   4.459   2.414   1.466 -0.1131 -0.7670 -0.2344
 1369SOL     OW15742   2.332   1.022  14.874 -0.2043 -0.4249 -0.0530
 1369SOL    HW115743   2.409   0.990  14.921  1.3112  1.4918 -1.2416
 1369SOL    HW215744   2.336   1.111  14.908 -0.5896 -0.9723  1.4206
 1370SOL     OW15745   3.468   4.213   2.486 -0.9311  0.2584  0.6179
 1370SOL    HW115746   3.541   4.269   2.511  1.0818 -1.5825 -1.1231
 1370SOL    HW215747   3.413   4.221   2.564 -1.0176 -1.3856  0.7212
 1371SOL     OW15748   2.457   3.428  11.438  0.2051 -0.0380  0.2489
 1371SOL    HW115749   2.375   3.459  11.478  0.4827  1.1904 -0.1187
 1371SOL    HW215750   2.439   3.373  11.362  0.6386  0.4204 -0.1791
 1372SOL     OW15751   2.177   3.155  16.367  0.1962  0.3574 -0.6599
 1372SOL    HW115752   2.140   3.081  16.318  0.0556  0.5297 -0.8121
 1372SOL    HW215753   2.169   3.117  16.455  0.5134  2.0233  0.0952
 1373SOL     OW15754   2.455   3.780   5.916  0.1478 -0.5619  0.4811
 1373SOL    HW115755   2.537   3.730   5.918  1.0095  0.8484  1.6505
 1373SOL    HW215756   2.399   3.728   5.973 -1.9125  0.2754 -0.7993
 1374SOL     OW15757   2.668   4.374   5.502 -0.0724 -0.2187 -0.2568
 1374SOL    HW115758   2.626   4.361   5.587 -2.4388 -2.9007 -1.8335
 1374SOL    HW215759   2.595   4.411   5.451 -0.2859  1.0817  1.0051
 1375SOL     OW15760   4.275   4.046   3.807  0.2638  0.3818 -0.2409
 1375SOL    HW115761   4.279   3.996   3.726 -0.2708  1.1281 -0.7334
 1375SOL    HW215762   4.223   3.983   3.857 -1.3161  2.0060  0.1556
 1376SOL     OW15763   3.400   0.901   4.116 -0.3936 -0.3669 -0.0022
 1376SOL    HW115764   3.450   0.863   4.188 -0.4646 -1.8541 -0.7393
 1376SOL    HW215765   3.326   0.840   4.113 -0.3794 -0.4838  2.0446
 1377SOL     OW15766   0.355   3.172  14.450 -0.0963  0.5860 -0.2793
 1377SOL    HW115767   0.362   3.078  14.433  2.9704  0.9702 -1.0243
 1377SOL    HW215768   0.259   3.180  14.452 -0.2315 -0.9248 -0.5575
 1378SOL     OW15769   4.452   1.135   8.701 -0.6200 -0.0311  1.0009
 1378SOL    HW115770   4.524   1.190   8.733  0.7381  0.3002 -2.6437
 1378SOL    HW215771   4.468   1.059   8.757 -0.9763 -0.1910  0.8870
 1379SOL     OW15772   1.877   3.478   9.063  0.6272  0.3705  0.3289
 1379SOL    HW115773   1.840   3.412   9.003 -0.0603 -3.0023  4.4855
 1379SOL    HW215774   1.953   3.422   9.082 -1.5398 -2.1355  1.6941
 1380SOL     OW15775   1.489   4.582   9.162 -0.0447 -0.5735  0.2650
 1380SOL    HW115776   1.504   4.660   9.109  0.5626 -1.8635 -1.4849
 1380SOL    HW215777   1.395   4.579   9.175  0.2201 -0.6396  2.2886
 1381SOL     OW15778   3.517   3.735   3.081  0.0029  0.1562  0.0545
 1381SOL    HW115779   3.596   3.753   3.031 -0.8378  1.3864 -0.8499
 1381SOL    HW215780   3.464   3.695   3.012 -1.8793  1.7218  0.5996
 1382SOL     OW15781   4.482   1.957   4.091  0.3178 -0.0823  0.3752
 1382SOL    HW115782   4.541   1.883   4.104  1.6917  1.1739  1.2677
 1382SOL    HW215783   4.468   1.951   3.997  1.4051  0.1940  0.1934
 1383SOL     OW15784   1.770   1.912  12.943  0.4615 -0.0501  0.1954
 1383SOL    HW115785   1.837   1.950  12.999  1.1597 -0.8631 -0.0729
 1383SOL    HW215786   1.715   1.989  12.927  2.0781  0.9269 -0.6948
 1384SOL     OW15787   1.423   4.351   4.611  0.1896 -0.3947  0.3423
 1384SOL    HW115788   1.403   4.297   4.535  0.0437  0.5313 -0.2745
 1384SOL    HW215789   1.519   4.346   4.610  0.3374  2.2174  2.1129
 1385SOL     OW15790   1.146   3.541   4.657 -0.3945  0.0707  0.5915
 1385SOL    HW115791   1.124   3.623   4.700 -2.1719 -0.3894  0.5441
 1385SOL    HW215792   1.242   3.545   4.664 -0.4047 -1.3154  1.6005
 1386SOL     OW15793   4.371   3.839  17.460 -0.6964 -0.1948  0.2055
 1386SOL    HW115794   4.312   3.840  17.385  1.8989 -0.6547 -1.8118
 1386SOL    HW215795   4.394   3.932  17.459  1.9781 -0.8948 -1.8451
 1387SOL     OW15796   2.889   3.845   5.917  0.2241  0.4664 -0.5124
 1387SOL    HW115797   2.892   3.836   5.821 -1.1434  0.0091 -0.5209
 1387SOL    HW215798   2.917   3.934   5.937 -1.4520  1.0063 -0.5520
 1388SOL     OW15799   2.869   0.802   8.844  0.1085 -0.2368 -0.1014
 1388SOL    HW115800   2.804   0.784   8.912 -0.3481  1.1608 -0.1563
 1388SOL    HW215801   2.862   0.720   8.796  1.8999 -1.1111  1.1072
 1389SOL     OW15802   2.635   1.759   7.446 -0.4230  0.4709 -0.5340
 1389SOL    HW115803   2.596   1.778   7.531  0.2258 -1.1243  0.1175
 1389SOL    HW215804   2.721   1.730   7.476 -1.7156 -1.2973  1.4602
 1390SOL     OW15805   1.462   4.730   7.934  0.8245  0.0559  0.0619
 1390SOL    HW115806   1.527   0.023   7.871  0.9087 -0.4866 -0.1232
 1390SOL    HW215807   1.381   0.027   7.898 -0.7785 -3.3374  0.3676
 1391SOL     OW15808   2.120   0.980   4.379  0.5987 -0.8793 -0.4723
 1391SOL    HW115809   2.068   0.900   4.382 -0.7568 -0.0084 -0.6998
 1391SOL    HW215810   2.144   1.004   4.468  1.0852 -0.0433 -0.8348
 1392SOL     OW15811   2.748   1.400   3.375  0.1059  0.0559 -0.5021
 1392SOL    HW115812   2.740   1.489   3.341 -0.9995 -0.7035 -2.2075
 1392SOL    HW215813   2.658   1.384   3.405  0.0845  2.4838  0.7412
 1393SOL     OW15814   3.774   2.411   2.890 -0.1393  0.1757 -0.5377
 1393SOL    HW115815   3.843   2.464   2.850 -1.6438  3.2852  0.9928
 1393SOL    HW215816   3.794   2.331   2.841  1.1072  0.6629 -0.8355
 1394SOL     OW15817   0.128   0.965   2.960 -0.1288  0.7341 -0.2256
 1394SOL    HW115818   0.154   0.899   2.896  1.2883  0.8767  0.1866
 1394SOL    HW215819   0.034   0.959   2.943 -0.2674  0.5628  0.6469
 1395SOL     OW15820   1.243   3.535   2.847 -0.3671 -0.2081 -0.4082
 1395SOL    HW115821   1.254   3.575   2.933  3.1762 -0.1085 -0.9327
 1395SOL    HW215822   1.165   3.481   2.860 -0.4198  0.0284  0.2386
 1396SOL     OW15823   4.582   4.678   2.964  0.1715 -0.2461  0.5471
 1396SOL    HW115824   4.542   0.018   2.927  1.0640  0.9859  2.2431
 1396SOL    HW215825   4.601   4.709   3.052 -0.6946 -1.8299  1.2906
 1397SOL     OW15826   4.262   2.611   9.034  0.7341 -0.1253 -0.7334
 1397SOL    HW115827   4.327   2.653   8.977  0.6638 -0.8480 -1.3454
 1397SOL    HW215828   4.185   2.650   8.992  0.7190  0.6408  0.0153
 1398SOL     OW15829   3.092   1.993   7.403 -0.4140 -0.5697  0.3956
 1398SOL    HW115830   3.127   1.914   7.363  0.6871  0.8552 -1.4867
 1398SOL    HW215831   3.043   2.023   7.326  1.9207  1.9751 -0.1229
 1399SOL     OW15832   0.324   3.817  10.443 -0.2331 -0.1808  0.0511
 1399SOL    HW115833   0.314   3.831  10.537 -1.1513 -0.7111  0.0258
 1399SOL    HW215834   0.398   3.761  10.420 -0.4028 -0.2078 -0.4326
 1400SOL     OW15835   0.681   2.249   1.918  0.5724  0.1788 -0.2375
 1400SOL    HW115836   0.602   2.278   1.874 -0.7668 -2.4628  0.4200
 1400SOL    HW215837   0.712   2.186   1.853  0.5916 -0.7477  0.6625
 1401SOL     OW15838   3.936   2.327  15.082  0.4089 -0.3137  0.3794
 1401SOL    HW115839   3.968   2.292  15.165  0.4015 -0.2463  0.4102
 1401SOL    HW215840   3.871   2.392  15.108 -0.3666 -0.5386 -0.9717
 1402SOL     OW15841   4.429   2.104   8.251  0.7548  0.0944 -0.4095
 1402SOL    HW115842   4.400   2.037   8.313 -0.8509 -0.3424 -1.6378
 1402SOL    HW215843   4.404   2.072   8.164  1.5006  0.0908 -0.6216
 1403SOL     OW15844   4.394   3.994   0.857  0.3833  0.0632 -0.2031
 1403SOL    HW115845   4.320   3.936   0.876 -0.1598  1.6203  2.3827
 1403SOL    HW215846   4.463   3.933   0.828 -0.2375  0.0609 -1.6774
 1404SOL     OW15847   1.063   2.878   2.219 -0.0691  0.4081 -0.5558
 1404SOL    HW115848   0.971   2.902   2.219 -0.5767 -1.4494 -1.8026
 1404SOL    HW215849   1.078   2.836   2.303  0.4429 -1.9024 -1.7848
 1405SOL     OW15850   4.470   4.649  16.989 -0.2348  0.2195  0.7258
 1405SOL    HW115851   4.514   4.620  16.909  1.1595 -1.7226  2.1625
 1405SOL    HW215852   4.421   4.722  16.953 -0.3828  0.7571  2.0305
 1406SOL     OW15853   1.996   0.537  12.295 -0.4936 -0.0538  0.1507
 1406SOL    HW115854   1.993   0.464  12.357 -2.1894 -0.9958 -1.0349
 1406SOL    HW215855   2.006   0.617  12.346 -0.1706 -0.1603  0.2534
 1407SOL     OW15856   2.364   1.869   8.009  0.5290  0.8237 -0.6335
 1407SOL    HW115857   2.452   1.875   7.971  1.0458  0.3348  0.4901
 1407SOL    HW215858   2.343   1.962   8.012  0.7029  0.8780 -1.0034
 1408SOL     OW15859   3.961   4.572   5.386 -0.0325  0.6483  0.2664
 1408SOL    HW115860   4.034   4.511   5.390 -1.2711 -0.9347 -1.5721
 1408SOL    HW215861   3.977   4.628   5.462  0.2733 -0.1150  0.7654
 1409SOL     OW15862   0.404   3.890   5.718  0.2770  0.4115 -1.1661
 1409SOL    HW115863   0.359   3.853   5.641 -0.2737 -5.3647  1.9518
 1409SOL    HW215864   0.473   3.938   5.672  0.8140  2.0591  1.3880
 1410SOL     OW15865   2.053   1.309   2.261  0.0552  0.2418 -1.0042
 1410SOL    HW115866   2.007   1.381   2.303  1.3999  0.2650  0.4518
 1410SOL    HW215867   1.986   1.246   2.235 -0.9254  2.0389 -2.8178
 1411SOL     OW15868   1.615   3.952   5.001 -0.2594 -0.4227 -0.6521
 1411SOL    HW115869   1.611   4.047   5.012 -0.3721 -0.5038 -0.0194
 1411SOL    HW215870   1.610   3.958   4.905 -0.0958 -1.2602 -0.7146
 1412SOL     OW15871   2.741   0.765   1.733  0.0316  0.5209  0.1814
 1412SOL    HW115872   2.789   0.752   1.651 -0.5858 -2.4483  0.2626
 1412SOL    HW215873   2.664   0.709   1.726 -0.4314  1.3607 -1.5666
 1413SOL     OW15874   0.198   2.097   6.221 -0.1091  0.3881  0.1300
 1413SOL    HW115875   0.283   2.128   6.254 -0.0822  0.4411  0.0095
 1413SOL    HW215876   0.216   2.004   6.205  0.0755  0.3992  0.2740
 1414SOL     OW15877   0.038   4.421   4.798 -0.7052 -0.2923 -0.1707
 1414SOL    HW115878   0.028   4.331   4.829 -0.9526  0.5982  2.3001
 1414SOL    HW215879   4.717   4.470   4.854 -0.0170  0.9570 -0.5159
 1415SOL     OW15880   0.575   3.834   9.431  0.2786  0.0372 -0.2892
 1415SOL    HW115881   0.643   3.859   9.493 -0.6813  1.1026  0.3569
 1415SOL    HW215882   0.630   3.836   9.353 -1.6281  1.0584 -1.6004
 1416SOL     OW15883   0.294   2.578   7.496  0.2036  0.9487  0.4819
 1416SOL    HW115884   0.223   2.598   7.435  1.3317 -1.8945 -1.7467
 1416SOL    HW215885   0.365   2.549   7.440  1.1265  2.5649  0.7999
 1417SOL     OW15886   1.478   1.481   3.660 -0.1829 -0.5258 -0.0623
 1417SOL    HW115887   1.566   1.447   3.677  1.3329  0.2746 -6.1258
 1417SOL    HW215888   1.425   1.405   3.640  1.6061 -1.4578 -1.2626
 1418SOL     OW15889   0.830   3.378   3.612  0.1399  0.2409 -0.5557
 1418SOL    HW115890   0.749   3.393   3.562  0.3212 -0.3255 -1.0199
 1418SOL    HW215891   0.894   3.440   3.577  0.3152  1.2580  1.5716
 1419SOL     OW15892   1.694   4.006  15.293 -0.6643 -0.1461 -0.4226
 1419SOL    HW115893   1.650   3.992  15.378  2.8586  1.1648  1.6205
 1419SOL    HW215894   1.737   3.921  15.277  2.4245  2.3749 -5.2340
 1420SOL     OW15895   1.003   4.580   8.971  0.6641 -0.5589 -0.3179
 1420SOL    HW115896   1.060   4.534   8.910 -0.1634  0.0682 -1.5632
 1420SOL    HW215897   0.948   4.510   9.008  3.0189 -0.6937  2.9248
 1421SOL     OW15898   2.876   2.592   6.329  0.0752 -0.0717 -0.0709
 1421SOL    HW115899   2.816   2.643   6.383  1.5370 -0.3772  1.8509
 1421SOL    HW215900   2.850   2.624   6.242  2.0209  0.3981 -0.4813
 1422SOL     OW15901   0.831   3.618   2.413  0.1707  0.3180  0.1438
 1422SOL    HW115902   0.757   3.574   2.454  0.3685 -1.0736 -0.9750
 1422SOL    HW215903   0.810   3.623   2.320  1.2119 -0.5079 -0.1394
 1423SOL     OW15904   1.489   3.919   6.575 -0.1489  0.2415 -0.3374
 1423SOL    HW115905   1.443   3.889   6.497 -0.6420  1.8491 -0.6591
 1423SOL    HW215906   1.554   3.848   6.584  0.7103  0.6859 -2.9663
 1424SOL     OW15907   1.126   1.323   8.380  0.0931  0.0243 -0.1524
 1424SOL    HW115908   1.067   1.372   8.437 -1.0779 -1.8368  0.2078
 1424SOL    HW215909   1.201   1.290   8.430 -0.8195 -1.9322 -0.0884
 1425SOL     OW15910   3.060   3.775   4.283 -0.4627  0.1554 -0.7071
 1425SOL    HW115911   3.057   3.725   4.365  1.8096  1.8385  0.3914
 1425SOL    HW215912   2.980   3.740   4.244 -0.9535 -0.7096  1.0678
 1426SOL     OW15913   2.897   3.283   4.188  0.3908 -0.3217 -0.0346
 1426SOL    HW115914   2.844   3.314   4.114  1.6588  0.6521 -0.5385
 1426SOL    HW215915   2.937   3.212   4.139 -2.9488 -0.4145 -2.6325
 1427SOL     OW15916   4.555   0.146   1.405  0.3075  0.1893 -0.1230
 1427SOL    HW115917   4.481   0.188   1.361 -0.0638  0.3928  0.6939
 1427SOL    HW215918   4.613   0.222   1.415 -1.0866  1.2012  0.3436
 1428SOL     OW15919   3.470   1.932  12.072  0.4294  0.0184  0.6856
 1428SOL    HW115920   3.474   2.008  12.130  0.7040 -0.1854  0.9353
 1428SOL    HW215921   3.440   1.867  12.136 -1.7063 -0.6482 -1.0277
 1429SOL     OW15922   4.581   1.700   6.540 -0.1045  0.0731 -0.1559
 1429SOL    HW115923   4.519   1.711   6.468 -0.8839 -2.3951  0.1200
 1429SOL    HW215924   4.649   1.762   6.514  0.6967 -0.7014  0.0808
 1430SOL     OW15925   1.615   0.916  12.870  0.1105 -0.0595 -0.0460
 1430SOL    HW115926   1.659   0.962  12.798  0.7893  1.0408  1.0845
 1430SOL    HW215927   1.525   0.927  12.839  0.5392  0.8712 -0.9455
 1431SOL     OW15928   0.084   4.566   6.067 -0.0507  0.2038  0.0023
 1431SOL    HW115929   0.071   4.505   5.995 -0.7699 -0.5276  0.7468
 1431SOL    HW215930   0.112   4.648   6.026  0.4976  1.4376  2.7753
 1432SOL     OW15931   0.482   0.077  15.571  0.0578  0.2408  0.1421
 1432SOL    HW115932   0.511   0.128  15.647  3.2062  0.1415 -1.0337
 1432SOL    HW215933   0.532   4.735  15.587 -0.5343 -0.4304 -1.4130
 1433SOL     OW15934   2.056   2.712   7.045 -0.5820  0.0491 -0.0807
 1433SOL    HW115935   2.030   2.742   6.958 -1.9648 -3.3788 -0.8343
 1433SOL    HW215936   2.016   2.784   7.093 -0.7236 -0.3673  0.4224
 1434SOL     OW15937   1.235   2.419   0.390 -0.1577  0.1970 -0.2292
 1434SOL    HW115938   1.288   2.480   0.442  0.5593  0.6697 -1.5192
 1434SOL    HW215939   1.238   2.462   0.305 -0.4110  1.5503  0.4482
 1435SOL     OW15940   1.919   1.380   6.222  0.0086 -0.1730  0.1750
 1435SOL    HW115941   1.989   1.318   6.202 -2.3891 -2.3780 -1.3290
 1435SOL    HW215942   1.843   1.322   6.218  1.0504 -1.4112 -1.2087
 1436SOL     OW15943   1.174   2.623  13.249 -0.2046 -0.3090 -0.1980
 1436SOL    HW115944   1.233   2.582  13.186  1.0427 -0.6005  1.1480
 1436SOL    HW215945   1.188   2.717  13.242 -0.2577 -0.2262  0.7708
 1437SOL     OW15946   1.796   1.326   8.305  0.3329  0.2157 -0.3245
 1437SOL    HW115947   1.738   1.391   8.346 -0.2932 -0.0478 -0.7931
 1437SOL    HW215948   1.763   1.315   8.216  0.2347  2.3314 -0.5497
 1438SOL     OW15949   0.269   2.000  13.819 -0.0394 -0.4651 -0.4245
 1438SOL    HW115950   0.173   1.992  13.815 -0.3646  3.6117 -0.8495
 1438SOL    HW215951   0.292   2.093  13.815  1.9161 -0.9691 -0.8371
 1439SOL     OW15952   3.919   2.230  11.973 -0.2680 -0.5956 -0.1893
 1439SOL    HW115953   3.965   2.279  12.041  0.2493  2.3510 -2.6422
 1439SOL    HW215954   3.972   2.151  11.975  0.2709 -0.2645 -1.3515
 1440SOL     OW15955   3.588   4.633   3.436 -0.1939  0.5835 -0.3278
 1440SOL    HW115956   3.640   4.640   3.516 -0.9332 -0.1276  0.2174
 1440SOL    HW215957   3.638   4.582   3.372 -2.1257 -1.4983 -0.1698
 1441SOL     OW15958   1.184   4.106  15.352 -0.3134  0.0777 -0.4875
 1441SOL    HW115959   1.206   4.170  15.284  0.0134 -0.7256 -1.1244
 1441SOL    HW215960   1.098   4.072  15.329 -0.4442 -0.7112  1.1779
 1442SOL     OW15961   1.291   0.615   2.067  0.1812  0.5801  0.8932
 1442SOL    HW115962   1.213   0.638   2.117  1.3489  1.8573  2.1394
 1442SOL    HW215963   1.362   0.659   2.114  0.6041 -0.1994  0.9933
 1443SOL     OW15964   1.354   0.817   2.964 -0.0372 -0.1846 -0.1046
 1443SOL    HW115965   1.419   0.828   3.033  0.7860 -0.6789 -0.8058
 1443SOL    HW215966   1.283   0.875   2.990  0.5906  0.0137  1.1789
 1444SOL     OW15967   1.384   2.660  16.022 -0.4306  0.6706 -0.5754
 1444SOL    HW115968   1.366   2.752  16.000 -0.4975  0.3265 -1.9497
 1444SOL    HW215969   1.300   2.627  15.991 -0.8585  0.6939  0.5598
 1445SOL     OW15970   1.943   3.425   8.677  0.4589  0.3261 -0.1369
 1445SOL    HW115971   1.987   3.340   8.669 -0.7224 -0.1410 -1.7365
 1445SOL    HW215972   1.885   3.402   8.750  2.2834 -0.9990  0.8783
 1446SOL     OW15973   1.122   2.222   7.062 -0.3989 -0.1461  0.4107
 1446SOL    HW115974   1.203   2.173   7.046 -0.3354  0.5969 -1.5052
 1446SOL    HW215975   1.094   2.178   7.142  0.0189 -1.6333 -0.2450
 1447SOL     OW15976   3.383   1.987   3.729  0.1366 -0.4162  0.1797
 1447SOL    HW115977   3.351   1.948   3.647  0.8004  2.2041 -1.3354
 1447SOL    HW215978   3.448   2.046   3.691  0.9855 -1.2577  0.2997
 1448SOL     OW15979   0.044   1.936   7.451 -0.1978  0.6760  0.7476
 1448SOL    HW115980   0.089   1.954   7.368  0.2797  0.3698  0.9390
 1448SOL    HW215981   0.120   1.902   7.499 -0.2602  3.0416  2.5110
 1449SOL     OW15982   4.496   2.418   5.894  0.0036 -0.6233  0.1542
 1449SOL    HW115983   4.572   2.474   5.886 -0.3744  0.1224  1.8455
 1449SOL    HW215984   4.454   2.421   5.808  0.4592  1.7900  0.0387
 1450SOL     OW15985   3.510   1.851   8.211  0.3643  0.0656  0.2622
 1450SOL    HW115986   3.440   1.810   8.160  0.0698 -0.2997  0.9531
 1450SOL    HW215987   3.471   1.939   8.210  4.9747  2.0774 -0.0080
 1451SOL     OW15988   0.809   3.906   7.355  0.2381  0.4192 -0.2628
 1451SOL    HW115989   0.848   3.988   7.326  0.5005 -0.1485 -1.4937
 1451SOL    HW215990   0.816   3.914   7.450  2.4327  1.1560 -0.5020
 1452SOL     OW15991   2.865   2.634   4.282  0.4398  0.2633  0.2191
 1452SOL    HW115992   2.873   2.587   4.199 -0.1366  0.3961  0.0820
 1452SOL    HW215993   2.944   2.612   4.330  0.1598  0.5536  0.8152
 1453SOL     OW15994   0.473   0.769  14.812 -0.9118  0.4263  0.4430
 1453SOL    HW115995   0.535   0.787  14.742 -0.1291  1.7134  1.4738
 1453SOL    HW215996   0.507   0.819  14.886  0.1906 -1.6842  1.3664
 1454SOL     OW15997   0.519   1.899   3.401 -0.0582 -0.3273  0.1111
 1454SOL    HW115998   0.508   1.980   3.351  0.2772  0.3520  1.1250
 1454SOL    HW215999   0.440   1.853   3.375 -2.3052  2.2649  2.2996
 1455SOL     OW16000   3.196   4.018   3.827 -0.1113  0.0507  0.0638
 1455SOL    HW116001   3.265   3.953   3.811 -0.1433 -0.6399  2.6884
 1455SOL    HW216002   3.240   4.091   3.784 -1.0535  0.6341  0.1121
 1456SOL     OW16003   2.556   4.025   5.906 -0.9050 -0.1743 -0.8274
 1456SOL    HW116004   2.480   4.073   5.939 -0.3843 -0.2929  0.5124
 1456SOL    HW216005   2.507   3.947   5.879  0.5334 -1.6228  0.7385
 1457SOL     OW16006   0.649   0.966   3.900 -0.1076 -0.0663  0.4630
 1457SOL    HW116007   0.679   0.883   3.937  1.7609  0.2239 -0.4018
 1457SOL    HW216008   0.721   0.989   3.842 -0.7092 -0.4784 -0.4420
 1458SOL     OW16009   1.171   2.701   5.711  0.2342 -0.5377 -0.2012
 1458SOL    HW116010   1.165   2.745   5.796 -0.1501 -1.2756  0.1527
 1458SOL    HW216011   1.141   2.766   5.648  1.9968  0.1681 -0.3163
 1459SOL     OW16012   2.396   4.200   1.696 -0.0188 -0.0842  0.8194
 1459SOL    HW116013   2.315   4.148   1.694  0.1414 -0.3159  0.3432
 1459SOL    HW216014   2.386   4.282   1.649 -0.9927 -0.3331  0.5912
 1460SOL     OW16015   0.565   3.958   7.905  0.6975 -0.4809  0.5928
 1460SOL    HW116016   0.586   4.023   7.838 -1.5417 -1.3844 -0.9948
 1460SOL    HW216017   0.643   3.903   7.911  0.8462 -0.4666 -1.2281
 1461SOL     OW16018   4.041   0.442   7.119  0.5304 -0.5006  0.0537
 1461SOL    HW116019   3.992   0.364   7.146  3.1605 -1.7721  1.1292
 1461SOL    HW216020   4.095   0.409   7.048  0.6442 -2.2665  0.9667
 1462SOL     OW16021   1.805   0.895   9.342  0.2086  0.3950  0.2290
 1462SOL    HW116022   1.891   0.938   9.338 -0.2254  1.1705 -1.0072
 1462SOL    HW216023   1.826   0.826   9.404 -1.5137 -0.2589  0.0758
 1463SOL     OW16024   0.561   0.527  12.936  0.0902  0.1861  0.2802
 1463SOL    HW116025   0.524   0.445  12.970 -1.3506  1.1141  0.9568
 1463SOL    HW216026   0.594   0.581  13.008  1.6114  2.0266 -1.8308
 1464SOL     OW16027   0.520   2.193   4.178  0.1864 -0.0534  0.1047
 1464SOL    HW116028   0.505   2.214   4.270  0.4599  0.8179 -0.0523
 1464SOL    HW216029   0.602   2.143   4.189  1.3229  1.4658 -1.4480
 1465SOL     OW16030   3.615   3.283   5.903  0.1529  0.1970  0.2136
 1465SOL    HW116031   3.699   3.239   5.896  0.4283  0.9661 -1.2991
 1465SOL    HW216032   3.564   3.206   5.931 -3.5446  1.3263 -3.4156
 1466SOL     OW16033   4.619   4.100  10.471  0.6561  0.1522  0.2522
 1466SOL    HW116034   4.585   4.130  10.555  2.0718 -0.8882  1.1937
 1466SOL    HW216035   4.565   4.149  10.410 -0.1708 -1.0149  0.0363
 1467SOL     OW16036   0.225   4.496   2.830  0.5430 -0.0117  0.2269
 1467SOL    HW116037   0.158   4.469   2.893  1.6387 -2.0532  0.5017
 1467SOL    HW216038   0.302   4.487   2.886  0.3854  2.8416  0.9179
 1468SOL     OW16039   0.512   3.062   4.438  0.0649  0.1782 -0.3680
 1468SOL    HW116040   0.512   3.131   4.372  0.7088  0.3833 -0.1545
 1468SOL    HW216041   0.583   3.100   4.490  0.2333  1.2209 -1.3683
 1469SOL     OW16042   2.748   1.598   8.152  0.5802  0.1874  0.1065
 1469SOL    HW116043   2.697   1.557   8.083  0.9790 -2.7187  1.5152
 1469SOL    HW216044   2.721   1.548   8.230 -0.8027  2.1211  0.8569
 1470SOL     OW16045   1.709   0.160  15.174  0.4413  0.1049 -0.0997
 1470SOL    HW116046   1.747   0.211  15.245 -0.1804 -1.4128  1.3337
 1470SOL    HW216047   1.758   0.078  15.172 -1.7323 -1.2258  0.9634
 1471SOL     OW16048   2.837   2.011   6.961  0.1356 -0.2369 -0.3083
 1471SOL    HW116049   2.797   2.018   7.048  1.7217 -3.8824  0.6942
 1471SOL    HW216050   2.914   2.066   6.976  0.2052 -0.5412  0.4235
 1472SOL     OW16051   0.875   2.673   7.497 -0.0322  0.2255  0.3893
 1472SOL    HW116052   0.821   2.605   7.458  1.7356 -0.8575 -0.1840
 1472SOL    HW216053   0.809   2.742   7.503  0.2626  0.7052 -2.0644
 1473SOL     OW16054   4.155   1.588   8.437 -0.7178 -0.1438  0.3184
 1473SOL    HW116055   4.143   1.679   8.464  3.8675  0.6537 -0.2983
 1473SOL    HW216056   4.196   1.553   8.516 -0.8076  1.4683  1.0787
 1474SOL     OW16057   3.502   4.120   6.262 -0.1206 -1.0896 -0.0940
 1474SOL    HW116058   3.558   4.122   6.340 -0.4798  0.9133  0.1190
 1474SOL    HW216059   3.549   4.180   6.204 -1.8172  0.8649  0.5381
 1475SOL     OW16060   3.271   3.275   6.269 -0.2539 -0.1324  0.1716
 1475SOL    HW116061   3.276   3.362   6.230  1.3686 -0.8398 -1.2014
 1475SOL    HW216062   3.181   3.259   6.239  0.2798  0.6952 -1.8913
 1476SOL     OW16063   1.514   0.203   8.641 -0.0033 -0.0905 -0.3435
 1476SOL    HW116064   1.544   0.190   8.551 -1.3532  1.3875 -1.0183
 1476SOL    HW216065   1.584   0.261   8.671 -3.1206  1.7120  3.3813
 1477SOL     OW16066   3.524   2.772  15.283  0.5915  1.0047 -0.2703
 1477SOL    HW116067   3.552   2.775  15.192 -1.8515 -0.3492 -1.0568
 1477SOL    HW216068   3.445   2.719  15.275  1.2559 -0.2719  1.5636
 1478SOL     OW16069   4.116   1.772   0.761 -0.0543 -0.4698 -0.9427
 1478SOL    HW116070   4.184   1.706   0.772 -1.7772 -2.2165 -0.5862
 1478SOL    HW216071   4.041   1.720   0.789  0.1731  0.2266  0.9536
 1479SOL     OW16072   1.566   1.983  12.694 -0.0093  0.1738 -0.1323
 1479SOL    HW116073   1.531   2.030  12.771 -0.1993 -0.4837  0.1801
 1479SOL    HW216074   1.575   1.893  12.725 -0.3999  0.3590  0.5279
 1480SOL     OW16075   3.780   0.335   9.915  0.5165 -0.5894  0.7924
 1480SOL    HW116076   3.785   0.240   9.917  0.5716 -0.6481 -2.4985
 1480SOL    HW216077   3.863   0.357   9.957 -0.3353  0.6582  1.8454
 1481SOL     OW16078   3.458   0.293   1.551  0.0045  0.0922 -0.2326
 1481SOL    HW116079   3.500   0.215   1.513  0.5617  0.7621 -1.0121
 1481SOL    HW216080   3.376   0.256   1.584 -0.1330  0.1596 -0.4967
 1482SOL     OW16081   2.945   1.184   5.123 -0.2212 -0.6403 -0.4229
 1482SOL    HW116082   3.024   1.214   5.169 -0.0119 -2.9243  0.6593
 1482SOL    HW216083   2.877   1.204   5.187  0.6807 -0.0868  0.3513
 1483SOL     OW16084   3.811   3.819   8.645 -0.6503 -0.0457 -0.9847
 1483SOL    HW116085   3.725   3.791   8.674  1.0527 -2.0610  2.1452
 1483SOL    HW216086   3.811   3.825   8.550  1.9075 -3.5177 -1.2090
 1484SOL     OW16087   2.129   1.921   6.429 -0.3888 -0.7422 -0.1053
 1484SOL    HW116088   2.103   1.843   6.477 -0.3004  0.2080  1.4807
 1484SOL    HW216089   2.097   1.909   6.339 -2.4931 -1.5321  0.7478
 1485SOL     OW16090   2.131   4.090   1.732 -0.2182 -0.3705  0.0368
 1485SOL    HW116091   2.039   4.104   1.710 -0.5756  0.5555  2.1172
 1485SOL    HW216092   2.127   4.014   1.790 -2.2579  1.2123  1.9804
 1486SOL     OW16093   3.556   0.810  11.265  0.5276 -0.4136 -0.3377
 1486SOL    HW116094   3.609   0.835  11.341 -0.8947 -0.7384  0.7475
 1486SOL    HW216095   3.619   0.836  11.197  1.4899  2.3529  1.6142
 1487SOL     OW16096   3.814   4.680   2.090 -0.1241 -0.0835 -0.0354
 1487SOL    HW116097   3.764   4.640   2.018 -0.6782  2.1473 -0.8911
 1487SOL    HW216098   3.781   0.031   2.094  0.9463  0.3226 -0.3282
 1488SOL     OW16099   1.007   0.022   7.869 -0.3652 -0.6096 -0.0335
 1488SOL    HW116100   0.915   0.047   7.874 -0.2072  0.0021 -0.2778
 1488SOL    HW216101   1.000   4.718   7.784 -1.8644 -1.0642  0.3203
 1489SOL     OW16102   1.716   0.526   6.511  0.1501 -0.3886  0.6655
 1489SOL    HW116103   1.727   0.548   6.604 -0.6380  0.0948  0.6378
 1489SOL    HW216104   1.745   0.435   6.523  0.8072 -0.3588 -0.6535
 1490SOL     OW16105   2.766   0.024   4.239  0.2735 -0.3641 -0.6950
 1490SOL    HW116106   2.718   0.107   4.232  0.3356 -0.2362  0.3570
 1490SOL    HW216107   2.858   0.051   4.232  0.0328  0.6062 -0.2275
 1491SOL     OW16108   4.016   0.987  14.187  0.0097 -0.2873 -0.3803
 1491SOL    HW116109   3.967   1.026  14.115  1.3730  0.4612 -0.8952
 1491SOL    HW216110   3.949   0.969  14.253 -2.4986  0.0357 -2.8834
 1492SOL     OW16111   4.231   3.472   6.055  0.0441 -0.3247  0.4122
 1492SOL    HW116112   4.307   3.461   6.113  0.0011 -1.2881  0.2839
 1492SOL    HW216113   4.187   3.388   6.064 -1.2300  0.3112  0.1271
 1493SOL     OW16114   3.691   2.413   7.484 -0.6128 -0.1112  0.3173
 1493SOL    HW116115   3.660   2.341   7.538  0.1762  1.4694  2.8734
 1493SOL    HW216116   3.694   2.484   7.548  1.2613  1.2121 -1.2571
 1494SOL     OW16117   1.120   3.494   3.274 -0.1461 -0.0346 -0.6677
 1494SOL    HW116118   1.147   3.507   3.365 -0.1599 -0.7330 -0.5677
 1494SOL    HW216119   1.170   3.562   3.229 -0.5579 -0.4608 -1.7773
 1495SOL     OW16120   4.591   2.711   1.584  0.3398 -0.4111  0.0767
 1495SOL    HW116121   4.594   2.753   1.498  0.7108 -0.7743 -0.0842
 1495SOL    HW216122   4.669   2.659   1.568  1.3162  0.9656  0.3063
 1496SOL     OW16123   1.593   2.044   9.334 -0.5380 -0.1688  0.1379
 1496SOL    HW116124   1.552   2.044   9.420  1.8487 -2.0472  1.2857
 1496SOL    HW216125   1.571   2.133   9.306  0.3364  0.4892  1.5033
 1497SOL     OW16126   4.443   0.854   1.800  0.1604  0.3208 -0.2800
 1497SOL    HW116127   4.459   0.858   1.706 -1.3129 -0.1062 -0.5535
 1497SOL    HW216128   4.527   0.815   1.825  0.0392  0.3686  0.2142
 1498SOL     OW16129   2.267   3.836   2.300  0.2894  0.0074  0.0074
 1498SOL    HW116130   2.309   3.919   2.277 -0.5038  0.1151 -1.0145
 1498SOL    HW216131   2.257   3.801   2.212 -0.4463 -0.9123  0.4632
 1499SOL     OW16132   0.275   3.491   9.167  0.0897 -0.2292  0.5672
 1499SOL    HW116133   0.330   3.569   9.162 -1.6708  0.9987  0.3567
 1499SOL    HW216134   0.345   3.428   9.183 -0.1638 -0.6807 -0.0931
 1500SOL     OW16135   0.431   2.208   5.259  0.2379 -0.2514 -0.2207
 1500SOL    HW116136   0.413   2.299   5.284 -0.6341 -0.8883  1.4487
 1500SOL    HW216137   0.378   2.209   5.180 -0.5554 -0.6231  0.3076
 1501SOL     OW16138   2.295   0.250   1.429 -0.3834 -0.2980 -1.1240
 1501SOL    HW116139   2.273   0.186   1.497  1.9555  1.7426  1.5500
 1501SOL    HW216140   2.217   0.251   1.374  0.2814 -2.5169 -2.0871
 1502SOL     OW16141   3.119   0.294   7.622  0.1357  0.3503 -0.0457
 1502SOL    HW116142   3.096   0.286   7.714  1.0245 -0.9501  0.0696
 1502SOL    HW216143   3.194   0.235   7.617  0.0759  0.2567  0.1476
 1503SOL     OW16144   3.285   0.024   2.853 -0.3538 -0.0802  0.4602
 1503SOL    HW116145   3.286   0.119   2.859  1.8678  0.0352 -1.8683
 1503SOL    HW216146   3.370   0.006   2.892 -0.5118 -0.2279  0.7387
 1504SOL     OW16147   4.382   0.879   3.662  0.4432  0.0258 -0.1206
 1504SOL    HW116148   4.315   0.825   3.620 -0.9014  1.5034  0.0872
 1504SOL    HW216149   4.463   0.839   3.632 -0.2256 -1.7000  0.3470
 1505SOL     OW16150   4.109   2.154   4.967  0.0081  0.3788  0.0724
 1505SOL    HW116151   4.105   2.211   5.044  0.8926  0.7357 -0.1491
 1505SOL    HW216152   4.130   2.214   4.895 -0.3791 -1.8329 -1.9119
 1506SOL     OW16153   0.469   1.388   7.288  0.4396 -0.4861 -0.6518
 1506SOL    HW116154   0.388   1.371   7.239 -0.9126  2.7155  0.4651
 1506SOL    HW216155   0.440   1.467   7.333  1.6049 -1.5219  1.8895
 1507SOL     OW16156   1.988   2.900   5.904  0.0579 -0.4095  0.1257
 1507SOL    HW116157   1.945   2.974   5.863 -0.8157 -1.1329 -0.2529
 1507SOL    HW216158   2.054   2.954   5.948 -1.6392  0.6740  1.3336
 1508SOL     OW16159   1.660   3.875   7.056 -0.8270 -0.1358  0.3437
 1508SOL    HW116160   1.680   3.910   6.969 -1.9112 -1.4701 -0.4477
 1508SOL    HW216161   1.748   3.856   7.088 -0.9988 -3.8085 -1.3208
 1509SOL     OW16162   1.901   1.337   6.740  0.4001  0.3815  0.3800
 1509SOL    HW116163   1.946   1.285   6.673  1.7785 -1.5363  2.7630
 1509SOL    HW216164   1.978   1.353   6.794 -1.0427 -0.0823  2.5713
 1510SOL     OW16165   1.711   1.821   5.367  0.1283 -0.5918 -0.4181
 1510SOL    HW116166   1.701   1.907   5.327 -0.6839 -0.3704  0.2599
 1510SOL    HW216167   1.791   1.789   5.326  0.7297  0.8604 -0.3466
 1511SOL     OW16168   0.113   2.104   1.872 -0.3477 -0.0344  0.2012
 1511SOL    HW116169   0.072   2.032   1.920  1.1331  0.8513  2.7717
 1511SOL    HW216170   0.197   2.100   1.918 -1.4229 -1.5275  2.0492
 1512SOL     OW16171   0.498   3.421   2.829 -0.6307 -0.0155 -0.0721
 1512SOL    HW116172   0.541   3.343   2.865  1.4690  0.1423 -2.1695
 1512SOL    HW216173   0.491   3.393   2.737 -1.3433 -1.3968  0.4013
 1513SOL     OW16174   1.943   2.930   4.818  0.0410  0.5513  0.1093
 1513SOL    HW116175   1.919   2.885   4.899 -0.1782 -0.4989 -0.5304
 1513SOL    HW216176   1.870   2.992   4.814 -0.2696  0.0539 -2.0158
 1514SOL     OW16177   4.009   3.594   5.806 -0.2968 -0.0927  0.0752
 1514SOL    HW116178   4.022   3.514   5.857 -0.4831 -0.2312 -0.0916
 1514SOL    HW216179   4.004   3.651   5.882  1.8077 -2.0607  1.6887
 1515SOL     OW16180   2.180   3.525  11.478 -0.1945  0.3887 -0.2022
 1515SOL    HW116181   2.108   3.586  11.458  0.9421  2.1369  1.0509
 1515SOL    HW216182   2.180   3.544  11.571  0.2868 -0.1179 -0.1021
 1516SOL     OW16183   0.709   3.228   4.986  0.0980  0.3060  0.2654
 1516SOL    HW116184   0.664   3.214   5.069  0.0792  0.6906  0.3216
 1516SOL    HW216185   0.736   3.138   4.967  1.3597  1.0200 -1.3369
 1517SOL     OW16186   0.828   3.926   9.548  0.3154  0.2431 -0.2844
 1517SOL    HW116187   0.810   3.963   9.635 -1.5616 -1.9384  0.2779
 1517SOL    HW216188   0.889   3.855   9.567 -1.4620 -0.6514  2.1347
 1518SOL     OW16189   1.500   4.386  16.740 -0.2663  0.8521 -0.9247
 1518SOL    HW116190   1.514   4.323  16.811 -1.1769  0.1386 -1.3706
 1518SOL    HW216191   1.477   4.329  16.666 -1.0212 -1.2232  0.8733
 1519SOL     OW16192   2.911   1.143   7.412  0.0191  0.0646 -0.2196
 1519SOL    HW116193   3.004   1.134   7.391 -0.1811 -0.7704 -0.7497
 1519SOL    HW216194   2.906   1.238   7.421  1.2567  0.3879 -3.0085
 1520SOL     OW16195   3.329   3.644   5.278 -0.4624  0.1101 -0.3720
 1520SOL    HW116196   3.361   3.707   5.213 -3.0870 -1.0011 -2.7672
 1520SOL    HW216197   3.414   3.615   5.312  1.1590  1.6598 -3.0971
 1521SOL     OW16198   0.510   4.567  13.357  0.2067  0.2058 -0.0636
 1521SOL    HW116199   0.485   4.659  13.346 -0.0830  0.2777  1.2015
 1521SOL    HW216200   0.436   4.531  13.309 -0.0275 -0.4285  0.7612
 1522SOL     OW16201   1.020   3.845   6.029 -0.3445 -1.2185  0.0362
 1522SOL    HW116202   1.051   3.862   6.118  1.7884  0.0325 -0.9736
 1522SOL    HW216203   1.028   3.933   5.993  0.3026 -1.7893 -1.2019
 1523SOL     OW16204   1.319   2.912  16.596  0.2343  0.1550  0.3876
 1523SOL    HW116205   1.281   3.000  16.595  2.1903  1.0112  1.0525
 1523SOL    HW216206   1.347   2.914  16.505  0.8864  1.5661  0.6134
 1524SOL     OW16207   4.241   2.821  12.685 -0.1001  0.3402 -0.0333
 1524SOL    HW116208   4.260   2.753  12.621  1.5866  1.4903 -0.7637
 1524SOL    HW216209   4.229   2.764  12.761  0.6860  0.8844  0.5028
 1525SOL     OW16210   2.847   4.151   3.949 -0.9153 -0.4533  0.0348
 1525SOL    HW116211   2.819   4.127   4.038  1.1797 -0.4224  0.6860
 1525SOL    HW216212   2.836   4.072   3.895  0.2059 -1.4220  1.2316
 1526SOL     OW16213   3.705   0.632   9.289  0.6658 -0.0858  0.5460
 1526SOL    HW116214   3.713   0.603   9.380 -1.0912 -0.2885  0.6279
 1526SOL    HW216215   3.724   0.724   9.309 -0.5545  0.4145 -0.6422
 1527SOL     OW16216   0.497   1.219   4.800  0.1635 -0.1410 -0.0061
 1527SOL    HW116217   0.588   1.193   4.787 -0.7969 -2.2355 -2.7372
 1527SOL    HW216218   0.486   1.298   4.746  0.7702 -0.1803 -0.1909
 1528SOL     OW16219   0.467   1.369   2.809  0.3080 -0.0776  0.3907
 1528SOL    HW116220   0.409   1.305   2.851  0.5778 -0.4461  0.1975
 1528SOL    HW216221   0.463   1.343   2.717  0.6661  0.2535  0.2821
 1529SOL     OW16222   2.141   3.031   5.368  0.1045 -0.3844  0.2712
 1529SOL    HW116223   2.214   2.969   5.367  0.8246  0.4617 -0.2884
 1529SOL    HW216224   2.166   3.076   5.448 -1.7232  1.5742 -0.2549
 1530SOL     OW16225   1.897   2.677   2.772 -0.5519  0.2029  0.3307
 1530SOL    HW116226   1.969   2.649   2.829  0.4931  1.6184 -0.3145
 1530SOL    HW216227   1.932   2.654   2.686  0.1108  1.8599  0.1595
 1531SOL     OW16228   3.230   4.478   1.423  0.1793  0.1341 -0.0764
 1531SOL    HW116229   3.263   4.518   1.503  0.6150  0.6976 -0.5399
 1531SOL    HW216230   3.301   4.414   1.413 -1.6636 -1.6597 -1.6377
 1532SOL     OW16231   2.980   0.426   3.219  0.3602 -0.3081  0.1073
 1532SOL    HW116232   2.918   0.357   3.242 -0.0100 -0.4300 -1.2282
 1532SOL    HW216233   2.945   0.501   3.266  0.4504 -0.0890 -0.1764
 1533SOL     OW16234   1.989   2.047  15.862 -0.3508  0.0510  0.2341
 1533SOL    HW116235   1.988   2.116  15.929 -1.0465 -0.4841  0.7840
 1533SOL    HW216236   1.903   2.044  15.819  0.6309  0.4855 -1.7369
 1534SOL     OW16237   1.150   0.952   7.794  0.2068  0.4342  0.4469
 1534SOL    HW116238   1.117   0.877   7.843 -1.3225  0.9723  0.2503
 1534SOL    HW216239   1.225   0.915   7.748  0.6381 -0.1212  1.6034
 1535SOL     OW16240   3.871   2.958   1.679  0.8249  0.3089 -0.3684
 1535SOL    HW116241   3.782   2.994   1.678  0.8910  0.4633 -1.1424
 1535SOL    HW216242   3.925   3.037   1.671  0.3478  0.7930  1.3262
 1536SOL     OW16243   1.213   0.771   4.677 -0.3726 -0.2121  0.1045
 1536SOL    HW116244   1.156   0.695   4.664  1.4963 -1.6871  0.3890
 1536SOL    HW216245   1.299   0.730   4.690 -0.3488 -0.6266 -1.3036
 1537SOL     OW16246   0.211   4.581  11.832 -0.0098 -0.2768 -0.1674
 1537SOL    HW116247   0.210   4.555  11.923 -2.2089  1.2873  0.2495
 1537SOL    HW216248   0.279   4.649  11.833 -0.7924  0.4672  1.6097
 1538SOL     OW16249   3.045   1.105   7.002 -0.7969 -0.2395  0.1555
 1538SOL    HW116250   3.093   1.028   7.032 -1.4172 -0.8341 -0.3909
 1538SOL    HW216251   2.976   1.119   7.066  1.2957  0.4201  2.2932
 1539SOL     OW16252   1.452   1.081   5.705  0.8783 -0.2391  0.4262
 1539SOL    HW116253   1.473   1.173   5.689  2.4535 -0.8540 -0.9767
 1539SOL    HW216254   1.445   1.052   5.615  1.2241 -1.1196  0.6883
 1540SOL     OW16255   4.570   2.270   3.088  0.0461  0.0402 -0.3264
 1540SOL    HW116256   4.610   2.288   3.003  0.3753  0.5826 -0.0590
 1540SOL    HW216257   4.649   2.253   3.138  0.6344 -3.0425 -2.3218
 1541SOL     OW16258   3.361   0.749   7.107  0.0044 -0.5898  0.4833
 1541SOL    HW116259   3.403   0.668   7.134 -0.5592 -0.3096  2.1598
 1541SOL    HW216260   3.436   0.809   7.104 -0.6568  0.2624  0.8632
 1542SOL     OW16261   2.706   2.490   3.735 -0.0778 -0.7142 -0.4696
 1542SOL    HW116262   2.676   2.401   3.717 -2.1762  0.3366 -2.1123
 1542SOL    HW216263   2.800   2.471   3.745  0.2518  0.8491 -0.6403
 1543SOL     OW16264   1.260   0.965  15.687  0.6675  0.7084 -1.1841
 1543SOL    HW116265   1.313   0.927  15.757 -0.7933 -2.9642 -2.0984
 1543SOL    HW216266   1.328   1.005  15.633 -0.6684  1.6284 -2.1991
 1544SOL     OW16267   3.878   0.734   7.012 -0.0572  0.1166  0.3866
 1544SOL    HW116268   3.792   0.745   6.971  0.0902 -1.8232 -0.4569
 1544SOL    HW216269   3.923   0.711   6.931  1.0360  0.8147  0.8009
 1545SOL     OW16270   3.135   3.548   8.347  0.9902 -0.6499 -0.0845
 1545SOL    HW116271   3.138   3.642   8.365 -3.0553 -0.0422 -2.7119
 1545SOL    HW216272   3.140   3.501   8.431 -0.4495  0.2383  0.4993
 1546SOL     OW16273   4.313   1.311   8.310  0.2609  0.3313 -0.5075
 1546SOL    HW116274   4.277   1.224   8.327  2.4384 -0.3612  0.4587
 1546SOL    HW216275   4.284   1.313   8.219  0.7224 -0.6880 -0.6804
 1547SOL     OW16276   3.103   2.154   0.198 -1.2806 -0.4202 -0.4671
 1547SOL    HW116277   3.132   2.213   0.268 -0.8631 -1.4208  0.1952
 1547SOL    HW216278   3.172   2.170   0.134  0.3953 -2.2208  0.9106
 1548SOL     OW16279   1.005   0.435   6.781 -0.3425 -0.3080 -0.1828
 1548SOL    HW116280   0.989   0.525   6.751 -0.5688 -0.7552 -1.4003
 1548SOL    HW216281   1.075   0.403   6.723 -2.0740  0.5575 -2.7714
 1549SOL     OW16282   1.732   1.256   4.793  0.1828  0.6494 -0.0459
 1549SOL    HW116283   1.690   1.231   4.876 -0.3124 -0.3055 -0.5898
 1549SOL    HW216284   1.717   1.178   4.740  0.2077 -0.2295  1.2449
 1550SOL     OW16285   1.756   0.245   4.081  0.2107 -0.7181 -0.1249
 1550SOL    HW116286   1.792   0.219   4.166 -0.7984 -0.4372  0.3844
 1550SOL    HW216287   1.799   0.184   4.022  0.6370  0.1587 -0.7141
 1551SOL     OW16288   0.910   0.746  16.502 -0.4412 -0.0019 -0.0590
 1551SOL    HW116289   0.966   0.775  16.574  0.7444  0.7906 -1.3108
 1551SOL    HW216290   0.880   0.664  16.540 -0.3447 -0.4537 -0.9586
 1552SOL     OW16291   0.368   0.706   4.348 -0.4406 -0.2137 -0.5266
 1552SOL    HW116292   0.415   0.747   4.275 -1.0691 -2.0999 -1.9977
 1552SOL    HW216293   0.446   0.666   4.385  0.6788  2.1686 -0.2755
 1553SOL     OW16294   3.878   3.210   5.882 -0.4630  0.3760  0.4389
 1553SOL    HW116295   3.905   3.301   5.893  1.3249  0.0922 -1.4159
 1553SOL    HW216296   3.917   3.172   5.803 -0.8455  0.7309  0.0775
 1554SOL     OW16297   3.963   1.956  10.258 -0.1680  0.0546  1.3727
 1554SOL    HW116298   3.930   1.866  10.255  0.6015 -0.2046  0.2830
 1554SOL    HW216299   4.006   1.947  10.343  1.7925 -0.1353  0.3620
 1555SOL     OW16300   0.091   1.685   5.937 -0.1756 -0.1583  0.0805
 1555SOL    HW116301   0.002   1.681   5.904 -0.7079 -0.7255  1.5809
 1555SOL    HW216302   0.105   1.598   5.973 -1.5274  0.1814  1.3986
 1556SOL     OW16303   2.523   1.117   5.938  0.1423  0.1655 -0.0847
 1556SOL    HW116304   2.590   1.049   5.935 -2.3809 -2.4388  2.1286
 1556SOL    HW216305   2.582   1.190   5.921  1.7766 -0.9888  0.6702
 1557SOL     OW16306   2.842   3.310  13.245  0.3025  0.0880 -0.5063
 1557SOL    HW116307   2.883   3.236  13.199  2.6322  0.3911  1.0590
 1557SOL    HW216308   2.889   3.289  13.326  0.2209  0.3684 -0.3860
 1558SOL     OW16309   4.046   2.054  14.153 -0.2448 -0.2247 -0.3707
 1558SOL    HW116310   4.001   1.970  14.145  1.2515 -1.0205 -0.5496
 1558SOL    HW216311   4.015   2.093  14.234  3.5571  0.3765  0.8322
 1559SOL     OW16312   0.661   4.709   5.633  0.2100 -0.0905 -0.2810
 1559SOL    HW116313   0.615   0.048   5.666  2.6431  0.5252  1.6237
 1559SOL    HW216314   0.682   4.660   5.712 -4.3708 -0.6536  0.6241
 1560SOL     OW16315   4.218   2.605  15.986  0.2550  0.7066 -0.2081
 1560SOL    HW116316   4.174   2.680  15.947  1.8288  1.3668 -0.7127
 1560SOL    HW216317   4.186   2.606  16.076 -0.0631 -0.9875 -0.2979
 1561SOL     OW16318   2.516   0.620   9.251 -0.3773 -0.0581  0.3914
 1561SOL    HW116319   2.486   0.707   9.278  3.8392  1.3529  0.5886
 1561SOL    HW216320   2.581   0.596   9.318 -0.4634 -0.8990  0.1801
 1562SOL     OW16321   3.528   0.225   7.546  0.4669  0.0732  0.3749
 1562SOL    HW116322   3.556   0.227   7.638 -3.9212 -0.5988  1.7419
 1562SOL    HW216323   3.502   0.317   7.533 -0.5435 -0.5376 -1.9269
 1563SOL     OW16324   4.402   3.202   6.086  0.2304  0.6128  0.7181
 1563SOL    HW116325   4.311   3.197   6.114 -0.7690 -0.1647 -2.5774
 1563SOL    HW216326   4.438   3.144   6.153 -0.3250 -1.2362 -0.5757
 1564SOL     OW16327   2.677   2.642   2.070 -0.4039 -0.0611 -0.7014
 1564SOL    HW116328   2.645   2.732   2.072 -0.2036  0.0276 -1.5726
 1564SOL    HW216329   2.640   2.600   2.148  0.7533 -0.9644 -0.6279
 1565SOL     OW16330   4.166   0.407   4.900  0.4948  0.2026 -0.1094
 1565SOL    HW116331   4.097   0.429   4.837  0.5365  2.7308  0.6952
 1565SOL    HW216332   4.229   0.475   4.875 -2.2361  2.3373 -1.3139
 1566SOL     OW16333   2.569   0.785   7.793  0.3293  0.3182  0.0198
 1566SOL    HW116334   2.656   0.755   7.766  1.4477  3.3179  0.2084
 1566SOL    HW216335   2.581   0.880   7.787 -1.6074  0.2906 -3.9164
 1567SOL     OW16336   1.709   0.870   4.133 -0.0107 -0.1959 -0.5660
 1567SOL    HW116337   1.677   0.959   4.115  2.6786  1.6155  3.4837
 1567SOL    HW216338   1.805   0.871   4.139 -0.0835  2.4225  0.0838
 1568SOL     OW16339   3.439   0.494   7.183 -0.7227 -0.0067 -0.1781
 1568SOL    HW116340   3.393   0.453   7.256 -2.0362  0.0756 -0.9561
 1568SOL    HW216341   3.516   0.438   7.183 -0.5799  0.1912 -1.2796
 1569SOL     OW16342   1.398   4.634   4.508 -0.0359 -0.0566 -0.2285
 1569SOL    HW116343   1.353   4.675   4.434  1.3494  0.3089 -0.8705
 1569SOL    HW216344   1.369   4.545   4.487  1.9527 -0.6886 -0.3400
 1570SOL     OW16345   4.672   4.292  15.126  0.2823  0.2250 -0.1004
 1570SOL    HW116346   4.657   4.277  15.033 -1.4282 -1.0296  0.3685
 1570SOL    HW216347   4.689   4.202  15.155 -1.1991 -0.4623 -1.3929
 1571SOL     OW16348   0.412   2.074   7.494  0.8901 -0.2861  0.2953
 1571SOL    HW116349   0.486   2.075   7.433 -2.6692  1.9743 -3.9480
 1571SOL    HW216350   0.430   2.142   7.559  0.1526 -0.7165  0.9432
 1572SOL     OW16351   3.191   2.881  16.796  0.4865  0.5638  0.4460
 1572SOL    HW116352   3.113   2.877  16.740  0.2476 -2.1230  0.9573
 1572SOL    HW216353   3.171   2.964  16.840 -0.2841  0.2831  0.6299
 1573SOL     OW16354   4.318   3.783   9.179 -0.4773  0.1158 -0.0699
 1573SOL    HW116355   4.252   3.715   9.166  1.0103 -1.1017 -1.3957
 1573SOL    HW216356   4.343   3.756   9.268 -1.1661  1.4270  0.5211
 1574SOL     OW16357   2.002   2.109  16.300 -0.2907 -0.0876 -0.0134
 1574SOL    HW116358   2.095   2.116  16.321 -0.9764  0.1154  3.0731
 1574SOL    HW216359   1.985   2.015  16.291  2.5650 -0.8315  2.4952
 1575SOL     OW16360   2.810   0.136   6.352 -0.3556 -0.2865 -0.4668
 1575SOL    HW116361   2.830   0.188   6.429  1.9752 -1.9042  0.0197
 1575SOL    HW216362   2.863   0.176   6.283 -0.0756 -1.5016 -0.9592
 1576SOL     OW16363   3.211   3.160  17.402  0.2780  0.2861 -0.1181
 1576SOL    HW116364   3.301   3.129  17.391  0.0801 -0.6432  0.8988
 1576SOL    HW216365   3.165   3.134  17.322  1.9765  3.3867 -2.1128
 1577SOL     OW16366   4.061   0.763   6.293  0.7487 -0.4733  0.2187
 1577SOL    HW116367   4.130   0.781   6.229 -0.6363  1.5497 -0.7262
 1577SOL    HW216368   4.117   0.749   6.369  0.6213 -1.8268  0.0646
 1578SOL     OW16369   0.612   2.233   6.105 -0.3796  0.4670 -1.0856
 1578SOL    HW116370   0.696   2.188   6.092  0.0855  1.3356 -1.0843
 1578SOL    HW216371   0.642   2.322   6.086  2.2013 -0.3164 -0.7841
 1579SOL     OW16372   2.848   1.977   5.453  0.1137  0.0951 -0.6817
 1579SOL    HW116373   2.765   2.023   5.437  0.4961  0.7965 -0.6462
 1579SOL    HW216374   2.856   1.912   5.383 -1.0283 -0.8574  0.0738
 1580SOL     OW16375   2.599   4.561  16.538  0.3779  0.1165 -0.3386
 1580SOL    HW116376   2.627   4.499  16.606 -1.8071  1.1909  1.5613
 1580SOL    HW216377   2.657   4.533  16.468  1.4592  0.5055  0.4000
 1581SOL     OW16378   0.434   0.059   6.085  0.1991  0.5237  0.1924
 1581SOL    HW116379   0.523   0.091   6.066 -0.3710  1.4465 -0.9241
 1581SOL    HW216380   0.411   0.113   6.160 -1.3128  0.5384 -0.2898
 1582SOL     OW16381   1.874   2.708   3.357 -0.2593  1.1004 -0.2518
 1582SOL    HW116382   1.956   2.691   3.311 -0.3584  0.2063 -0.1058
 1582SOL    HW216383   1.838   2.778   3.303 -0.0902  1.4071  0.0301
 1583SOL     OW16384   1.300   1.711  10.016 -0.1015 -0.0614 -0.7099
 1583SOL    HW116385   1.303   1.644   9.947 -1.5612  1.7073 -2.5147
 1583SOL    HW216386   1.219   1.691  10.063 -0.3953  2.3363 -0.2186
 1584SOL     OW16387   3.697   2.990   6.377  0.7390  0.6149 -0.0870
 1584SOL    HW116388   3.691   3.041   6.296  0.4267  3.3556  1.6965
 1584SOL    HW216389   3.682   3.059   6.441 -2.4393  1.0893 -1.3540
 1585SOL     OW16390   0.382   2.810   3.111 -0.4065 -0.2423 -0.3587
 1585SOL    HW116391   0.314   2.744   3.125 -1.3987  0.7430 -0.4816
 1585SOL    HW216392   0.378   2.868   3.186  2.3921 -0.6374  0.0705
 1586SOL     OW16393   1.380   1.060   8.184  0.2464 -0.4855  0.0377
 1586SOL    HW116394   1.444   1.072   8.255  1.2041  1.0768 -1.0965
 1586SOL    HW216395   1.369   1.152   8.160  0.4542 -0.3245  0.5598
 1587SOL     OW16396   2.953   2.712   3.313 -0.0775 -0.2107  0.3537
 1587SOL    HW116397   2.876   2.690   3.261 -0.8722  0.3062  1.3193
 1587SOL    HW216398   3.024   2.693   3.253  1.2726  1.4187  1.4141
 1588SOL     OW16399   3.385   2.800   6.162  0.3945 -0.1814  0.0153
 1588SOL    HW116400   3.392   2.814   6.256 -1.2400 -1.4499  0.3401
 1588SOL    HW216401   3.298   2.836   6.143  0.5561  0.1411 -0.1106
 1589SOL     OW16402   2.799   3.954   3.759 -0.0872  0.0907  0.3428
 1589SOL    HW116403   2.750   4.014   3.703  1.2227  0.0212 -0.8897
 1589SOL    HW216404   2.751   3.872   3.747 -1.5639  1.0028 -0.0113
 1590SOL     OW16405   3.669   4.466   7.694 -0.4903  0.4894 -0.1200
 1590SOL    HW116406   3.733   4.530   7.663  0.2732 -0.1082  0.2276
 1590SOL    HW216407   3.712   4.440   7.776 -1.3645  0.3450  0.2912
 1591SOL     OW16408   1.046   1.676  10.064 -0.2588 -0.3334  0.3003
 1591SOL    HW116409   1.019   1.728   9.988  1.6974  0.3125  0.0617
 1591SOL    HW216410   0.964   1.628  10.077 -0.6582 -0.1032 -1.4828
 1592SOL     OW16411   2.456   1.101  10.393  0.0923 -0.3541  0.5916
 1592SOL    HW116412   2.460   1.197  10.385  0.1155 -0.3728  0.3816
 1592SOL    HW216413   2.548   1.082  10.378 -0.1156 -0.1531 -0.8948
 1593SOL     OW16414   4.256   4.729  10.074 -0.4031 -0.0171  0.2317
 1593SOL    HW116415   4.182   4.686  10.117  0.9594 -1.5534  1.0396
 1593SOL    HW216416   4.208   0.072  10.063  1.5500  1.2366  1.0818
 1594SOL     OW16417   4.393   1.009   5.960 -0.0475 -0.2751 -0.0712
 1594SOL    HW116418   4.482   1.043   5.964 -0.8004  1.7126  0.0791
 1594SOL    HW216419   4.369   1.012   5.868  1.6374  2.2934 -0.4325
 1595SOL     OW16420   1.205   2.061   2.622  0.1853  0.5210  0.2021
 1595SOL    HW116421   1.260   2.015   2.685 -2.0992 -0.7617  1.2757
 1595SOL    HW216422   1.219   2.155   2.634  1.6082  0.5217 -1.5827
 1596SOL     OW16423   0.257   1.675   8.223 -0.2493  0.5495  0.1845
 1596SOL    HW116424   0.211   1.600   8.186  0.6811  0.0875 -0.0281
 1596SOL    HW216425   0.248   1.743   8.156 -0.7286 -0.6950 -1.0091
 1597SOL     OW16426   4.462   4.647  15.272  0.1444  0.6216 -0.2099
 1597SOL    HW116427   4.494   4.722  15.222  1.9137 -0.6434 -0.9923
 1597SOL    HW216428   4.397   4.694  15.324 -0.7814 -0.0547 -0.7630
 1598SOL     OW16429   0.358   1.403   4.633  0.4843 -0.5696 -0.3742
 1598SOL    HW116430   0.354   1.444   4.546  0.8229  3.2985  1.4245
 1598SOL    HW216431   0.274   1.356   4.627 -0.5907  1.2766  0.0674
 1599SOL     OW16432   2.402   1.046  12.810 -0.6489  0.1535  0.0991
 1599SOL    HW116433   2.335   1.102  12.771 -0.0790  0.0248 -1.0684
 1599SOL    HW216434   2.443   1.097  12.880  1.1613 -0.9493 -0.1634
 1600SOL     OW16435   1.891   2.028   1.119  0.0275  0.1708  0.1919
 1600SOL    HW116436   1.821   2.036   1.183  0.3289  2.6004  0.1968
 1600SOL    HW216437   1.956   1.985   1.175 -0.4449 -0.3304  0.3562
 1601SOL     OW16438   3.070   2.019  14.237 -0.0971  0.5656 -0.7951
 1601SOL    HW116439   3.083   1.947  14.175 -0.1826  0.2628 -0.4637
 1601SOL    HW216440   2.978   1.997  14.255  0.0178  1.3560  0.7709
 1602SOL     OW16441   2.342   0.351  11.221 -0.1875  0.0931  0.2806
 1602SOL    HW116442   2.265   0.388  11.177  1.4050  2.0478 -0.8584
 1602SOL    HW216443   2.406   0.422  11.222 -0.1584  0.0221  1.9513
 1603SOL     OW16444   3.805   0.870   3.012  0.2035  0.4648  0.1957
 1603SOL    HW116445   3.738   0.931   2.984  0.4104  1.5168  2.0269
 1603SOL    HW216446   3.753   0.827   3.079  0.4248  0.5000  0.3883
 1604SOL     OW16447   2.303   1.249   1.754 -0.4559 -0.6708  0.0184
 1604SOL    HW116448   2.224   1.238   1.807 -1.4002  0.5278 -1.1448
 1604SOL    HW216449   2.284   1.183   1.688  0.2068  0.4688 -1.2967
 1605SOL     OW16450   0.079   4.055   4.560 -0.2080 -0.1699  0.9128
 1605SOL    HW116451   0.118   4.117   4.622 -1.3491  0.3493  1.1220
 1605SOL    HW216452   0.133   4.070   4.483 -2.1550  2.1822  0.0227
 1606SOL     OW16453   3.006   1.154   5.548  0.1894  0.2817 -0.0122
 1606SOL    HW116454   3.088   1.148   5.596  1.3666  2.2506 -1.7754
 1606SOL    HW216455   2.956   1.077   5.575 -0.7920  1.5231  1.7197
 1607SOL     OW16456   2.172   0.042  16.542  0.2725 -0.2415 -0.5916
 1607SOL    HW116457   2.223   4.716  16.590  0.7719  1.6348  1.4117
 1607SOL    HW216458   2.108   4.727  16.495  0.8762 -1.8081  0.3890
 1608SOL     OW16459   1.287   3.976   4.940 -0.1487  0.4000 -0.1090
 1608SOL    HW116460   1.346   3.960   5.014 -0.5148  0.1143  0.1153
 1608SOL    HW216461   1.323   4.054   4.896 -1.4064  1.6819  1.1447
 1609SOL     OW16462   1.605   4.290   7.595 -0.4428  0.5987  0.5955
 1609SOL    HW116463   1.664   4.217   7.575 -0.8271  0.0001  1.6764
 1609SOL    HW216464   1.555   4.304   7.514  0.4548 -1.1561 -0.2575
 1610SOL     OW16465   3.174   2.640   9.702 -0.1289 -0.1558  0.4719
 1610SOL    HW116466   3.132   2.657   9.617 -0.9972 -0.8086  0.7652
 1610SOL    HW216467   3.122   2.566   9.736  0.8597 -0.4575  1.3215
 1611SOL     OW16468   3.997   0.062  16.165 -0.1832 -0.4221  0.5308
 1611SOL    HW116469   3.987   0.051  16.260  1.4149  2.8407  1.0667
 1611SOL    HW216470   3.905   0.063  16.140  0.7105 -0.5951 -2.6763
 1612SOL     OW16471   1.807   4.127   8.335 -0.2387  0.3326  0.5722
 1612SOL    HW116472   1.716   4.103   8.315  0.2910  1.6718 -3.4110
 1612SOL    HW216473   1.832   4.039   8.365 -1.5048  0.4154  1.8969
 1613SOL     OW16474   3.702   1.434   1.054  0.6551 -0.0163 -0.1042
 1613SOL    HW116475   3.752   1.362   1.016  1.7790  0.3469  0.6996
 1613SOL    HW216476   3.730   1.512   1.006  2.5110 -1.4605 -1.3969
 1614SOL     OW16477   2.129   4.408   3.566 -0.1750  0.0874 -0.6180
 1614SOL    HW116478   2.106   4.317   3.548 -0.7037  0.1542 -0.2842
 1614SOL    HW216479   2.217   4.412   3.529  1.1972 -2.9254  2.3360
 1615SOL     OW16480   0.161   2.199   3.483 -0.0991 -0.1366 -0.4072
 1615SOL    HW116481   0.202   2.129   3.431 -0.6798 -1.2794  0.6611
 1615SOL    HW216482   0.196   2.194   3.572  0.8720  2.8304 -0.6343
 1616SOL     OW16483   2.540   2.101   5.747 -0.2995  0.5585  0.1181
 1616SOL    HW116484   2.556   2.152   5.826 -0.5451  0.9903 -0.1085
 1616SOL    HW216485   2.451   2.128   5.727  0.2010  1.8916 -0.3138
 1617SOL     OW16486   2.352   0.178   5.126 -0.3500  0.5575  0.0077
 1617SOL    HW116487   2.387   0.091   5.109  0.1301  0.5809  0.8544
 1617SOL    HW216488   2.289   0.178   5.054  0.7886  3.0551 -0.9811
 1618SOL     OW16489   0.191   4.182   7.768  0.0819 -0.0370  0.1260
 1618SOL    HW116490   0.223   4.111   7.712  0.5176  0.6695 -0.5199
 1618SOL    HW216491   0.110   4.217   7.733 -0.1090 -1.1401 -0.5315
 1619SOL     OW16492   0.749   2.693   8.230  0.3960  0.4432  0.1397
 1619SOL    HW116493   0.721   2.642   8.154  4.6602  1.8420 -2.3888
 1619SOL    HW216494   0.672   2.750   8.237 -2.2862 -3.0804 -0.5552
 1620SOL     OW16495   0.528   3.201   0.936  0.3316  0.7777 -0.1851
 1620SOL    HW116496   0.621   3.223   0.943  0.9373 -0.3942 -4.4814
 1620SOL    HW216497   0.508   3.240   0.851  0.4863  1.8438  0.2743
 1621SOL     OW16498   3.509   1.389   7.269  0.3166  0.4561 -0.0570
 1621SOL    HW116499   3.458   1.387   7.189 -0.6152  0.2050  0.5434
 1621SOL    HW216500   3.582   1.341   7.230  0.0822 -0.3171  0.4621
 1622SOL     OW16501   1.158   3.877  13.200 -0.8529 -0.1620  0.2343
 1622SOL    HW116502   1.207   3.953  13.231  2.0555 -1.3491 -1.3989
 1622SOL    HW216503   1.124   3.832  13.278 -0.9820 -0.0057  0.2677
 1623SOL     OW16504   2.316   3.853   6.941  0.2150 -0.1911 -0.1367
 1623SOL    HW116505   2.401   3.897   6.933 -0.4425  1.2312  0.6243
 1623SOL    HW216506   2.254   3.921   6.915  0.8946  1.2327  1.9074
 1624SOL     OW16507   3.944   2.898   7.832  0.4999 -0.1063 -0.0034
 1624SOL    HW116508   4.036   2.871   7.825  0.1764 -1.0435 -0.6644
 1624SOL    HW216509   3.904   2.826   7.784 -0.6180  1.0217 -0.7399
 1625SOL     OW16510   0.816   3.493  11.883  0.1933  0.1800  0.1805
 1625SOL    HW116511   0.881   3.519  11.948  0.9603 -0.0083 -0.5003
 1625SOL    HW216512   0.879   3.477  11.812 -0.6507  0.5440 -0.6620
 1626SOL     OW16513   0.989   3.846   4.213 -0.0771  0.4267  0.1321
 1626SOL    HW116514   0.917   3.894   4.254 -0.8805  1.3313 -2.3769
 1626SOL    HW216515   1.034   3.912   4.161 -1.4254  0.4854 -0.9328
 1627SOL     OW16516   3.084   3.907   6.680  0.1028  0.3137  0.1937
 1627SOL    HW116517   3.168   3.867   6.656  0.1353  1.1730 -1.1182
 1627SOL    HW216518   3.107   3.999   6.682 -0.3937  0.4852 -1.5418
 1628SOL     OW16519   1.491   0.742   1.894  0.1054  0.2444  0.6689
 1628SOL    HW116520   1.417   0.681   1.900 -0.7127  1.2146  0.5465
 1628SOL    HW216521   1.512   0.761   1.986  1.3102 -1.0472  0.6613
 1629SOL     OW16522   2.987   2.158   7.159  0.0182 -0.3480  0.0818
 1629SOL    HW116523   3.067   2.205   7.185  0.9421 -2.1111  0.5015
 1629SOL    HW216524   2.924   2.225   7.134 -1.9736 -1.5232  1.9165
 1630SOL     OW16525   1.893   1.256   4.090 -0.0373  0.3120 -0.2033
 1630SOL    HW116526   1.923   1.304   4.013 -1.7656  1.0685 -0.4063
 1630SOL    HW216527   1.954   1.183   4.103 -3.0788 -2.0497  0.7786
 1631SOL     OW16528   4.618   2.416   9.803 -0.1366 -0.0090 -0.0532
 1631SOL    HW116529   4.672   2.490   9.776  0.0714 -0.1129  0.0833
 1631SOL    HW216530   4.613   2.367   9.721 -0.5012 -3.4145  2.0101
 1632SOL     OW16531   0.410   3.411  17.338  0.3773  0.1528  0.4061
 1632SOL    HW116532   0.339   3.474  17.325  0.9485 -0.0062 -3.7148
 1632SOL    HW216533   0.481   3.468  17.368  1.4201  0.0641 -1.8752
 1633SOL     OW16534   4.453   1.935   6.432  0.5582 -0.0382  0.1483
 1633SOL    HW116535   4.547   1.925   6.420  0.6856 -1.9057  2.7238
 1633SOL    HW216536   4.437   2.026   6.405  0.0860  0.2900  1.4971
 1634SOL     OW16537   4.203   0.165   4.727  0.0699 -0.1142  0.1387
 1634SOL    HW116538   4.250   0.203   4.652  0.8444 -0.2723  0.5523
 1634SOL    HW216539   4.195   0.238   4.787 -1.2120  0.4412 -0.6987
 1635SOL     OW16540   1.364   0.328   1.985  0.0546 -0.8934  0.2666
 1635SOL    HW116541   1.402   0.285   2.061 -0.9950 -1.9999  0.1737
 1635SOL    HW216542   1.357   0.419   2.014  2.3679 -0.0895 -1.6958
 1636SOL     OW16543   1.098   3.980   9.355 -0.1620 -0.1255  0.0405
 1636SOL    HW116544   1.133   3.938   9.434  0.0084 -1.4184 -0.7180
 1636SOL    HW216545   1.040   4.049   9.385 -0.5392 -0.3494 -0.1657
 1637SOL     OW16546   4.118   1.903   2.477 -0.2246 -0.3990  0.6226
 1637SOL    HW116547   4.200   1.925   2.432 -1.4166 -0.2680 -1.4930
 1637SOL    HW216548   4.123   1.808   2.473 -0.0846 -0.4016  0.8542
 1638SOL     OW16549   1.925   3.900   2.453 -0.5964 -0.0840  0.0725
 1638SOL    HW116550   1.875   3.972   2.416  0.7038 -0.2447 -2.0142
 1638SOL    HW216551   1.993   3.907   2.385  0.2446  2.0231  1.1508
 1639SOL     OW16552   1.112   4.111   4.223  0.5666 -0.2098 -0.6434
 1639SOL    HW116553   1.107   4.193   4.173 -4.0858  0.2924  0.6306
 1639SOL    HW216554   1.136   4.149   4.307 -1.0342  1.4221 -0.9211
 1640SOL     OW16555   1.107   3.457   3.544 -0.8803  0.6617 -0.8759
 1640SOL    HW116556   1.155   3.474   3.625 -0.0811  0.1699 -1.2457
 1640SOL    HW216557   1.147   3.372   3.530  0.2141  1.0332  0.0312
 1641SOL     OW16558   3.114   3.557  16.997  0.4381 -0.1481 -0.2537
 1641SOL    HW116559   3.078   3.642  17.020  0.7130  0.5001 -2.1564
 1641SOL    HW216560   3.200   3.556  17.039  1.0090  2.7086 -1.3660
 1642SOL     OW16561   1.618   3.344  11.987  0.0339 -0.3243  0.3881
 1642SOL    HW116562   1.674   3.320  11.912 -2.3123 -1.0511 -1.1344
 1642SOL    HW216563   1.638   3.273  12.047  1.8322  1.3742  1.8091
 1643SOL     OW16564   3.550   4.480  16.967  0.0751 -0.1138 -0.1500
 1643SOL    HW116565   3.525   4.428  16.890 -1.9953 -0.0427  0.4620
 1643SOL    HW216566   3.481   4.546  16.971 -1.1548 -1.2732 -1.8395
 1644SOL     OW16567   0.277   4.513   7.694  0.0250  0.3336  0.0172
 1644SOL    HW116568   0.297   4.448   7.762 -1.3154 -0.4556 -0.3367
 1644SOL    HW216569   0.362   4.529   7.655  0.6769 -0.5046  1.0911
 1645SOL     OW16570   4.550   1.460   5.167 -0.1973  0.0869 -0.6760
 1645SOL    HW116571   4.583   1.382   5.121 -0.4608  0.5253 -1.6122
 1645SOL    HW216572   4.635   1.501   5.181 -0.3903 -0.0272  0.8217
 1646SOL     OW16573   2.989   4.487  11.912 -0.4484  0.1629  0.1346
 1646SOL    HW116574   3.077   4.521  11.927  0.3631 -1.9125  0.0732
 1646SOL    HW216575   3.012   4.409  11.862 -0.1735 -0.6003  1.4693
 1647SOL     OW16576   2.639   2.194  13.239  0.5524  0.2016  0.3238
 1647SOL    HW116577   2.699   2.127  13.208  0.2098 -0.7970  1.8104
 1647SOL    HW216578   2.688   2.276  13.232 -0.0319  0.4830 -0.4301
 1648SOL     OW16579   0.605   0.923   5.780 -0.0832  0.1744  0.2075
 1648SOL    HW116580   0.639   0.963   5.700 -1.8118  0.4795 -0.3603
 1648SOL    HW216581   0.567   1.000   5.822 -1.3170  0.1384 -0.8613
 1649SOL     OW16582   0.628   4.258   5.322 -0.3380  0.2292  0.2280
 1649SOL    HW116583   0.689   4.186   5.338 -0.4484  0.1253  0.1834
 1649SOL    HW216584   0.604   4.235   5.232 -0.0127  1.5013 -0.1820
 1650SOL     OW16585   0.570   2.249  13.117  0.0347  0.2053  0.1498
 1650SOL    HW116586   0.480   2.218  13.119 -0.3717  1.4484  0.8956
 1650SOL    HW216587   0.600   2.195  13.191 -0.3851 -1.9349 -1.2515
 1651SOL     OW16588   1.426   0.355   7.922  0.0293  0.1116  0.1733
 1651SOL    HW116589   1.392   0.268   7.898 -1.9788  0.7369  0.7621
 1651SOL    HW216590   1.428   0.405   7.841 -0.8729 -1.2878 -0.7214
 1652SOL     OW16591   4.381   3.118  16.491 -0.3061 -0.6563 -0.0490
 1652SOL    HW116592   4.366   3.025  16.476  0.6251 -0.6238 -1.2152
 1652SOL    HW216593   4.457   3.115  16.549 -2.5160  0.3010  2.8702
 1653SOL     OW16594   1.192   1.689   7.577 -0.2308 -0.0739  0.3907
 1653SOL    HW116595   1.145   1.683   7.494 -0.8715 -2.1822  0.9129
 1653SOL    HW216596   1.270   1.633   7.571 -1.0187 -1.0620 -0.6878
 1654SOL     OW16597   1.435   0.444  16.600 -0.1068  0.3151 -0.1492
 1654SOL    HW116598   1.382   0.443  16.521  0.7599  2.8070 -0.7440
 1654SOL    HW216599   1.459   0.536  16.606 -0.1177  0.3642 -0.8446
 1655SOL     OW16600   0.436   2.688   9.210  0.3386  0.0673 -0.7108
 1655SOL    HW116601   0.497   2.696   9.284 -1.8379 -2.7110  1.3868
 1655SOL    HW216602   0.494   2.692   9.134 -0.2012  1.7868 -1.0327
 1656SOL     OW16603   4.642   2.297   7.472 -0.5737  0.3431  0.1064
 1656SOL    HW116604   4.705   2.353   7.516  0.5045 -0.8227  0.0415
 1656SOL    HW216605   4.684   2.273   7.390 -2.0121 -1.4018 -0.1252
 1657SOL     OW16606   3.440   2.451  11.087  0.1417  0.4363  0.1583
 1657SOL    HW116607   3.415   2.539  11.059 -2.5956  0.1803  1.7327
 1657SOL    HW216608   3.371   2.400  11.044  0.2992 -0.7901  1.3553
 1658SOL     OW16609   1.762   1.746   5.623  0.3045 -0.3661 -0.4181
 1658SOL    HW116610   1.761   1.660   5.581 -1.7032 -1.3000  1.5021
 1658SOL    HW216611   1.742   1.800   5.546  1.2166 -0.2039 -0.5363
 1659SOL     OW16612   3.880   0.237  15.424 -0.2825 -0.1285  0.0072
 1659SOL    HW116613   3.843   0.225  15.512  1.8676 -0.4057  0.8711
 1659SOL    HW216614   3.975   0.233  15.435 -0.4082  3.2328  2.3742
 1660SOL     OW16615   4.616   0.887  16.790 -0.1674  0.2030  0.6475
 1660SOL    HW116616   4.684   0.955  16.795 -0.0893  0.3386 -2.1379
 1660SOL    HW216617   4.666   0.809  16.813 -0.1964 -0.2821 -0.9321
 1661SOL     OW16618   1.934   4.537   8.498  0.2212  0.0588  0.1271
 1661SOL    HW116619   1.887   4.616   8.526 -1.4427 -0.4648 -1.1615
 1661SOL    HW216620   1.904   4.521   8.409  1.7183  0.3645 -0.4310
 1662SOL     OW16621   1.225   1.301   2.504 -0.1885 -0.0926  0.3404
 1662SOL    HW116622   1.201   1.313   2.596  0.2742 -1.1948  0.6061
 1662SOL    HW216623   1.237   1.389   2.469 -0.2264  0.5184  1.8621
 1663SOL     OW16624   2.299   1.663   9.724 -0.5615  0.2822 -0.4395
 1663SOL    HW116625   2.312   1.662   9.629 -0.7959  0.3450 -0.4705
 1663SOL    HW216626   2.289   1.751   9.758  3.9523  0.6199  0.0535
 1664SOL     OW16627   1.773   3.592  10.383  0.1772 -0.5790  0.3197
 1664SOL    HW116628   1.764   3.582  10.288  1.7252  0.4229  0.0627
 1664SOL    HW216629   1.801   3.507  10.418  2.3028  0.4096  1.0604
 1665SOL     OW16630   2.709   0.522   6.868  0.1260  0.1118  0.3442
 1665SOL    HW116631   2.796   0.559   6.878 -0.4393  2.2397 -2.5463
 1665SOL    HW216632   2.680   0.557   6.784 -1.6279 -0.2605  0.7960
 1666SOL     OW16633   2.101   3.804  17.621  0.6193  0.4967  0.4009
 1666SOL    HW116634   2.063   3.843  17.700 -1.0580 -0.8040  0.2421
 1666SOL    HW216635   2.020   3.765  17.589  0.7552 -0.2034  0.9061
 1667SOL     OW16636   3.100   3.677  16.383 -0.4109 -0.4533  0.0524
 1667SOL    HW116637   3.005   3.688  16.377 -0.3666  0.3170  0.7536
 1667SOL    HW216638   3.122   3.632  16.302 -0.7533 -0.7621  0.1317
 1668SOL     OW16639   0.029   3.370   9.256  0.1044 -0.3962  0.4578
 1668SOL    HW116640   4.713   3.429   9.204  1.6208  1.3732  0.8559
 1668SOL    HW216641   0.114   3.412   9.243 -0.3985 -0.2676 -2.3781
 1669SOL     OW16642   1.507   0.197   9.387 -0.4221  0.4891 -0.2510
 1669SOL    HW116643   1.550   0.125   9.433 -1.3666 -0.8301 -1.4117
 1669SOL    HW216644   1.561   0.268   9.421 -0.9948 -0.0880  1.8953
 1670SOL     OW16645   1.957   1.675  15.721 -0.3515  0.5661 -0.1200
 1670SOL    HW116646   1.998   1.716  15.797  0.2262 -0.0926 -0.0708
 1670SOL    HW216647   2.038   1.661  15.672 -0.8081 -1.5564 -0.2726
 1671SOL     OW16648   1.737   3.694   4.126 -0.5136 -0.4300  0.7059
 1671SOL    HW116649   1.674   3.739   4.181  0.0452  1.0299  0.1436
 1671SOL    HW216650   1.768   3.773   4.082  0.5877 -0.3571  1.5937
 1672SOL     OW16651   0.816   0.921   7.970 -0.3068 -0.4003  0.3001
 1672SOL    HW116652   0.808   0.911   7.875  1.8980 -0.8107  0.1486
 1672SOL    HW216653   0.860   1.006   7.977 -2.8347  1.0674 -1.6978
 1673SOL     OW16654   0.444   0.892   4.964 -0.2015 -0.6361  0.0554
 1673SOL    HW116655   0.443   0.908   4.869  0.5534  0.6486  0.2662
 1673SOL    HW216656   0.461   0.980   4.998  3.6880 -0.6792 -1.8137
 1674SOL     OW16657   3.053   1.373  17.011  0.4665 -0.2282 -0.0793
 1674SOL    HW116658   3.016   1.457  17.039 -2.7735 -0.8290 -2.4965
 1674SOL    HW216659   3.143   1.379  17.043  1.1958  1.2831 -2.4444
 1675SOL     OW16660   1.296   1.480   5.676  0.0425  0.3128  0.4069
 1675SOL    HW116661   1.254   1.444   5.754 -0.2042  1.1041  0.6325
 1675SOL    HW216662   1.221   1.527   5.641 -0.2097  0.3410  0.9894
 1676SOL     OW16663   3.802   2.919  11.909  0.2570  0.5785  0.0974
 1676SOL    HW116664   3.841   2.930  11.996 -0.8649 -3.4348  1.1049
 1676SOL    HW216665   3.882   2.904  11.860  0.0959 -2.9796  0.9217
 1677SOL     OW16666   1.441   3.064   3.258  0.3736 -0.0589 -0.7453
 1677SOL    HW116667   1.437   2.969   3.268 -0.8972  0.0023 -0.5994
 1677SOL    HW216668   1.463   3.092   3.346 -1.7700  1.8093 -0.7878
 1678SOL     OW16669   0.760   0.416   6.944  0.3527  0.8670  0.2513
 1678SOL    HW116670   0.797   0.418   7.032  0.5643  3.8081  0.1086
 1678SOL    HW216671   0.836   0.420   6.886  0.9678  2.8904  1.1907
 1679SOL     OW16672   2.153   4.067   6.832  0.7055  0.1159 -0.2205
 1679SOL    HW116673   2.179   4.110   6.751  0.8655  2.2000  0.9564
 1679SOL    HW216674   2.171   4.145   6.883  0.0363 -0.2844  0.6217
 1680SOL     OW16675   2.862   3.401   2.576 -0.2986  0.4651  0.2775
 1680SOL    HW116676   2.828   3.321   2.537 -2.1641  1.2561  0.2648
 1680SOL    HW216677   2.809   3.450   2.514 -2.0512  0.9905  2.1687
 1681SOL     OW16678   2.399   4.273   7.412 -0.0379 -0.6439 -0.3667
 1681SOL    HW116679   2.358   4.328   7.479 -0.1020 -0.2431 -0.7408
 1681SOL    HW216680   2.486   4.276   7.450 -0.0948  0.6390 -0.3591
 1682SOL     OW16681   3.365   0.557   3.926  0.5587  0.0447  0.0856
 1682SOL    HW116682   3.360   0.609   4.006  0.2071  1.8435 -1.0916
 1682SOL    HW216683   3.277   0.561   3.887  1.4393  0.5550 -1.8858
 1683SOL     OW16684   1.185   2.125   9.611  0.2408  0.5007 -0.6070
 1683SOL    HW116685   1.141   2.045   9.637  0.6028  0.9068  1.3033
 1683SOL    HW216686   1.129   2.146   9.536  1.5103  0.7877 -1.4784
 1684SOL     OW16687   4.401   2.304   5.078 -0.0772 -0.1854  0.1524
 1684SOL    HW116688   4.355   2.351   5.148 -1.1610  0.8585 -1.2727
 1684SOL    HW216689   4.493   2.329   5.089 -0.3422  0.5084  0.8195
 1685SOL     OW16690   2.797   4.084   6.064  0.2240  0.3450 -0.1664
 1685SOL    HW116691   2.800   4.017   6.132 -0.3048 -0.4934 -0.9673
 1685SOL    HW216692   2.726   4.061   6.003  1.4722  0.6156 -1.7334
 1686SOL     OW16693   1.996   4.067   8.086 -0.6467 -0.4145 -0.5117
 1686SOL    HW116694   1.939   3.994   8.061 -1.9825  0.4557  0.0253
 1686SOL    HW216695   1.954   4.090   8.168 -2.7431 -1.0513 -1.4050
 1687SOL     OW16696   3.072   0.589  16.044 -0.0452  0.2046  0.0902
 1687SOL    HW116697   2.979   0.567  16.046 -0.3761  1.4267 -1.8582
 1687SOL    HW216698   3.078   0.665  16.102  1.6022 -1.1441  1.6762
 1688SOL     OW16699   3.155   2.374  10.935 -0.2742  0.6267 -0.2799
 1688SOL    HW116700   3.185   2.462  10.911  1.4863  0.4116  1.1822
 1688SOL    HW216701   3.181   2.326  10.856 -1.3722 -0.3732 -0.0373
 1689SOL     OW16702   2.355   2.274   8.573  0.0261  0.2822 -0.7194
 1689SOL    HW116703   2.427   2.305   8.518  0.6298  1.0103  0.5009
 1689SOL    HW216704   2.401   2.263   8.656 -0.4331 -1.6237 -0.7046
 1690SOL     OW16705   1.271   1.720   8.445 -0.1020 -0.1402 -0.1685
 1690SOL    HW116706   1.198   1.735   8.505 -0.8256 -0.5048 -0.9528
 1690SOL    HW216707   1.336   1.787   8.463  0.1887 -0.0517 -1.5453
 1691SOL     OW16708   0.309   4.381   9.133 -0.2591  0.4443 -0.0244
 1691SOL    HW116709   0.263   4.461   9.155 -3.1884 -1.5932  1.1961
 1691SOL    HW216710   0.237   4.319   9.121 -0.6466  0.1361  3.9568
 1692SOL     OW16711   3.837   1.888  14.708  0.3017  0.1572  0.3499
 1692SOL    HW116712   3.752   1.925  14.730 -1.8103 -2.8715 -2.7394
 1692SOL    HW216713   3.887   1.966  14.684 -1.0917  0.8383 -0.3428
 1693SOL     OW16714   4.613   3.526  12.939  0.0256 -0.6176 -0.4371
 1693SOL    HW116715   4.528   3.485  12.954  0.7245 -1.0049  2.6063
 1693SOL    HW216716   4.588   3.610  12.902 -0.0295 -0.7312 -0.6570
 1694SOL     OW16717   0.398   2.639   6.930  0.1412  1.0477  0.2892
 1694SOL    HW116718   0.454   2.566   6.901  0.5354  1.0963  0.9368
 1694SOL    HW216719   0.441   2.677   7.006  2.2375  0.3965 -0.5678
 1695SOL     OW16720   3.811   4.461   4.051  0.1455  0.1848  0.1909
 1695SOL    HW116721   3.886   4.407   4.076  0.7776  2.0663  2.3866
 1695SOL    HW216722   3.857   4.506   3.980  0.1985  0.8664  0.6574
 1696SOL     OW16723   0.045   0.550   7.368  0.0947  0.3779 -0.2701
 1696SOL    HW116724   0.115   0.582   7.425  1.4254 -0.0618 -1.6550
 1696SOL    HW216725   0.042   0.457   7.390 -0.8383  0.2255 -1.0321
 1697SOL     OW16726   3.970   0.815   5.184  0.0873 -0.3186 -0.0434
 1697SOL    HW116727   3.964   0.747   5.117  0.8861 -0.1053 -0.3351
 1697SOL    HW216728   3.885   0.804   5.226  0.7726 -2.2452  0.8538
 1698SOL     OW16729   4.000   0.176   5.740  0.0834 -1.2274  0.4163
 1698SOL    HW116730   3.938   0.169   5.813  1.9306  0.6453  2.1594
 1698SOL    HW216731   4.061   0.235   5.784 -0.7920 -0.3062  0.3939
 1699SOL     OW16732   0.630   1.362   1.983 -0.3023 -0.4109 -0.3096
 1699SOL    HW116733   0.651   1.340   2.074 -0.7151  0.3767 -0.0180
 1699SOL    HW216734   0.700   1.425   1.965 -3.3598  2.7734 -1.1261
 1700SOL     OW16735   2.344   1.141   8.711 -0.0386  0.3252  0.2732
 1700SOL    HW116736   2.264   1.092   8.692 -0.0616  0.4299  0.1031
 1700SOL    HW216737   2.335   1.209   8.645 -2.2333  0.6413  0.9050
 1701SOL     OW16738   3.465   4.121   8.259  0.1396  0.7995  0.3699
 1701SOL    HW116739   3.519   4.200   8.260  0.8280  0.3299  0.5939
 1701SOL    HW216740   3.482   4.081   8.344 -1.0132  1.5862  0.9818
 1702SOL     OW16741   1.522   1.037  15.572  0.0374 -0.2034 -0.4185
 1702SOL    HW116742   1.569   1.002  15.648 -1.4040 -2.2154 -0.4736
 1702SOL    HW216743   1.580   1.007  15.501  4.7321  1.8578  2.5436
 1703SOL     OW16744   4.051   2.920   6.103  0.3650  0.1963 -0.9917
 1703SOL    HW116745   4.041   2.844   6.160  1.3650  0.2769 -0.7038
 1703SOL    HW216746   3.959   2.946   6.093  0.9472  3.8604  3.1729
 1704SOL     OW16747   1.787   4.077   3.671  0.6260 -0.3098 -0.4249
 1704SOL    HW116748   1.731   4.084   3.594  1.1845 -0.7574 -0.8714
 1704SOL    HW216749   1.871   4.110   3.640  0.4669  0.6075  0.1376
 1705SOL     OW16750   2.853   2.262   8.361 -0.0909  0.3711 -0.2009
 1705SOL    HW116751   2.922   2.199   8.384  0.4278  0.6441 -1.0214
 1705SOL    HW216752   2.808   2.216   8.289 -1.6426 -1.2318  1.7785
 1706SOL     OW16753   2.369   1.440   4.345 -0.6211 -0.0750  0.0618
 1706SOL    HW116754   2.376   1.367   4.406  0.7401 -0.8846 -1.0634
 1706SOL    HW216755   2.357   1.509   4.409 -4.2284 -0.6084 -0.0212
 1707SOL     OW16756   0.424   1.758   7.044  0.1877 -0.4018 -0.5049
 1707SOL    HW116757   0.478   1.819   7.095  1.2351  0.1645 -2.2662
 1707SOL    HW216758   0.447   1.779   6.953  1.3562  0.1075 -0.0915
 1708SOL     OW16759   3.426   4.687   8.251 -0.2048  0.2874  0.4002
 1708SOL    HW116760   3.497   4.652   8.305  0.3634 -1.6232 -1.5787
 1708SOL    HW216761   3.462   4.706   8.164  1.7596  0.1621  1.1980
 1709SOL     OW16762   1.441   3.406   4.440 -1.0484 -0.0397 -0.3879
 1709SOL    HW116763   1.435   3.476   4.505  1.0268  0.4456 -0.7232
 1709SOL    HW216764   1.456   3.447   4.354 -2.6707 -1.1487 -1.1988
 1710SOL     OW16765   1.686   0.264  10.133  0.5755 -0.3234  0.3287
 1710SOL    HW116766   1.773   0.235  10.105  0.6785 -0.4239  0.7602
 1710SOL    HW216767   1.699   0.359  10.136  3.1211 -0.7051  1.0744
 1711SOL     OW16768   4.283   1.749   7.613  0.1925 -0.2594  0.1886
 1711SOL    HW116769   4.206   1.707   7.651  1.5199 -1.5082  1.4588
 1711SOL    HW216770   4.245   1.771   7.528  0.6414 -0.7202 -0.1273
 1712SOL     OW16771   1.221   4.541   6.146 -0.3316  0.1992  0.2544
 1712SOL    HW116772   1.260   4.601   6.083  1.4663 -1.8818 -0.6290
 1712SOL    HW216773   1.284   4.468   6.136  1.0519  1.4688 -0.2875
 1713SOL     OW16774   3.823   3.660   6.192 -0.4185  0.6946  0.1924
 1713SOL    HW116775   3.882   3.727   6.157  0.3138 -0.6577 -1.1785
 1713SOL    HW216776   3.759   3.714   6.237 -0.4616 -0.6596  1.7649
 1714SOL     OW16777   3.109   2.234  14.680 -0.6782 -0.0406 -0.7020
 1714SOL    HW116778   3.166   2.214  14.606  0.0800  0.7743 -0.3432
 1714SOL    HW216779   3.159   2.194  14.752 -2.1361  0.3627  0.5420
 1715SOL     OW16780   1.112   3.538   5.801  0.0719 -0.2694  0.1629
 1715SOL    HW116781   1.140   3.453   5.767  0.0221  0.0370 -0.6460
 1715SOL    HW216782   1.195   3.572   5.836 -0.7024  0.3071  1.4455
 1716SOL     OW16783   2.261   2.729  11.558  0.1835  0.4173  1.0355
 1716SOL    HW116784   2.187   2.673  11.537  2.1038 -1.1837 -1.5061
 1716SOL    HW216785   2.268   2.716  11.652  1.9474  1.1300  1.0014
 1717SOL     OW16786   2.589   4.363   9.438  0.3644 -0.1094 -0.2291
 1717SOL    HW116787   2.680   4.382   9.459  0.1343 -0.6927  1.2961
 1717SOL    HW216788   2.592   4.391   9.347  1.4577  0.9014  0.1183
 1718SOL     OW16789   1.870   1.167   5.976  0.3121 -0.3551 -0.0299
 1718SOL    HW116790   1.839   1.192   5.889  1.2445  3.1276  0.6394
 1718SOL    HW216791   1.919   1.245   6.001 -0.8483  0.3044  0.2070
 1719SOL     OW16792   0.848   4.669  17.706  0.4654 -0.4081  0.0106
 1719SOL    HW116793   0.784   4.642   0.019  1.2618 -2.0062  0.1283
 1719SOL    HW216794   0.922   4.612  17.726 -0.3466 -0.7432  2.0778
 1720SOL     OW16795   1.334   2.474   5.216  0.3330  0.1243 -0.8890
 1720SOL    HW116796   1.426   2.462   5.192 -0.4949 -2.2816 -2.8306
 1720SOL    HW216797   1.328   2.451   5.308 -0.0051  0.6215 -0.7855
 1721SOL     OW16798   1.548   0.409   9.599  0.4875 -0.2473 -0.5749
 1721SOL    HW116799   1.458   0.382   9.583 -0.1807  1.2097  0.7929
 1721SOL    HW216800   1.532   0.446   9.685 -0.0924  3.1716 -2.1299
 1722SOL     OW16801   4.506   2.960   4.473 -0.0681  0.2746 -0.3538
 1722SOL    HW116802   4.523   2.919   4.388  1.9940 -0.8551  0.6150
 1722SOL    HW216803   4.472   3.045   4.446  1.4693  0.9882 -0.0036
 1723SOL     OW16804   1.598   0.702   2.530  0.7783 -0.6087 -0.4305
 1723SOL    HW116805   1.577   0.623   2.481 -1.1807 -0.3836  0.0479
 1723SOL    HW216806   1.553   0.675   2.611 -0.1303  0.6178 -0.5192
 1724SOL     OW16807   2.296   4.726   2.065 -0.7778 -0.4210 -0.1761
 1724SOL    HW116808   2.368   0.045   2.090 -0.3975 -0.8615 -0.2566
 1724SOL    HW216809   2.251   0.053   2.012 -0.4464  1.6238  2.0735
 1725SOL     OW16810   1.380   2.125   5.507  0.0484 -0.0595  0.4308
 1725SOL    HW116811   1.468   2.160   5.496  0.5451 -0.8033  2.0368
 1725SOL    HW216812   1.375   2.086   5.419 -1.6483  0.6907  0.1898
 1726SOL     OW16813   3.475   1.195   6.216 -0.3714 -0.0763 -0.1857
 1726SOL    HW116814   3.421   1.153   6.149 -0.9955  2.4833 -1.2709
 1726SOL    HW216815   3.460   1.132   6.287  0.2799 -0.4487 -0.3736
 1727SOL     OW16816   4.091   1.461  11.103  0.1795 -0.6102  0.0211
 1727SOL    HW116817   4.042   1.483  11.182 -0.0822 -0.0256 -0.2956
 1727SOL    HW216818   4.165   1.522  11.108 -1.3177  1.2675 -0.4449
 1728SOL     OW16819   1.190   0.402   0.406 -0.1378  0.2912  0.4474
 1728SOL    HW116820   1.229   0.443   0.330  0.8340 -2.4203 -0.5285
 1728SOL    HW216821   1.251   0.428   0.475  0.3269 -0.5303  0.3440
 1729SOL     OW16822   2.021   0.098   6.861  0.2147 -0.0342 -0.0754
 1729SOL    HW116823   1.943   0.147   6.832 -0.1168  0.8716  2.3226
 1729SOL    HW216824   2.039   0.145   6.943 -0.8588 -1.8070  1.1667
 1730SOL     OW16825   0.091   0.158  12.883 -0.4176 -0.3526  0.2212
 1730SOL    HW116826   0.158   0.226  12.890  0.6275 -1.2835 -0.7498
 1730SOL    HW216827   0.122   0.112  12.805  2.0911  0.5309  0.6926
 1731SOL     OW16828   0.324   1.054   8.346 -0.0669 -0.2200  0.1576
 1731SOL    HW116829   0.233   1.036   8.371  0.2973  0.2301  1.8485
 1731SOL    HW216830   0.384   1.043   8.419  1.6427 -0.1562 -1.2444
 1732SOL     OW16831   1.755   3.967   0.305 -0.1720 -0.3429  0.0848
 1732SOL    HW116832   1.754   4.062   0.318 -1.5921 -0.1389 -1.5126
 1732SOL    HW216833   1.680   3.964   0.246  0.7498 -0.4492 -1.0833
 1733SOL     OW16834   0.598   4.542   2.758 -0.8976  0.1068 -0.4133
 1733SOL    HW116835   0.612   4.477   2.827 -1.7942 -0.5718 -0.8649
 1733SOL    HW216836   0.627   4.611   2.817  1.7711 -2.6443  1.5070
 1734SOL     OW16837   4.423   2.188   8.760  0.1374 -0.6109 -0.0928
 1734SOL    HW116838   4.474   2.269   8.771 -0.9993 -0.1103  1.4836
 1734SOL    HW216839   4.483   2.127   8.719  1.2083 -1.0974  2.1840
 1735SOL     OW16840   0.460   2.274  15.816 -0.4220  0.0053 -0.4331
 1735SOL    HW116841   0.458   2.181  15.793 -2.2956  0.1695 -0.8583
 1735SOL    HW216842   0.369   2.290  15.838 -0.8269 -0.2405 -1.9117
 1736SOL     OW16843   1.734   2.811  16.402  0.0833  0.1679 -0.1961
 1736SOL    HW116844   1.688   2.777  16.479  2.1634  2.5947  2.0966
 1736SOL    HW216845   1.678   2.778  16.331  0.0203  2.1643 -1.0759
 1737SOL     OW16846   2.474   2.772   5.164  0.0296 -0.2878  0.5142
 1737SOL    HW116847   2.496   2.837   5.231 -1.9262  0.2946  0.5843
 1737SOL    HW216848   2.459   2.693   5.216 -0.9759 -0.2109  0.3292
 1738SOL     OW16849   1.838   0.133   4.329 -0.7838  0.2427 -0.4205
 1738SOL    HW116850   1.796   0.139   4.415  1.2385 -4.0689  0.8689
 1738SOL    HW216851   1.794   0.052   4.301  2.2267 -1.5706  0.1767
 1739SOL     OW16852   3.755   2.794   9.271 -0.4219 -0.1389 -0.1529
 1739SOL    HW116853   3.680   2.836   9.228  0.2495 -0.9799 -2.1798
 1739SOL    HW216854   3.710   2.717   9.305  0.4074 -0.8743 -0.7231
 1740SOL     OW16855   3.032   1.358   4.795 -0.0880 -0.1821 -0.2376
 1740SOL    HW116856   3.012   1.266   4.775 -0.0413  0.0871 -1.5051
 1740SOL    HW216857   2.950   1.375   4.842  1.2164 -2.3873  2.9116
 1741SOL     OW16858   2.547   1.314   3.991  0.5463  0.0246 -0.6561
 1741SOL    HW116859   2.600   1.316   3.911  0.4648  0.2672 -0.7032
 1741SOL    HW216860   2.457   1.338   3.969  0.1230  0.6998  1.7872
 1742SOL     OW16861   4.634   0.112   2.304  0.3382 -0.0938 -0.2561
 1742SOL    HW116862   4.708   0.156   2.346 -0.2850  1.9495 -1.2880
 1742SOL    HW216863   4.587   0.085   2.383  1.3938 -0.6059  0.1967
 1743SOL     OW16864   2.793   1.328   9.084 -0.1821  0.7823 -0.1152
 1743SOL    HW116865   2.865   1.279   9.044  1.2252  1.6193  1.3923
 1743SOL    HW216866   2.724   1.262   9.076 -0.3659  0.9899 -0.2155
 1744SOL     OW16867   4.612   0.406   2.992 -0.3313  0.0695 -0.4476
 1744SOL    HW116868   4.605   0.471   2.922  0.9151 -0.9589 -1.5347
 1744SOL    HW216869   4.705   0.409   3.012  0.0135 -2.3562 -1.6297
 1745SOL     OW16870   2.058   4.456   0.496 -0.0008  0.0020 -0.5843
 1745SOL    HW116871   2.103   4.398   0.557 -1.2495 -0.2001  0.1364
 1745SOL    HW216872   1.980   4.466   0.550 -0.9792  0.8953 -2.1721
 1746SOL     OW16873   3.039   1.895   4.525 -0.2855 -0.1150  0.3055
 1746SOL    HW116874   3.014   1.813   4.483  0.0249  0.1339 -0.3735
 1746SOL    HW216875   3.078   1.947   4.455  0.8503 -0.1464  0.9110
 1747SOL     OW16876   1.523   4.601   8.697  0.1068 -0.1877 -0.2770
 1747SOL    HW116877   1.445   4.637   8.737  2.0618  0.6529  2.7715
 1747SOL    HW216878   1.477   4.535   8.645 -0.6917 -0.6468  1.0301
 1748SOL     OW16879   0.629   2.696   9.014 -0.3259 -0.2948 -0.3629
 1748SOL    HW116880   0.699   2.645   9.056  0.3242  0.5238 -0.4574
 1748SOL    HW216881   0.649   2.684   8.921  0.8609 -0.4093 -0.0952
 1749SOL     OW16882   4.144   2.178   8.677  0.0030  0.1762 -0.0343
 1749SOL    HW116883   4.234   2.199   8.702 -0.3548  0.5514  0.9524
 1749SOL    HW216884   4.141   2.223   8.593 -0.7596  0.1515 -0.0212
 1750SOL     OW16885   2.116   1.683   4.789 -0.1186  0.2237  0.0190
 1750SOL    HW116886   2.044   1.646   4.840 -0.0731  0.4442  0.2442
 1750SOL    HW216887   2.091   1.668   4.698 -0.2609  2.4636 -0.2932
 1751SOL     OW16888   3.738   3.896   0.104  0.0130 -0.6575 -0.4343
 1751SOL    HW116889   3.824   3.855   0.092  0.3591 -0.0043 -0.1885
 1751SOL    HW216890   3.763   3.959   0.172  0.2356 -0.4222 -0.7323
 1752SOL     OW16891   0.042   2.700  13.088 -0.8827 -0.8270 -0.0303
 1752SOL    HW116892   4.702   2.716  13.037 -1.5505 -1.9311  0.6569
 1752SOL    HW216893   0.075   2.787  13.110 -1.2621 -0.9618  1.0798
 1753SOL     OW16894   2.276   2.171  16.072  0.0804 -0.4926 -0.3289
 1753SOL    HW116895   2.274   2.213  16.158 -0.5967  2.2143 -1.6856
 1753SOL    HW216896   2.359   2.126  16.087  0.0441 -0.0217  1.3082
 1754SOL     OW16897   1.674   1.384  13.113  0.0324  0.3726 -0.3678
 1754SOL    HW116898   1.626   1.388  13.196  1.7687  0.0093  0.6476
 1754SOL    HW216899   1.751   1.340  13.149 -0.1787 -1.0673 -1.6512
 1755SOL     OW16900   0.219   0.550  10.867 -0.1021  0.0101 -0.0891
 1755SOL    HW116901   0.257   0.481  10.921 -0.2348 -0.6643 -0.8671
 1755SOL    HW216902   0.291   0.577  10.811 -0.5226 -0.7973 -1.0243
 1756SOL     OW16903   4.101   4.028   2.964 -0.1281 -0.2610  0.2965
 1756SOL    HW116904   4.013   4.017   3.001  0.4228  1.1646  2.0125
 1756SOL    HW216905   4.133   3.939   2.951  1.1165  0.2840 -0.2707
 1757SOL     OW16906   4.519   2.744   5.585  0.5627  0.2975  1.0381
 1757SOL    HW116907   4.494   2.653   5.569  0.5558 -0.3337  4.7809
 1757SOL    HW216908   4.450   2.768   5.646 -0.8780 -0.6776 -0.1872
 1758SOL     OW16909   4.108   3.464   7.624  0.0327  0.1337  0.5337
 1758SOL    HW116910   4.098   3.380   7.579 -1.4815  0.8202 -0.3775
 1758SOL    HW216911   4.069   3.442   7.709  1.5798  1.0531  1.4879
 1759SOL     OW16912   0.637   0.882   3.182  0.2086 -0.2467 -0.3300
 1759SOL    HW116913   0.575   0.856   3.249 -0.9733 -0.2184 -1.4120
 1759SOL    HW216914   0.585   0.863   3.104  0.1699  0.6355 -0.5186
 1760SOL     OW16915   1.889   0.323   6.750  0.2459 -0.1893  0.2244
 1760SOL    HW116916   1.951   0.395   6.745 -0.5307  0.4450 -0.2969
 1760SOL    HW216917   1.820   0.359   6.805  0.5295 -0.7002  0.9185
 1761SOL     OW16918   2.271   2.248  15.806 -0.5508  0.6064 -0.2097
 1761SOL    HW116919   2.220   2.328  15.823  0.3746  0.4456  3.3251
 1761SOL    HW216920   2.276   2.215  15.896  2.3381  0.6530 -0.3525
 1762SOL     OW16921   2.755   2.644   5.661 -0.0691  0.4865 -0.3157
 1762SOL    HW116922   2.838   2.636   5.707 -0.2520 -0.3008 -0.1255
 1762SOL    HW216923   2.775   2.673   5.572 -0.5052  1.3956 -0.1197
 1763SOL     OW16924   0.044   1.741   9.699  0.4756 -0.6606 -0.0879
 1763SOL    HW116925   4.690   1.719   9.701  0.8166 -1.6951  3.2070
 1763SOL    HW216926   0.080   1.681   9.763  2.1394  1.4559  0.9690
 1764SOL     OW16927   2.545   4.652   3.328 -0.2512 -0.2545 -0.0426
 1764SOL    HW116928   2.501   4.717   3.273 -0.0993  0.0974  0.2624
 1764SOL    HW216929   2.623   4.650   3.272 -1.9293  1.6511 -2.4589
 1765SOL     OW16930   3.695   1.258   7.113 -1.4548 -0.2993  0.1514
 1765SOL    HW116931   3.682   1.230   7.023  1.1513 -0.4627 -0.1780
 1765SOL    HW216932   3.756   1.331   7.104 -1.2511 -0.6610 -1.3320
 1766SOL     OW16933   3.661   1.276   4.728 -0.1092  0.6133 -0.0150
 1766SOL    HW116934   3.729   1.313   4.786  1.3226  1.9793 -2.5764
 1766SOL    HW216935   3.588   1.337   4.725 -0.5895  0.0389 -0.0421
 1767SOL     OW16936   3.546   4.582  15.804 -0.0656  0.3769  0.7298
 1767SOL    HW116937   3.642   4.581  15.804 -0.0549  1.0131  0.6412
 1767SOL    HW216938   3.519   4.610  15.891 -2.0807  0.7994 -0.0360
 1768SOL     OW16939   4.467   3.380  17.421  0.1902 -0.3285  0.3214
 1768SOL    HW116940   4.431   3.330  17.347  2.9741  0.4251 -1.5408
 1768SOL    HW216941   4.560   3.359  17.424  0.5986  1.2563 -1.4232
 1769SOL     OW16942   4.068   3.678   4.109  0.0537 -0.2875  1.0103
 1769SOL    HW116943   4.155   3.715   4.125 -0.2416  0.5394  0.6892
 1769SOL    HW216944   4.086   3.603   4.052  0.4072  0.1868  0.5000
 1770SOL     OW16945   4.665   4.666   5.184  0.4239  0.0029 -0.5426
 1770SOL    HW116946   4.570   4.666   5.200  0.4995  0.7487 -0.1022
 1770SOL    HW216947   4.692   4.580   5.152 -1.7220 -1.1445  0.7016
 1771SOL     OW16948   3.770   0.557  12.125 -0.4714  0.3693  0.1971
 1771SOL    HW116949   3.815   0.612  12.188 -1.1336  2.9118 -1.5426
 1771SOL    HW216950   3.785   0.614  12.049  1.7481  2.1381  1.9806
 1772SOL     OW16951   0.061   1.133   2.200 -0.1209 -0.1140 -0.0720
 1772SOL    HW116952   0.017   1.063   2.152  1.9697 -2.2722  1.1910
 1772SOL    HW216953   0.015   1.206   2.159  2.7598  1.7539  0.0175
 1773SOL     OW16954   2.609   1.729  16.204 -0.1474 -0.3348 -0.1918
 1773SOL    HW116955   2.598   1.669  16.130 -1.1571 -2.0712  1.3676
 1773SOL    HW216956   2.527   1.728  16.252  0.4647 -1.7249  0.8290
 1774SOL     OW16957   3.288   1.820  17.136  0.3459 -0.5088 -0.0108
 1774SOL    HW116958   3.341   1.775  17.070  0.7159  0.1594 -0.1704
 1774SOL    HW216959   3.293   1.912  17.110 -1.0057 -1.1047 -2.4061
 1775SOL     OW16960   2.672   4.228   1.749  0.1862 -0.2504  0.0058
 1775SOL    HW116961   2.587   4.187   1.730  0.4578 -0.8502  0.0761
 1775SOL    HW216962   2.680   4.301   1.688 -1.4258  0.4429  0.6259
 1776SOL     OW16963   1.899   0.135   7.696 -0.5065 -0.1757  0.6390
 1776SOL    HW116964   1.978   0.178   7.729 -0.0512  0.7710 -1.6724
 1776SOL    HW216965   1.921   0.049   7.731 -1.1414 -0.1715  1.0594
 1777SOL     OW16966   2.481   2.674   8.102  0.6849  0.9504 -0.2639
 1777SOL    HW116967   2.539   2.750   8.099  0.3939  1.1593 -0.5560
 1777SOL    HW216968   2.395   2.711   8.122 -0.5748 -2.6454  1.1029
 1778SOL     OW16969   0.196   3.064  11.652 -0.1187  0.0512 -0.0823
 1778SOL    HW116970   0.131   3.116  11.699 -0.5644 -2.0824  1.6626
 1778SOL    HW216971   0.207   2.993  11.715  3.5638  0.2809 -0.4779
 1779SOL     OW16972   4.324   3.653   6.402 -0.3342  0.3027  0.1781
 1779SOL    HW116973   4.346   3.624   6.490  0.2711 -2.6831 -0.9581
 1779SOL    HW216974   4.343   3.579   6.344  1.9624 -1.1237  2.7801
 1780SOL     OW16975   1.918   1.146   7.069  0.5629 -0.4608  0.5870
 1780SOL    HW116976   1.966   1.215   7.022 -0.5924  0.1191  0.2665
 1780SOL    HW216977   1.839   1.149   7.015  0.3369  1.1589  1.0028
 1781SOL     OW16978   1.828   0.845   7.690  0.2371  0.0585 -0.2312
 1781SOL    HW116979   1.840   0.866   7.783 -1.9814  0.0489  0.0420
 1781SOL    HW216980   1.808   0.752   7.687  0.2537  0.1264 -2.2830
 1782SOL     OW16981   4.447   0.270   1.051  0.0186 -0.2361 -0.0257
 1782SOL    HW116982   4.397   0.217   1.113 -0.8468  0.8523  0.2225
 1782SOL    HW216983   4.449   0.215   0.973 -0.4089 -0.4506  0.1148
 1783SOL     OW16984   1.290   2.330   5.851 -0.0897  0.8070  0.6471
 1783SOL    HW116985   1.359   2.294   5.796  0.3814  1.7667  0.6022
 1783SOL    HW216986   1.321   2.419   5.870 -2.2202  1.0166  3.0970
 1784SOL     OW16987   1.349   2.307   7.864 -0.3630 -0.1915  0.0399
 1784SOL    HW116988   1.431   2.322   7.910 -0.7992 -1.9954  1.3836
 1784SOL    HW216989   1.293   2.381   7.890  1.3330  0.4726  1.8372
 1785SOL     OW16990   3.827   0.165  16.489 -0.5951  0.0156 -0.2091
 1785SOL    HW116991   3.884   0.240  16.499  0.1214 -0.7588  1.4976
 1785SOL    HW216992   3.831   0.124  16.575 -0.4143  1.0050  0.2558
 1786SOL     OW16993   0.380   3.697   0.779  0.0425 -0.5158 -0.5896
 1786SOL    HW116994   0.313   3.722   0.843  1.1833  1.5558 -0.2267
 1786SOL    HW216995   0.445   3.672   0.845 -1.4343 -0.5642  0.8595
 1787SOL     OW16996   3.418   1.909   0.463  0.0685  0.3327 -0.3953
 1787SOL    HW116997   3.452   1.848   0.529  0.1482 -0.7263 -1.4266
 1787SOL    HW216998   3.440   1.864   0.381 -0.9630  2.6278 -1.9349
 1788SOL     OW16999   1.486   0.856   7.770  0.2979 -0.4028 -0.0522
 1788SOL    HW117000   1.426   0.894   7.706  2.1544  0.8585 -1.0540
 1788SOL    HW217001   1.510   0.931   7.824  0.7194 -0.3834 -0.2681
 1789SOL     OW17002   0.003   2.738  13.850 -0.5054 -0.1321  0.2170
 1789SOL    HW117003   0.013   2.823  13.894  0.8659 -0.1271 -0.0933
 1789SOL    HW217004   4.650   2.717  13.866 -0.1669 -1.2865  0.5963
 1790SOL     OW17005   3.336   1.653  16.749  0.4519 -0.6175  0.0247
 1790SOL    HW117006   3.344   1.690  16.661  1.5904  0.9984  0.8080
 1790SOL    HW217007   3.366   1.563  16.739  1.9176 -0.1060 -0.1718
 1791SOL     OW17008   4.148   0.273   4.032 -0.2048  0.1271  0.5560
 1791SOL    HW117009   4.201   0.246   3.957 -1.8988 -0.9881 -0.2362
 1791SOL    HW217010   4.210   0.290   4.103  0.8347  3.1164 -1.0770
 1792SOL     OW17011   4.249   3.573   1.929 -0.0964  0.1196  0.5207
 1792SOL    HW117012   4.240   3.478   1.920  0.9067 -0.0901  1.7062
 1792SOL    HW217013   4.338   3.600   1.906  0.2483 -0.8589  0.7095
 1793SOL     OW17014   2.651   0.014   5.564  0.1591 -0.2211  0.4373
 1793SOL    HW117015   2.649   0.107   5.589  1.0855  0.0570 -0.5486
 1793SOL    HW217016   2.595   4.723   5.636 -1.6349  1.0632 -0.4398
 1794SOL     OW17017   3.893   4.583   6.921  0.2017 -0.1404  0.1694
 1794SOL    HW117018   3.874   4.541   6.837  3.3362  0.2884 -0.7423
 1794SOL    HW217019   3.989   4.587   6.919 -0.0301  4.8592 -0.4144
 1795SOL     OW17020   2.152   2.435  13.658  0.9654 -0.0998  0.5381
 1795SOL    HW117021   2.100   2.507  13.693  0.2869 -0.5396  0.4279
 1795SOL    HW217022   2.195   2.479  13.584  1.3314  0.5488  1.1415
 1796SOL     OW17023   1.860   0.882   1.806  0.2497  0.1882  0.5282
 1796SOL    HW117024   1.951   0.896   1.779 -0.1439  1.0482 -0.3476
 1796SOL    HW217025   1.858   0.929   1.889  0.2924 -1.5110  1.4996
 1797SOL     OW17026   2.419   3.678  14.303 -0.2836  0.7269  0.1880
 1797SOL    HW117027   2.390   3.753  14.355  1.2508  0.4699  1.3916
 1797SOL    HW217028   2.398   3.711  14.215  0.3389 -1.1198 -0.6531
 1798SOL     OW17029   0.425   0.245  10.802  0.3635  0.0345  0.1826
 1798SOL    HW117030   0.441   0.152  10.783  0.2278 -0.3562  1.9495
 1798SOL    HW217031   0.331   0.235  10.818  0.4294  0.6738  0.9345
 1799SOL     OW17032   2.175   1.115   0.535  0.4541 -0.6329 -0.1791
 1799SOL    HW117033   2.105   1.059   0.500  0.3710 -1.8414  1.8960
 1799SOL    HW217034   2.252   1.076   0.494  1.1047 -0.0123  0.4666
 1800SOL     OW17035   0.423   1.990  14.878 -0.1985  0.1701  0.2478
 1800SOL    HW117036   0.393   2.077  14.850  2.6042 -0.0793 -3.4726
 1800SOL    HW217037   0.398   1.947  14.796  0.5670  0.4102 -0.1032
 1801SOL     OW17038   2.348   1.858   8.585  0.0251 -0.0689  0.3251
 1801SOL    HW117039   2.348   1.949   8.554  0.6146 -0.1394  0.1185
 1801SOL    HW217040   2.403   1.874   8.661 -0.2310  0.9099  0.3156
 1802SOL     OW17041   3.670   1.709  10.550 -0.5892  0.0933 -0.0231
 1802SOL    HW117042   3.606   1.764  10.595  0.1550 -0.9548  2.2871
 1802SOL    HW217043   3.631   1.720  10.463 -0.5537  1.3282  0.1165
 1803SOL     OW17044   4.506   1.222   7.215 -0.2708  0.3234 -0.8659
 1803SOL    HW117045   4.492   1.316   7.205 -0.7931 -0.0168 -3.4949
 1803SOL    HW217046   4.416   1.189   7.225  0.6189 -0.3990  4.5960
 1804SOL     OW17047   2.576   0.655   3.070  0.5967 -0.2121  0.4165
 1804SOL    HW117048   2.556   0.618   3.156  0.4196 -1.1542 -0.0293
 1804SOL    HW217049   2.634   0.588   3.035 -0.6517 -1.3598  0.5472
 1805SOL     OW17050   1.869   2.373  15.688 -0.1721  0.5595  0.2125
 1805SOL    HW117051   1.885   2.398  15.779  1.2177  1.4953 -0.2820
 1805SOL    HW217052   1.925   2.437  15.643  0.0656 -0.0273 -0.3357
 1806SOL     OW17053   3.359   0.416   7.938 -0.3354  0.1252  0.2454
 1806SOL    HW117054   3.379   0.437   8.029  0.2111 -1.3186  0.4622
 1806SOL    HW217055   3.421   0.350   7.908 -1.2344  0.5891 -2.6405
 1807SOL     OW17056   4.134   1.625   7.966  0.0943  0.4506 -0.1108
 1807SOL    HW117057   4.228   1.644   7.963 -0.1677  1.7881  0.0327
 1807SOL    HW217058   4.124   1.563   7.894 -1.0487 -0.4823  0.8481
 1808SOL     OW17059   1.654   4.666   8.265 -0.4241  0.2296 -0.5578
 1808SOL    HW117060   1.704   4.686   8.186  1.4029  3.5744  1.4704
 1808SOL    HW217061   1.566   4.644   8.232 -0.3515  0.9300 -1.2190
 1809SOL     OW17062   3.048   1.916   3.237  0.1034 -0.4587 -0.2798
 1809SOL    HW117063   2.980   1.892   3.300 -0.6780  1.7406 -0.2849
 1809SOL    HW217064   3.122   1.857   3.253 -0.1675 -0.3636  1.3604
 1810SOL     OW17065   2.391   4.631   5.156  0.4329  0.4279 -0.1084
 1810SOL    HW117066   2.312   4.586   5.186  2.0151 -2.1573  0.1825
 1810SOL    HW217067   2.450   4.604   5.227  1.0573  0.6296 -0.5445
 1811SOL     OW17068   4.526   4.194   6.139 -0.1792  0.4568 -0.0408
 1811SOL    HW117069   4.518   4.110   6.185 -0.1607 -0.0936 -1.0403
 1811SOL    HW217070   4.616   4.222   6.157 -0.6239  1.1519  1.0678
 1812SOL     OW17071   3.509   3.180   2.394  0.4199  0.7650 -0.2720
 1812SOL    HW117072   3.462   3.205   2.314  0.6432 -0.2282 -0.7209
 1812SOL    HW217073   3.460   3.106   2.429 -2.4462  1.7757 -2.1521
 1813SOL     OW17074   2.278   0.994  12.475  0.2136  0.1779 -0.0079
 1813SOL    HW117075   2.233   1.045  12.408 -1.4732 -0.7320  0.4545
 1813SOL    HW217076   2.266   1.050  12.551 -1.2684 -0.1577 -0.0051
 1814SOL     OW17077   2.362   0.083   7.849  0.6685  0.3700 -0.0197
 1814SOL    HW117078   2.326   0.040   7.927 -1.9617 -0.1921 -1.5146
 1814SOL    HW217079   2.437   0.031   7.820  0.5315  0.4430 -0.5033
 1815SOL     OW17080   0.765   1.782   8.085 -0.1979  0.7858  0.6128
 1815SOL    HW117081   0.742   1.784   7.992 -1.2231  1.5777  0.8898
 1815SOL    HW217082   0.747   1.689   8.098 -0.4936  0.6472 -0.7933
 1816SOL     OW17083   0.519   4.573   5.394  0.3996  0.3904 -0.2417
 1816SOL    HW117084   0.527   4.639   5.463 -0.0158  1.2314 -0.9957
 1816SOL    HW217085   0.496   4.489   5.433 -0.4345 -0.3121 -2.2491
 1817SOL     OW17086   2.650   3.774   5.474  0.1635  0.3471 -0.1242
 1817SOL    HW117087   2.598   3.783   5.394 -1.0161  1.4631  0.7736
 1817SOL    HW217088   2.628   3.858   5.513 -1.3201 -0.2714  0.3771
 1818SOL     OW17089   1.547   0.709   8.037 -0.5389 -0.4617  0.3860
 1818SOL    HW117090   1.547   0.759   7.955  0.0840 -2.9881 -1.1483
 1818SOL    HW217091   1.642   0.701   8.050 -0.3232  0.3061 -0.6918
 1819SOL     OW17092   4.569   2.623  17.584  0.1016  0.0473  0.2478
 1819SOL    HW117093   4.643   2.684  17.585 -0.4307  0.6747  2.0708
 1819SOL    HW217094   4.506   2.671  17.639 -0.0916  0.8132 -0.6506
 1820SOL     OW17095   3.722   3.678   4.228  0.0914 -0.2593 -0.3523
 1820SOL    HW117096   3.658   3.689   4.158  0.1366  0.9418 -0.1965
 1820SOL    HW217097   3.775   3.756   4.213 -1.2933  1.1274  2.0961
 1821SOL     OW17098   0.594   4.582   2.261  0.1717  0.1439  0.1566
 1821SOL    HW117099   0.685   4.575   2.233 -0.6367  1.2280 -2.7706
 1821SOL    HW217100   0.597   4.537   2.345 -0.9675  0.2092  0.2291
 1822SOL     OW17101   3.969   3.115   0.504  0.0107 -0.5114  0.3358
 1822SOL    HW117102   3.938   3.044   0.561 -1.3357  1.0760  1.5904
 1822SOL    HW217103   3.987   3.065   0.425  1.1224  0.7245 -0.1938
 1823SOL     OW17104   0.564   0.602  15.591  0.3798  0.2344  0.2666
 1823SOL    HW117105   0.639   0.612  15.650  1.3930  0.8995 -1.1601
 1823SOL    HW217106   0.612   0.610  15.509  0.1948  0.5184  0.1869
 1824SOL     OW17107   0.185   2.273  10.853  0.1709 -0.1603 -0.6541
 1824SOL    HW117108   0.104   2.265  10.802 -0.0236  2.1520 -0.7156
 1824SOL    HW217109   0.167   2.252  10.945 -0.8271  0.6843 -0.6527
 1825SOL     OW17110   3.728   4.705   5.825 -0.4210 -0.1239 -0.4475
 1825SOL    HW117111   3.773   4.621   5.829 -1.3282 -0.5905 -0.1218
 1825SOL    HW217112   3.636   4.683   5.842 -1.0870  2.0543 -1.1774
 1826SOL     OW17113   1.124   1.725   4.819  0.0157  0.2959 -0.1102
 1826SOL    HW117114   1.204   1.754   4.775  0.4303  0.8302  1.0043
 1826SOL    HW217115   1.153   1.719   4.910  3.0710  0.8501 -1.0537
 1827SOL     OW17116   1.552   0.359   4.521  0.1360 -0.2605 -0.2489
 1827SOL    HW117117   1.641   0.334   4.543  0.7581  0.9863 -1.3407
 1827SOL    HW217118   1.560   0.450   4.551  0.4177  0.1821 -1.6657
 1828SOL     OW17119   3.479   2.523   2.893 -0.0247  0.1616 -0.0863
 1828SOL    HW117120   3.551   2.465   2.917  1.1803  2.0713  1.0021
 1828SOL    HW217121   3.524   2.607   2.902  0.3966  0.0886 -1.5442
 1829SOL     OW17122   1.279   2.755   3.993 -1.0181 -0.2562 -0.2114
 1829SOL    HW117123   1.255   2.671   3.953 -3.2907  0.6670 -0.7847
 1829SOL    HW217124   1.231   2.749   4.076  1.9054  2.2972  1.6347
 1830SOL     OW17125   2.497   2.029   3.487  0.2539  0.8120 -0.2258
 1830SOL    HW117126   2.405   2.007   3.502  0.6771 -2.0434 -1.7867
 1830SOL    HW217127   2.517   1.974   3.411 -1.4116 -0.1090  0.0027
 1831SOL     OW17128   3.120   2.284   8.100 -0.1086  0.6277 -0.2186
 1831SOL    HW117129   3.147   2.215   8.160 -0.6687  2.6527  2.3666
 1831SOL    HW217130   3.144   2.241   8.018  0.6469 -1.5971  1.1803
 1832SOL     OW17131   1.826   2.543  16.068 -0.1287  0.2490  0.4417
 1832SOL    HW117132   1.747   2.566  16.019  0.8283 -2.0575 -2.1893
 1832SOL    HW217133   1.800   2.453  16.091 -0.7764  1.1084  3.0634
 1833SOL     OW17134   2.630   4.705   6.468 -0.1720  0.0921 -0.1844
 1833SOL    HW117135   2.687   0.040   6.449  1.0787 -0.7237  0.3842
 1833SOL    HW217136   2.665   4.631   6.418  0.7580 -0.3002  1.0424
 1834SOL     OW17137   1.757   4.641   1.519  0.0671 -0.0624  0.1478
 1834SOL    HW117138   1.827   4.576   1.513  0.9251  0.6964  1.5955
 1834SOL    HW217139   1.808   4.705   1.570 -0.7963  0.4268  0.3910
 1835SOL     OW17140   2.320   0.399   5.304 -0.1135  0.4612  0.4179
 1835SOL    HW117141   2.265   0.343   5.359 -0.5803 -0.2506 -0.7696
 1835SOL    HW217142   2.335   0.335   5.234 -1.5150  1.3651 -0.7124
 1836SOL     OW17143   4.678   2.339  17.657  0.2843 -0.2987 -0.0859
 1836SOL    HW117144   4.632   2.422  17.670  1.1880  0.1413  0.3597
 1836SOL    HW217145   4.613   2.269  17.651 -1.0290  0.8676  0.5954
 1837SOL     OW17146   1.553   0.357  13.296 -0.2193  0.4629  0.5841
 1837SOL    HW117147   1.610   0.303  13.350 -0.2618 -1.7895 -1.6233
 1837SOL    HW217148   1.485   0.376  13.360 -0.1781  4.0104 -0.4147
 1838SOL     OW17149   0.041   3.065   4.417  0.1254  0.6642  0.5695
 1838SOL    HW117150   0.020   3.005   4.346 -0.6852  3.8286 -1.8506
 1838SOL    HW217151   0.037   3.010   4.496 -0.6354  0.8735  0.6736
 1839SOL     OW17152   3.864   1.240  10.717  0.3081 -0.2445  0.5448
 1839SOL    HW117153   3.857   1.299  10.642  0.8525 -3.2270 -1.8864
 1839SOL    HW217154   3.853   1.296  10.794  0.0593  1.8309 -0.9976
 1840SOL     OW17155   1.311   0.296   3.773 -0.3914  0.2621 -0.0703
 1840SOL    HW117156   1.375   0.342   3.718  0.1126 -0.2293  0.1049
 1840SOL    HW217157   1.271   0.232   3.714  1.8362  0.4128 -1.7613
 1841SOL     OW17158   1.337   2.136   8.795  0.1404 -0.4027 -0.0995
 1841SOL    HW117159   1.431   2.119   8.797  0.0791 -0.7438 -0.0731
 1841SOL    HW217160   1.304   2.107   8.880  0.6894 -1.3380 -0.1951
 1842SOL     OW17161   4.097   0.001  15.683 -0.0637  0.2924  0.4943
 1842SOL    HW117162   4.141   0.065  15.626 -0.8408 -0.1814 -0.6533
 1842SOL    HW217163   4.168   4.687  15.720 -0.2623 -0.5705 -0.3456
 1843SOL     OW17164   0.078   4.646  10.667 -0.5301  0.4842  0.2719
 1843SOL    HW117165   0.060   4.587  10.594 -0.2244 -0.5847  1.0582
 1843SOL    HW217166   0.019   4.718  10.643  0.0002  0.0828 -2.2311
 1844SOL     OW17167   2.355   0.699   5.097 -0.0769 -0.2002  0.9982
 1844SOL    HW117168   2.316   0.753   5.165 -0.4992 -0.0453  0.6316
 1844SOL    HW217169   2.445   0.731   5.090 -0.3123 -0.0143 -1.2590
 1845SOL     OW17170   2.730   1.564   2.795  0.4069 -0.2202 -0.0927
 1845SOL    HW117171   2.735   1.560   2.890  0.7749  0.0512 -0.1021
 1845SOL    HW217172   2.658   1.502   2.781 -0.2504  0.1101  1.8947
 1846SOL     OW17173   3.537   0.209  16.760 -0.9918 -0.1683 -0.1861
 1846SOL    HW117174   3.571   0.266  16.829  0.8764 -0.7190 -0.6394
 1846SOL    HW217175   3.611   0.150  16.745 -1.7322 -0.6635 -1.8354
 1847SOL     OW17176   3.254   0.297   4.101 -0.0576 -0.7199 -0.1663
 1847SOL    HW117177   3.293   0.385   4.094  3.8625 -2.5914 -1.6231
 1847SOL    HW217178   3.190   0.293   4.031  0.5460  2.5212 -0.9145
 1848SOL     OW17179   0.020   2.330   7.209  0.2520  0.1607  0.0971
 1848SOL    HW117180   0.010   2.394   7.139  0.2680 -2.1180 -1.9664
 1848SOL    HW217181   4.725   2.255   7.159 -1.8417  1.7725 -0.9229
 1849SOL     OW17182   2.774   0.040   0.903  0.3106  0.0373 -0.2451
 1849SOL    HW117183   2.754   4.700   0.954 -1.4251  1.5360  1.3788
 1849SOL    HW217184   2.826   0.087   0.968  0.2200  1.0334 -0.9040
 1850SOL     OW17185   0.234   4.516   1.683  0.2487 -0.7263 -0.5993
 1850SOL    HW117186   0.226   4.589   1.744  0.7312 -1.0851 -0.1044
 1850SOL    HW217187   0.190   4.441   1.724  0.3061 -0.4225  0.0116
 1851SOL     OW17188   2.274   1.792   7.121  0.1728  0.0919 -0.4030
 1851SOL    HW117189   2.343   1.811   7.184  0.8029 -0.2063 -0.9927
 1851SOL    HW217190   2.200   1.840   7.158 -1.0509 -3.3465  1.5979
 1852SOL     OW17191   3.031   2.372  12.080  0.3947  1.0908  0.2998
 1852SOL    HW117192   3.002   2.315  12.008  1.0260 -0.1731  1.0599
 1852SOL    HW217193   2.978   2.327  12.145 -2.7940  0.8854 -2.3849
 1853SOL     OW17194   3.699   1.045   4.569 -0.3027  0.6200  0.1479
 1853SOL    HW117195   3.666   1.118   4.620  0.2304  0.9872 -0.0270
 1853SOL    HW217196   3.654   0.974   4.614 -1.8668  1.2882 -0.3942
 1854SOL     OW17197   4.459   1.986   2.570  0.3681  0.2049  0.0213
 1854SOL    HW117198   4.485   1.931   2.644  1.0815  0.1674 -0.2555
 1854SOL    HW217199   4.459   2.073   2.609  2.5284  1.2438 -2.2757
 1855SOL     OW17200   0.151   3.028   3.095 -0.1859  0.0162 -0.7385
 1855SOL    HW117201   0.058   3.050   3.083 -0.2065  0.0488 -0.5277
 1855SOL    HW217202   0.169   2.948   3.047  0.3591  0.3339 -1.0597
 1856SOL     OW17203   3.616   1.885  11.729  0.1658 -0.0726  0.5371
 1856SOL    HW117204   3.649   1.973  11.747  0.8834 -0.0971 -0.6238
 1856SOL    HW217205   3.527   1.899  11.696 -0.2833 -0.4740  1.5798
 1857SOL     OW17206   1.929   0.319  13.234 -0.3278 -0.3230 -0.0236
 1857SOL    HW117207   1.868   0.316  13.160  0.0825  1.4115 -0.4328
 1857SOL    HW217208   1.895   0.403  13.265  0.5471  0.8268 -2.1464
 1858SOL     OW17209   0.180   3.989   4.289  0.0604 -0.0382 -0.4063
 1858SOL    HW117210   0.264   3.980   4.244 -0.4526 -0.9625 -1.1528
 1858SOL    HW217211   0.149   3.899   4.286 -0.4207  0.0769  1.3102
 1859SOL     OW17212   1.318   2.024   7.034 -0.5723 -0.1397  0.2555
 1859SOL    HW117213   1.399   2.008   6.985 -1.3111  2.0046 -1.6279
 1859SOL    HW217214   1.353   2.046   7.121  0.2419  1.8073 -0.5625
 1860SOL     OW17215   4.640   2.631   8.178 -0.4725  0.1472  0.1429
 1860SOL    HW117216   4.591   2.683   8.113  0.0781 -0.9509 -1.1616
 1860SOL    HW217217   4.577   2.562   8.196 -0.9505  0.6543  0.4406
 1861SOL     OW17218   3.469   4.224   3.876 -0.1753  0.0315 -0.2412
 1861SOL    HW117219   3.381   4.244   3.845 -0.5445 -1.3858 -0.0805
 1861SOL    HW217220   3.494   4.313   3.901 -0.6284  0.0723  0.0612
 1862SOL     OW17221   4.364   4.134   4.082 -0.1293 -0.8545  0.1647
 1862SOL    HW117222   4.283   4.129   4.031  0.6428 -2.1254 -0.9300
 1862SOL    HW217223   4.410   4.204   4.036  0.1928 -0.6269  0.8213
 1863SOL     OW17224   3.441   0.738   3.209 -0.4187 -0.3987 -0.4054
 1863SOL    HW117225   3.444   0.645   3.230 -0.5538 -0.0730  1.0633
 1863SOL    HW217226   3.377   0.760   3.277  0.9466 -0.6106  0.9429
 1864SOL     OW17227   1.031   1.645  10.350  0.1416  0.1180  1.0403
 1864SOL    HW117228   1.006   1.680  10.265 -0.7249 -0.7481  0.9541
 1864SOL    HW217229   1.055   1.555  10.326 -3.4449 -0.0732 -1.7283
 1865SOL     OW17230   0.630   0.928  14.995  0.4202 -0.5259 -0.0804
 1865SOL    HW117231   0.673   0.994  15.050 -1.2249 -0.4513  1.0988
 1865SOL    HW217232   0.688   0.852  15.010 -0.3554 -1.1865 -0.4222
 1866SOL     OW17233   3.650   0.967  10.727  0.4680 -0.1136  0.0314
 1866SOL    HW117234   3.630   1.044  10.675 -0.8665 -1.1380 -0.9872
 1866SOL    HW217235   3.567   0.968  10.774 -1.5154 -2.2946 -3.4098
 1867SOL     OW17236   2.199   0.107   6.645 -0.6097 -0.1750 -0.4725
 1867SOL    HW117237   2.150   0.142   6.720 -0.3131  2.3398 -1.4631
 1867SOL    HW217238   2.126   0.065   6.600 -1.8587  0.9844  0.4854
 1868SOL     OW17239   3.182   2.756   6.450 -0.0209  0.0769  0.2797
 1868SOL    HW117240   3.150   2.834   6.406  0.0768 -1.0591 -1.8172
 1868SOL    HW217241   3.264   2.777   6.494  1.1923 -2.8806 -0.5493
 1869SOL     OW17242   3.958   1.196   4.750  0.1203  0.1223 -0.4361
 1869SOL    HW117243   3.912   1.142   4.814  1.1651  2.6207  2.4623
 1869SOL    HW217244   3.957   1.132   4.679 -0.9933  0.2111 -0.4928
 1870SOL     OW17245   3.853   4.252   0.582 -0.6008 -0.5557  0.2328
 1870SOL    HW117246   3.843   4.294   0.497  0.1753  0.0671  0.4518
 1870SOL    HW217247   3.926   4.305   0.614 -1.4298  2.3116 -2.6789
 1871SOL     OW17248   1.900   0.222   8.461  0.3790  0.6899  0.3974
 1871SOL    HW117249   1.935   0.142   8.422  2.7136  1.9272 -0.0486
 1871SOL    HW217250   1.815   0.195   8.495  1.0160  0.0107  1.4647
 1872SOL     OW17251   1.395   0.489   6.912 -0.0309 -0.2121  0.6265
 1872SOL    HW117252   1.429   0.408   6.951 -3.4526 -2.6352 -1.5032
 1872SOL    HW217253   1.362   0.452   6.830  2.2838  2.2471 -1.4031
 1873SOL     OW17254   0.662   2.179  11.592  0.1839 -0.5840  0.3533
 1873SOL    HW117255   0.743   2.184  11.643 -0.8615 -1.6135  2.1261
 1873SOL    HW217256   0.695   2.184  11.502  2.9942 -1.3440  1.3303
 1874SOL     OW17257   2.378   0.322  13.983  0.2420 -0.4686  0.2170
 1874SOL    HW117258   2.292   0.363  13.978  0.5660  0.2695  0.6524
 1874SOL    HW217259   2.397   0.284  13.897 -0.6517  0.1759 -0.2610
 1875SOL     OW17260   2.719   3.295   8.281 -0.1640 -0.2498 -0.2642
 1875SOL    HW117261   2.700   3.269   8.191  0.3884 -0.5041 -0.3066
 1875SOL    HW217262   2.810   3.266   8.286 -0.5335 -0.9978  2.1340
 1876SOL     OW17263   1.433   2.576   0.500 -0.1712  0.2764  0.6133
 1876SOL    HW117264   1.501   2.510   0.482  0.6859  2.0628 -2.7460
 1876SOL    HW217265   1.435   2.626   0.419  2.2166 -0.9711 -0.0821
 1877SOL     OW17266   1.704   2.862  10.916 -0.4421 -0.0309  0.7699
 1877SOL    HW117267   1.714   2.957  10.908 -0.2690 -0.1662 -0.6100
 1877SOL    HW217268   1.676   2.826  10.832  1.6685 -1.3375  0.6315
 1878SOL     OW17269   1.737   3.368   5.773  0.1049  0.1271  0.1774
 1878SOL    HW117270   1.723   3.407   5.687  1.9001 -0.5073 -0.4067
 1878SOL    HW217271   1.649   3.338   5.794  0.3558  0.4337  1.6810
 1879SOL     OW17272   3.527   2.271   4.201  0.2715 -0.9304 -0.4660
 1879SOL    HW117273   3.528   2.233   4.114 -0.5200 -1.9147 -0.0421
 1879SOL    HW217274   3.620   2.289   4.216 -0.0005 -0.7547  1.0251
 1880SOL     OW17275   3.672   3.955  12.323  0.2151  0.3500 -0.9827
 1880SOL    HW117276   3.600   4.018  12.324  0.3018  0.4245  0.8635
 1880SOL    HW217277   3.724   3.990  12.250  1.4539 -1.9460 -1.2013
 1881SOL     OW17278   0.358   0.024   4.414  0.1604 -0.1218 -0.5884
 1881SOL    HW117279   0.454   0.030   4.418  0.0930 -0.5509  2.0413
 1881SOL    HW217280   0.343   4.689   4.473  0.2426 -0.7727 -1.3897
 1882SOL     OW17281   1.038   3.073   4.049 -0.3223 -0.0734 -0.4034
 1882SOL    HW117282   1.003   3.160   4.032 -3.7180 -1.2663  0.6664
 1882SOL    HW217283   1.055   3.053   3.957 -1.5688  1.3236 -0.9313
 1883SOL     OW17284   0.285   1.859   0.477  0.4366  0.4528 -0.6318
 1883SOL    HW117285   0.292   1.932   0.416 -0.6585 -0.4604 -1.8530
 1883SOL    HW217286   0.203   1.883   0.519  0.6178  1.2885 -0.7671
 1884SOL     OW17287   4.664   0.921   5.392  0.0317 -0.2812 -0.2089
 1884SOL    HW117288   4.691   0.841   5.438 -0.9790 -0.3154  0.3259
 1884SOL    HW217289   0.008   0.953   5.358  0.6757 -1.8848 -0.1459
 1885SOL     OW17290   2.774   0.046   2.391  0.0658  0.2249  0.3122
 1885SOL    HW117291   2.725   4.730   2.330  0.7425  0.5600 -0.5323
 1885SOL    HW217292   2.835   4.720   2.426 -0.9130 -0.2215  1.1957
 1886SOL     OW17293   3.901   2.746  10.043 -0.6963 -0.2010 -0.4393
 1886SOL    HW117294   3.903   2.728  10.137  2.5800  0.4800 -0.3601
 1886SOL    HW217295   3.893   2.841  10.040  2.1796  0.0025 -2.2873
 1887SOL     OW17296   3.015   3.549  16.080 -0.7362 -0.0767 -0.1837
 1887SOL    HW117297   2.961   3.504  16.015 -0.6955 -1.4575  0.7405
 1887SOL    HW217298   2.955   3.619  16.105  0.0179  0.2230  0.7733
 1888SOL     OW17299   0.361   2.850  13.227  0.3433  0.8221 -0.5842
 1888SOL    HW117300   0.328   2.940  13.228 -2.8215 -0.3301  0.1749
 1888SOL    HW217301   0.302   2.810  13.292 -0.2075  1.5344 -0.6409
 1889SOL     OW17302   2.049   2.794  12.639  0.0442 -0.2009  0.0279
 1889SOL    HW117303   2.091   2.788  12.553  2.5803  2.4970  1.0547
 1889SOL    HW217304   1.990   2.868  12.627  0.1776 -0.1402 -0.2677
 1890SOL     OW17305   1.888   0.250   3.564 -0.2044 -0.2078 -0.5316
 1890SOL    HW117306   1.883   0.158   3.587 -0.6093  0.0109  0.2467
 1890SOL    HW217307   1.813   0.283   3.613  0.7458  0.3835  0.5390
 1891SOL     OW17308   2.406   2.652  14.906 -0.6213  0.3097 -0.0428
 1891SOL    HW117309   2.448   2.735  14.882  0.2649  0.0339  0.5326
 1891SOL    HW217310   2.329   2.689  14.947  0.7059  1.6580  1.2377
 1892SOL     OW17311   1.178   1.458   9.214  0.0491  0.3220 -0.3458
 1892SOL    HW117312   1.261   1.504   9.202 -1.1849  2.4480 -0.7536
 1892SOL    HW217313   1.123   1.475   9.137 -1.7259 -1.0710  0.6140
 1893SOL     OW17314   2.614   2.427   6.176  0.1613 -0.3073  0.8571
 1893SOL    HW117315   2.677   2.389   6.115  1.5414  0.7656  1.6393
 1893SOL    HW217316   2.536   2.382   6.141 -1.5606  1.6211  2.2488
 1894SOL     OW17317   3.332   3.116   1.126  0.0203  0.1578 -0.3349
 1894SOL    HW117318   3.276   3.053   1.081  0.3879 -1.7734  1.9057
 1894SOL    HW217319   3.368   3.054   1.189  0.6282  3.1663  2.2889
 1895SOL     OW17320   1.308   4.690   4.778  0.1371 -0.1411 -0.7923
 1895SOL    HW117321   1.324   4.641   4.697  1.1624  0.0553 -0.7147
 1895SOL    HW217322   1.379   0.015   4.784  0.8882 -1.0561  0.0506
 1896SOL     OW17323   0.243   2.344   4.826 -0.6744 -0.6148 -0.0167
 1896SOL    HW117324   0.174   2.402   4.792  1.5478  1.0231 -1.6945
 1896SOL    HW217325   0.305   2.416   4.837 -2.1284  0.2957  2.3632
 1897SOL     OW17326   2.891   1.946  16.758  0.7233 -0.0211 -0.3878
 1897SOL    HW117327   2.962   1.978  16.702  0.8200  1.4284  0.5538
 1897SOL    HW217328   2.823   1.930  16.694  1.5943  1.9516 -1.8079
 1898SOL     OW17329   3.370   0.622   6.826 -0.2175 -0.3387  0.0599
 1898SOL    HW117330   3.346   0.646   6.915  0.5881  2.5172 -0.4921
 1898SOL    HW217331   3.462   0.595   6.838  0.1121  0.8906  0.3263
 1899SOL     OW17332   1.843   2.270   7.970  0.7809 -0.3729  0.9505
 1899SOL    HW117333   1.924   2.225   7.944  0.5397 -0.4246  0.2887
 1899SOL    HW217334   1.793   2.198   8.008 -1.4766  0.1470 -1.0605
 1900SOL     OW17335   2.321   3.640   2.699  0.3910 -0.5628  0.2855
 1900SOL    HW117336   2.347   3.572   2.760 -0.7352 -1.7328 -0.5345
 1900SOL    HW217337   2.370   3.617   2.620 -0.6341 -1.1911 -0.1720
 1901SOL     OW17338   0.936   1.188   8.231  0.1095  0.0237  0.4026
 1901SOL    HW117339   1.003   1.220   8.293  2.4520 -0.8716 -1.6551
 1901SOL    HW217340   0.988   1.196   8.151 -1.1330  3.4782 -0.0361
 1902SOL     OW17341   1.326   3.423  14.015  0.6010  0.4369 -0.2650
 1902SOL    HW117342   1.251   3.410  13.956  0.4734  0.3263 -0.0762
 1902SOL    HW217343   1.358   3.334  14.022 -0.2886  0.1503  0.1872
 1903SOL     OW17344   1.584   4.412   0.161 -0.1251  0.6030 -0.0782
 1903SOL    HW117345   1.612   4.476   0.227  2.7730 -1.5294  0.7522
 1903SOL    HW217346   1.491   4.399   0.182 -0.0644 -0.8991 -0.7245
 1904SOL     OW17347   3.294   3.409   7.132 -0.3464  0.0266 -0.2278
 1904SOL    HW117348   3.209   3.364   7.130 -0.0061 -0.5758 -1.1165
 1904SOL    HW217349   3.362   3.343   7.140  0.0533  0.3620 -0.8564
 1905SOL     OW17350   0.413   0.112   3.596 -0.1999 -0.3696  0.2375
 1905SOL    HW117351   0.496   0.093   3.639 -0.5713  2.5168  2.2391
 1905SOL    HW217352   0.385   0.194   3.637  1.4035 -0.8235  2.2105
 1906SOL     OW17353   2.868   4.436  12.328 -0.4896 -0.1198  0.0593
 1906SOL    HW117354   2.773   4.429  12.318 -0.3340 -2.2035 -0.0549
 1906SOL    HW217355   2.893   4.354  12.285  2.4067 -0.6338  2.7673
 1907SOL     OW17356   3.453   0.091   2.461 -0.7596 -0.3267  0.4138
 1907SOL    HW117357   3.535   0.135   2.482 -0.5548 -0.1010 -0.9115
 1907SOL    HW217358   3.475   0.009   2.506  0.4967 -1.2705 -1.8911
 1908SOL     OW17359   4.551   0.799  14.939 -0.8013 -0.0826  0.1345
 1908SOL    HW117360   4.502   0.787  14.858 -0.4466  1.0715 -0.2540
 1908SOL    HW217361   4.636   0.827  14.906 -1.0947 -0.8299 -1.2509
 1909SOL     OW17362   3.376   3.255   8.151 -0.1526  0.1757  0.3204
 1909SOL    HW117363   3.334   3.219   8.230  0.5539 -1.1355  0.1062
 1909SOL    HW217364   3.310   3.320   8.127  0.2635  0.6572  0.4687
 1910SOL     OW17365   3.346   3.034  14.021 -0.7446 -0.3494 -0.2133
 1910SOL    HW117366   3.414   2.978  13.981 -1.3848 -1.3628  0.1087
 1910SOL    HW217367   3.280   2.965  14.030 -1.3251  0.5497  2.1346
 1911SOL     OW17368   3.360   3.327   9.072  0.0357  0.6059  0.1050
 1911SOL    HW117369   3.363   3.371   8.987  0.4859 -0.5248 -0.4770
 1911SOL    HW217370   3.298   3.376   9.125  1.4620  0.4650  1.9201
 1912SOL     OW17371   0.998   1.444   2.721  0.4608 -0.0733 -0.4447
 1912SOL    HW117372   0.934   1.435   2.791  0.2763  1.5265 -0.4086
 1912SOL    HW217373   1.006   1.539   2.719  1.2194 -0.1002  1.2208
 1913SOL     OW17374   2.118   2.159   1.294 -0.2844  0.1052  0.4423
 1913SOL    HW117375   2.089   2.080   1.249 -0.8058 -0.1323  1.1887
 1913SOL    HW217376   2.038   2.207   1.273  0.7419  3.1198  3.2652
 1914SOL     OW17377   0.691   2.151   6.410 -0.2665 -0.3134 -0.4256
 1914SOL    HW117378   0.725   2.231   6.449 -1.0186 -0.7800  1.1660
 1914SOL    HW217379   0.712   2.164   6.317  0.5039  4.0955  0.3788
 1915SOL     OW17380   4.566   2.889  14.046 -0.0170 -0.7524  0.1099
 1915SOL    HW117381   4.479   2.872  14.008  0.4596 -1.6087 -0.5978
 1915SOL    HW217382   4.592   2.808  14.089 -1.9089 -1.8967 -0.8951
 1916SOL     OW17383   1.446   2.708   6.351 -0.7067  0.7001  0.1926
 1916SOL    HW117384   1.370   2.695   6.294 -0.8210 -0.2328  0.5563
 1916SOL    HW217385   1.440   2.624   6.397  3.4833  0.6268  0.6154
 1917SOL     OW17386   1.798   2.291   9.216 -0.3643  0.0141 -0.3324
 1917SOL    HW117387   1.788   2.282   9.310 -1.4529 -1.4011 -0.5858
 1917SOL    HW217388   1.709   2.266   9.193  0.2064 -0.5047 -2.0027
 1918SOL     OW17389   0.502   3.700   9.689  0.0423  0.8210  0.1456
 1918SOL    HW117390   0.588   3.721   9.726 -0.2121  0.5719  0.8763
 1918SOL    HW217391   0.443   3.773   9.706 -0.5011  1.0042 -2.4790
 1919SOL     OW17392   2.068   1.508   4.133 -0.1533 -0.3083  0.2467
 1919SOL    HW117393   2.012   1.586   4.132 -0.7438 -0.7455 -1.1869
 1919SOL    HW217394   2.059   1.476   4.222  1.4309 -0.6922  0.2817
 1920SOL     OW17395   4.603   4.027   1.121  0.2321 -0.2579  0.2509
 1920SOL    HW117396   4.637   4.100   1.172  0.1082 -1.1664  1.6436
 1920SOL    HW217397   4.660   4.039   1.045 -0.4370 -0.8193 -0.3358
 1921SOL     OW17398   2.383   1.781   5.838  0.0904 -0.1573  0.2029
 1921SOL    HW117399   2.472   1.761   5.808 -0.7029  0.2990 -2.4310
 1921SOL    HW217400   2.344   1.694   5.843  1.0827 -0.6539 -0.5383
 1922SOL     OW17401   3.361   3.774   1.578  0.4582  0.4426  0.2208
 1922SOL    HW117402   3.376   3.786   1.485 -0.1312 -1.5905 -0.1438
 1922SOL    HW217403   3.445   3.736   1.607 -0.5534 -1.3796  0.7686
 1923SOL     OW17404   3.446   0.973   4.898  0.4334  0.1247 -0.2152
 1923SOL    HW117405   3.442   1.064   4.925 -2.0257  0.5757 -2.0675
 1923SOL    HW217406   3.458   0.947   4.989 -2.4181 -1.3021 -0.2403
 1924SOL     OW17407   3.376   2.126   7.406  0.1769 -0.1361 -1.0261
 1924SOL    HW117408   3.316   2.163   7.341 -1.6284 -0.3646  0.5156
 1924SOL    HW217409   3.380   2.038   7.368 -1.2570  0.0760 -1.6841
 1925SOL     OW17410   0.560   2.075  10.602  0.5112  0.2803 -0.0834
 1925SOL    HW117411   0.472   2.106  10.585  0.4639 -0.0290 -0.3957
 1925SOL    HW217412   0.602   2.152  10.564 -1.3255  0.5550 -1.5125
 1926SOL     OW17413   2.710   2.374   4.041  0.4639 -0.2281 -0.0710
 1926SOL    HW117414   2.646   2.362   3.971 -0.2787  1.2293  0.3662
 1926SOL    HW217415   2.663   2.442   4.090  1.5098 -0.1057  0.7542
 1927SOL     OW17416   2.244   0.879   2.559  1.2533 -0.5388  0.5493
 1927SOL    HW117417   2.265   0.932   2.637  1.1198  0.6760 -0.2421
 1927SOL    HW217418   2.328   0.837   2.540  0.7710 -0.8998 -0.7693
 1928SOL     OW17419   2.156   0.630   9.317 -0.1177  0.0870 -0.1173
 1928SOL    HW117420   2.104   0.660   9.242  1.2168  2.2924 -0.1672
 1928SOL    HW217421   2.171   0.537   9.300  1.6802  0.4358 -0.4273
 1929SOL     OW17422   0.653   3.577  16.590 -0.6547 -0.1719  0.5517
 1929SOL    HW117423   0.661   3.672  16.595  2.2802 -0.5403  2.9309
 1929SOL    HW217424   0.747   3.557  16.588 -0.3688  1.4421 -2.0303
 1930SOL     OW17425   0.319   1.832   3.721  0.4293 -0.0396  0.1525
 1930SOL    HW117426   0.326   1.737   3.729 -1.5460 -0.0650  1.5729
 1930SOL    HW217427   0.411   1.851   3.700  0.7299 -1.3054  0.3333
 1931SOL     OW17428   0.258   4.430   8.414 -0.1208  0.1119  0.2754
 1931SOL    HW117429   0.308   4.351   8.394 -1.6888 -0.1877 -2.3934
 1931SOL    HW217430   0.218   4.411   8.499 -2.9200 -0.6080 -1.2166
 1932SOL     OW17431   1.636   0.908   6.894 -0.3192  0.2372  0.6411
 1932SOL    HW117432   1.725   0.874   6.886 -0.1294  0.3341  2.4994
 1932SOL    HW217433   1.653   1.002   6.892 -2.5775  0.6739  1.4204
 1933SOL     OW17434   3.137   3.792   2.740 -0.1540  0.0980  0.1546
 1933SOL    HW117435   3.217   3.842   2.756  0.5023 -0.6331 -0.8480
 1933SOL    HW217436   3.101   3.840   2.664 -0.5520 -1.5245 -0.6903
 1934SOL     OW17437   1.750   2.910   7.915 -0.2983 -0.0060 -0.3451
 1934SOL    HW117438   1.703   2.917   7.831  1.7489 -0.4792 -1.5327
 1934SOL    HW217439   1.767   2.816   7.915 -2.3464 -0.3947 -0.8296
 1935SOL     OW17440   3.794   3.635   5.623  0.2585 -0.2935 -0.4878
 1935SOL    HW117441   3.877   3.624   5.670 -0.0478  0.3849  0.1930
 1935SOL    HW217442   3.732   3.608   5.690 -0.7055 -1.4277 -1.8386
 1936SOL     OW17443   1.718   3.929   1.536 -0.2368  0.3839  0.1967
 1936SOL    HW117444   1.712   3.849   1.587 -0.6268  0.3036  0.0268
 1936SOL    HW217445   1.627   3.954   1.520 -0.4691  0.8774  2.4167
 1937SOL     OW17446   2.884   1.229  10.898  0.5666 -0.1839 -0.2951
 1937SOL    HW117447   2.803   1.266  10.864  0.3192 -1.1061 -0.6956
 1937SOL    HW217448   2.935   1.210  10.820 -0.0769  0.7102 -0.9360
 1938SOL     OW17449   1.463   2.595   1.409  0.0470  0.2413 -0.3298
 1938SOL    HW117450   1.370   2.574   1.414  0.3339 -0.4459  2.3923
 1938SOL    HW217451   1.465   2.690   1.399 -0.3491  0.3767  0.8573
 1939SOL     OW17452   2.205   3.799   1.843  0.0096  0.5240  0.1438
 1939SOL    HW117453   2.290   3.791   1.799  0.0990  0.9268  0.2418
 1939SOL    HW217454   2.228   3.768   1.931  0.4714 -1.2820 -0.6082
 1940SOL     OW17455   1.953   2.603   1.766  0.6563  0.4443  0.1949
 1940SOL    HW117456   1.910   2.589   1.681  0.0918 -1.6958  0.8177
 1940SOL    HW217457   2.036   2.648   1.753  1.2284 -0.2609  1.3766
 1941SOL     OW17458   3.108   1.274   6.802 -0.6821  0.7895  0.4891
 1941SOL    HW117459   3.078   1.239   6.887 -1.8827  1.1413  0.2141
 1941SOL    HW217460   3.089   1.368   6.806 -4.2242  0.1320 -1.3575
 1942SOL     OW17461   1.873   1.198  11.398  0.8593 -0.0958  0.1923
 1942SOL    HW117462   1.824   1.155  11.328 -0.9751  0.9343  0.8497
 1942SOL    HW217463   1.899   1.124  11.453 -1.4356  0.3681  1.8860
 1943SOL     OW17464   4.410   1.108  13.994 -0.5344 -0.4355 -0.0399
 1943SOL    HW117465   4.330   1.078  13.952 -1.0348  0.1574  0.4878
 1943SOL    HW217466   4.447   1.166  13.928 -0.9645 -1.2149 -0.9579
 1944SOL     OW17467   1.530   3.309   8.861  0.4522  0.1648  0.1938
 1944SOL    HW117468   1.559   3.356   8.783  1.2611 -2.6989 -1.2489
 1944SOL    HW217469   1.452   3.269   8.823  1.0117 -3.0269  2.3776
 1945SOL     OW17470   4.334   4.624   8.460 -0.4141 -0.1733  0.4652
 1945SOL    HW117471   4.410   4.668   8.498  0.1882  0.2884 -1.2748
 1945SOL    HW217472   4.260   4.677   8.490 -1.8070 -1.2284 -1.0895
 1946SOL     OW17473   1.681   1.455   3.911 -0.9177 -0.0919  0.3220
 1946SOL    HW117474   1.696   1.394   3.839  0.5161 -1.6934  1.9792
 1946SOL    HW217475   1.674   1.392   3.983 -0.3624 -0.7508 -0.2015
 1947SOL     OW17476   0.238   1.705   0.730  0.1147 -0.4082  0.2011
 1947SOL    HW117477   0.257   1.772   0.665 -0.4472 -1.3112 -0.9009
 1947SOL    HW217478   0.165   1.660   0.686  0.5334 -1.2791  0.4012
 1948SOL     OW17479   0.140   0.209   6.294  0.6293 -0.1608  0.2068
 1948SOL    HW117480   0.131   0.207   6.390  4.5324 -1.6045  0.5623
 1948SOL    HW217481   0.235   0.219   6.290  0.5814 -0.2576 -1.1146
 1949SOL     OW17482   1.006   2.102   4.661  0.4181  0.0398  0.5691
 1949SOL    HW117483   0.919   2.063   4.652  1.1037 -0.6894 -3.0626
 1949SOL    HW217484   1.040   2.099   4.572 -0.9626  1.0374  0.0131
 1950SOL     OW17485   4.530   3.669  17.592  0.4463 -0.2742  0.2597
 1950SOL    HW117486   4.506   3.711  17.674 -1.0323  0.2594 -0.4613
 1950SOL    HW217487   4.487   3.720  17.523  3.2094 -0.5031 -1.6693
 1951SOL     OW17488   0.076   4.052   5.159  0.6222 -0.7695 -0.5876
 1951SOL    HW117489   0.122   3.971   5.138  0.7997 -0.6684 -0.5910
 1951SOL    HW217490   0.131   4.085   5.230 -0.3607  2.9480 -1.5260
 1952SOL     OW17491   0.325   1.887   2.452 -1.1559 -0.1982 -0.7469
 1952SOL    HW117492   0.242   1.877   2.499 -0.4375 -3.1155 -0.1091
 1952SOL    HW217493   0.328   1.807   2.400 -0.1799  1.1490 -2.7629
 1953SOL     OW17494   4.339   2.900  17.471  0.1501  0.4120 -0.2660
 1953SOL    HW117495   4.292   2.821  17.447  1.6456 -0.6973  0.4167
 1953SOL    HW217496   4.269   2.955  17.507 -0.7732  0.1362 -1.6439
 1954SOL     OW17497   1.536   3.534   3.003 -0.1471  0.2242 -0.4550
 1954SOL    HW117498   1.511   3.586   2.927  0.9130 -0.4259 -1.2556
 1954SOL    HW217499   1.554   3.448   2.964 -1.7847 -0.2971 -0.0837
 1955SOL     OW17500   1.458   3.460  10.426  0.3510  0.1739 -0.8064
 1955SOL    HW117501   1.488   3.384  10.476 -1.3050  0.3641  0.4317
 1955SOL    HW217502   1.428   3.511  10.500 -2.4893 -0.0388 -1.8018
 1956SOL     OW17503   3.138   0.932   5.441 -0.1581  0.0969 -0.2505
 1956SOL    HW117504   3.137   0.844   5.403  1.9404 -0.0748  0.0806
 1956SOL    HW217505   3.063   0.932   5.500 -0.2796 -0.0448 -0.4071
 1957SOL     OW17506   0.676   2.091   2.996 -0.6251  0.6466  0.1254
 1957SOL    HW117507   0.671   2.155   2.925 -3.4375  0.3396  0.0757
 1957SOL    HW217508   0.769   2.073   2.984 -0.5318 -0.6128  2.6249
 1958SOL     OW17509   0.703   1.908   6.564 -0.4795 -0.1541  0.2156
 1958SOL    HW117510   0.710   1.975   6.497 -4.9631  1.4953  1.3992
 1958SOL    HW217511   0.611   1.922   6.586  0.0977  1.1500  1.7852
 1959SOL     OW17512   0.220   4.173  16.798  0.4640 -0.3074  0.0638
 1959SOL    HW117513   0.170   4.097  16.767 -0.3711 -0.3730  1.5629
 1959SOL    HW217514   0.185   4.194  16.884  2.2318  1.6138  0.3044
 1960SOL     OW17515   1.691   2.415  17.550  0.0280  0.2981 -0.0015
 1960SOL    HW117516   1.641   2.423  17.632 -2.3361  0.8825 -1.5124
 1960SOL    HW217517   1.756   2.350  17.579 -0.0073 -0.3708 -1.4453
 1961SOL     OW17518   4.200   1.973   2.760 -0.2363 -0.3813 -0.5292
 1961SOL    HW117519   4.155   2.022   2.690  0.5700  0.4742 -0.4478
 1961SOL    HW217520   4.267   2.038   2.778 -0.4141  0.5708 -3.3483
 1962SOL     OW17521   2.077   4.482  12.761 -0.2100 -0.7587  0.1056
 1962SOL    HW117522   1.991   4.456  12.727 -0.6680 -0.0353  0.7222
 1962SOL    HW217523   2.085   4.412  12.825 -1.5098  1.3959  2.6083
 1963SOL     OW17524   1.756   2.556   1.552  0.0414 -0.1102  0.4264
 1963SOL    HW117525   1.713   2.472   1.571  1.5117 -0.6462  1.4619
 1963SOL    HW217526   1.716   2.582   1.470  0.0015  1.1116  0.8387
 1964SOL     OW17527   1.565   3.801  10.293  0.3706 -0.5052  0.0033
 1964SOL    HW117528   1.578   3.855  10.371  0.6622 -0.3973 -0.1190
 1964SOL    HW217529   1.568   3.717  10.340 -3.2299 -0.7578 -0.2480
 1965SOL     OW17530   2.581   1.425  14.430 -0.3079 -0.3207 -0.3723
 1965SOL    HW117531   2.572   1.473  14.347  1.5552 -0.8395 -0.8764
 1965SOL    HW217532   2.614   1.342  14.398 -0.1165  0.1794 -1.4708
 1966SOL     OW17533   3.483   4.593   5.887 -0.0356 -0.1743 -0.5563
 1966SOL    HW117534   3.444   4.529   5.947 -0.3271 -0.1916 -0.7668
 1966SOL    HW217535   3.420   4.664   5.893 -1.4485 -1.2886 -2.3994
 1967SOL     OW17536   2.395   2.958   7.430 -0.4294 -0.3065  0.0912
 1967SOL    HW117537   2.318   2.915   7.466  0.0820 -0.6851  0.7408
 1967SOL    HW217538   2.411   3.031   7.490 -0.4419 -0.5272  0.3622
 1968SOL     OW17539   1.621   3.519  13.020  0.7075  0.2866 -0.2536
 1968SOL    HW117540   1.677   3.443  13.002 -0.7650 -0.6608 -0.7667
 1968SOL    HW217541   1.581   3.524  12.933  0.8370  0.7239 -0.2894
 1969SOL     OW17542   2.447   1.329   9.055  0.5975  0.3513 -0.1250
 1969SOL    HW117543   2.495   1.251   9.029 -2.5789 -0.8291 -2.4095
 1969SOL    HW217544   2.468   1.385   8.980  2.7880  0.0113  0.2515
 1970SOL     OW17545   2.835   3.992   7.730 -0.1609  0.2603  0.4339
 1970SOL    HW117546   2.817   3.899   7.746  2.0900 -0.2956 -0.1588
 1970SOL    HW217547   2.913   4.005   7.675 -2.1119  0.1605 -2.3674
 1971SOL     OW17548   1.640   0.551   2.979  0.4796 -0.5796  0.2911
 1971SOL    HW117549   1.653   0.595   3.063  0.5764 -0.4240  0.1941
 1971SOL    HW217550   1.702   0.599   2.925 -0.2766 -1.2663 -1.2051
 1972SOL     OW17551   1.566   3.662   4.928  0.0642 -0.6459  0.3326
 1972SOL    HW117552   1.549   3.666   5.022 -0.6598  2.6194  0.0907
 1972SOL    HW217553   1.541   3.574   4.903 -4.4103  1.0350 -1.1574
 1973SOL     OW17554   0.520   4.029   7.438 -0.4941 -0.3363  0.0439
 1973SOL    HW117555   0.614   4.022   7.452 -0.1995  0.8913 -1.2971
 1973SOL    HW217556   0.501   3.976   7.361  0.2844 -0.2285 -0.2208
 1974SOL     OW17557   4.688   1.109   4.608  0.0856 -0.4831  0.2265
 1974SOL    HW117558   4.684   1.096   4.513  0.3375 -1.1419  0.3105
 1974SOL    HW217559   0.001   1.189   4.602 -0.8241  0.0255 -0.9804
 1975SOL     OW17560   1.549   0.637   5.952 -0.4565  0.3791  0.2204
 1975SOL    HW117561   1.644   0.643   5.948 -0.5993  2.4518 -0.2477
 1975SOL    HW217562   1.527   0.712   5.896  1.5255  1.4338  0.8753
 1976SOL     OW17563   2.312   1.560   4.110  0.1069  0.2654 -0.1165
 1976SOL    HW117564   2.342   1.519   4.191  1.6309  0.7771 -0.4030
 1976SOL    HW217565   2.218   1.546   4.120 -0.3911  2.4215 -1.8153
 1977SOL     OW17566   0.655   4.273   3.755  0.0318 -0.0594  0.2250
 1977SOL    HW117567   0.581   4.314   3.709 -0.3015  0.4667  1.2045
 1977SOL    HW217568   0.671   4.193   3.707 -2.8420 -0.1923 -0.5330
 1978SOL     OW17569   3.302   2.353   9.105 -0.0033 -0.4880  0.1763
 1978SOL    HW117570   3.268   2.288   9.167 -0.4412  0.7513  1.2408
 1978SOL    HW217571   3.228   2.412   9.092  0.2051 -0.8932 -2.7148
 1979SOL     OW17572   0.681   2.140   5.337 -0.2501 -0.4779 -0.1986
 1979SOL    HW117573   0.693   2.213   5.399 -0.4823 -0.3608 -0.2924
 1979SOL    HW217574   0.593   2.159   5.306 -0.8849 -0.9645  1.3072
 1980SOL     OW17575   0.088   1.765  11.806 -0.1353 -0.6049  0.2823
 1980SOL    HW117576   0.043   1.845  11.832 -1.1565 -1.5979  1.5761
 1980SOL    HW217577   0.172   1.801  11.777  0.1421 -0.8620  0.7592
 1981SOL     OW17578   0.898   1.946   6.744 -0.1243  0.5377  0.0088
 1981SOL    HW117579   0.832   1.963   6.676  0.3610 -0.6950 -0.7882
 1981SOL    HW217580   0.968   1.918   6.685 -0.5560  1.9513 -1.1824
 1982SOL     OW17581   0.761   1.849   7.467  0.3008  0.0416 -0.0407
 1982SOL    HW117582   0.837   1.860   7.410  0.1129  3.6739  0.4249
 1982SOL    HW217583   0.767   1.757   7.494  0.9558 -0.4563 -1.8999
 1983SOL     OW17584   2.751   1.905   5.184  0.1820  0.3582 -0.1254
 1983SOL    HW117585   2.707   1.990   5.193 -1.5291 -0.8947  3.4386
 1983SOL    HW217586   2.687   1.864   5.125  0.3442 -0.3241  0.1698
 1984SOL     OW17587   0.245   1.653   8.769  0.6375 -0.4436  0.5374
 1984SOL    HW117588   0.293   1.602   8.703 -0.8642  1.6391 -2.1578
 1984SOL    HW217589   0.163   1.603   8.768  0.9551 -0.8678 -5.2126
 1985SOL     OW17590   0.981   0.324   3.371  0.6280 -0.4263  0.2967
 1985SOL    HW117591   0.909   0.331   3.433 -0.5892 -1.5575 -0.9708
 1985SOL    HW217592   1.050   0.369   3.419 -0.3183  1.5321 -0.1824
 1986SOL     OW17593   2.895   2.760  15.292 -0.0542 -0.2733 -0.2154
 1986SOL    HW117594   2.861   2.799  15.212  2.1068 -0.4290 -1.1924
 1986SOL    HW217595   2.983   2.795  15.277 -0.1443 -1.0030 -2.3992
 1987SOL     OW17596   0.422   1.635   7.393  0.2099  0.4537 -0.6105
 1987SOL    HW117597   0.441   1.651   7.486 -1.1113 -1.4679 -0.0090
 1987SOL    HW217598   0.405   1.718   7.348  0.8595 -0.4964 -2.5980
 1988SOL     OW17599   3.075   0.069   8.930 -0.2933 -0.1937 -0.3279
 1988SOL    HW117600   3.164   0.047   8.956 -0.4718  1.6736  1.8880
 1988SOL    HW217601   3.069   0.117   9.012 -0.4746 -0.5759 -0.1196
 1989SOL     OW17602   2.038   1.185  13.816 -0.0067  0.2476 -0.0663
 1989SOL    HW117603   1.985   1.218  13.888 -0.9034 -3.3189  0.9058
 1989SOL    HW217604   1.975   1.197  13.744 -0.0261 -1.2957 -0.3053
 1990SOL     OW17605   2.685   1.314   5.888  0.3667 -0.6260  0.2286
 1990SOL    HW117606   2.665   1.407   5.892 -0.1371 -0.7565  0.7419
 1990SOL    HW217607   2.730   1.311   5.804 -1.0825 -1.1981 -0.5216
 1991SOL     OW17608   2.364   2.532   7.420  0.0368  0.0297  0.4451
 1991SOL    HW117609   2.400   2.532   7.509  2.6608  2.1309 -0.5951
 1991SOL    HW217610   2.346   2.624   7.437 -2.3317 -0.4193  0.2689
 1992SOL     OW17611   2.604   4.692   7.789  0.2723 -0.1643  0.1556
 1992SOL    HW117612   2.656   0.034   7.787  0.3257 -0.1707  1.7013
 1992SOL    HW217613   2.613   4.660   7.699  0.4082 -0.1256  0.1546
 1993SOL     OW17614   1.149   1.213  15.329 -0.1088 -0.2660  0.4743
 1993SOL    HW117615   1.195   1.232  15.411  3.0099  1.1288 -1.5937
 1993SOL    HW217616   1.222   1.187  15.273 -1.9725 -2.5541 -0.8830
 1994SOL     OW17617   2.472   3.668   0.638 -0.5694 -0.1281 -0.3066
 1994SOL    HW117618   2.498   3.737   0.699  0.1486  0.5262 -1.3323
 1994SOL    HW217619   2.423   3.612   0.697 -2.0277  3.1935  1.6202
 1995SOL     OW17620   4.522   2.474   1.105 -0.6091 -0.2463 -0.5219
 1995SOL    HW117621   4.616   2.472   1.124 -0.6994 -0.6232 -0.1157
 1995SOL    HW217622   4.522   2.460   1.010  0.8839  2.0794 -0.8755
 1996SOL     OW17623   1.298   3.318   6.941  0.3055 -0.2064  0.4467
 1996SOL    HW117624   1.345   3.265   6.877  3.1575  0.5089  1.9464
 1996SOL    HW217625   1.229   3.260   6.973 -1.6879  2.2329  0.6301
 1997SOL     OW17626   0.779   4.184   3.023  0.0530  0.1616  0.1069
 1997SOL    HW117627   0.704   4.240   3.002  0.6674  0.8768 -0.1572
 1997SOL    HW217628   0.774   4.109   2.964 -0.5546 -0.1462  0.5403
 1998SOL     OW17629   4.683   2.136   3.689 -0.0562  0.0740  0.1968
 1998SOL    HW117630   0.033   2.128   3.655  0.6918 -0.4554  2.2855
 1998SOL    HW217631   4.689   2.180   3.774  2.7522  0.1666 -0.0323
 1999SOL     OW17632   1.508   2.386   7.195 -0.3609  0.1452 -0.0373
 1999SOL    HW117633   1.421   2.367   7.230 -0.1500  0.7023  0.7987
 1999SOL    HW217634   1.491   2.450   7.126  0.2591 -1.9932 -2.1828
 2000SOL     OW17635   3.363   2.966   0.164  0.4012 -0.0699 -0.1514
 2000SOL    HW117636   3.291   2.903   0.164 -0.1305  0.5441  0.5178
 2000SOL    HW217637   3.325   3.050   0.139 -1.4047 -1.4149 -1.9100
 2001SOL     OW17638   1.831   3.046   9.875  0.3152  0.1948 -0.2246
 2001SOL    HW117639   1.759   3.108   9.867  0.4723  0.3657 -0.3062
 2001SOL    HW217640   1.901   3.106   9.898 -0.1396  0.4746  0.4389
 2002SOL     OW17641   3.832   4.721  10.899  0.7381 -0.4440 -0.4644
 2002SOL    HW117642   3.904   4.699  10.840  0.3977  0.8635 -1.3622
 2002SOL    HW217643   3.820   0.076  10.882  0.4194 -0.7117 -1.7409
 2003SOL     OW17644   4.186   1.364   9.048  0.3349  0.2791 -0.1699
 2003SOL    HW117645   4.281   1.379   9.048  0.3494  0.2009 -0.7461
 2003SOL    HW217646   4.159   1.391   8.961 -1.5813 -2.7794 -0.5284
 2004SOL     OW17647   1.319   4.199   5.770  0.0946 -0.1139 -0.6745
 2004SOL    HW117648   1.261   4.241   5.833  3.4422  0.5055  2.0092
 2004SOL    HW217649   1.348   4.269   5.712 -0.0202  0.3803 -0.1408
 2005SOL     OW17650   1.676   2.488   1.238 -0.0716  0.0571  0.0132
 2005SOL    HW117651   1.643   2.528   1.158  1.6944 -1.9550 -1.7453
 2005SOL    HW217652   1.600   2.510   1.292 -1.4127 -2.3583 -0.8496
 2006SOL     OW17653   3.941   0.869   6.586 -0.3889 -0.5025 -0.3923
 2006SOL    HW117654   3.950   0.964   6.593 -2.0256 -0.3477 -0.5108
 2006SOL    HW217655   3.881   0.871   6.511 -1.0025 -0.4926  0.1063
 2007SOL     OW17656   3.752   1.496  16.601 -0.4766  0.2733  0.3078
 2007SOL    HW117657   3.711   1.467  16.520 -0.4894 -0.1919  0.4809
 2007SOL    HW217658   3.846   1.495  16.581 -0.5174  1.7222  0.0876
 2008SOL     OW17659   1.210   3.725   3.153  0.0816 -0.3551  0.7856
 2008SOL    HW117660   1.230   3.811   3.115 -0.4962 -0.6285 -0.1449
 2008SOL    HW217661   1.292   3.698   3.194  2.1766  1.9042 -1.8805
 2009SOL     OW17662   0.579   0.060   5.214  0.0224  0.1637  0.0720
 2009SOL    HW117663   0.502   0.110   5.239 -0.7468 -0.1486 -1.6727
 2009SOL    HW217664   0.568   4.722   5.270 -0.8292 -0.0079 -0.3438
 2010SOL     OW17665   0.876   3.623   5.906 -0.1511  0.4085 -0.2107
 2010SOL    HW117666   0.954   3.575   5.881 -0.7018 -1.4750  1.6647
 2010SOL    HW217667   0.817   3.586   5.839  2.4941 -2.1825 -1.0836
 2011SOL     OW17668   0.900   3.227   1.748 -0.0127  0.1599 -0.3605
 2011SOL    HW117669   0.949   3.148   1.772 -0.8750 -0.2143  0.1864
 2011SOL    HW217670   0.811   3.196   1.730 -0.4036 -0.5423  2.6782
 2012SOL     OW17671   2.655   4.679   9.291  0.3822  0.6051 -0.0288
 2012SOL    HW117672   2.664   4.612   9.223  3.0639 -1.1582  2.0662
 2012SOL    HW217673   2.706   4.643   9.364 -1.0155  0.2250  0.7641
 2013SOL     OW17674   4.731   4.185   4.233  0.0902  0.4363 -0.8538
 2013SOL    HW117675   4.665   4.145   4.289 -1.1132  2.9983 -0.4209
 2013SOL    HW217676   0.074   4.148   4.265 -0.2144  0.1098 -0.4600
 2014SOL     OW17677   2.929   1.078  10.130 -0.2277 -0.2559  0.2871
 2014SOL    HW117678   2.905   1.101  10.041  0.7485 -3.0864 -0.6725
 2014SOL    HW217679   2.878   1.003  10.158 -1.8953  0.0168 -2.1087
 2015SOL     OW17680   0.249   4.519  12.085 -0.3755 -0.3654 -0.1859
 2015SOL    HW117681   0.335   4.489  12.113  0.9839  3.1836 -0.4980
 2015SOL    HW217682   0.217   4.545  12.172  1.8693 -1.0412  0.8356
 2016SOL     OW17683   2.017   0.904  15.087  0.0699  0.0885  0.2831
 2016SOL    HW117684   1.928   0.902  15.051  0.5334 -2.3512 -0.7693
 2016SOL    HW217685   2.062   0.876  15.007  0.3676 -0.2414  0.5675
 2017SOL     OW17686   1.242   2.692   1.184  0.2749  0.2476 -0.4179
 2017SOL    HW117687   1.179   2.699   1.255  1.9878  1.4653  0.9781
 2017SOL    HW217688   1.184   2.671   1.111 -0.6770  2.1840 -0.1959
 2018SOL     OW17689   0.024   1.608  16.363 -0.5670 -0.0093  0.0566
 2018SOL    HW117690   0.016   1.514  16.381  2.2743 -0.0068  1.2998
 2018SOL    HW217691   0.065   1.640  16.444 -1.0597  0.3467  0.1661
 2019SOL     OW17692   4.453   4.015   7.978  0.7143 -0.3616 -0.0650
 2019SOL    HW117693   4.393   4.006   8.052 -2.5648 -0.9233 -2.7810
 2019SOL    HW217694   4.393   4.016   7.904  2.3378  2.7153 -1.3194
 2020SOL     OW17695   4.100   2.437   7.609 -0.3349 -0.3736 -0.6023
 2020SOL    HW117696   4.172   2.409   7.665 -0.2580  1.2571  0.1265
 2020SOL    HW217697   4.016   2.445   7.654 -0.7155  1.8173 -1.6978
 2021SOL     OW17698   2.252   4.729   6.251  0.5860 -0.0997 -0.2938
 2021SOL    HW117699   2.265   4.716   6.345 -0.6790  2.3382  0.2216
 2021SOL    HW217700   2.341   0.017   6.226  0.2024 -1.1927 -2.7999
 2022SOL     OW17701   1.691   2.987   2.486 -0.0783 -0.4139  0.4911
 2022SOL    HW117702   1.661   3.050   2.551 -1.8717 -0.4091 -0.3411
 2022SOL    HW217703   1.691   2.901   2.528 -3.2416 -1.4063 -1.5290
 2023SOL     OW17704   3.395   1.437   8.411  0.0750  0.2521  0.5914
 2023SOL    HW117705   3.458   1.411   8.343  0.3738 -0.9185  1.3130
 2023SOL    HW217706   3.316   1.460   8.363  0.7538  0.5267 -0.3954
 2024SOL     OW17707   4.723   1.927   4.338 -0.3165 -0.0962 -0.1972
 2024SOL    HW117708   4.709   1.869   4.263  0.1873  0.3646 -0.6497
 2024SOL    HW217709   4.678   1.881   4.409 -2.0241  2.6646  0.5062
 2025SOL     OW17710   0.814   3.621   6.178  0.2434 -0.5688 -0.5061
 2025SOL    HW117711   0.820   3.716   6.189 -0.3268 -0.6939  0.9118
 2025SOL    HW217712   0.833   3.623   6.084 -1.0709  1.0047 -0.7440
 2026SOL     OW17713   1.374   1.289  10.239 -0.4833  0.0341 -0.1487
 2026SOL    HW117714   1.406   1.356  10.298 -0.3388 -0.6517  0.5459
 2026SOL    HW217715   1.386   1.325  10.151 -0.4449  1.0967  0.2927
 2027SOL     OW17716   2.129   1.347   3.374  0.3524 -0.0983  0.4417
 2027SOL    HW117717   2.139   1.364   3.280 -0.8340 -2.6365 -0.1514
 2027SOL    HW217718   2.189   1.272   3.378  0.3858 -0.0097  1.5139
 2028SOL     OW17719   2.605   1.400   7.993  0.1239 -0.0486 -0.1062
 2028SOL    HW117720   2.620   1.308   8.014 -0.4297 -0.2569 -0.6135
 2028SOL    HW217721   2.511   1.416   7.993  0.4089  1.5741  3.1861
 2029SOL     OW17722   2.256   2.510  16.176  0.6801  0.0407  0.0274
 2029SOL    HW117723   2.345   2.482  16.156  1.1597  3.1866 -2.2433
 2029SOL    HW217724   2.222   2.434  16.224  0.1619  1.0581  1.2988
 2030SOL     OW17725   2.269   3.712   6.696 -0.0374  0.3445 -0.4998
 2030SOL    HW117726   2.175   3.727   6.687 -0.2311  0.5750  1.9144
 2030SOL    HW217727   2.277   3.688   6.788 -0.3999  1.4706 -0.1824
 2031SOL     OW17728   4.103   0.699   0.823 -0.2042  0.1073  0.3001
 2031SOL    HW117729   4.022   0.671   0.866  0.6682 -0.2886  1.6757
 2031SOL    HW217730   4.068   0.702   0.733 -1.0296 -1.8956  0.5340
 2032SOL     OW17731   4.195   1.889   5.244  0.4601 -0.1194 -0.6984
 2032SOL    HW117732   4.239   1.940   5.177 -1.1760  0.8833 -1.0065
 2032SOL    HW217733   4.216   1.802   5.209  1.4379 -0.2983  0.3112
 2033SOL     OW17734   3.264   0.432  16.116 -0.2594  1.0762  0.6220
 2033SOL    HW117735   3.178   0.467  16.097 -1.3586 -1.3781  1.0021
 2033SOL    HW217736   3.294   0.392  16.034  0.2939  1.8385  0.4495
 2034SOL     OW17737   0.067   1.380   4.812 -0.3738  0.1825 -0.4588
 2034SOL    HW117738   4.720   1.366   4.851 -0.6542  2.7531 -0.1586
 2034SOL    HW217739   0.118   1.313   4.858  0.5175  0.8909 -0.4120
 2035SOL     OW17740   4.336   1.130   3.350  0.7023  0.0329  0.3121
 2035SOL    HW117741   4.402   1.128   3.280  0.3432 -1.2607  0.0137
 2035SOL    HW217742   4.317   1.037   3.341  0.3671  0.0232  1.2037
 2036SOL     OW17743   2.955   1.597   1.818  0.1730 -0.5740 -0.5535
 2036SOL    HW117744   3.036   1.570   1.774  0.8793  0.6053  0.0111
 2036SOL    HW217745   2.899   1.584   1.742 -1.7120 -1.3423  0.9774
 2037SOL     OW17746   0.575   2.428  12.916 -0.2273  0.2457  0.6955
 2037SOL    HW117747   0.575   2.369  12.991 -1.7707 -0.6450 -0.0039
 2037SOL    HW217748   0.507   2.491  12.938 -1.1149  0.0856 -1.6299
 2038SOL     OW17749   4.213   4.678   2.689  0.1853 -0.3413 -0.6867
 2038SOL    HW117750   4.185   4.620   2.618 -0.2420  0.7287 -1.3974
 2038SOL    HW217751   4.199   0.023   2.645  0.5998 -0.0524 -0.2600
 2039SOL     OW17752   1.159   0.491   5.930 -0.1022  0.9043  0.1813
 2039SOL    HW117753   1.185   0.541   5.853 -0.8809 -0.3440 -0.8883
 2039SOL    HW217754   1.217   0.519   6.001  1.1931  1.3834 -1.0721
 2040SOL     OW17755   1.229   3.188   3.549  0.2511  0.0733  0.6848
 2040SOL    HW117756   1.300   3.245   3.579 -0.0436  1.0908 -0.5302
 2040SOL    HW217757   1.245   3.109   3.599 -2.0519 -1.4740 -1.0269
 2041SOL     OW17758   2.940   3.080   3.669  0.0061  0.3443  0.2266
 2041SOL    HW117759   2.985   3.052   3.589 -1.3686  0.4526 -0.5827
 2041SOL    HW217760   3.015   3.097   3.726  0.7072 -0.4439 -0.4464
 2042SOL     OW17761   2.504   0.185   6.719  0.6591 -0.3241  0.1494
 2042SOL    HW117762   2.564   0.251   6.685 -0.7064  0.7332 -0.1922
 2042SOL    HW217763   2.452   0.238   6.779  0.3160 -0.3736 -0.1025
 2043SOL     OW17764   3.734   0.383   1.925 -0.5567  0.0838  0.8124
 2043SOL    HW117765   3.695   0.328   1.993 -2.3270  1.3912  0.8511
 2043SOL    HW217766   3.661   0.415   1.873 -0.0675  0.8065  0.5636
 2044SOL     OW17767   3.545   2.844   0.331 -0.2381  0.7002 -0.2795
 2044SOL    HW117768   3.557   2.910   0.400 -1.3297  0.7969 -0.1886
 2044SOL    HW217769   3.497   2.902   0.272 -0.8513 -0.6086 -1.0642
 2045SOL     OW17770   0.413   0.356   8.529  0.5286 -0.1880  0.3720
 2045SOL    HW117771   0.485   0.321   8.477  0.5885 -2.9496  2.3438
 2045SOL    HW217772   0.461   0.408   8.594  0.2468 -3.5563  3.2631
 2046SOL     OW17773   2.393   4.422   2.830  0.4725 -0.1985 -0.2847
 2046SOL    HW117774   2.415   4.486   2.762  0.8045 -0.6555 -0.6103
 2046SOL    HW217775   2.421   4.345   2.780 -0.0691 -1.8515  1.9379
 2047SOL     OW17776   3.741   0.514   8.516  0.3823 -0.5543  0.2395
 2047SOL    HW117777   3.687   0.593   8.518  0.2740 -0.6266  0.1850
 2047SOL    HW217778   3.676   0.471   8.460  0.6996 -1.6283  0.6879
 2048SOL     OW17779   0.632   4.656   8.162  0.5034  0.3590 -0.0609
 2048SOL    HW117780   0.575   4.653   8.238  0.1166  1.1752 -0.3142
 2048SOL    HW217781   0.668   4.568   8.150  1.7877  0.6610  1.5689
 2049SOL     OW17782   0.812   3.264   5.609 -0.8300  0.1201 -0.2623
 2049SOL    HW117783   0.722   3.236   5.625 -1.6331  2.7635 -0.0813
 2049SOL    HW217784   0.799   3.358   5.597  0.7800  0.3792 -0.0402
 2050SOL     OW17785   4.470   1.306   9.044 -0.3949 -0.2509 -0.2165
 2050SOL    HW117786   4.530   1.234   9.063  2.1558  2.0843  0.5917
 2050SOL    HW217787   4.519   1.337   8.967 -0.6913 -2.2581 -1.2240
 2051SOL     OW17788   3.367   4.228   8.004 -0.4423 -0.3148 -1.0769
 2051SOL    HW117789   3.379   4.191   8.091 -0.0929  1.9328 -0.1616
 2051SOL    HW217790   3.279   4.199   7.980 -1.4920  2.9493 -1.2416
 2052SOL     OW17791   2.015   1.426   5.133 -0.1861 -0.0885  0.1104
 2052SOL    HW117792   1.967   1.435   5.215 -1.2363  0.1450 -0.5221
 2052SOL    HW217793   2.095   1.402   5.180 -0.0950  1.4865  0.7369
 2053SOL     OW17794   3.019   0.029   2.786  0.1430  0.5724 -0.2321
 2053SOL    HW117795   3.108   0.009   2.813 -0.3342 -1.4902 -0.2362
 2053SOL    HW217796   3.047   0.111   2.744  0.2447 -0.0648 -1.4002
 2054SOL     OW17797   2.491   2.490  14.282  0.4548 -0.0002 -0.1675
 2054SOL    HW117798   2.508   2.406  14.324 -0.2200  1.2480  2.5779
 2054SOL    HW217799   2.464   2.464  14.193 -2.8039  1.1866  0.5039
 2055SOL     OW17800   4.717   3.118  16.201  0.4462 -0.3390  0.2426
 2055SOL    HW117801   0.021   3.035  16.179  0.7259 -0.7770  2.4456
 2055SOL    HW217802   0.010   3.147  16.286 -2.3527  1.0608  0.8154
 2056SOL     OW17803   2.511   3.252   1.701 -0.2150 -0.3879 -0.0166
 2056SOL    HW117804   2.455   3.326   1.677 -1.1874 -1.6593 -1.6348
 2056SOL    HW217805   2.456   3.174   1.703 -0.0082 -0.4139  3.7400
 2057SOL     OW17806   1.626   2.424   7.906 -0.3358 -0.2374 -0.2567
 2057SOL    HW117807   1.609   2.443   7.998  1.4624 -1.2521  0.2832
 2057SOL    HW217808   1.703   2.368   7.917 -0.9044 -0.8551  0.4873
 2058SOL     OW17809   4.200   0.241   6.650  0.2055  0.4875 -0.3385
 2058SOL    HW117810   4.246   0.158   6.664  2.0834  1.7696  1.1013
 2058SOL    HW217811   4.112   0.203   6.653  1.2104 -1.7292  1.4514
 2059SOL     OW17812   3.609   0.261   7.914 -0.7247  0.3719 -0.1510
 2059SOL    HW117813   3.654   0.180   7.894  0.7977  0.9378  0.9807
 2059SOL    HW217814   3.624   0.266   8.008 -0.1985 -2.2032 -0.1149
 2060SOL     OW17815   3.713   4.372  13.419 -0.0448 -0.5589 -0.2231
 2060SOL    HW117816   3.646   4.313  13.384 -1.0908 -0.1893  1.1771
 2060SOL    HW217817   3.677   4.371  13.507  0.2916  0.0556 -0.0779
 2061SOL     OW17818   0.657   2.647   5.269 -0.1138  0.4662  0.5180
 2061SOL    HW117819   0.712   2.704   5.323  1.0923 -0.2462  0.0616
 2061SOL    HW217820   0.570   2.685   5.266  0.1293  0.8221 -2.1566
 2062SOL     OW17821   0.128   3.642   7.513 -0.5934 -0.7343 -0.1102
 2062SOL    HW117822   0.135   3.716   7.452 -1.5500 -0.7933 -0.2854
 2062SOL    HW217823   0.156   3.696   7.586 -1.9645 -0.0194 -0.1259
 2063SOL     OW17824   4.175   2.456  11.034  0.3522  0.2982  0.5537
 2063SOL    HW117825   4.101   2.485  10.980  0.7295  0.2100 -0.0157
 2063SOL    HW217826   4.136   2.378  11.071  0.4926 -0.3481 -0.6470
 2064SOL     OW17827   2.760   3.103   9.827 -0.3697 -0.1250  0.2663
 2064SOL    HW117828   2.745   3.014   9.858 -0.9992 -0.1065  0.0288
 2064SOL    HW217829   2.846   3.123   9.862 -1.0601  0.8729  1.3983
 2065SOL     OW17830   0.546   2.940   6.207 -0.7521 -0.3947  0.6009
 2065SOL    HW117831   0.523   3.030   6.231  0.0538  0.0243 -0.2124
 2065SOL    HW217832   0.510   2.933   6.119 -0.5694  3.0590  0.2431
 2066SOL     OW17833   4.034   1.519  11.617 -0.0143 -0.4354  0.0872
 2066SOL    HW117834   4.090   1.538  11.692 -1.7566 -0.1949  1.3329
 2066SOL    HW217835   3.978   1.454  11.660 -1.0808 -1.3219 -2.6697
 2067SOL     OW17836   1.255   1.259   5.398  0.5993 -0.2510  0.2769
 2067SOL    HW117837   1.198   1.275   5.322  1.9939  1.3719 -0.4276
 2067SOL    HW217838   1.196   1.219   5.462  0.5603  0.5932  0.7767
 2068SOL     OW17839   0.645   4.150   2.478 -0.1066  0.3008  0.4479
 2068SOL    HW117840   0.604   4.093   2.412  0.0660  0.2332  0.3982
 2068SOL    HW217841   0.594   4.114   2.551  1.5918 -0.8959  1.0375
 2069SOL     OW17842   4.568   0.308   3.260  0.2770 -0.4024  0.2177
 2069SOL    HW117843   4.618   0.387   3.282  0.8816 -1.0856  1.3021
 2069SOL    HW217844   4.542   0.329   3.170 -0.4931 -0.5081  0.4140
 2070SOL     OW17845   0.856   4.467   3.493 -0.0618 -0.4801 -0.2797
 2070SOL    HW117846   0.860   4.436   3.583 -1.1693  1.2536  0.3670
 2070SOL    HW217847   0.897   4.552   3.512  0.1269 -1.0016  1.6492
 2071SOL     OW17848   3.723   4.001   2.715 -0.3426 -0.8968  0.0832
 2071SOL    HW117849   3.667   3.948   2.658 -1.9338  0.5024  0.3534
 2071SOL    HW217850   3.779   4.035   2.645  1.5686 -2.5430  0.8267
 2072SOL     OW17851   4.353   1.054   8.119 -0.3788  0.5410  0.3129
 2072SOL    HW117852   4.287   1.018   8.178 -2.3105  2.3225 -0.7553
 2072SOL    HW217853   4.304   1.120   8.070  0.2702  0.9395  0.2020
 2073SOL     OW17854   1.392   1.961  13.624 -0.4561  0.8241 -0.4364
 2073SOL    HW117855   1.392   1.865  13.620 -2.0641  0.9449 -3.1967
 2073SOL    HW217856   1.484   1.975  13.647 -0.8898  0.1418  1.7659
 2074SOL     OW17857   1.089   3.880   5.139  0.2884  0.4943 -0.0191
 2074SOL    HW117858   1.144   3.888   5.061  0.5891 -0.1063  0.1380
 2074SOL    HW217859   1.010   3.837   5.105 -2.5385  3.8830  2.2240
 2075SOL     OW17860   0.601   2.346   2.208  0.6425  0.1170  0.0600
 2075SOL    HW117861   0.640   2.424   2.169 -0.1249  0.4520 -0.0359
 2075SOL    HW217862   0.628   2.352   2.300  0.7771 -1.7087  0.1338
 2076SOL     OW17863   4.632   2.667   7.775  0.1433  0.2768 -0.4445
 2076SOL    HW117864   4.721   2.639   7.795 -0.6954 -0.3941  2.3758
 2076SOL    HW217865   4.641   2.749   7.823  1.3339 -0.1813  0.0996
 2077SOL     OW17866   0.658   1.861   5.923 -0.1744 -0.3902 -0.6361
 2077SOL    HW117867   0.598   1.918   5.874  0.4356  1.1511  0.4057
 2077SOL    HW217868   0.644   1.776   5.881  1.0311 -0.7227 -0.3673
 2078SOL     OW17869   3.478   0.001   6.210 -0.0235  0.7622 -0.0894
 2078SOL    HW117870   3.443   0.088   6.189 -0.3915  0.9554  1.3083
 2078SOL    HW217871   3.426   4.682   6.154  2.0234  0.6505 -1.8683
 2079SOL     OW17872   0.542   4.640   7.902 -0.1868  0.0289  0.1507
 2079SOL    HW117873   0.607   4.657   7.970  1.1982  0.4371 -1.2531
 2079SOL    HW217874   0.482   4.599   7.964  0.7709  0.6389  1.4827
 2080SOL     OW17875   0.480   3.426   0.698 -0.3697  0.5641 -0.3166
 2080SOL    HW117876   0.402   3.380   0.668 -0.3512  0.7080 -0.5804
 2080SOL    HW217877   0.450   3.513   0.726 -0.4061 -0.0086  1.4490
 2081SOL     OW17878   4.308   3.506   3.383 -0.2233 -0.5863 -0.2366
 2081SOL    HW117879   4.311   3.423   3.430  1.5069 -2.1459 -3.1156
 2081SOL    HW217880   4.387   3.550   3.414  1.0026 -1.4826 -2.0743
 2082SOL     OW17881   0.504   0.783   2.948 -0.3812  0.7700  0.0721
 2082SOL    HW117882   0.454   0.711   2.986 -0.7237  0.9089 -0.1203
 2082SOL    HW217883   0.532   0.757   2.860 -0.9588  1.5970 -0.3660
 2083SOL     OW17884   1.836   1.551   7.068 -0.2387 -0.7385 -0.0561
 2083SOL    HW117885   1.809   1.577   6.980 -1.0035 -0.4484  0.2602
 2083SOL    HW217886   1.756   1.546   7.121  1.2022 -0.0704  2.1724
 2084SOL     OW17887   3.606   0.062   9.000 -0.2188  0.2648 -0.0652
 2084SOL    HW117888   3.514   0.078   9.017 -0.5237 -1.1443 -0.4195
 2084SOL    HW217889   3.626   4.721   9.049 -0.5376 -1.3191 -2.5117
 2085SOL     OW17890   2.012   3.600  15.856 -0.1759 -0.6832  0.3136
 2085SOL    HW117891   2.060   3.536  15.908 -0.6081  0.3816  2.0150
 2085SOL    HW217892   1.988   3.558  15.773  0.6044  1.0241 -0.7886
 2086SOL     OW17893   0.593   2.083   2.117  0.2561 -0.4579  0.0259
 2086SOL    HW117894   0.627   2.140   2.049 -1.9776 -0.3571 -0.9818
 2086SOL    HW217895   0.581   2.143   2.191  2.3484  0.0515 -0.0284
 2087SOL     OW17896   1.358   4.459   6.942  0.0597  0.3249  0.4180
 2087SOL    HW117897   1.332   4.379   6.988  1.8718 -1.0774 -1.0088
 2087SOL    HW217898   1.319   4.444   6.857  0.1930  1.8441  0.0833
 2088SOL     OW17899   3.747   3.761  14.678  0.2735  0.2669  0.6519
 2088SOL    HW117900   3.660   3.765  14.718 -0.0505  1.1654 -0.1568
 2088SOL    HW217901   3.717   3.788  14.591  1.0080 -1.5964 -0.1823
 2089SOL     OW17902   3.866   0.606   0.929 -0.3889 -0.2927  0.2655
 2089SOL    HW117903   3.798   0.669   0.955 -1.6998 -1.9051  0.7491
 2089SOL    HW217904   3.812   0.528   0.920  0.3685 -0.5466 -2.0256
 2090SOL     OW17905   1.220   0.528   5.062  0.2396 -0.2541  0.3650
 2090SOL    HW117906   1.283   0.488   5.121  1.6694 -0.2667 -1.1636
 2090SOL    HW217907   1.204   0.456   5.000 -0.1907  0.1406  0.0180
 2091SOL     OW17908   1.034   0.458   8.806 -0.1737  0.3846  0.1618
 2091SOL    HW117909   1.043   0.420   8.893  1.3619  1.9499  0.6876
 2091SOL    HW217910   1.103   0.413   8.758  3.2839  3.3845  2.3854
 2092SOL     OW17911   0.046   0.661   4.506  0.1285 -0.2972  0.1143
 2092SOL    HW117912   0.087   0.742   4.474  0.4798  0.1383  1.6560
 2092SOL    HW217913   0.126   0.615   4.533 -1.4345 -2.8397  0.4029
 2093SOL     OW17914   0.207   1.818   1.507 -0.3412  0.7314 -0.5010
 2093SOL    HW117915   0.243   1.835   1.420 -0.8563  0.4857 -0.7612
 2093SOL    HW217916   0.193   1.910   1.526  2.3411  0.5366  2.3214
 2094SOL     OW17917   2.673   4.506   1.021 -0.3710  0.1504  0.1064
 2094SOL    HW117918   2.625   4.424   1.012  0.8001 -0.5813  0.5041
 2094SOL    HW217919   2.643   4.533   1.108 -0.7005 -1.5937  0.5322
 2095SOL     OW17920   3.463   2.875   7.306 -0.2015 -1.2095 -0.1192
 2095SOL    HW117921   3.519   2.940   7.263  0.2176 -0.1539  2.0378
 2095SOL    HW217922   3.497   2.793   7.270  0.4044 -0.9408 -0.1638
 2096SOL     OW17923   1.715   4.125   8.900 -0.2556 -0.2745 -0.9129
 2096SOL    HW117924   1.641   4.080   8.941 -0.0446 -1.4829 -1.8468
 2096SOL    HW217925   1.772   4.055   8.866 -1.0959 -1.1636 -0.5046
 2097SOL     OW17926   1.780   3.787   2.671 -0.2324  0.3145  0.0689
 2097SOL    HW117927   1.822   3.841   2.604  1.1027  1.2535  1.6533
 2097SOL    HW217928   1.816   3.843   2.740 -2.5151  3.2754 -1.1055
 2098SOL     OW17929   3.388   4.486   6.121 -0.0166 -0.3683  0.2634
 2098SOL    HW117930   3.323   4.461   6.186 -0.5267  0.4486  0.0724
 2098SOL    HW217931   3.461   4.425   6.131  1.7905  1.6335 -0.5123
 2099SOL     OW17932   3.911   1.329  15.491 -0.5651 -0.0693 -0.2470
 2099SOL    HW117933   3.977   1.395  15.468  0.0799 -0.8152 -0.5376
 2099SOL    HW217934   3.954   1.257  15.444  2.7532 -0.1953  2.9676
 2100SOL     OW17935   1.205   2.620   7.581  0.1902 -0.0004 -0.3936
 2100SOL    HW117936   1.198   2.708   7.543  1.6934  0.0139 -0.6149
 2100SOL    HW217937   1.163   2.568   7.512 -0.9058  0.9522 -0.4592
 2101SOL     OW17938   0.759   2.139   6.907 -0.0086 -0.0031  0.6448
 2101SOL    HW117939   0.805   2.066   6.865 -1.3791 -0.4967 -0.0389
 2101SOL    HW217940   0.791   2.211   6.853 -0.2057  0.0265  0.5652
 2102SOL     OW17941   1.963   2.000   5.854  0.0536 -0.1989 -0.1053
 2102SOL    HW117942   1.873   1.969   5.843  0.9108 -2.8602  0.5604
 2102SOL    HW217943   1.953   2.095   5.864  0.0752 -0.1604 -0.4456
 2103SOL     OW17944   3.379   1.708   2.591  0.0308  0.0531 -0.4813
 2103SOL    HW117945   3.334   1.659   2.660  0.5762  2.1748  1.3573
 2103SOL    HW217946   3.469   1.696   2.620 -0.0888  0.9123  0.2490
 2104SOL     OW17947   2.994   1.812   4.060 -0.3496  0.1341 -0.3275
 2104SOL    HW117948   3.059   1.861   4.010 -1.3544  2.2897  0.4697
 2104SOL    HW217949   2.914   1.855   4.030 -0.0446  0.1030 -1.1685
 2105SOL     OW17950   1.535   2.292   9.211  0.6646  0.6420 -0.1093
 2105SOL    HW117951   1.555   2.357   9.278 -1.0777  0.8698  0.1838
 2105SOL    HW217952   1.485   2.335   9.142  1.6090 -0.0850 -1.2314
 2106SOL     OW17953   1.421   1.830   9.319  0.4536 -0.1021 -0.4644
 2106SOL    HW117954   1.482   1.902   9.338  1.0855 -1.6417  3.3876
 2106SOL    HW217955   1.478   1.758   9.348 -2.5877 -2.6010 -0.7936
 2107SOL     OW17956   2.102   3.920  12.741  0.3438  0.2844 -0.3314
 2107SOL    HW117957   2.193   3.895  12.760  0.0088 -2.2518 -2.0073
 2107SOL    HW217958   2.054   3.848  12.781  0.8607 -0.2910 -0.7425
 2108SOL     OW17959   1.740   0.016   2.266 -0.3302  0.4624  0.0012
 2108SOL    HW117960   1.729   4.723   2.176 -0.2309  2.1170 -0.6038
 2108SOL    HW217961   1.749   4.675   2.318  0.0702 -1.0306 -2.3701
 2109SOL     OW17962   3.317   2.635   4.148 -0.4317 -0.0266  0.2338
 2109SOL    HW117963   3.412   2.632   4.139 -0.5206  0.1668 -0.6800
 2109SOL    HW217964   3.300   2.726   4.171 -0.7739  0.3249 -1.4801
 2110SOL     OW17965   0.330   4.268   4.045 -0.2051  0.2615  0.0850
 2110SOL    HW117966   0.303   4.301   4.131  1.9742  1.9561  0.1288
 2110SOL    HW217967   0.417   4.305   4.030  0.0223 -0.1579  0.3665
 2111SOL     OW17968   0.759   3.370  12.493 -0.2222  0.4722  0.0904
 2111SOL    HW117969   0.761   3.430  12.568  0.1099  1.5022 -0.7446
 2111SOL    HW217970   0.778   3.420  12.414 -0.7858  0.1696 -0.2419
 2112SOL     OW17971   3.012   1.114   1.257 -0.6114  0.2308 -0.6889
 2112SOL    HW117972   3.097   1.089   1.292 -1.4480 -2.5267 -0.6411
 2112SOL    HW217973   3.019   1.078   1.168 -1.1956 -0.7414 -0.3422
 2113SOL     OW17974   3.355   4.258   2.726 -0.2638 -0.1309  0.1208
 2113SOL    HW117975   3.431   4.310   2.754 -0.2231 -1.1400  1.8772
 2113SOL    HW217976   3.287   4.315   2.761  0.1113  1.8450 -2.3694
 2114SOL     OW17977   0.133   2.727   2.719 -0.4765  0.0152  0.3945
 2114SOL    HW117978   0.159   2.639   2.745 -3.0237 -0.7321  0.4651
 2114SOL    HW217979   0.038   2.714   2.727 -1.0089  1.6176 -3.1374
 2115SOL     OW17980   3.822   2.589   5.461  0.4038  0.6221 -0.5373
 2115SOL    HW117981   3.853   2.563   5.548  0.2887  1.4615 -0.2461
 2115SOL    HW217982   3.833   2.682   5.481 -0.1327  0.7283 -0.7472
 2116SOL     OW17983   2.462   2.870  12.086  0.4686  0.1449 -0.4759
 2116SOL    HW117984   2.550   2.844  12.114  0.4696 -0.3206 -0.8938
 2116SOL    HW217985   2.450   2.924  12.164 -0.9594 -0.9899  0.0997
 2117SOL     OW17986   0.669   0.021   1.410 -0.3567 -0.0061  0.1451
 2117SOL    HW117987   0.672   4.696   1.481 -0.0554 -2.8520 -2.4021
 2117SOL    HW217988   0.742   4.718   1.363 -0.1921 -3.1800  3.2268
 2118SOL     OW17989   3.835   2.911  17.071 -0.1136  0.3597  0.6386
 2118SOL    HW117990   3.839   2.934  16.979  2.2132 -3.9650 -0.3020
 2118SOL    HW217991   3.779   2.977  17.112  2.3420  2.0503  1.2452
 2119SOL     OW17992   4.268   1.149  16.965 -0.6072 -0.1301  0.1590
 2119SOL    HW117993   4.357   1.181  16.955  0.0616 -1.9788  0.1762
 2119SOL    HW217994   4.267   1.077  17.029  0.1584 -1.8779 -1.8113
 2120SOL     OW17995   1.873   2.993  15.752 -0.5523  0.2885 -0.0100
 2120SOL    HW117996   1.897   3.066  15.695 -2.6366  1.2040  0.2887
 2120SOL    HW217997   1.883   2.911  15.703 -1.2842 -0.6956  1.4853
 2121SOL     OW17998   4.124   0.419  12.107 -0.4571  0.2924 -0.6283
 2121SOL    HW117999   4.116   0.448  12.017  0.0475  1.2456 -0.3641
 2121SOL    HW218000   4.113   0.325  12.090  0.3065  0.4464 -1.9506
 2122SOL     OW18001   3.488   2.122   0.855  0.3697 -0.3289  0.0270
 2122SOL    HW118002   3.478   2.205   0.808  0.5049 -0.4290 -0.1785
 2122SOL    HW218003   3.410   2.082   0.817  0.0087  1.3893 -1.0600
 2123SOL     OW18004   3.309   3.146   5.276  0.1668 -0.3088 -0.0376
 2123SOL    HW118005   3.290   3.091   5.199  1.1137 -0.9227  0.1688
 2123SOL    HW218006   3.276   3.226   5.234 -0.0780 -0.9589 -1.0833
 2124SOL     OW18007   1.991   0.656   2.096  0.0521 -0.1234 -0.3887
 2124SOL    HW118008   1.949   0.614   2.021 -1.1256 -1.6985  1.1611
 2124SOL    HW218009   2.079   0.636   2.064 -2.2730 -0.6352 -6.3671
 2125SOL     OW18010   4.069   0.236   5.090 -0.6856 -0.3426  0.0690
 2125SOL    HW118011   4.108   0.284   5.017  2.7411 -3.0957  0.0729
 2125SOL    HW218012   3.974   0.246   5.084 -0.3548  1.3290 -2.1694
 2126SOL     OW18013   4.082   3.053   4.374 -0.0675  0.0244 -0.1043
 2126SOL    HW118014   4.016   3.003   4.327 -1.2351  0.6927  0.8125
 2126SOL    HW218015   4.081   3.004   4.457 -1.6769  2.0441  1.0858
 2127SOL     OW18016   3.497   3.838   6.657 -0.4304  0.1710 -0.4197
 2127SOL    HW118017   3.407   3.838   6.688 -0.2876  3.3076  0.0107
 2127SOL    HW218018   3.531   3.928   6.661  1.0280 -0.2916 -2.2222
 2128SOL     OW18019   2.951   4.707  12.243  0.1451 -0.0037  0.2776
 2128SOL    HW118020   2.944   4.635  12.306  1.9064 -0.5269 -0.1186
 2128SOL    HW218021   2.894   4.677  12.172  0.4325 -1.0188  0.4682
 2129SOL     OW18022   2.222   2.334  13.931 -0.1263 -0.1344 -0.6173
 2129SOL    HW118023   2.151   2.269  13.937  1.1141 -1.3207  1.0114
 2129SOL    HW218024   2.192   2.363  13.845 -2.4836 -1.1190 -0.1623
 2130SOL     OW18025   4.284   4.208   8.215 -0.3002 -0.6018  0.0472
 2130SOL    HW118026   4.231   4.255   8.281  0.5327  0.8706 -0.3419
 2130SOL    HW218027   4.326   4.284   8.176 -0.4728 -0.0812  0.8495
 2131SOL     OW18028   4.661   0.946  13.244  0.3639  0.3140 -0.1217
 2131SOL    HW118029   4.578   0.991  13.236 -0.4031 -0.1201  5.3632
 2131SOL    HW218030   4.704   0.956  13.159  0.1269 -0.4727 -0.3351
 2132SOL     OW18031   1.387   2.799  11.974 -0.1361 -0.1632  0.0590
 2132SOL    HW118032   1.311   2.760  11.932 -0.3420 -2.4426  2.5552
 2132SOL    HW218033   1.350   2.810  12.062 -2.0033  0.2957 -0.7953
 2133SOL     OW18034   0.604   2.620  14.890  0.2980 -0.4704 -0.6843
 2133SOL    HW118035   0.584   2.531  14.859 -0.1635 -0.9040  0.8384
 2133SOL    HW218036   0.649   2.654  14.813  0.3217  0.6536 -0.1664
 2134SOL     OW18037   3.341   0.283   2.957 -0.0196 -0.0197  1.0111
 2134SOL    HW118038   3.246   0.294   2.966 -0.6151 -1.6918 -3.1986
 2134SOL    HW218039   3.377   0.280   3.046 -0.9747  0.2600  1.4109
 2135SOL     OW18040   1.332   3.068  12.517  0.1736 -0.0878  0.1658
 2135SOL    HW118041   1.240   3.042  12.526  0.2470 -0.1922  0.5956
 2135SOL    HW218042   1.382   2.998  12.559  0.8681  0.2211 -0.1474
 2136SOL     OW18043   0.103   2.267  12.411 -0.0574  0.0345 -0.7976
 2136SOL    HW118044   0.038   2.204  12.380  0.0540 -0.8400  0.7274
 2136SOL    HW218045   0.056   2.348  12.432  0.3661 -0.0142  0.3703
 2137SOL     OW18046   3.006   1.663   2.504 -0.2668 -0.2426  0.4830
 2137SOL    HW118047   2.987   1.587   2.560 -1.6690 -0.7588 -0.7255
 2137SOL    HW218048   3.087   1.631   2.463 -1.1604 -2.4189  0.3887
 2138SOL     OW18049   2.507   0.208   3.545 -0.4604  0.2928  0.5104
 2138SOL    HW118050   2.431   0.150   3.546 -0.2630  0.0313 -1.0886
 2138SOL    HW218051   2.565   0.163   3.606  0.2676  1.9913  1.0793
 2139SOL     OW18052   2.643   3.677   9.186  0.0925 -0.1749  0.0942
 2139SOL    HW118053   2.734   3.682   9.158  0.7557  0.9024  2.3711
 2139SOL    HW218054   2.652   3.703   9.278  3.4333  0.7631 -0.5058
 2140SOL     OW18055   3.129   1.906  17.624 -0.2605  0.1506  0.8015
 2140SOL    HW118056   3.072   1.969  17.580  0.4568  0.0965 -0.1912
 2140SOL    HW218057   3.174   1.973  17.675 -0.2428  1.7638 -1.3598
 2141SOL     OW18058   2.968   0.120   1.727  0.3564 -0.0990 -0.0889
 2141SOL    HW118059   2.874   0.130   1.714  0.7489  2.3497 -1.1377
 2141SOL    HW218060   2.988   0.210   1.753 -2.0954  0.4545 -0.1474
 2142SOL     OW18061   2.947   1.564   3.059  0.3725 -0.3452  0.1312
 2142SOL    HW118062   2.855   1.537   3.061  0.2522 -0.0518 -2.3286
 2142SOL    HW218063   2.964   1.581   3.152 -0.6246 -0.6595  0.3734
 2143SOL     OW18064   0.078   3.276  17.197  0.6105 -0.1788 -0.1837
 2143SOL    HW118065   0.164   3.235  17.193  0.2226 -1.2648  2.6507
 2143SOL    HW218066   0.028   3.205  17.156 -0.2732  0.0307  0.5291
 2144SOL     OW18067   1.550   2.659  17.684 -0.2707  0.0782  0.7034
 2144SOL    HW118068   1.573   2.738  17.731 -0.7309 -0.5412  1.9561
 2144SOL    HW218069   1.638   2.646  17.647 -1.3535 -0.7066 -1.6011
 2145SOL     OW18070   1.786   4.418  17.702  0.3544 -0.0787 -0.2810
 2145SOL    HW118071   1.720   4.412   0.018 -0.4683  1.8344 -0.9212
 2145SOL    HW218072   1.821   4.329  17.697  0.3028 -0.1588  0.7146
 2146SOL     OW18073   1.101   4.472   6.393 -0.1908  0.0738 -0.0595
 2146SOL    HW118074   1.018   4.486   6.348  1.0174 -0.1458 -2.3718
 2146SOL    HW218075   1.162   4.495   6.322 -1.3129  0.9706 -0.7451
 2147SOL     OW18076   0.284   2.034   5.446 -0.3362  0.1648  0.3877
 2147SOL    HW118077   0.323   2.070   5.367 -1.8877  0.7952 -0.0844
 2147SOL    HW218078   0.311   1.942   5.437  0.8807  0.3244  2.3930
 2148SOL     OW18079   0.601   2.406   7.731  0.2653 -0.6242  0.2971
 2148SOL    HW118080   0.509   2.380   7.728  1.1897 -4.1952  1.8886
 2148SOL    HW218081   0.649   2.324   7.716  0.3432 -0.6604  0.7216
 2149SOL     OW18082   1.188   2.503   2.714  0.2787  0.3644  0.8459
 2149SOL    HW118083   1.250   2.437   2.746  0.9286 -0.6164 -2.3874
 2149SOL    HW218084   1.223   2.586   2.747 -0.6280  1.5050 -1.0904
 2150SOL     OW18085   1.911   3.164   8.431  0.2374  0.1874 -0.6191
 2150SOL    HW118086   1.916   3.183   8.337 -0.0031 -1.3745 -0.9431
 2150SOL    HW218087   1.994   3.124   8.456 -0.8592  0.2648  3.0560
 2151SOL     OW18088   4.260   3.711   1.059 -0.2915  0.2107 -0.1076
 2151SOL    HW118089   4.282   3.782   1.120  1.3946 -1.4728  1.2336
 2151SOL    HW218090   4.233   3.768   0.986 -1.6131 -0.1226  0.1216
 2152SOL     OW18091   2.974   0.496   7.093  0.1643 -0.0663  0.3128
 2152SOL    HW118092   2.979   0.548   7.012 -2.4992  1.1475  0.9375
 2152SOL    HW218093   3.051   0.440   7.086  0.4301  0.5225 -1.6721
 2153SOL     OW18094   0.951   0.043  17.106  0.0019 -0.4662 -0.0020
 2153SOL    HW118095   0.965   4.687  17.102  1.6311 -0.2716  1.4892
 2153SOL    HW218096   0.871   0.039  17.160 -0.4086  1.3585 -0.5046
 2154SOL     OW18097   4.728   0.671  11.877 -0.0790  0.0983 -0.5312
 2154SOL    HW118098   4.647   0.684  11.927  0.7401 -0.8037  1.0291
 2154SOL    HW218099   0.014   0.761  11.857  0.1965  0.2219  0.3406
 2155SOL     OW18100   3.970   2.755   1.428  0.6320 -0.2418  0.5919
 2155SOL    HW118101   3.996   2.722   1.342  0.2469 -1.2107  0.8454
 2155SOL    HW218102   3.888   2.711   1.452 -0.7377  0.7620 -2.2319
 2156SOL     OW18103   2.157   1.909   4.607 -0.0890 -0.1302 -0.2523
 2156SOL    HW118104   2.067   1.921   4.576 -0.1109  1.5734  0.4884
 2156SOL    HW218105   2.147   1.839   4.672  0.9848 -0.6082 -0.6003
 2157SOL     OW18106   1.207   2.879   7.801  0.3465  0.4199  0.5539
 2157SOL    HW118107   1.282   2.891   7.742  0.2795 -1.5540  0.0768
 2157SOL    HW218108   1.184   2.971   7.816  1.9255  0.9821 -0.4926
 2158SOL     OW18109   3.725   1.624   5.799  0.7276  0.1708  0.2850
 2158SOL    HW118110   3.677   1.647   5.719 -1.6162 -0.8195  1.4009
 2158SOL    HW218111   3.812   1.610   5.762 -0.6718 -3.0165 -1.8629
 2159SOL     OW18112   3.072   3.157   9.602 -0.4138 -0.2333  0.1657
 2159SOL    HW118113   3.122   3.169   9.682 -0.9300  2.4601  0.0625
 2159SOL    HW218114   2.981   3.146   9.630 -0.3325 -0.8411  0.1905
 2160SOL     OW18115   1.962   3.689   7.554  0.5759 -0.8092 -0.2592
 2160SOL    HW118116   1.950   3.644   7.470  0.0516 -0.7790 -0.2029
 2160SOL    HW218117   2.024   3.759   7.533  0.6039 -0.8545 -0.3306
 2161SOL     OW18118   1.486   3.411  12.481  0.2866 -0.3802  0.1236
 2161SOL    HW118119   1.397   3.443  12.470 -0.2018 -1.6031  0.5581
 2161SOL    HW218120   1.483   3.333  12.426  0.9792  0.4869 -1.1625
 2162SOL     OW18121   4.641   3.429   2.455  0.1075 -0.1857  0.4531
 2162SOL    HW118122   4.653   3.357   2.516  1.4865 -0.6694 -0.3966
 2162SOL    HW218123   4.644   3.388   2.368 -0.0307 -0.8322  0.7507
 2163SOL     OW18124   4.214   0.073  14.733  0.7291 -0.3774  0.1040
 2163SOL    HW118125   4.145   0.126  14.772 -1.5996 -2.7968 -0.7196
 2163SOL    HW218126   4.225   0.005  14.799  0.5612 -1.9267 -1.4726
 2164SOL     OW18127   3.538   4.257  12.372  0.2990  0.0388 -0.0069
 2164SOL    HW118128   3.549   4.290  12.462 -0.1573 -0.2101  0.1378
 2164SOL    HW218129   3.451   4.219  12.383  0.0081  1.1325  1.5319
 2165SOL     OW18130   0.588   4.471   5.960 -0.0063  0.4724 -0.2523
 2165SOL    HW118131   0.670   4.515   5.938  0.1751  0.6153  0.6870
 2165SOL    HW218132   0.592   4.463   6.056 -2.3760 -0.4744 -0.2069
 2166SOL     OW18133   2.887   0.189  12.416 -0.7386  0.9221  1.0316
 2166SOL    HW118134   2.905   0.166  12.507  1.3001 -0.2315  0.3220
 2166SOL    HW218135   2.896   0.102  12.378  0.8547  1.9788 -0.9634
 2167SOL     OW18136   2.109   3.310   2.353 -0.0001 -0.0074 -0.3830
 2167SOL    HW118137   2.151   3.361   2.423 -0.5709  0.2582 -0.2338
 2167SOL    HW218138   2.039   3.282   2.412  0.6898  2.8502  1.8465
 2168SOL     OW18139   3.017   4.272   0.824 -0.7486 -0.1546  0.3693
 2168SOL    HW118140   3.070   4.250   0.747 -0.8662 -0.0619  0.2625
 2168SOL    HW218141   3.079   4.271   0.897  0.7227 -1.1104 -0.8749
 2169SOL     OW18142   2.701   2.019   2.863  0.5960 -0.1171 -0.1995
 2169SOL    HW118143   2.739   1.946   2.815 -2.2656 -1.7791  0.0520
 2169SOL    HW218144   2.776   2.055   2.910 -0.2671  0.5556  0.6807
 2170SOL     OW18145   2.281   3.132   6.427 -0.0051 -0.2214 -0.4324
 2170SOL    HW118146   2.274   3.228   6.419  1.3699  0.0613  1.7474
 2170SOL    HW218147   2.188   3.116   6.438 -0.2828  1.1479 -0.7840
 2171SOL     OW18148   3.657   2.147   5.278 -0.0411  0.1078  0.0675
 2171SOL    HW118149   3.626   2.063   5.245  1.0073  0.2511 -1.2645
 2171SOL    HW218150   3.744   2.159   5.240  1.1265  1.0244  3.0645
 2172SOL     OW18151   0.433   1.094  16.604 -0.3632  0.4253  0.4879
 2172SOL    HW118152   0.498   1.151  16.562 -1.8947  1.9449  0.1794
 2172SOL    HW218153   0.358   1.152  16.612 -1.1085 -0.8679  2.8796
 2173SOL     OW18154   4.300   2.047  14.005  0.5844  0.0681  0.4105
 2173SOL    HW118155   4.247   1.988  14.060  0.6223  0.2084  0.5969
 2173SOL    HW218156   4.226   2.091  13.962  0.8559  0.7905  0.6841
 2174SOL     OW18157   2.178   0.498   6.010 -0.5151 -0.3799  0.5817
 2174SOL    HW118158   2.218   0.466   6.090 -1.6077  0.2197  1.3596
 2174SOL    HW218159   2.097   0.448   6.004 -1.2472  0.7682  0.8682
 2175SOL     OW18160   0.624   0.353   8.344 -0.5890 -0.4562  0.9662
 2175SOL    HW118161   0.578   0.290   8.289  2.8535 -3.6823  1.8190
 2175SOL    HW218162   0.575   0.434   8.330 -1.0287 -0.3600  3.0504
 2176SOL     OW18163   0.648   4.294   6.238  0.9696  0.2179  0.4970
 2176SOL    HW118164   0.633   4.374   6.289 -1.0673 -0.1056  0.4151
 2176SOL    HW218165   0.724   4.256   6.282 -0.5347 -2.5983  0.6962
 2177SOL     OW18166   3.455   2.008  11.315 -0.2099 -0.0140 -0.4903
 2177SOL    HW118167   3.544   2.041  11.304  0.0179 -1.0616 -1.7809
 2177SOL    HW218168   3.400   2.082  11.293  0.6154  0.3604 -1.2867
 2178SOL     OW18169   3.303   1.203   8.726 -0.2020 -0.5151 -0.2955
 2178SOL    HW118170   3.392   1.203   8.692  0.5440 -0.4584  1.6462
 2178SOL    HW218171   3.314   1.152   8.807  1.2834 -0.9997 -0.8034
 2179SOL     OW18172   2.852   3.352  16.455  0.5507 -0.5331  0.3916
 2179SOL    HW118173   2.785   3.415  16.429 -0.2071 -0.5954  2.1672
 2179SOL    HW218174   2.897   3.411  16.516  1.0447  0.2209 -0.7033
 2180SOL     OW18175   2.741   1.711   1.929  0.0522 -0.1662 -0.0574
 2180SOL    HW118176   2.776   1.751   2.009 -0.1759 -1.0075  0.4669
 2180SOL    HW218177   2.820   1.673   1.893 -0.5400 -0.2391 -1.2725
 2181SOL     OW18178   0.737   3.265  12.969  0.0604  0.2230 -0.2760
 2181SOL    HW118179   0.692   3.340  12.930 -1.1783 -0.1136  0.4865
 2181SOL    HW218180   0.771   3.225  12.889  1.9861  2.3065 -0.4768
 2182SOL     OW18181   3.613   1.478   8.197  0.1367 -0.4158 -0.2955
 2182SOL    HW118182   3.675   1.543   8.166  2.2020 -2.2993 -0.1479
 2182SOL    HW218183   3.544   1.480   8.131  1.0285 -0.4265 -1.2253
 2183SOL     OW18184   0.377   3.639   4.954  1.0422  0.0260 -0.2860
 2183SOL    HW118185   0.447   3.585   4.990 -0.8465 -0.6053  2.4302
 2183SOL    HW218186   0.338   3.570   4.901 -1.6287  0.4138  1.1738
 2184SOL     OW18187   0.656   0.544  12.392  0.3166  0.7372  0.2738
 2184SOL    HW118188   0.637   0.548  12.486 -0.9010  0.7747  0.0263
 2184SOL    HW218189   0.620   0.627  12.359 -1.2528 -0.3330 -0.6968
 2185SOL     OW18190   3.111   3.231   0.986  0.0089 -0.7031 -0.1260
 2185SOL    HW118191   3.140   3.141   0.969 -1.1155 -1.2071  0.6445
 2185SOL    HW218192   3.075   3.221   1.074  0.7474 -1.0096  0.1410
 2186SOL     OW18193   1.316   1.893   3.056  0.5264  0.0696 -0.5303
 2186SOL    HW118194   1.403   1.931   3.069  0.3022  0.3150  0.2937
 2186SOL    HW218195   1.317   1.822   3.119 -2.1161  1.3922  1.0094
 2187SOL     OW18196   3.160   2.519   6.311 -0.9236 -0.4293 -0.6398
 2187SOL    HW118197   3.177   2.600   6.360  0.3975 -1.8997  1.3196
 2187SOL    HW218198   3.078   2.546   6.269 -0.8415  0.3174 -0.3244
 2188SOL     OW18199   0.009   2.480   6.213 -0.3209  0.4536  0.3275
 2188SOL    HW118200   0.091   2.485   6.263 -0.5085  0.6307  0.6234
 2188SOL    HW218201   0.041   2.478   6.123 -0.3370 -1.5700  0.3685
 2189SOL     OW18202   0.128   2.609   8.797  0.0269 -0.5419 -0.0776
 2189SOL    HW118203   0.145   2.619   8.890  0.9300 -0.8485 -0.2109
 2189SOL    HW218204   0.033   2.619   8.791  0.2082  2.2860  1.3752
 2190SOL     OW18205   0.871   2.484   9.072 -0.4728  0.1101 -0.3281
 2190SOL    HW118206   0.938   2.546   9.102 -1.7253  1.6781 -0.7292
 2190SOL    HW218207   0.914   2.461   8.990 -2.0866  0.9484 -1.4071
 2191SOL     OW18208   4.301   1.914   3.301 -0.1951 -0.0667  0.4059
 2191SOL    HW118209   4.305   1.971   3.225  0.4051 -0.9273 -0.2116
 2191SOL    HW218210   4.239   1.850   3.267 -0.1297 -0.2656  0.6561
 2192SOL     OW18211   4.349   3.021   2.456  0.1846 -0.4951  0.0023
 2192SOL    HW118212   4.349   2.979   2.371  0.0390 -0.5321  0.0204
 2192SOL    HW218213   4.403   2.961   2.508 -0.8750  0.9762  2.8032
 2193SOL     OW18214   3.496   3.762  13.244  0.4288  0.3049 -0.1026
 2193SOL    HW118215   3.554   3.797  13.312  2.1137 -1.2219 -0.7473
 2193SOL    HW218216   3.440   3.838  13.228  0.8832  0.6366 -0.0991
 2194SOL     OW18217   2.647   3.248   6.484  0.3014  0.4562 -0.3244
 2194SOL    HW118218   2.575   3.203   6.527  1.1849 -0.3625  0.3008
 2194SOL    HW218219   2.613   3.260   6.396  0.7557  1.2316 -0.4022
 2195SOL     OW18220   0.951   3.463   9.457  0.0442  0.6662 -0.1734
 2195SOL    HW118221   0.937   3.470   9.551  1.7889 -0.9781  0.2143
 2195SOL    HW218222   0.947   3.557   9.437  0.6467  0.9430  1.0445
 2196SOL     OW18223   0.153   3.100   5.433  0.1130  0.0731 -0.1027
 2196SOL    HW118224   0.090   3.171   5.442 -0.6203 -0.6884  0.6610
 2196SOL    HW218225   0.098   3.031   5.469  0.4746  0.9810  2.1426
 2197SOL     OW18226   0.516   4.238  13.246  0.1747 -0.3833 -0.2357
 2197SOL    HW118227   0.449   4.303  13.227 -1.7743 -2.2979  0.1644
 2197SOL    HW218228   0.566   4.221  13.165  0.3720  1.9937 -0.6135
 2198SOL     OW18229   0.354   2.471  10.829 -0.0920 -0.1852  0.0949
 2198SOL    HW118230   0.294   2.399  10.850  0.6949 -0.4818  1.3404
 2198SOL    HW218231   0.296   2.531  10.783 -0.4814 -1.1551 -0.6652
 2199SOL     OW18232   1.111   1.869   9.667 -0.4415 -0.5635  0.7261
 2199SOL    HW118233   1.062   1.821   9.734 -0.0452 -1.4725  0.3607
 2199SOL    HW218234   1.066   1.860   9.583 -0.5668  0.0496  0.7310
 2200SOL     OW18235   4.011   0.929   5.823 -0.3568 -0.3985 -0.5418
 2200SOL    HW118236   4.014   0.972   5.908  1.3984 -2.3513  0.3851
 2200SOL    HW218237   4.104   0.915   5.804  0.2827  1.9654  0.7549
 2201SOL     OW18238   0.189   1.387   7.472 -0.0517 -0.4084  0.1003
 2201SOL    HW118239   0.153   1.474   7.485  1.7437  0.3069  0.3525
 2201SOL    HW218240   0.181   1.376   7.378 -1.4277  2.9172 -0.1492
 2202SOL     OW18241   0.649   3.189   1.964 -0.0650  0.0393  0.0289
 2202SOL    HW118242   0.658   3.138   2.045  1.3305  0.5862  0.2269
 2202SOL    HW218243   0.710   3.260   1.986 -0.3684  0.9892 -2.2482
 2203SOL     OW18244   4.655   1.062   2.504 -0.6491 -0.0723 -0.3189
 2203SOL    HW118245   4.720   0.995   2.483 -1.5318 -1.0869  0.1769
 2203SOL    HW218246   4.571   1.028   2.474 -1.6656  0.2111  2.1634
 2204SOL     OW18247   0.306   1.158   2.899  0.0502 -0.3045 -0.6211
 2204SOL    HW118248   0.222   1.195   2.873  1.1322  2.3860 -0.4114
 2204SOL    HW218249   0.268   1.074   2.924 -5.1250  1.3179 -2.9880
 2205SOL     OW18250   3.438   2.497   0.384 -0.1961  0.7859  0.3161
 2205SOL    HW118251   3.402   2.568   0.330  3.2118  2.8008  0.6550
 2205SOL    HW218252   3.465   2.551   0.458  0.4494  2.1031 -0.8749
 2206SOL     OW18253   3.253   1.656   0.157  0.3450 -0.9041  0.2891
 2206SOL    HW118254   3.181   1.719   0.164  0.1885 -1.1088  0.5333
 2206SOL    HW218255   3.224   1.585   0.214  0.7365 -0.4806  1.0107
 2207SOL     OW18256   2.111   1.199   2.674 -0.9039 -0.5349  0.4431
 2207SOL    HW118257   2.061   1.128   2.634  0.8060 -0.0480 -2.5065
 2207SOL    HW218258   2.048   1.271   2.676 -2.1768 -1.6735  1.2991
 2208SOL     OW18259   4.514   3.755   3.811  0.0782 -0.2914 -0.0135
 2208SOL    HW118260   4.507   3.739   3.905 -0.9688 -2.4475 -0.4608
 2208SOL    HW218261   4.513   3.850   3.808  2.7245 -0.2743  0.3243
 2209SOL     OW18262   2.772   3.229   3.326  0.0867 -0.2726  0.1118
 2209SOL    HW118263   2.728   3.231   3.411 -0.0173  2.2947  0.0042
 2209SOL    HW218264   2.856   3.193   3.356 -0.5717 -0.1719  2.0592
 2210SOL     OW18265   4.416   4.417   5.828 -0.1765  0.2528  0.1520
 2210SOL    HW118266   4.510   4.426   5.814 -0.0414 -0.9789  0.3420
 2210SOL    HW218267   4.393   4.328   5.853 -0.5490  0.9235  2.2150
 2211SOL     OW18268   1.839   1.158   2.160  0.0850  1.0367 -0.4047
 2211SOL    HW118269   1.875   1.070   2.150  0.7063  1.1583  0.7482
 2211SOL    HW218270   1.758   1.149   2.111  0.5684 -1.1568 -0.8125
 2212SOL     OW18271   3.621   4.216   3.513  0.3078 -0.1191  0.3525
 2212SOL    HW118272   3.661   4.273   3.578  0.3711  1.4308 -1.0310
 2212SOL    HW218273   3.655   4.128   3.527 -1.6394 -0.4274  3.0608
 2213SOL     OW18274   2.123   0.740  17.748  0.2684 -0.0290 -0.7618
 2213SOL    HW118275   2.036   0.717  17.714  0.0949  0.7710 -0.8724
 2213SOL    HW218276   2.169   0.657  17.744 -0.6682 -0.5919  0.1840
 2214SOL     OW18277   4.628   4.421   1.726  0.3772 -0.0038  0.5371
 2214SOL    HW118278   4.611   4.512   1.748  2.0861  0.4356  0.0530
 2214SOL    HW218279   4.565   4.373   1.780 -0.1933 -1.7756 -1.6597
 2215SOL     OW18280   0.434   1.963  10.132  0.5409  0.1585 -0.0843
 2215SOL    HW118281   0.368   1.952  10.064  1.3599  0.3190 -0.8906
 2215SOL    HW218282   0.382   1.964  10.213  1.8539 -1.3720  0.7832
 2216SOL     OW18283   2.218   2.012   3.467 -0.3324 -0.6625  0.3297
 2216SOL    HW118284   2.139   1.960   3.482 -1.3939  0.5427 -1.1472
 2216SOL    HW218285   2.230   2.009   3.372  0.9749 -1.1515  0.4975
 2217SOL     OW18286   3.941   0.772   9.583  0.1323  0.1074  0.4186
 2217SOL    HW118287   3.896   0.797   9.663  1.6218  2.7591  0.4525
 2217SOL    HW218288   3.889   0.698   9.551 -0.3379  0.6113  0.0090
 2218SOL     OW18289   0.607   4.086   9.094 -0.0096 -0.2698  0.2816
 2218SOL    HW118290   0.685   4.061   9.044  0.0074  0.3506 -0.0079
 2218SOL    HW218291   0.542   4.109   9.027 -0.9863 -0.9301  0.9911
 2219SOL     OW18292   2.534   1.393   1.655 -0.4221  0.5569  0.0465
 2219SOL    HW118293   2.541   1.475   1.703 -0.1477  0.4603  0.1722
 2219SOL    HW218294   2.456   1.350   1.692  1.3944 -1.4437  1.5762
 2220SOL     OW18295   3.250   1.859   8.021 -0.0403  0.1552 -0.1136
 2220SOL    HW118296   3.274   1.917   7.949 -0.8421  0.1285 -0.4105
 2220SOL    HW218297   3.155   1.869   8.031 -0.1292  0.3311 -1.0772
 2221SOL     OW18298   3.174   4.052  17.140 -0.3781 -0.2339  0.0237
 2221SOL    HW118299   3.088   4.032  17.104 -0.0564  1.4475 -1.6608
 2221SOL    HW218300   3.174   4.000  17.221  0.9814 -1.4218 -0.7271
 2222SOL     OW18301   2.903   0.256   8.794 -0.3931  0.3231  0.0781
 2222SOL    HW118302   2.835   0.195   8.824  0.1908  0.4187  1.5810
 2222SOL    HW218303   2.982   0.208   8.819  0.8350  2.8281  0.9692
 2223SOL     OW18304   2.616   1.990   9.627 -0.0355 -0.1055 -0.8315
 2223SOL    HW118305   2.651   2.014   9.713  0.0438 -0.7763 -0.6767
 2223SOL    HW218306   2.672   1.913   9.619 -0.6357 -0.6914  0.5366
 2224SOL     OW18307   2.699   1.452   3.040 -0.4625 -0.3143  0.4865
 2224SOL    HW118308   2.615   1.481   3.076 -0.3734  0.2535  0.2340
 2224SOL    HW218309   2.676   1.361   3.024  0.7256 -0.1097 -2.4305
 2225SOL     OW18310   2.998   4.689   3.452  0.3931  0.0959  0.1958
 2225SOL    HW118311   2.914   4.647   3.469  1.1612 -1.1322  0.8826
 2225SOL    HW218312   3.013   4.665   3.360 -0.8648  1.4436 -0.3764
 2226SOL     OW18313   0.045   2.570   4.969  0.1739  0.0975  0.0444
 2226SOL    HW118314   4.701   2.607   5.001  0.1896 -1.5433  2.0044
 2226SOL    HW218315   0.013   2.481   4.953 -0.2621 -0.0583  1.7252
 2227SOL     OW18316   1.226   0.684   0.294  0.1919  0.0740  0.2885
 2227SOL    HW118317   1.208   0.684   0.388 -1.0940  0.4815  0.0444
 2227SOL    HW218318   1.145   0.716   0.255 -0.5378 -2.0720  0.0538
 2228SOL     OW18319   1.678   0.218  13.503  0.5464  0.2950  0.1816
 2228SOL    HW118320   1.741   0.289  13.519  0.8963  0.2104 -0.8269
 2228SOL    HW218321   1.693   0.174  13.587  4.1276 -0.9602 -1.1014
 2229SOL     OW18322   0.116   2.947  12.737  0.2499  0.2634  0.2997
 2229SOL    HW118323   0.190   2.939  12.798  1.7704  1.4178 -1.3883
 2229SOL    HW218324   0.132   2.872  12.680 -3.2568  0.1995 -0.5851
 2230SOL     OW18325   1.285   2.394   5.500 -0.7788 -0.1537 -0.2851
 2230SOL    HW118326   1.358   2.445   5.535 -0.3985  1.7813 -3.9148
 2230SOL    HW218327   1.320   2.305   5.492 -2.2808 -0.7589 -0.3061
 2231SOL     OW18328   0.706   4.400   7.721  0.6291 -0.0991  0.2585
 2231SOL    HW118329   0.801   4.417   7.726  0.9733 -1.1096 -3.0267
 2231SOL    HW218330   0.684   4.427   7.811  2.0349 -0.8090  0.8185
 2232SOL     OW18331   2.475   0.743   0.059 -0.3004  0.2023  0.1705
 2232SOL    HW118332   2.429   0.826   0.073 -0.9744 -0.1332 -0.0749
 2232SOL    HW218333   2.558   0.766   0.016 -0.5921  0.2866 -0.3530
 2233SOL     OW18334   1.465   2.456   6.481 -0.4487  0.0170 -0.0844
 2233SOL    HW118335   1.486   2.363   6.472  1.1835  0.4111 -0.2914
 2233SOL    HW218336   1.556   2.485   6.493 -0.8893  1.7648 -1.0010
 2234SOL     OW18337   3.497   3.660   7.996  0.3564  0.0701 -0.1073
 2234SOL    HW118338   3.492   3.729   8.062  2.5332 -0.8004  0.9466
 2234SOL    HW218339   3.535   3.588   8.046  1.4997  1.1702  0.6051
 2235SOL     OW18340   0.644   4.293   4.827 -0.7556  0.0783  0.3427
 2235SOL    HW118341   0.611   4.239   4.899  0.7440  2.0316  2.4719
 2235SOL    HW218342   0.658   4.233   4.753 -0.2846 -1.2022  1.4608
 2236SOL     OW18343   0.928   1.175   3.067 -0.0717 -0.2859 -0.0430
 2236SOL    HW118344   0.869   1.201   2.997 -0.4593  3.6489  1.7214
 2236SOL    HW218345   0.891   1.225   3.140 -0.8350 -0.4952 -0.2966
 2237SOL     OW18346   2.365   1.132  14.589  0.1937 -0.1406 -0.6792
 2237SOL    HW118347   2.368   1.102  14.680  1.7191  1.0551 -0.3342
 2237SOL    HW218348   2.385   1.051  14.543  0.9779  0.2487 -1.0234
 2238SOL     OW18349   0.348   3.979   1.760 -0.5913 -0.6134 -0.0694
 2238SOL    HW118350   0.317   4.024   1.681 -0.2345  1.7805  1.1485
 2238SOL    HW218351   0.403   3.910   1.722 -0.1444 -0.3460  0.0894
 2239SOL     OW18352   0.916   3.660   2.068 -0.2713 -0.4287  0.0154
 2239SOL    HW118353   0.839   3.666   2.125  1.6347 -1.6878  2.7264
 2239SOL    HW218354   0.919   3.751   2.040  0.2988 -0.0492  1.3336
 2240SOL     OW18355   2.530   1.794   3.301  0.3004  0.8330  0.0403
 2240SOL    HW118356   2.526   1.698   3.299  2.0662  0.7570  0.5114
 2240SOL    HW218357   2.623   1.808   3.285  0.4952 -0.8941 -0.3058
 2241SOL     OW18358   2.300   2.751   3.635 -0.1707 -0.3371 -0.0093
 2241SOL    HW118359   2.353   2.695   3.692  0.0584 -1.0649 -0.9409
 2241SOL    HW218360   2.306   2.708   3.549  1.1318 -0.9395  0.3810
 2242SOL     OW18361   4.068   4.317   0.746 -0.0593  0.3756  0.2891
 2242SOL    HW118362   4.141   4.343   0.689  0.0773 -0.6914 -0.0214
 2242SOL    HW218363   4.033   4.400   0.777 -1.8711 -0.0605 -0.5932
 2243SOL     OW18364   1.162   1.217   7.757 -0.0133 -0.8981  0.0868
 2243SOL    HW118365   1.104   1.199   7.683  0.0841 -1.2325  0.0960
 2243SOL    HW218366   1.171   1.130   7.795 -1.0001 -0.8027  0.5611
 2244SOL     OW18367   0.765   0.324  11.721 -0.0286  0.6119 -0.3880
 2244SOL    HW118368   0.720   0.336  11.804  0.9627 -3.0494  0.6993
 2244SOL    HW218369   0.799   0.412  11.707  3.8876 -0.6153  1.1641
 2245SOL     OW18370   0.896   2.200   8.657  0.0329 -0.2011  0.0939
 2245SOL    HW118371   0.804   2.221   8.666  0.2681  0.7916  0.1772
 2245SOL    HW218372   0.885   2.136   8.587  0.5306 -0.1511 -0.0339
 2246SOL     OW18373   2.251   2.253  16.328 -0.2742 -0.7543 -0.0457
 2246SOL    HW118374   2.183   2.269  16.393 -2.2137  0.9119 -2.4903
 2246SOL    HW218375   2.316   2.231  16.395  0.0072 -0.9201 -0.3685
 2247SOL     OW18376   4.524   3.367   8.357  0.2936  0.0755  0.0937
 2247SOL    HW118377   4.613   3.385   8.386 -0.0017 -0.0802  1.0925
 2247SOL    HW218378   4.524   3.408   8.270 -0.9638  0.5769  0.3229
 2248SOL     OW18379   0.026   4.548   8.319  0.4200  0.0991 -0.3249
 2248SOL    HW118380   0.106   4.496   8.325  1.1765  1.1066 -1.6463
 2248SOL    HW218381   0.062   4.637   8.315  1.3678 -0.4093 -2.8120
 2249SOL     OW18382   0.212   3.516  16.783 -0.2313 -0.1302 -0.0022
 2249SOL    HW118383   0.302   3.541  16.758  0.0644 -0.6562  0.5520
 2249SOL    HW218384   0.203   3.562  16.866 -0.1659 -1.2459  0.6236
 2250SOL     OW18385   1.373   2.749   4.554 -0.4508  0.1739 -0.4546
 2250SOL    HW118386   1.284   2.732   4.586 -0.7357  3.0683  0.2910
 2250SOL    HW218387   1.426   2.684   4.599 -1.5065 -0.9295 -0.8282
 2251SOL     OW18388   1.034   0.859  14.904  0.3148 -0.6429 -0.3212
 2251SOL    HW118389   0.995   0.947  14.903 -0.8226 -1.1251  2.1363
 2251SOL    HW218390   0.961   0.811  14.943 -1.1029  0.0927 -2.0795
 2252SOL     OW18391   0.152   3.291   1.101  0.1817 -0.2942  0.1531
 2252SOL    HW118392   0.161   3.286   1.196 -3.3732  1.9850  0.6097
 2252SOL    HW218393   0.074   3.347   1.094  0.6932  0.3403 -0.4669
 2253SOL     OW18394   2.057   1.975  12.129 -0.6665 -0.1352  0.3789
 2253SOL    HW118395   2.087   1.986  12.220  1.5105  0.0020 -0.3757
 2253SOL    HW218396   2.029   2.065  12.110  2.1131  0.9912  1.6580
 2254SOL     OW18397   3.524   0.110   6.736 -0.1913  0.7460 -0.2180
 2254SOL    HW118398   3.428   0.118   6.733 -0.1244  1.2891 -1.0927
 2254SOL    HW218399   3.541   0.023   6.771 -0.1728  0.5214 -0.7885
 2255SOL     OW18400   0.144   0.384   3.067 -0.1324  0.3270 -0.4368
 2255SOL    HW118401   0.181   0.307   3.023 -0.6650 -0.4757  0.5248
 2255SOL    HW218402   0.152   0.366   3.160 -0.3806  2.2305 -0.0443
 2256SOL     OW18403   4.015   1.877   1.655  0.2603 -0.2302  0.8865
 2256SOL    HW118404   4.066   1.954   1.631 -1.6844  0.5216 -0.9151
 2256SOL    HW218405   4.078   1.840   1.717  2.9337 -0.1041 -1.7324
 2257SOL     OW18406   2.779   2.853   8.894  0.2261 -0.7564  0.1488
 2257SOL    HW118407   2.857   2.907   8.908 -0.8111  0.8189 -0.1210
 2257SOL    HW218408   2.796   2.797   8.819  1.8820  1.6271 -1.2705
 2258SOL     OW18409   0.305   2.360  16.898 -0.2075  0.0070  0.3030
 2258SOL    HW118410   0.305   2.269  16.928  1.2589 -0.3239 -0.6576
 2258SOL    HW218411   0.312   2.351  16.803  1.3875  1.2148  0.3062
 2259SOL     OW18412   0.506   0.048   2.592 -0.6187  0.4130 -0.0927
 2259SOL    HW118413   0.493   0.125   2.536 -1.3385  0.8230  0.6325
 2259SOL    HW218414   0.584   0.010   2.551 -1.7210 -1.7021 -0.2197
 2260SOL     OW18415   3.848   4.621   3.606 -0.0641 -0.3636 -0.0022
 2260SOL    HW118416   3.925   4.618   3.550 -0.0223  1.5661 -0.0691
 2260SOL    HW218417   3.840   4.716   3.619 -1.0482 -0.2821 -1.1162
 2261SOL     OW18418   4.105   3.370   4.286 -0.2684 -0.7074 -0.5758
 2261SOL    HW118419   4.132   3.398   4.374 -1.1496  1.7809 -1.1192
 2261SOL    HW218420   4.103   3.274   4.280 -1.8545 -0.4317 -4.3207
 2262SOL     OW18421   1.419   3.587   4.221 -0.0351 -0.4695 -0.1387
 2262SOL    HW118422   1.328   3.599   4.196  0.1453 -1.2086 -1.1326
 2262SOL    HW218423   1.442   3.679   4.235  2.6767 -1.3733  1.3431
 2263SOL     OW18424   0.737   3.016   5.967 -0.2185 -0.2565 -1.1074
 2263SOL    HW118425   0.660   3.072   5.976 -0.3349 -0.8317  1.4351
 2263SOL    HW218426   0.793   3.074   5.917  0.0673 -1.2636 -1.9652
 2264SOL     OW18427   2.377   4.081   5.596  0.4562 -0.2811  0.2702
 2264SOL    HW118428   2.440   4.040   5.537  0.1451  0.7256 -0.7691
 2264SOL    HW218429   2.426   4.135   5.658  0.4456  0.4625 -0.3760
 2265SOL     OW18430   0.730   3.583  16.264 -0.0200 -0.7707 -0.4691
 2265SOL    HW118431   0.639   3.613  16.260  0.5154  0.8434 -0.2376
 2265SOL    HW218432   0.765   3.641  16.332 -0.6993 -2.7980  1.6218
 2266SOL     OW18433   2.321   4.520  11.541  0.1407 -0.2099  0.7753
 2266SOL    HW118434   2.321   4.605  11.496 -1.9098  0.0327  1.2560
 2266SOL    HW218435   2.414   4.501  11.553  0.6280 -0.2652 -3.1828
 2267SOL     OW18436   0.679   1.294   5.525 -0.2750  0.1399  0.9259
 2267SOL    HW118437   0.699   1.321   5.614  0.9293 -3.1322  1.6253
 2267SOL    HW218438   0.674   1.200   5.538 -1.3632  0.3255  1.8518
 2268SOL     OW18439   2.150   1.664  12.128  0.1394  0.3700  0.0192
 2268SOL    HW118440   2.135   1.718  12.050  1.1461 -1.3337 -1.3731
 2268SOL    HW218441   2.242   1.636  12.120  0.2125  0.8887 -0.9882
 2269SOL     OW18442   4.656   0.763   7.671  0.2220  0.4172  0.0328
 2269SOL    HW118443   4.582   0.815   7.640  0.8956 -0.3514 -2.9483
 2269SOL    HW218444   4.726   0.787   7.609 -0.8781 -1.6240 -2.0107
 2270SOL     OW18445   4.385   4.492   3.044  0.5432 -0.3341  0.4067
 2270SOL    HW118446   4.456   4.546   3.009 -0.3132  2.1418  2.4954
 2270SOL    HW218447   4.301   4.531   3.019  0.4302 -1.3448 -0.7675
 2271SOL     OW18448   2.876   4.041   5.445  0.3329 -0.1293 -0.1613
 2271SOL    HW118449   2.952   4.099   5.450 -0.1222  0.2878  1.6808
 2271SOL    HW218450   2.883   4.005   5.356  0.8771 -0.7177  0.1189
 2272SOL     OW18451   0.308   2.183  10.563 -0.1913  0.4568 -0.1545
 2272SOL    HW118452   0.293   2.257  10.504  0.2502  0.5414 -0.1630
 2272SOL    HW218453   0.262   2.209  10.643  1.5375  1.6252  0.4680
 2273SOL     OW18454   3.307   1.664   2.347 -0.5822  0.9623 -0.0484
 2273SOL    HW118455   3.375   1.707   2.296 -0.0532 -0.0861 -0.2208
 2273SOL    HW218456   3.331   1.667   2.439 -1.9035  0.3953  0.3182
 2274SOL     OW18457   3.959   2.297  17.164  0.5123 -0.1697  0.1606
 2274SOL    HW118458   3.964   2.288  17.069 -1.8134  1.1989 -0.0927
 2274SOL    HW218459   3.873   2.262  17.186  0.8592 -0.6188  0.7961
 2275SOL     OW18460   2.111   1.804  15.916  0.2313 -0.4185  0.3005
 2275SOL    HW118461   2.100   1.889  15.874 -0.2781 -1.3650 -1.5086
 2275SOL    HW218462   2.123   1.844  16.002  0.1514  1.2017 -0.4438
 2276SOL     OW18463   0.545   3.431   1.221  0.1787  0.0949  0.0442
 2276SOL    HW118464   0.638   3.410   1.213  0.1089 -0.0890 -0.2907
 2276SOL    HW218465   0.531   3.421   1.316 -2.5222  1.3440 -0.2173
 2277SOL     OW18466   4.697   0.701  14.532  0.0378 -0.7670  0.2530
 2277SOL    HW118467   4.648   0.783  14.526  0.6661 -0.3309  1.1537
 2277SOL    HW218468   0.049   0.722  14.552 -0.6262  0.2776  2.1542
 2278SOL     OW18469   0.296   3.796   5.478  0.2477  0.2695 -0.1821
 2278SOL    HW118470   0.201   3.808   5.473  0.4702  1.5121 -1.2720
 2278SOL    HW218471   0.322   3.805   5.387 -0.9653  0.7541 -0.4825
 2279SOL     OW18472   0.341   3.458   5.296  0.1220  0.3272  0.5735
 2279SOL    HW118473   0.359   3.552   5.290  1.4023 -0.0220 -1.2960
 2279SOL    HW218474   0.396   3.425   5.224  0.5409 -0.4177  1.2364
 2280SOL     OW18475   3.722   4.430   9.716 -0.2205  0.2874 -0.4033
 2280SOL    HW118476   3.672   4.433   9.797 -0.0961  0.4599 -0.3333
 2280SOL    HW218477   3.713   4.336   9.700 -2.1138  0.5430 -0.8704
 2281SOL     OW18478   2.729   1.110  13.749 -0.2598 -0.0867 -0.2093
 2281SOL    HW118479   2.656   1.047  13.754 -0.8445  0.6360  0.3244
 2281SOL    HW218480   2.731   1.142  13.839 -1.3354  2.2841 -1.0177
 2282SOL     OW18481   3.554   1.682  16.165 -0.4738  0.2294  0.8501
 2282SOL    HW118482   3.472   1.692  16.118 -0.5210  1.4351  1.1792
 2282SOL    HW218483   3.601   1.765  16.159  1.4453 -1.0225 -1.6578
 2283SOL     OW18484   4.274   0.947   3.891  0.2271  0.2986 -0.0408
 2283SOL    HW118485   4.302   0.945   3.800 -1.5792  2.5086 -0.6630
 2283SOL    HW218486   4.193   0.896   3.893 -0.3461  1.2150  0.6383
 2284SOL     OW18487   2.581   4.232   8.038 -0.0943 -0.2051 -0.4249
 2284SOL    HW118488   2.491   4.252   8.011 -0.7686  0.1577  2.0950
 2284SOL    HW218489   2.626   4.252   7.956  2.8077  1.5945  1.6139
 2285SOL     OW18490   0.197   4.665   9.176  0.4397  0.2383  0.2474
 2285SOL    HW118491   0.103   4.680   9.162  0.3784 -0.3699 -0.0010
 2285SOL    HW218492   0.215   0.010   9.218  1.7322 -0.8954  1.9553
 2286SOL     OW18493   1.098   1.239   5.063  0.5722  0.5737  0.0188
 2286SOL    HW118494   1.126   1.311   5.006 -0.7378  0.7411 -0.4102
 2286SOL    HW218495   1.002   1.247   5.061  0.5586 -0.0217 -1.4592
 2287SOL     OW18496   0.139   4.145   3.423 -0.9288  0.5573 -0.2605
 2287SOL    HW118497   0.182   4.108   3.500  1.1804 -0.7564 -2.0960
 2287SOL    HW218498   0.092   4.220   3.462 -0.1093  0.6217  0.6024
 2288SOL     OW18499   2.875   0.016   5.858 -0.0246  0.2895  0.1855
 2288SOL    HW118500   2.875   4.695   5.783 -2.9296  1.7900 -1.0157
 2288SOL    HW218501   2.816   4.712   5.921  1.4395 -0.0605  1.2995
 2289SOL     OW18502   2.741   0.069   1.307  0.1091 -0.3454  0.5729
 2289SOL    HW118503   2.821   0.018   1.297  1.1733  1.6063 -0.8154
 2289SOL    HW218504   2.669   0.005   1.309  0.8149 -1.1275  0.8299
 2290SOL     OW18505   1.921   1.020   6.255 -0.1056  0.0401 -0.0586
 2290SOL    HW118506   1.966   1.021   6.339 -0.0449  0.2524 -0.0944
 2290SOL    HW218507   1.974   1.075   6.197  0.4189 -0.7410 -0.3319
 2291SOL     OW18508   4.687   3.975  13.795 -0.2260  0.0807  0.3486
 2291SOL    HW118509   4.652   4.036  13.730 -0.1907 -1.3725 -1.0461
 2291SOL    HW218510   0.011   3.916  13.753 -0.3144  1.1040 -1.2200
 2292SOL     OW18511   4.694   1.779   1.446  0.2000  0.2019 -0.1327
 2292SOL    HW118512   0.044   1.773   1.480  1.1267 -0.5511 -2.7328
 2292SOL    HW218513   4.705   1.736   1.361 -1.0887 -0.3984 -0.0054
 2293SOL     OW18514   4.081   3.372  17.680 -0.3384  0.4068  0.0623
 2293SOL    HW118515   4.170   3.379  17.646  0.2583 -0.7294  1.3543
 2293SOL    HW218516   4.052   3.290  17.640  2.0316 -0.1387 -0.5519
 2294SOL     OW18517   4.680   2.832   9.305  0.2108  0.1253  0.0767
 2294SOL    HW118518   4.659   2.835   9.212  2.9074  0.3457 -0.5272
 2294SOL    HW218519   4.673   2.924   9.330 -1.4588 -0.4098  1.6309
 2295SOL     OW18520   2.839   0.173   6.692  0.4168  0.1970  0.2408
 2295SOL    HW118521   2.807   0.259   6.664 -0.8633 -0.8148 -1.4603
 2295SOL    HW218522   2.774   0.136   6.752  1.8005 -2.6165  0.0214
 2296SOL     OW18523   1.934   4.633   5.739  0.0753 -0.1957 -0.1549
 2296SOL    HW118524   1.917   4.629   5.834 -0.0379 -1.5478 -0.2206
 2296SOL    HW218525   1.991   4.708   5.725 -1.2473  0.8408  0.0675
 2297SOL     OW18526   1.539   0.939   0.332 -0.3708 -0.3040 -0.1697
 2297SOL    HW118527   1.448   0.966   0.342  0.1640  1.5825 -0.3007
 2297SOL    HW218528   1.573   0.964   0.418 -0.7955  0.1190 -0.1203
 2298SOL     OW18529   0.995   2.000   5.713  0.1015 -0.2018  0.1091
 2298SOL    HW118530   1.086   1.977   5.694  0.4641  2.2215 -1.1139
 2298SOL    HW218531   0.942   1.940   5.660  0.9407 -0.0200 -0.9202
 2299SOL     OW18532   1.868   1.548   2.061  0.2957 -0.6385 -0.0484
 2299SOL    HW118533   1.886   1.520   2.151 -1.9420 -0.9117  0.3124
 2299SOL    HW218534   1.937   1.612   2.045  0.3701 -0.8707 -0.6810
 2300SOL     OW18535   3.163   3.659   7.213 -0.2868 -0.1778 -0.4227
 2300SOL    HW118536   3.144   3.715   7.138  0.3107 -0.8022 -1.0325
 2300SOL    HW218537   3.184   3.577   7.169 -4.1963 -1.9893  0.9793
 2301SOL     OW18538   1.195   1.773   4.532 -0.4223  0.6783  0.2488
 2301SOL    HW118539   1.118   1.747   4.482 -0.9466 -1.4811  2.1834
 2301SOL    HW218540   1.264   1.718   4.493  1.9162  3.4860  0.3759
 2302SOL     OW18541   4.584   3.156   7.869  0.1537 -0.8427  0.2614
 2302SOL    HW118542   4.644   3.154   7.943  0.4762  0.4978  0.0354
 2302SOL    HW218543   4.642   3.166   7.794 -2.3857 -0.8891 -1.7156
 2303SOL     OW18544   0.724   2.635   2.478 -0.1579 -0.0368  0.0220
 2303SOL    HW118545   0.802   2.658   2.426  0.1179 -1.5816 -0.2530
 2303SOL    HW218546   0.738   2.543   2.499 -1.2868 -0.2581 -0.2119
 2304SOL     OW18547   1.052   2.463   4.080 -0.8185 -0.1819 -0.6256
 2304SOL    HW118548   1.114   2.493   4.146 -0.8102 -2.1620  0.2462
 2304SOL    HW218549   0.992   2.415   4.138 -0.1767  1.1126  1.1195
 2305SOL     OW18550   4.205   2.935   0.246 -0.0296 -0.5125  0.3278
 2305SOL    HW118551   4.251   2.852   0.230  2.2692  0.7521  0.3133
 2305SOL    HW218552   4.223   2.966   0.157 -1.0847 -1.0991 -0.0897
 2306SOL     OW18553   1.423   1.737   5.691 -0.0783  0.0225 -0.0825
 2306SOL    HW118554   1.436   1.643   5.682 -1.6160 -0.0907 -1.3032
 2306SOL    HW218555   1.396   1.749   5.782 -0.8904  2.2203 -0.6054
 2307SOL     OW18556   2.493   3.296   2.332 -0.0496  0.1880 -0.1652
 2307SOL    HW118557   2.574   3.246   2.347 -0.0823  0.5785  1.3548
 2307SOL    HW218558   2.444   3.242   2.394 -1.6622  2.1194  0.2597
 2308SOL     OW18559   1.775   1.101   8.807  0.0085  0.7491  0.5985
 2308SOL    HW118560   1.786   1.175   8.866  1.7374  1.8141 -1.0591
 2308SOL    HW218561   1.694   1.059   8.837  2.2526 -2.6074  2.0140
 2309SOL     OW18562   0.192   1.275   4.137 -0.0120  0.2709  0.0745
 2309SOL    HW118563   0.153   1.265   4.050 -1.7920 -0.5920  0.9891
 2309SOL    HW218564   0.114   1.302   4.186 -1.0651 -0.2293 -1.3133
 2310SOL     OW18565   0.339   0.679   6.372  0.5113  0.7648  0.6283
 2310SOL    HW118566   0.332   0.762   6.325 -1.8216 -0.4988 -1.1901
 2310SOL    HW218567   0.302   0.623   6.304  1.2678  0.5433  0.3958
 2311SOL     OW18568   2.152   1.346   1.416  0.5444 -0.7732  0.6326
 2311SOL    HW118569   2.175   1.402   1.490 -0.6769 -1.1610  1.2995
 2311SOL    HW218570   2.236   1.301   1.422  1.0868 -0.1762 -2.2731
 2312SOL     OW18571   3.140   0.803  13.018  0.5023 -0.0263  0.0590
 2312SOL    HW118572   3.054   0.840  13.040  0.2407 -0.1435 -0.7591
 2312SOL    HW218573   3.156   0.774  13.107  2.3360  0.0267 -0.2435
 2313SOL     OW18574   0.027   4.698   7.971 -0.1019 -0.0362  0.5846
 2313SOL    HW118575   4.678   4.708   8.007 -1.2375 -1.5848 -1.7202
 2313SOL    HW218576   0.016   4.608   7.938 -1.2462  0.0492  0.7289
 2314SOL     OW18577   0.792   2.497  15.781 -0.0957  0.0014 -0.0726
 2314SOL    HW118578   0.854   2.426  15.761 -0.1401  0.3276 -1.3867
 2314SOL    HW218579   0.812   2.507  15.874  0.9858  1.4431 -0.4634
 2315SOL     OW18580   4.529   1.083   1.185  0.2158  0.1047  0.2594
 2315SOL    HW118581   4.495   1.096   1.274  0.9427  3.5267  0.0581
 2315SOL    HW218582   4.613   1.128   1.177  0.2396 -0.4355 -2.3661
 2316SOL     OW18583   0.835   3.877  10.248  0.0854  0.4067  0.3377
 2316SOL    HW118584   0.883   3.855  10.168  3.0058  2.4537  1.5151
 2316SOL    HW218585   0.778   3.948  10.218  0.3524  1.4990  2.4650
 2317SOL     OW18586   3.019   4.367   0.414 -0.2617  0.5005 -0.1870
 2317SOL    HW118587   3.087   4.303   0.391 -2.0599 -1.5368  0.1470
 2317SOL    HW218588   2.956   4.309   0.456 -0.2402 -0.3539 -1.3318
 2318SOL     OW18589   1.563   2.202   6.449 -0.1007 -0.1524 -0.4054
 2318SOL    HW118590   1.651   2.187   6.485 -0.9499  2.2483  2.6172
 2318SOL    HW218591   1.583   2.183   6.357 -0.4294  1.8347 -0.8690
 2319SOL     OW18592   4.581   0.627   8.566 -0.3365  0.0350  0.4826
 2319SOL    HW118593   4.614   0.568   8.633  0.0050  0.6966  0.9000
 2319SOL    HW218594   4.624   0.711   8.584 -0.7013  0.6205 -1.3701
 2320SOL     OW18595   2.299   3.568  15.211  0.2244 -0.1146 -0.3120
 2320SOL    HW118596   2.338   3.519  15.283 -3.4886 -2.7023 -0.0772
 2320SOL    HW218597   2.362   3.558  15.139  0.2575  1.4952 -0.4997
 2321SOL     OW18598   2.533   0.335   1.890 -0.0113 -0.4915  0.4958
 2321SOL    HW118599   2.504   0.425   1.876 -0.1130 -0.5251  0.4959
 2321SOL    HW218600   2.614   0.339   1.839 -1.8388  0.4692 -2.3236
 2322SOL     OW18601   2.329   0.633   4.492  0.1617 -0.1291 -0.1256
 2322SOL    HW118602   2.375   0.549   4.484 -2.0875 -1.4042  0.5524
 2322SOL    HW218603   2.253   0.608   4.544  0.2501  1.5069  0.7719
 2323SOL     OW18604   3.904   3.440   0.134 -0.1109 -0.9710  0.1957
 2323SOL    HW118605   3.959   3.458   0.210 -0.3229  2.2850 -0.4042
 2323SOL    HW218606   3.959   3.412   0.060 -0.3619  2.0844 -1.1631
 2324SOL     OW18607   3.512   3.403  10.111  0.3939  0.5729  0.3007
 2324SOL    HW118608   3.440   3.390  10.050  2.1481  0.7970 -1.8233
 2324SOL    HW218609   3.528   3.492  10.079  0.2041  0.3596 -0.3907
 2325SOL     OW18610   2.476   2.409   8.129 -1.0766  0.4116  0.3713
 2325SOL    HW118611   2.395   2.392   8.081 -0.9948  2.2424 -0.4226
 2325SOL    HW218612   2.470   2.504   8.120  0.6469  0.4698 -0.1444
 2326SOL     OW18613   1.898   1.825  11.796 -0.1673 -0.1450 -0.0224
 2326SOL    HW118614   1.811   1.861  11.777 -0.4913 -1.9636 -2.0319
 2326SOL    HW218615   1.917   1.768  11.721 -2.5395 -1.1148  0.1077
 2327SOL     OW18616   4.394   0.196  15.179  0.0219  1.1622  0.3690
 2327SOL    HW118617   4.442   0.273  15.211  2.7126 -0.6356  0.6495
 2327SOL    HW218618   4.451   0.153  15.115  1.9365  2.2450  1.3161
 2328SOL     OW18619   0.973   0.232   5.254  0.0198 -0.0950 -0.5892
 2328SOL    HW118620   0.980   0.212   5.347 -3.5233  2.5091  0.2618
 2328SOL    HW218621   1.041   0.183   5.207  0.1995 -1.7977  1.4664
 2329SOL     OW18622   1.304   1.747   5.969  0.2872  0.1368 -0.1954
 2329SOL    HW118623   1.319   1.753   6.063  2.7154 -2.5476 -0.3766
 2329SOL    HW218624   1.275   1.656   5.960 -2.6615  1.1292 -0.6601
 2330SOL     OW18625   1.442   2.570  13.517  0.1302  0.3640 -0.5784
 2330SOL    HW118626   1.402   2.570  13.603 -0.1636  0.0916 -0.7158
 2330SOL    HW218627   1.385   2.504  13.477  1.4262 -1.7498  1.0716
 2331SOL     OW18628   3.545   3.325   3.006  0.3337  0.3687  0.2351
 2331SOL    HW118629   3.516   3.241   2.971  0.8739  0.1658  0.2812
 2331SOL    HW218630   3.488   3.326   3.083  1.3637  0.3662  0.9972
 2332SOL     OW18631   2.164   2.955   2.706  0.1481  0.7789 -0.0904
 2332SOL    HW118632   2.076   2.991   2.706 -0.1190  0.0710 -2.7654
 2332SOL    HW218633   2.181   2.940   2.799  1.8600  2.2615 -0.1630
 2333SOL     OW18634   1.645   4.412   5.970 -0.5154  0.5902 -0.4634
 2333SOL    HW118635   1.671   4.471   5.899  1.8953 -1.0676 -0.9565
 2333SOL    HW218636   1.660   4.462   6.050  1.9510 -0.2199 -0.4075
 2334SOL     OW18637   0.846   1.436   8.840  0.0220 -0.1287  0.0299
 2334SOL    HW118638   0.813   1.348   8.862 -1.3168  0.3615 -0.0119
 2334SOL    HW218639   0.775   1.493   8.812 -0.2139  0.1198  1.1234
 2335SOL     OW18640   4.550   3.142  12.250  0.2952  0.3589  0.1328
 2335SOL    HW118641   4.541   3.135  12.155  2.8235 -0.3915 -0.0552
 2335SOL    HW218642   4.505   3.224  12.266  1.1298  0.6102  1.1815
 2336SOL     OW18643   1.743   1.665   1.471  0.1379 -0.0843 -0.1613
 2336SOL    HW118644   1.699   1.691   1.551 -0.7290  1.7938 -1.2527
 2336SOL    HW218645   1.702   1.581   1.453  1.7281 -1.2285  1.5242
 2337SOL     OW18646   1.901   1.226  13.467 -0.5805 -0.5243  0.2448
 2337SOL    HW118647   1.848   1.148  13.453 -0.5404 -0.5860  0.4304
 2337SOL    HW218648   1.845   1.283  13.519 -1.2925  0.1096 -1.2247
 2338SOL     OW18649   3.881   3.454   6.020  0.4716  0.2471  0.0484
 2338SOL    HW118650   3.869   3.521   6.088 -2.5930  0.5692 -0.8275
 2338SOL    HW218651   3.864   3.376   6.072 -1.5112 -0.1938 -1.2651
 2339SOL     OW18652   0.396   3.697   4.093  0.6070 -0.3305  0.1716
 2339SOL    HW118653   0.389   3.735   4.005  2.0753  4.1422  2.0207
 2339SOL    HW218654   0.376   3.605   4.075  3.5468 -0.5167 -2.2118
 2340SOL     OW18655   4.450   1.555  13.256  0.1430 -0.3223  0.6026
 2340SOL    HW118656   4.409   1.593  13.334 -0.8119  0.5400 -0.3120
 2340SOL    HW218657   4.501   1.626  13.218  3.3532 -0.6170  4.4619
 2341SOL     OW18658   1.598   4.055   3.454 -0.3106  0.2417 -0.3005
 2341SOL    HW118659   1.569   4.012   3.535 -1.6568  1.0413 -0.3593
 2341SOL    HW218660   1.515   4.100   3.439  0.3383  1.7195  0.5460
 2342SOL     OW18661   3.209   3.321  17.630  0.1506 -0.2780 -0.2009
 2342SOL    HW118662   3.212   3.241  17.579 -0.4443  0.1323 -0.8814
 2342SOL    HW218663   3.214   3.387  17.562  0.1051  1.4017  1.4118
 2343SOL     OW18664   1.836   0.299   2.077 -0.2890 -0.4109  0.4427
 2343SOL    HW118665   1.857   0.226   2.135 -0.1263 -0.4671  0.3107
 2343SOL    HW218666   1.843   0.375   2.136  1.2606 -2.1205  2.4645
 2344SOL     OW18667   4.718   0.401   2.517  0.5037 -0.0741  0.3603
 2344SOL    HW118668   4.670   0.446   2.448  1.5205  2.4041  1.2801
 2344SOL    HW218669   0.040   0.468   2.548 -1.3416  0.7432  2.1863
 2345SOL     OW18670   1.950   4.677   8.063 -0.3550 -0.7876  0.4963
 2345SOL    HW118671   1.906   4.625   7.996  1.4594  0.6960 -1.8272
 2345SOL    HW218672   1.913   0.026   8.060 -1.7245 -1.3418  1.0614
 2346SOL     OW18673   3.848   0.778  17.645  0.6307  0.4036 -0.5966
 2346SOL    HW118674   3.903   0.741  17.576  0.5917 -0.9881  0.1079
 2346SOL    HW218675   3.771   0.797  17.591 -0.6140  0.9617  1.3809
 2347SOL     OW18676   3.873   0.361   7.612 -0.0103 -0.0175 -0.3542
 2347SOL    HW118677   3.843   0.409   7.689  1.2333  0.1652  0.0213
 2347SOL    HW218678   3.796   0.318   7.576 -1.1875  0.6474  1.3983
 2348SOL     OW18679   1.274   2.885  15.886 -0.1028 -0.1101  0.0118
 2348SOL    HW118680   1.183   2.910  15.866 -0.0440  1.3804  1.6292
 2348SOL    HW218681   1.300   2.831  15.812  0.3175 -2.1156  1.6294
 2349SOL     OW18682   3.700   1.368  10.520 -0.4073 -0.6523 -0.1154
 2349SOL    HW118683   3.626   1.426  10.505  1.4216  2.0607  1.4937
 2349SOL    HW218684   3.752   1.380  10.441  0.9173 -0.3244  0.8034
 2350SOL     OW18685   4.656   1.376   2.159 -0.5812  0.0979  0.1648
 2350SOL    HW118686   4.615   1.436   2.096  0.6371  2.0410  1.2444
 2350SOL    HW218687   4.581   1.338   2.205  1.2857 -0.0770  3.0669
 2351SOL     OW18688   1.928   0.557   0.269 -0.1257  0.0575  0.4991
 2351SOL    HW118689   1.948   0.504   0.193 -0.4756  0.0052  0.4449
 2351SOL    HW218690   2.015   0.579   0.303 -0.0097  0.6702 -0.1978
 2352SOL     OW18691   0.444   1.333   8.831  0.1219  0.3830 -0.2193
 2352SOL    HW118692   0.427   1.367   8.743  0.1184 -1.5839 -0.9748
 2352SOL    HW218693   0.517   1.273   8.815 -0.8413 -0.5555 -1.0829
 2353SOL     OW18694   0.545   3.203   6.935 -0.4801  0.3594  0.4881
 2353SOL    HW118695   0.586   3.184   7.020 -0.4337  0.1030  0.4087
 2353SOL    HW218696   0.604   3.274   6.908  0.3066 -0.5560 -0.2020
 2354SOL     OW18697   1.012   4.343  16.365 -0.2958 -0.0012  0.4022
 2354SOL    HW118698   1.048   4.386  16.443  1.3995  2.0724 -1.5063
 2354SOL    HW218699   1.094   4.329  16.317 -1.2296  0.0407 -1.2116
 2355SOL     OW18700   3.919   4.715   3.236 -0.0837  0.7456 -0.4214
 2355SOL    HW118701   3.931   4.708   3.141  0.8989 -0.0950 -0.2397
 2355SOL    HW218702   3.851   0.042   3.243  0.1705  1.0929 -1.2391
 2356SOL     OW18703   0.896   3.510   0.487 -0.1369 -0.0800  0.0527
 2356SOL    HW118704   0.841   3.465   0.552  0.9298 -0.3524  0.7567
 2356SOL    HW218705   0.875   3.601   0.507 -0.0490  0.1270 -0.8287
 2357SOL     OW18706   2.856   0.128   3.888 -0.5947  0.5248 -0.0391
 2357SOL    HW118707   2.939   0.176   3.889 -0.4854  0.3709 -1.3071
 2357SOL    HW218708   2.890   0.050   3.932  0.0686  1.2856  0.8028
 2358SOL     OW18709   4.210   3.284  10.744  0.2630 -0.1020  0.0422
 2358SOL    HW118710   4.260   3.306  10.823  0.0876 -0.8578  0.3613
 2358SOL    HW218711   4.175   3.373  10.736 -2.0910 -1.1361 -0.8872
 2359SOL     OW18712   0.182   1.346   8.876 -0.2090  0.6446  0.3303
 2359SOL    HW118713   0.269   1.348   8.838  0.3311 -3.9862  1.3650
 2359SOL    HW218714   0.194   1.416   8.940  2.3579 -0.7771  1.3843
 2360SOL     OW18715   4.679   2.308   4.936 -0.6400  0.5301  0.5498
 2360SOL    HW118716   4.652   2.216   4.940  1.4984 -0.0448  1.7271
 2360SOL    HW218717   4.638   2.331   4.853  1.2953  2.3685  0.1071
 2361SOL     OW18718   2.644   1.554   5.737 -0.1104  0.1143  0.6288
 2361SOL    HW118719   2.656   1.648   5.751  0.7341  0.0646  0.2865
 2361SOL    HW218720   2.736   1.532   5.719 -0.0215  0.1895  0.9921
 2362SOL     OW18721   0.129   3.549   3.564 -0.1318 -0.0518  0.0298
 2362SOL    HW118722   0.107   3.465   3.524  0.5303 -0.5808  0.7726
 2362SOL    HW218723   0.055   3.599   3.531 -0.0434  1.6342  2.3553
 2363SOL     OW18724   2.530   2.391   8.410  0.2829  0.4666 -0.3841
 2363SOL    HW118725   2.505   2.394   8.318 -0.1184 -1.0662 -0.3224
 2363SOL    HW218726   2.610   2.338   8.410  0.2672  0.4463 -0.7603
 2364SOL     OW18727   3.517   4.466   6.403 -0.1004  0.0382 -0.4431
 2364SOL    HW118728   3.422   4.467   6.397 -0.1592 -0.1650  0.4602
 2364SOL    HW218729   3.529   4.549   6.356  2.3644 -0.8174 -1.3494
 2365SOL     OW18730   2.470   2.953   6.306  0.3867  0.2404  0.2008
 2365SOL    HW118731   2.410   3.013   6.351 -0.7589 -0.0844 -0.8850
 2365SOL    HW218732   2.487   2.998   6.223  1.5530 -2.8065 -1.1833
 2366SOL     OW18733   3.066   3.790  16.807 -0.2562 -0.0074 -0.1281
 2366SOL    HW118734   3.125   3.785  16.732 -0.6976 -0.2622 -0.4671
 2366SOL    HW218735   3.050   3.696  16.818 -1.2411  0.0330 -1.1484
 2367SOL     OW18736   3.052   4.609   1.728 -0.4894  0.0890 -0.1492
 2367SOL    HW118737   2.986   4.591   1.661  1.0603  3.3826 -2.5608
 2367SOL    HW218738   3.014   4.693   1.754  0.1831  1.2909 -3.0558
 2368SOL     OW18739   1.675   0.424   3.700 -0.2972 -0.1409 -0.1191
 2368SOL    HW118740   1.642   0.472   3.777 -0.7581 -0.4182 -0.1421
 2368SOL    HW218741   1.600   0.383   3.655 -0.0599 -0.1072 -0.5410
 2369SOL     OW18742   2.322   0.733  12.603 -0.0827 -0.2923 -0.2621
 2369SOL    HW118743   2.310   0.825  12.577 -1.0781 -0.3243  0.0868
 2369SOL    HW218744   2.407   0.738  12.647 -0.5104 -0.0782  0.5398
 2370SOL     OW18745   2.488   4.541   2.030 -0.5716 -0.2720 -0.2718
 2370SOL    HW118746   2.410   4.589   2.004 -1.4292  0.5673  3.9142
 2370SOL    HW218747   2.544   4.564   1.956  1.6017  1.9630  2.0356
 2371SOL     OW18748   1.427   2.248   8.170  0.7166  0.1885  0.0928
 2371SOL    HW118749   1.362   2.311   8.200  0.6666  0.5077 -0.6789
 2371SOL    HW218750   1.380   2.164   8.173 -1.7454  1.4406 -3.2608
 2372SOL     OW18751   3.363   1.324   3.791 -0.5501 -0.3879 -0.0029
 2372SOL    HW118752   3.399   1.332   3.703 -0.7783  0.6586  0.0014
 2372SOL    HW218753   3.380   1.231   3.810  0.3070 -0.3011 -0.3810
 2373SOL     OW18754   2.426   1.360   4.728  0.1096 -0.4269 -0.2984
 2373SOL    HW118755   2.450   1.279   4.684 -1.2014 -1.4561  0.8610
 2373SOL    HW218756   2.349   1.388   4.678 -1.2297 -1.3866  1.1881
 2374SOL     OW18757   0.456   4.422  12.234  0.4883  0.2610  0.7132
 2374SOL    HW118758   0.541   4.379  12.221  2.1903  3.6852  0.5335
 2374SOL    HW218759   0.462   4.471  12.316  0.6732 -0.0842  0.9055
 2375SOL     OW18760   4.164   4.549  16.303 -0.2419  0.1143  0.0576
 2375SOL    HW118761   4.231   4.603  16.262  0.9290 -1.6927 -0.4237
 2375SOL    HW218762   4.156   4.600  16.383  1.2016  0.2774  0.0968
 2376SOL     OW18763   3.442   4.056  11.829 -0.6109  0.1699  0.1334
 2376SOL    HW118764   3.442   4.043  11.924 -0.5031 -3.3658 -0.3327
 2376SOL    HW218765   3.497   3.978  11.820 -1.9375 -0.8338  0.6073
 2377SOL     OW18766   4.186   0.767   1.905 -0.1670  0.8656 -0.5917
 2377SOL    HW118767   4.123   0.778   1.834  0.2339  0.4004 -1.0206
 2377SOL    HW218768   4.263   0.813   1.871 -2.0462  4.9435  0.7412
 2378SOL     OW18769   2.340   2.252   3.659  0.5214 -0.4502 -0.4000
 2378SOL    HW118770   2.274   2.322   3.657 -0.1937 -1.0949  1.5593
 2378SOL    HW218771   2.400   2.297   3.599 -0.5278  1.8403  0.2653
 2379SOL     OW18772   2.958   3.799   7.324 -0.0515 -0.1928 -0.0412
 2379SOL    HW118773   2.936   3.737   7.393  0.1233 -0.4530 -0.2215
 2379SOL    HW218774   3.040   3.763   7.290 -0.3336 -1.3526  0.5338
 2380SOL     OW18775   4.146   3.830   0.837  0.0938  0.1228 -0.0246
 2380SOL    HW118776   4.142   3.925   0.849 -0.6854  0.2825 -1.5503
 2380SOL    HW218777   4.075   3.822   0.774 -0.2128  0.4352  0.2776
 2381SOL     OW18778   3.167   1.434   5.041 -0.5824 -0.0643 -0.1257
 2381SOL    HW118779   3.176   1.524   5.009  3.8871 -0.8267 -1.0203
 2381SOL    HW218780   3.110   1.398   4.974  0.1891 -0.9815 -0.2878
 2382SOL     OW18781   4.056   3.625   6.504  0.0437 -0.0688  0.0015
 2382SOL    HW118782   4.001   3.648   6.429 -1.1240 -1.1917  0.4997
 2382SOL    HW218783   4.144   3.638   6.468  0.1252 -1.0397 -0.1526
 2383SOL     OW18784   3.363   4.645  16.883 -0.5262  0.1210  0.1716
 2383SOL    HW118785   3.344   4.655  16.790  1.9538 -2.8310 -0.6709
 2383SOL    HW218786   3.340   4.731  16.918 -0.2162  0.0341  0.5859
 2384SOL     OW18787   2.320   2.029  14.212  0.2323 -0.5345  0.1464
 2384SOL    HW118788   2.298   2.115  14.250  0.8795 -0.1494 -0.3617
 2384SOL    HW218789   2.254   2.024  14.143 -0.8382 -0.0671  1.1233
 2385SOL     OW18790   1.032   3.624  11.502 -0.0744 -0.2437  0.2639
 2385SOL    HW118791   0.969   3.641  11.432 -0.8865 -2.1007  0.5567
 2385SOL    HW218792   0.976   3.654  11.573 -0.5582 -0.5061 -0.0115
 2386SOL     OW18793   1.171   1.255   3.243 -0.5714  0.5240 -0.4495
 2386SOL    HW118794   1.087   1.221   3.275 -1.5718  0.4142 -3.2142
 2386SOL    HW218795   1.148   1.348   3.250  0.1348  0.6030  0.8646
 2387SOL     OW18796   0.220   2.416   6.691 -0.2810 -0.5812  0.6265
 2387SOL    HW118797   0.238   2.461   6.773 -1.6021  1.4667 -0.2061
 2387SOL    HW218798   0.152   2.473   6.654  0.7760  0.9750  1.1241
 2388SOL     OW18799   1.953   2.113   7.407 -0.2189  0.2111  0.8253
 2388SOL    HW118800   1.874   2.090   7.455  1.4499 -1.5797  2.6955
 2388SOL    HW218801   1.923   2.198   7.374  0.7540 -0.1264 -0.9479
 2389SOL     OW18802   2.937   0.507   0.815  0.1899  0.6629 -0.1969
 2389SOL    HW118803   3.014   0.542   0.769 -0.6278  1.3068 -1.0755
 2389SOL    HW218804   2.862   0.555   0.779 -0.1101 -0.7291 -1.4569
 2390SOL     OW18805   4.433   4.203  10.265 -0.0631  0.3325 -0.1508
 2390SOL    HW118806   4.391   4.207  10.180  1.0898  2.3990 -0.6450
 2390SOL    HW218807   4.516   4.247  10.242  0.8781 -0.3587  1.8736
 2391SOL     OW18808   3.711   4.372   3.706  0.7534  0.1510 -0.1921
 2391SOL    HW118809   3.729   4.466   3.715  3.5761 -0.3563 -0.7455
 2391SOL    HW218810   3.663   4.336   3.781  1.5291  2.2167  1.2873
 2392SOL     OW18811   0.174   1.124   4.394 -0.8460  0.4034  0.4079
 2392SOL    HW118812   0.154   1.202   4.446  1.6518  1.9657 -0.9740
 2392SOL    HW218813   0.181   1.156   4.304 -0.6114 -0.5771  0.0801
 2393SOL     OW18814   2.500   2.945   8.879  0.1050  0.3214  0.5594
 2393SOL    HW118815   2.592   2.929   8.859  0.1010  1.2439 -0.1889
 2393SOL    HW218816   2.507   3.037   8.852 -1.7206  0.6305  1.1592
 2394SOL     OW18817   0.854   2.320   1.468  0.5421 -0.0028  0.5256
 2394SOL    HW118818   0.827   2.401   1.510 -1.7321  0.4370 -1.7638
 2394SOL    HW218819   0.916   2.294   1.536  0.7801  0.1680  0.3755
 2395SOL     OW18820   2.324   1.526   3.026  0.4027  0.5056 -0.7202
 2395SOL    HW118821   2.383   1.454   3.048  0.3545  0.8177  0.4142
 2395SOL    HW218822   2.239   1.482   3.030  0.9269 -0.2146  2.2301
 2396SOL     OW18823   0.972   3.239   0.725  0.1968  0.4957 -0.6082
 2396SOL    HW118824   0.917   3.241   0.803 -0.4672 -2.8252 -1.0267
 2396SOL    HW218825   0.901   3.257   0.664 -0.2525  1.6774  0.2458
 2397SOL     OW18826   1.630   1.032  14.161 -0.4209 -0.5688 -0.5160
 2397SOL    HW118827   1.569   1.021  14.234 -1.2229  2.3776 -0.7383
 2397SOL    HW218828   1.603   1.119  14.130  0.6166 -0.0483  0.0494
 2398SOL     OW18829   3.364   0.264   4.344  0.5697 -0.1376 -0.1881
 2398SOL    HW118830   3.325   0.279   4.258 -3.5486 -1.2285  1.4813
 2398SOL    HW218831   3.383   0.170   4.337  0.4932 -0.1019 -0.8489
 2399SOL     OW18832   3.273   2.640   2.776 -0.1031  0.8169  0.2067
 2399SOL    HW118833   3.336   2.582   2.819 -1.9460 -0.8157  0.7107
 2399SOL    HW218834   3.190   2.600   2.805 -0.0563  0.4458 -0.1770
 2400SOL     OW18835   2.053   4.634   2.125 -0.8759  0.0236  0.3260
 2400SOL    HW118836   2.137   4.678   2.116 -1.3542  0.2009 -2.9612
 2400SOL    HW218837   2.044   4.635   2.221  0.8191 -2.1498  0.5047
 2401SOL     OW18838   4.187   1.955   0.576 -0.4699 -0.0074  0.2316
 2401SOL    HW118839   4.153   1.904   0.649 -0.6993  1.3640  1.0810
 2401SOL    HW218840   4.274   1.918   0.570  0.1327  1.5014 -0.4471
 2402SOL     OW18841   0.549   1.972   7.918  0.2415 -0.0289 -0.1535
 2402SOL    HW118842   0.543   2.056   7.963 -2.3651 -0.0224 -0.5479
 2402SOL    HW218843   0.620   1.995   7.858 -0.1204 -0.4530 -0.7452
 2403SOL     OW18844   0.119   3.548  12.150  0.4935  0.1558 -0.2716
 2403SOL    HW118845   0.146   3.622  12.096 -2.5022  3.0888  2.1959
 2403SOL    HW218846   0.062   3.590  12.215 -0.4061 -0.2741 -0.7780
 2404SOL     OW18847   1.091   1.495   8.968 -0.3208 -0.1171 -0.3641
 2404SOL    HW118848   1.160   1.465   8.909 -1.0025 -0.8726 -0.7693
 2404SOL    HW218849   1.012   1.471   8.920 -1.1639 -2.6082  2.3282
 2405SOL     OW18850   0.901   3.391   4.856 -0.1222 -0.2098  0.4712
 2405SOL    HW118851   0.882   3.391   4.762  2.1194 -2.9195  0.0228
 2405SOL    HW218852   0.834   3.331   4.889 -2.2068  0.9158 -1.7197
 2406SOL     OW18853   3.795   3.672   4.668  0.1482 -0.4493  0.3424
 2406SOL    HW118854   3.848   3.626   4.603  0.1444  0.5234 -0.3620
 2406SOL    HW218855   3.820   3.646   4.757 -1.0406 -1.5602  0.3381
 2407SOL     OW18856   4.548   2.978   8.271 -0.3590  0.6231  0.0192
 2407SOL    HW118857   4.471   3.030   8.247 -0.1102  0.2372 -1.5682
 2407SOL    HW218858   4.580   2.947   8.187 -0.0403  1.7283 -0.2604
 2408SOL     OW18859   3.127   2.214   9.281  0.1771  0.0944  0.0263
 2408SOL    HW118860   3.118   2.125   9.315 -1.3199  0.9965  1.9662
 2408SOL    HW218861   3.035   2.241   9.284  0.5146  1.3425 -0.6320
 2409SOL     OW18862   1.561   1.462   6.777  0.1749 -0.1089  0.1394
 2409SOL    HW118863   1.513   1.535   6.738  0.4182  0.6499  1.2561
 2409SOL    HW218864   1.614   1.440   6.700 -0.5983  1.5283 -0.8654
 2410SOL     OW18865   3.547   3.934   5.762 -0.0727  0.0216 -0.5810
 2410SOL    HW118866   3.505   3.859   5.719  0.1442 -0.4886  0.0990
 2410SOL    HW218867   3.525   3.909   5.852 -1.1984 -2.2243 -1.4691
 2411SOL     OW18868   0.086   1.729  11.122 -0.0589  0.1476 -0.3257
 2411SOL    HW118869   0.170   1.693  11.152 -0.0399  0.2379 -0.2730
 2411SOL    HW218870   0.094   1.695  11.033  0.9592 -0.6997  0.0913
 2412SOL     OW18871   2.340   4.350   2.303 -0.1490  0.1767  0.2487
 2412SOL    HW118872   2.300   4.406   2.237 -1.4269 -0.6076  0.3571
 2412SOL    HW218873   2.434   4.365   2.301 -0.4404  1.8094 -0.9809
 2413SOL     OW18874   0.528   4.402   8.983  0.6497  0.0035 -0.0892
 2413SOL    HW118875   0.529   4.497   8.992 -0.2680  0.0918 -0.9833
 2413SOL    HW218876   0.469   4.377   9.054 -0.6883  0.5551 -1.0164
 2414SOL     OW18877   0.751   3.501   8.395  0.0060 -0.0353 -0.0105
 2414SOL    HW118878   0.709   3.563   8.454 -0.7787 -1.3995  0.8836
 2414SOL    HW218879   0.844   3.521   8.404 -0.3595  0.9765  1.4952
 2415SOL     OW18880   3.263   4.559  17.316  0.2295  0.2458 -0.3866
 2415SOL    HW118881   3.219   4.543  17.399  1.1376  0.1601  0.0813
 2415SOL    HW218882   3.280   4.467  17.294  2.2862  0.2709  1.1058
 2416SOL     OW18883   1.670   1.907   3.085  0.3272 -0.2779  0.2524
 2416SOL    HW118884   1.651   1.814   3.075  1.3203 -0.4854  0.3145
 2416SOL    HW218885   1.751   1.904   3.137  1.5304 -1.0438 -1.6750
 2417SOL     OW18886   0.753   3.227   1.391 -0.1394 -0.0614 -0.2670
 2417SOL    HW118887   0.728   3.180   1.470 -2.0522  2.4182  0.5873
 2417SOL    HW218888   0.717   3.312   1.416  0.7586 -0.2727  1.6945
 2418SOL     OW18889   3.574   4.428   9.463 -0.1445 -0.2630  0.1439
 2418SOL    HW118890   3.626   4.453   9.539 -2.3461 -0.1167  1.6298
 2418SOL    HW218891   3.516   4.362   9.502 -0.2451 -0.9565 -1.1673
 2419SOL     OW18892   3.172   0.583   1.541  0.7464 -0.0336 -0.1944
 2419SOL    HW118893   3.141   0.600   1.452  1.3910  0.4342 -0.3292
 2419SOL    HW218894   3.266   0.570   1.530  1.4711  3.2465  1.9100
 2420SOL     OW18895   2.331   0.334   6.888 -0.4154  0.0634  0.2997
 2420SOL    HW118896   2.335   0.428   6.900 -0.3326  0.5989 -3.8649
 2420SOL    HW218897   2.266   0.311   6.955  2.7707 -2.4035  2.5658
 2421SOL     OW18898   3.886   3.151   8.373 -0.0238  0.2051  0.2000
 2421SOL    HW118899   3.860   3.120   8.460  1.4494 -1.5084  0.0296
 2421SOL    HW218900   3.944   3.226   8.389  1.3078 -0.7737 -0.0624
 2422SOL     OW18901   2.138   3.565   6.923  0.1613 -0.5783  0.3593
 2422SOL    HW118902   2.184   3.484   6.947  0.9446 -0.2411  0.0001
 2422SOL    HW218903   2.088   3.533   6.847 -0.3815  1.8318 -0.2922
 2423SOL     OW18904   3.612   2.778   8.632 -0.5091  0.4681  0.7214
 2423SOL    HW118905   3.585   2.734   8.712  0.1028  1.3617  1.4146
 2423SOL    HW218906   3.537   2.838   8.626 -0.1440  0.8670  0.2083
 2424SOL     OW18907   1.123   3.118   2.119 -0.0265 -0.3460 -0.1086
 2424SOL    HW118908   1.097   3.027   2.137  3.4719 -1.8777 -2.7451
 2424SOL    HW218909   1.216   3.097   2.130 -0.0293 -1.0576 -1.5410
 2425SOL     OW18910   4.326   1.330   0.642  0.7883  0.2861  0.5727
 2425SOL    HW118911   4.362   1.247   0.675  0.9232  0.8899  1.9325
 2425SOL    HW218912   4.236   1.298   0.642 -0.0087  2.5338 -0.8862
 2426SOL     OW18913   0.957   2.685  15.650 -0.0933 -0.3145 -0.6558
 2426SOL    HW118914   0.894   2.710  15.582  0.0497 -0.5382 -0.8688
 2426SOL    HW218915   0.910   2.619  15.701  1.8697 -0.3903  1.0590
 2427SOL     OW18916   3.617   3.599   6.673  0.0078  0.1493  0.0567
 2427SOL    HW118917   3.567   3.527   6.634 -0.8690  0.2803  0.9526
 2427SOL    HW218918   3.550   3.664   6.694  2.0781  2.5224 -0.7611
 2428SOL     OW18919   3.935   2.325   1.842 -0.5072 -0.2377 -0.1301
 2428SOL    HW118920   3.958   2.371   1.761  3.1561 -1.6513  0.1015
 2428SOL    HW218921   4.016   2.344   1.889 -1.4241 -0.1254  1.4096
 2429SOL     OW18922   4.403   1.121   1.859  0.2946 -0.5263 -0.0211
 2429SOL    HW118923   4.309   1.116   1.840  0.7152 -2.0758 -1.7149
 2429SOL    HW218924   4.431   1.031   1.870  3.4559  0.3304 -1.0985
 2430SOL     OW18925   1.491   1.313   9.725 -0.5979 -0.2172 -0.1838
 2430SOL    HW118926   1.474   1.255   9.799  0.2024 -0.4508 -0.1932
 2430SOL    HW218927   1.569   1.359   9.755 -0.4394 -0.6436  0.0510
 2431SOL     OW18928   0.991   4.209   3.162  0.5944  0.7156 -0.8429
 2431SOL    HW118929   0.924   4.207   3.094  0.2081 -1.9614 -0.3863
 2431SOL    HW218930   0.961   4.125   3.197  1.6112  0.3106 -0.9524
 2432SOL     OW18931   4.493   3.384   0.467  0.3323 -0.3092 -0.4497
 2432SOL    HW118932   4.410   3.406   0.509 -0.5245 -0.1678 -2.2059
 2432SOL    HW218933   4.471   3.293   0.445 -0.0042 -0.2784 -0.2389
 2433SOL     OW18934   1.716   1.888   4.283 -0.3336  0.0486 -0.0104
 2433SOL    HW118935   1.738   1.822   4.348 -1.1580 -0.3310 -0.1104
 2433SOL    HW218936   1.786   1.899   4.219 -0.6442 -3.7866 -1.0352
 2434SOL     OW18937   2.842   0.747  13.369 -0.0324  0.1936  1.0732
 2434SOL    HW118938   2.848   0.770  13.277  3.0830 -0.8514  1.0149
 2434SOL    HW218939   2.835   0.651  13.368  0.5860  0.1534  0.8333
 2435SOL     OW18940   1.302   2.542   3.503  0.3849  0.1051  0.0350
 2435SOL    HW118941   1.354   2.520   3.425  0.2352 -0.5055  0.1072
 2435SOL    HW218942   1.365   2.586   3.560 -0.2462  2.1909 -0.8881
 2436SOL     OW18943   0.067   2.441  11.839 -0.4346 -0.6892  0.0687
 2436SOL    HW118944   0.124   2.516  11.859 -2.9324  1.1492  0.3086
 2436SOL    HW218945   0.132   2.392  11.789 -1.9420 -2.5539 -0.0632
 2437SOL     OW18946   0.787   2.693  11.709 -0.1104 -0.0773  0.3065
 2437SOL    HW118947   0.757   2.656  11.627  0.3329 -0.1510  0.1781
 2437SOL    HW218948   0.868   2.644  11.725  0.3112  0.6766  0.5014
 2438SOL     OW18949   3.896   4.429   2.816  0.1315 -0.4087  0.5282
 2438SOL    HW118950   3.826   4.367   2.838  0.7741 -1.1632  0.4491
 2438SOL    HW218951   3.958   4.369   2.776 -0.7468 -0.7352 -0.3321
 2439SOL     OW18952   3.406   3.543   2.250  0.1299 -0.2609 -0.4790
 2439SOL    HW118953   3.498   3.571   2.258  0.2559 -0.4434 -1.3333
 2439SOL    HW218954   3.401   3.472   2.186  0.4218  0.2058 -1.0230
 2440SOL     OW18955   4.451   1.440  11.802 -0.6140 -0.3862 -0.1106
 2440SOL    HW118956   4.519   1.482  11.855 -0.2204  0.6974 -1.4722
 2440SOL    HW218957   4.479   1.490  11.725  0.9665 -0.6536  0.3054
 2441SOL     OW18958   3.941   0.016  10.438  0.2031 -0.1697  0.0897
 2441SOL    HW118959   3.864   0.046  10.389 -0.3802  0.2897  1.2853
 2441SOL    HW218960   3.989   4.716  10.365  2.0235 -2.4136  2.5122
 2442SOL     OW18961   0.516   0.700   3.703 -0.7130  0.0494  0.0259
 2442SOL    HW118962   0.445   0.754   3.738 -0.9086  2.6179 -4.3522
 2442SOL    HW218963   0.539   0.661   3.787  0.5531 -0.6387 -0.6428
 2443SOL     OW18964   0.956   4.115   7.250  0.0585 -0.2094 -0.3571
 2443SOL    HW118965   0.875   4.165   7.256  0.9639  1.4218 -1.7298
 2443SOL    HW218966   1.021   4.184   7.239 -1.5782  1.5380  1.0404
 2444SOL     OW18967   1.367   0.623   8.651 -0.2374 -0.2491  0.5997
 2444SOL    HW118968   1.294   0.564   8.630 -0.4278  0.8364 -1.7698
 2444SOL    HW218969   1.411   0.576   8.721  1.8692  0.6042 -0.1555
 2445SOL     OW18970   0.745   3.955   2.855  0.4126  0.2252 -0.3336
 2445SOL    HW118971   0.797   3.908   2.920  0.3327 -0.9822 -1.1564
 2445SOL    HW218972   0.677   3.891   2.836  0.6658  0.8243 -3.2595
 2446SOL     OW18973   2.686   1.783   4.315  0.8928 -0.2746 -0.2218
 2446SOL    HW118974   2.741   1.705   4.306  0.8801 -0.4236  0.9694
 2446SOL    HW218975   2.657   1.785   4.406 -0.5357  0.4447 -0.6938
 2447SOL     OW18976   1.147   0.433   7.533 -0.0551  0.5712  0.1958
 2447SOL    HW118977   1.127   0.484   7.611  1.4061 -1.4087  1.8811
 2447SOL    HW218978   1.063   0.416   7.490  0.6005  0.8783 -1.2276
 2448SOL     OW18979   3.240   4.349   6.933 -0.5623  0.2365  0.5275
 2448SOL    HW118980   3.207   4.356   7.023 -0.6692 -0.6983  0.5555
 2448SOL    HW218981   3.326   4.390   6.946  0.0604 -0.5647 -1.1183
 2449SOL     OW18982   0.131   3.570   7.072  0.2102 -0.4419 -0.1536
 2449SOL    HW118983   0.157   3.638   7.135  0.2553 -0.3830 -0.2364
 2449SOL    HW218984   0.172   3.497   7.119  1.2367  1.0694  1.3143
 2450SOL     OW18985   1.022   0.846   5.591 -0.2327  0.1567 -0.1872
 2450SOL    HW118986   1.066   0.768   5.557 -0.5543  0.8435 -2.1519
 2450SOL    HW218987   0.938   0.804   5.612 -1.0777  1.0580 -1.7822
 2451SOL     OW18988   0.463   4.662   1.840  0.4281 -0.4647 -0.1573
 2451SOL    HW118989   0.431   0.004   1.800 -1.6670 -2.2845 -2.1299
 2451SOL    HW218990   0.505   4.625   1.762 -2.5351 -0.8438 -1.5711
 2452SOL     OW18991   0.397   3.783   6.353 -0.5066  0.6164  0.2233
 2452SOL    HW118992   0.431   3.868   6.380  2.9003 -0.1616 -1.5755
 2452SOL    HW218993   0.478   3.731   6.358 -0.2652  0.6643 -2.9500
 2453SOL     OW18994   3.050   1.425  16.711  0.7172  0.1741 -0.1919
 2453SOL    HW118995   2.959   1.396  16.713  1.7788 -3.2070 -0.1113
 2453SOL    HW218996   3.039   1.502  16.767  1.4519  1.4564 -1.8261
 2454SOL     OW18997   1.362   0.665   7.123 -0.0510 -0.2798 -0.2317
 2454SOL    HW118998   1.448   0.673   7.165 -0.9651  2.2480  1.1704
 2454SOL    HW218999   1.382   0.614   7.045  1.0049 -0.1539 -0.0407
 2455SOL     OW19000   2.996   2.758  12.619 -0.4962 -0.7546 -0.1456
 2455SOL    HW119001   3.008   2.848  12.589 -3.3841  0.4059  2.1023
 2455SOL    HW219002   3.058   2.755  12.692 -0.8343  2.1359  0.2750
 2456SOL     OW19003   2.831   0.778   1.444 -0.4814 -0.6349  0.4403
 2456SOL    HW119004   2.817   0.737   1.359 -1.5209 -2.0264  1.2996
 2456SOL    HW219005   2.924   0.803   1.438 -0.7254  0.1663 -0.1306
 2457SOL     OW19006   1.806   2.858   1.844  0.1753 -0.3291  0.0711
 2457SOL    HW119007   1.894   2.863   1.806 -0.1830  0.2756 -0.6753
 2457SOL    HW219008   1.781   2.771   1.815  1.1857 -0.5151 -0.2426
 2458SOL     OW19009   1.077   4.380   4.114  0.3623  0.2272  0.2964
 2458SOL    HW119010   0.998   4.428   4.139  0.9266  1.5761 -0.5009
 2458SOL    HW219011   1.102   4.421   4.031  0.0288  2.8776  1.5028
 2459SOL     OW19012   0.606   4.036   5.623 -0.0692  0.7270  0.9543
 2459SOL    HW119013   0.686   3.997   5.657 -0.9282 -2.8644 -1.1180
 2459SOL    HW219014   0.617   4.122   5.664 -1.6778  0.2576  2.3653
 2460SOL     OW19015   4.659   3.123   2.281  0.0076  0.0623 -0.5344
 2460SOL    HW119016   4.617   3.121   2.195  0.4329 -0.3992 -0.7337
 2460SOL    HW219017   0.003   3.167   2.262  0.0832  0.2125  0.1587
 2461SOL     OW19018   2.778   1.802   6.495 -0.1594  0.1948  0.0483
 2461SOL    HW119019   2.816   1.878   6.539  0.4737  0.7324 -1.4231
 2461SOL    HW219020   2.724   1.756   6.559  1.0784 -2.4822 -0.8506
 2462SOL     OW19021   3.045   0.700   2.682 -0.6527 -0.2742  0.6060
 2462SOL    HW119022   3.039   0.618   2.731 -0.9045  0.6338  2.0586
 2462SOL    HW219023   3.090   0.761   2.740  1.6803 -0.6365 -0.8125
 2463SOL     OW19024   2.372   1.228   2.772  0.5706 -0.1119  0.2879
 2463SOL    HW119025   2.301   1.224   2.707 -0.1683 -0.4629  1.1195
 2463SOL    HW219026   2.412   1.152   2.729  0.1901 -0.1599  0.0150
 2464SOL     OW19027   1.640   0.823   4.421  0.1838 -0.5389  0.1662
 2464SOL    HW119028   1.545   0.818   4.432  0.2442 -1.0172  0.4776
 2464SOL    HW219029   1.655   0.838   4.328 -2.1526  0.2410 -0.0696
 2465SOL     OW19030   0.753   4.304  16.446 -0.2380  0.2381  0.0687
 2465SOL    HW119031   0.847   4.316  16.433  0.0754 -1.9275  0.3516
 2465SOL    HW219032   0.737   4.238  16.379 -0.4668  2.0123 -1.6227
 2466SOL     OW19033   1.358   1.286   8.502 -0.1695 -0.3666 -0.0956
 2466SOL    HW119034   1.419   1.215   8.483  2.3382  1.8918 -0.6389
 2466SOL    HW219035   1.396   1.355   8.447  2.1097 -2.2581 -0.9133
 2467SOL     OW19036   3.418   2.142   4.502 -0.2164  0.6126  0.1479
 2467SOL    HW119037   3.402   2.155   4.409  1.2697  0.7695 -0.0846
 2467SOL    HW219038   3.478   2.068   4.500 -1.4038 -0.3567  0.8108
 2468SOL     OW19039   4.220   2.639  12.492  0.0400 -0.0440  0.0266
 2468SOL    HW119040   4.262   2.669  12.412 -0.6529 -1.3701 -0.8519
 2468SOL    HW219041   4.236   2.545  12.480  1.1603  0.0574  0.7865
 2469SOL     OW19042   2.188   4.247   5.481  0.5692 -0.1077 -0.1756
 2469SOL    HW119043   2.213   4.215   5.394  0.1112 -0.8373 -0.0361
 2469SOL    HW219044   2.259   4.206   5.530 -0.0949 -1.1746 -0.1042
 2470SOL     OW19045   1.110   0.623  15.793  0.0039 -0.0410 -0.3474
 2470SOL    HW119046   1.190   0.603  15.746  0.2809 -1.4004  0.7059
 2470SOL    HW219047   1.134   0.707  15.832  2.0112 -0.5649 -0.4422
 2471SOL     OW19048   3.368   0.284   5.701  0.3970 -0.4594 -0.3875
 2471SOL    HW119049   3.333   0.325   5.622 -0.1787 -2.0467 -0.9388
 2471SOL    HW219050   3.452   0.330   5.715 -0.0942 -0.9949  4.4043
 2472SOL     OW19051   1.319   2.952   7.067 -0.0501  0.6321  0.0252
 2472SOL    HW119052   1.232   2.977   7.100  0.3877  2.2439 -0.0287
 2472SOL    HW219053   1.299   2.947   6.974 -1.3823 -0.9299  0.3881
 2473SOL     OW19054   4.737   3.029   8.459  0.4109 -0.0765  0.7165
 2473SOL    HW119055   0.065   2.993   8.400 -0.8800 -0.0621 -0.7321
 2473SOL    HW219056   4.657   3.015   8.409  0.7892  0.0261  0.0856
 2474SOL     OW19057   1.080   3.963   8.719 -0.1110 -0.2476 -0.1545
 2474SOL    HW119058   1.008   3.901   8.731  0.2272 -0.3784  1.3150
 2474SOL    HW219059   1.156   3.917   8.684 -0.1127  0.1278 -0.6508
 2475SOL     OW19060   2.711   0.947   5.162  0.2774  0.1788  0.2013
 2475SOL    HW119061   2.689   0.893   5.086 -0.1853 -1.1646  1.2670
 2475SOL    HW219062   2.621   0.969   5.186 -1.0715 -2.2401 -2.6307
 2476SOL     OW19063   3.444   4.673   1.664 -0.2421  0.2544 -0.2022
 2476SOL    HW119064   3.408   4.593   1.702 -1.4705  0.7850 -0.2448
 2476SOL    HW219065   3.535   4.656   1.686  0.1233 -0.2580 -2.0730
 2477SOL     OW19066   3.443   0.812   6.259  0.0455  0.2927  0.6097
 2477SOL    HW119067   3.499   0.735   6.255  0.2886  0.4239  1.4892
 2477SOL    HW219068   3.416   0.828   6.168  1.1836  0.2299  0.2703
 2478SOL     OW19069   1.630   0.686   4.811  0.1289 -0.1155 -0.2542
 2478SOL    HW119070   1.585   0.617   4.861  1.9646 -1.8433 -0.9953
 2478SOL    HW219071   1.578   0.766   4.823 -1.0898 -1.2171  1.9867
 2479SOL     OW19072   3.661   0.480   5.011  0.2500  0.0161  0.4245
 2479SOL    HW119073   3.594   0.499   5.076  0.2698  0.1401  0.4102
 2479SOL    HW219074   3.610   0.473   4.930  2.1289 -1.4643 -0.6209
 2480SOL     OW19075   3.724   1.505   8.798 -0.4132 -0.6532 -0.1180
 2480SOL    HW119076   3.801   1.451   8.779 -0.3202 -0.8195  0.7374
 2480SOL    HW219077   3.750   1.553   8.877 -1.4061  1.1141 -0.8591
 2481SOL     OW19078   4.352   4.562  16.610 -0.0333 -0.1978  0.0463
 2481SOL    HW119079   4.286   4.629  16.598 -1.9518 -2.1379 -0.2658
 2481SOL    HW219080   4.353   4.525  16.522 -1.2535  0.7895 -0.3752
 2482SOL     OW19081   3.616   1.652   7.815 -0.4182  0.2823  0.1768
 2482SOL    HW119082   3.597   1.622   7.904 -0.7627  2.7588  0.9361
 2482SOL    HW219083   3.679   1.720   7.842 -0.7523  1.8649 -3.0412
 2483SOL     OW19084   3.035   0.066   2.138 -0.0178  0.3651  0.5662
 2483SOL    HW119085   3.089   0.017   2.200  0.6519 -0.1518 -0.4335
 2483SOL    HW219086   2.970   0.104   2.197  2.3431  0.9068  2.8255
 2484SOL     OW19087   0.879   4.227   6.360  0.4024 -0.0953 -0.1083
 2484SOL    HW119088   0.930   4.226   6.441  1.7516 -1.4885 -0.9702
 2484SOL    HW219089   0.946   4.258   6.299 -1.2212  2.1739 -0.7262
 2485SOL     OW19090   4.308   2.336   0.767  0.0813 -0.6834  0.2622
 2485SOL    HW119091   4.225   2.374   0.737  0.2329 -0.3069  0.3239
 2485SOL    HW219092   4.270   2.261   0.812  3.4854 -2.1650  0.5892
 2486SOL     OW19093   0.168   3.102   9.589 -0.1628 -0.1847  0.1664
 2486SOL    HW119094   0.211   3.181   9.557  2.1804 -0.9455  1.4370
 2486SOL    HW219095   0.088   3.116   9.539 -1.5156  2.5407  3.0952
 2487SOL     OW19096   3.808   3.395  17.062 -0.5509 -0.3544  0.6517
 2487SOL    HW119097   3.826   3.445  17.142 -0.1777 -1.2785  1.1559
 2487SOL    HW219098   3.884   3.416  17.007 -0.5062 -2.8841 -0.2344
 2488SOL     OW19099   1.551   1.540   7.987 -0.6292  0.2346 -0.6295
 2488SOL    HW119100   1.485   1.485   7.945  0.6993 -1.0411 -1.0299
 2488SOL    HW219101   1.507   1.625   7.983  0.2545  0.5721 -3.1681
 2489SOL     OW19102   0.674   3.922   8.459  0.5970  0.0900  0.0371
 2489SOL    HW119103   0.768   3.905   8.451  1.3913  4.5059 -0.0117
 2489SOL    HW219104   0.638   3.908   8.372 -0.0435 -0.4304  0.3885
 2490SOL     OW19105   4.567   2.027   1.836 -0.5015  0.2238 -0.4878
 2490SOL    HW119106   4.589   2.028   1.743 -0.2328  0.6834 -0.4201
 2490SOL    HW219107   4.523   2.112   1.847  1.1854  0.6741  2.8036
 2491SOL     OW19108   0.789   3.070  13.737  0.1000 -0.5569  0.0165
 2491SOL    HW119109   0.748   3.092  13.653 -2.0410 -2.8637  0.4303
 2491SOL    HW219110   0.826   2.982  13.729 -2.6672 -1.6389 -0.8198
 2492SOL     OW19111   0.537   3.427   5.084 -0.1066 -0.7789  0.2021
 2492SOL    HW119112   0.610   3.467   5.132  1.9906 -3.0040 -1.1139
 2492SOL    HW219113   0.579   3.360   5.029  0.9248 -1.5357  1.9362
 2493SOL     OW19114   0.973   0.909   9.294 -0.4889 -0.0581  0.0659
 2493SOL    HW119115   1.011   0.952   9.218 -0.8825  1.4174  0.7125
 2493SOL    HW219116   1.043   0.896   9.358  0.0062  0.4376 -0.3833
 2494SOL     OW19117   3.820   1.618   9.084 -0.4423 -0.2516  0.3086
 2494SOL    HW119118   3.843   1.706   9.112  1.6184 -0.1641 -1.6060
 2494SOL    HW219119   3.898   1.584   9.040 -0.2131 -1.1766  1.4455
 2495SOL     OW19120   0.295   4.274  16.543 -0.7697 -0.3136 -0.9584
 2495SOL    HW119121   0.255   4.210  16.602 -0.9350 -0.1334 -0.8788
 2495SOL    HW219122   0.345   4.333  16.599 -0.6235  1.4559 -2.9815
 2496SOL     OW19123   3.283   2.096  14.861  0.4805  0.0319  0.2554
 2496SOL    HW119124   3.273   2.107  14.955 -0.5023 -1.6821  0.3435
 2496SOL    HW219125   3.378   2.107  14.868  0.0645  4.0240  0.0988
 2497SOL     OW19126   0.587   2.103  17.712 -0.0226  0.1817 -0.1725
 2497SOL    HW119127   0.498   2.068  17.700  0.4770 -0.7256 -1.1753
 2497SOL    HW219128   0.614   2.126  17.624 -0.6184  2.7798  0.3356
 2498SOL     OW19129   0.222   1.165   4.869  0.0322  0.3709 -1.2678
 2498SOL    HW119130   0.314   1.190   4.859  0.7630 -0.9535  1.8718
 2498SOL    HW219131   0.221   1.084   4.817 -0.8801 -0.3724 -0.1026
 2499SOL     OW19132   4.589   3.467  12.220 -0.4593 -0.1278 -0.3818
 2499SOL    HW119133   4.606   3.560  12.238  0.5280 -0.7725  1.9244
 2499SOL    HW219134   4.494   3.470  12.223 -0.5044 -0.8064 -1.0185
 2500SOL     OW19135   3.457   2.787  10.485  0.2226  0.3710 -0.2279
 2500SOL    HW119136   3.451   2.799  10.391  1.2091 -1.3319 -0.5213
 2500SOL    HW219137   3.366   2.804  10.511  0.7018  0.5037  1.3853
 2501SOL     OW19138   1.486   1.705   5.281  0.1895 -0.0024 -0.2427
 2501SOL    HW119139   1.418   1.676   5.342  1.3108 -2.0761  0.0298
 2501SOL    HW219140   1.564   1.728   5.333  0.7116 -0.9146 -0.6306
 2502SOL     OW19141   1.169   1.796   6.992 -0.0866 -0.2264 -0.7436
 2502SOL    HW119142   1.206   1.830   6.911  0.9856  1.6809  0.5651
 2502SOL    HW219143   1.213   1.855   7.053 -0.7828 -0.3869 -0.0863
 2503SOL     OW19144   3.660   3.280   0.147  0.3597  0.4208 -0.3590
 2503SOL    HW119145   3.659   3.252   0.238  0.1286  1.5264 -0.0241
 2503SOL    HW219146   3.745   3.324   0.146  0.8072 -0.4412 -0.1895
 2504SOL     OW19147   4.682   2.932   3.725  0.2697 -0.0499 -0.2292
 2504SOL    HW119148   0.012   2.947   3.790 -1.6508  3.2074  1.0432
 2504SOL    HW219149   4.715   2.854   3.681 -1.7094 -1.1860  0.2713
 2505SOL     OW19150   3.942   1.689   1.132 -0.0130  0.3165 -0.5194
 2505SOL    HW119151   3.984   1.775   1.128 -0.1202  0.3986  0.0186
 2505SOL    HW219152   3.877   1.692   1.062 -1.0297  0.9035  0.4482
 2506SOL     OW19153   4.332   1.843   8.232  0.6270  0.9489  0.1011
 2506SOL    HW119154   4.376   1.818   8.151 -0.0047  0.1786 -0.0027
 2506SOL    HW219155   4.394   1.817   8.300 -1.2309 -1.0494  1.0559
 2507SOL     OW19156   0.945   0.102   1.606  0.0041 -0.4024  0.2712
 2507SOL    HW119157   0.934   0.055   1.524 -2.3152 -1.9835  1.4698
 2507SOL    HW219158   1.027   0.150   1.598 -1.1584  1.0985 -2.8020
 2508SOL     OW19159   3.803   0.207   8.456  0.0203 -0.3698  0.0356
 2508SOL    HW119160   3.846   0.247   8.532 -0.0722 -0.7483  0.2850
 2508SOL    HW219161   3.714   0.236   8.472  0.7160  2.4500 -1.2050
 2509SOL     OW19162   3.183   1.662   4.906  0.5295 -0.1297  0.2652
 2509SOL    HW119163   3.124   1.708   4.847  1.1376  0.3171  0.0015
 2509SOL    HW219164   3.136   1.676   4.988 -0.8874  0.4042 -0.6311
 2510SOL     OW19165   2.453   0.381   4.437 -0.3813  0.4405  0.0133
 2510SOL    HW119166   2.421   0.335   4.359  1.2134 -1.8451  0.7305
 2510SOL    HW219167   2.538   0.338   4.439 -0.1369  0.9245  0.2089
 2511SOL     OW19168   1.513   2.726  12.274  0.9157 -0.0998  0.7915
 2511SOL    HW119169   1.535   2.818  12.256  0.3016 -0.3856 -1.4290
 2511SOL    HW219170   1.435   2.746  12.326 -0.6130  0.4662 -1.6992
 2512SOL     OW19171   0.335   2.432   8.816  0.1626  0.0097 -0.6938
 2512SOL    HW119172   0.308   2.405   8.904  2.7698  0.6506  0.3196
 2512SOL    HW219173   0.266   2.496   8.802 -0.5054 -0.2289  1.4808
 2513SOL     OW19174   4.678   3.207   8.700  0.1142 -0.4223  0.2389
 2513SOL    HW119175   4.609   3.218   8.635  0.7544  0.2208 -0.3348
 2513SOL    HW219176   4.713   3.120   8.684  1.1650 -0.2512  1.5898
 2514SOL     OW19177   1.217   4.036   3.122 -0.4414 -0.0166 -0.0581
 2514SOL    HW119178   1.188   4.127   3.119 -0.9574 -0.1100  2.0426
 2514SOL    HW219179   1.150   4.000   3.181  1.8513  1.7814  3.5950
 2515SOL     OW19180   0.407   0.439  17.076  0.0268  0.4362 -0.4456
 2515SOL    HW119181   0.390   0.351  17.112  0.4484  1.2540  1.7405
 2515SOL    HW219182   0.314   0.462  17.075 -0.1313 -0.0889  1.0728
 2516SOL     OW19183   1.925   0.151  16.147  0.2159 -0.1963  0.1637
 2516SOL    HW119184   1.911   0.174  16.056  3.0494  0.2058 -0.1758
 2516SOL    HW219185   1.834   0.143  16.175  0.5789 -0.1105  1.3797
 2517SOL     OW19186   3.442   0.572   8.514  0.1776  0.3931 -0.2664
 2517SOL    HW119187   3.422   0.505   8.449 -1.1763 -0.6411  1.2212
 2517SOL    HW219188   3.421   0.523   8.594  0.9287 -1.7759 -1.3974
 2518SOL     OW19189   2.096   0.228   4.316  0.5080  0.1187 -0.0017
 2518SOL    HW119190   2.001   0.215   4.316  0.1691  2.6757  0.5101
 2518SOL    HW219191   2.120   0.139   4.343 -0.0899  1.1609  3.8890
 2519SOL     OW19192   3.218   4.693   4.052  0.0595  0.4189 -0.2471
 2519SOL    HW119193   3.268   4.613   4.067  0.2417  0.3081 -1.4395
 2519SOL    HW219194   3.141   4.657   4.008 -0.4936 -0.4695  1.4585
 2520SOL     OW19195   4.040   4.217   8.056 -0.3042  0.0304  0.0270
 2520SOL    HW119196   4.076   4.250   7.974 -4.0654 -0.9037 -1.9935
 2520SOL    HW219197   4.115   4.237   8.112  0.0439 -0.0096 -0.4314
 2521SOL     OW19198   1.026   0.040   5.006 -0.1272  0.3470 -0.2110
 2521SOL    HW119199   0.947   0.006   5.047 -0.4907  0.9287 -0.4299
 2521SOL    HW219200   0.981   0.092   4.939 -1.1374 -0.6683 -0.3202
 2522SOL     OW19201   3.573   4.232  12.087  0.1828  0.1178  0.4319
 2522SOL    HW119202   3.538   4.232  12.176  0.7317 -1.2666  0.6540
 2522SOL    HW219203   3.644   4.167  12.086  0.2324  0.1518  1.9311
 2523SOL     OW19204   4.734   1.576  12.724 -0.1073  0.2941  0.3066
 2523SOL    HW119205   4.672   1.639  12.761  1.6010  2.1958 -0.0336
 2523SOL    HW219206   0.075   1.620  12.753  1.6410 -2.7186  0.0177
 2524SOL     OW19207   4.383   2.513   8.246 -0.6729 -0.4868 -0.4730
 2524SOL    HW119208   4.353   2.598   8.279  0.1507  0.4097 -2.0056
 2524SOL    HW219209   4.341   2.444   8.296  0.0158  0.5344  1.5578
 2525SOL     OW19210   4.001   0.577  12.672 -0.2093  0.1363 -0.2255
 2525SOL    HW119211   4.094   0.564  12.654  0.1546 -0.7852  2.3780
 2525SOL    HW219212   4.002   0.670  12.696  3.8732  0.0923 -0.1308
 2526SOL     OW19213   3.455   3.967  12.723  0.2895  0.0935 -0.2503
 2526SOL    HW119214   3.481   3.878  12.701  1.9944  0.5099  0.0367
 2526SOL    HW219215   3.453   3.961  12.818 -0.1172  1.9098 -0.1395
 2527SOL     OW19216   1.206   0.777   2.514  0.2488  0.5089  0.0114
 2527SOL    HW119217   1.162   0.728   2.584  1.0635  1.2107  1.0014
 2527SOL    HW219218   1.167   0.741   2.434  0.9926 -1.3622  0.4796
 2528SOL     OW19219   0.473   1.544   8.385 -0.4170  0.0745 -0.1445
 2528SOL    HW119220   0.524   1.617   8.350  0.6645 -2.0185 -2.8875
 2528SOL    HW219221   0.392   1.586   8.356  1.1660  2.0255 -1.7330
 2529SOL     OW19222   0.491   1.067   5.273 -0.2683 -0.1222 -0.4913
 2529SOL    HW119223   0.484   1.141   5.213  0.4538 -0.3910 -0.9088
 2529SOL    HW219224   0.585   1.047   5.282 -0.3260 -0.6341 -0.9935
 2530SOL     OW19225   0.333   2.343   9.351  0.3063  0.4107  0.7957
 2530SOL    HW119226   0.419   2.350   9.392  0.6469  0.0116  0.1569
 2530SOL    HW219227   0.280   2.353   9.431  1.7464  1.2731  1.6370
 2531SOL     OW19228   1.509   2.804   3.824 -0.0403  0.7713 -0.5890
 2531SOL    HW119229   1.490   2.881   3.877  0.6324  1.8945 -2.0019
 2531SOL    HW219230   1.532   2.751   3.901  0.2787  0.3054 -1.0058
 2532SOL     OW19231   0.618   2.889   1.230 -0.3146  0.1002  0.1625
 2532SOL    HW119232   0.690   2.930   1.181  0.2699 -1.2340 -0.1049
 2532SOL    HW219233   0.550   2.954   1.210  0.3028  0.3669 -1.1211
 2533SOL     OW19234   2.444   2.419  14.025  0.2844 -0.0305 -0.4984
 2533SOL    HW119235   2.354   2.409  13.994 -0.0207 -2.9024  1.2655
 2533SOL    HW219236   2.484   2.333  14.011  0.0322 -0.0530 -1.0992
 2534SOL     OW19237   3.561   2.253   5.720 -0.0387  0.1894 -0.0397
 2534SOL    HW119238   3.589   2.162   5.718 -1.0642 -0.1299  0.2863
 2534SOL    HW219239   3.618   2.286   5.650  0.7955 -0.1254  0.4977
 2535SOL     OW19240   2.957   2.932   6.418  0.2694 -0.5472 -0.1105
 2535SOL    HW119241   2.882   2.897   6.369 -2.5086  1.6919  2.5453
 2535SOL    HW219242   2.927   2.956   6.505 -0.7095  1.7160 -1.0591
 2536SOL     OW19243   4.066   3.857   6.243 -0.1788 -0.0030 -0.3497
 2536SOL    HW119244   3.977   3.878   6.269  0.1245  1.4244 -0.4718
 2536SOL    HW219245   4.113   3.931   6.282  1.1788 -0.9333 -0.1913
 2537SOL     OW19246   0.106   3.198  12.913 -0.5697 -0.5355  0.1831
 2537SOL    HW119247   0.093   3.109  12.946 -1.0735  0.1030  1.7040
 2537SOL    HW219248   0.055   3.244  12.980 -1.5361 -1.6762  0.2396
 2538SOL     OW19249   1.287   3.360   3.931 -0.2773 -0.0768 -0.0646
 2538SOL    HW119250   1.382   3.357   3.932 -0.3069 -0.6779  0.7411
 2538SOL    HW219251   1.280   3.302   3.856  1.2822  0.2288 -0.4373
 2539SOL     OW19252   0.862   2.096   2.578  0.2093 -0.0040 -0.3321
 2539SOL    HW119253   0.891   2.007   2.598  1.1954  0.0202 -1.6898
 2539SOL    HW219254   0.849   2.126   2.668 -0.3675  0.8951 -0.7092
 2540SOL     OW19255   1.234   0.159   9.336  0.8982  0.4763  0.5383
 2540SOL    HW119256   1.324   0.191   9.341  0.0749  2.8005  0.5230
 2540SOL    HW219257   1.229   0.103   9.413 -1.2203  0.4605  0.3841
 2541SOL     OW19258   2.172   0.605   4.729 -0.5038  0.4335  0.4473
 2541SOL    HW119259   2.082   0.585   4.704 -0.5297 -0.5714  1.3554
 2541SOL    HW219260   2.182   0.550   4.806  1.8647  0.0812 -0.1063
 2542SOL     OW19261   4.086   1.046   2.051 -0.0875  0.1124 -0.6407
 2542SOL    HW119262   4.101   1.039   1.957 -0.1998 -0.2941 -0.6290
 2542SOL    HW219263   4.000   1.087   2.050 -1.4408 -2.6852  1.2425
 2543SOL     OW19264   4.663   3.996   6.897  0.1285 -0.2845 -0.4116
 2543SOL    HW119265   4.696   4.000   6.807 -0.4314 -1.0176 -0.6460
 2543SOL    HW219266   4.730   4.047   6.943  1.2202 -1.6912 -0.4154
 2544SOL     OW19267   2.629   4.681  15.795  0.0191  0.1871  0.1072
 2544SOL    HW119268   2.682   4.700  15.718  0.5387 -0.6532  0.2543
 2544SOL    HW219269   2.544   4.671  15.752 -0.3161  2.7396  0.2047
 2545SOL     OW19270   2.535   3.750   8.670 -0.4417  0.5072 -0.1155
 2545SOL    HW119271   2.580   3.668   8.646 -1.1244  0.1196 -0.0573
 2545SOL    HW219272   2.534   3.736   8.764 -1.1009  0.9158 -0.0628
 2546SOL     OW19273   2.844   1.618   9.069  0.4044  0.1874 -0.0033
 2546SOL    HW119274   2.899   1.587   9.141  0.0340  0.1845  0.2844
 2546SOL    HW219275   2.818   1.535   9.028 -0.3658  0.0633  0.7137
 2547SOL     OW19276   1.820   2.729   6.614 -0.0148  0.3555  0.2635
 2547SOL    HW119277   1.758   2.801   6.614  0.0916  0.4362 -0.8058
 2547SOL    HW219278   1.894   2.774   6.573  1.6398 -0.1426  2.6262
 2548SOL     OW19279   4.423   1.970   9.835  0.2648 -0.3580 -0.1344
 2548SOL    HW119280   4.467   1.910   9.775 -0.8342 -1.7564  0.4532
 2548SOL    HW219281   4.404   1.908   9.904  0.1865 -0.1056  0.0707
 2549SOL     OW19282   0.359   0.585   0.935  0.4148  0.2275 -1.0043
 2549SOL    HW119283   0.329   0.668   0.971  1.8730  1.4228 -2.5764
 2549SOL    HW219284   0.298   0.525   0.978  0.6428  1.1678  0.6268
 2550SOL     OW19285   1.696   2.916   5.737 -0.3593 -0.2872 -0.1366
 2550SOL    HW119286   1.710   2.924   5.642  1.2426 -0.6694  0.0752
 2550SOL    HW219287   1.759   2.982   5.765 -1.1354  0.6203 -0.5151
 2551SOL     OW19288   0.217   0.925   1.885  0.5563  0.0108 -0.2761
 2551SOL    HW119289   0.251   1.003   1.841  0.7648  0.4663  0.7002
 2551SOL    HW219290   0.251   0.857   1.825 -1.9676  0.0397 -1.7178
 2552SOL     OW19291   1.483   0.019  17.411  0.0478  0.2801 -0.1163
 2552SOL    HW119292   1.450   0.005  17.322  3.2316 -1.2785 -1.0533
 2552SOL    HW219293   1.419   0.081  17.447 -2.4423 -2.1985 -0.2155
 2553SOL     OW19294   3.534   3.527   8.379 -0.3156  0.4202 -0.0936
 2553SOL    HW119295   3.485   3.602   8.347 -0.0091  0.2706 -0.9187
 2553SOL    HW219296   3.558   3.481   8.298 -0.6791 -0.6796  0.4248
 2554SOL     OW19297   4.302   0.918   2.983 -0.5768  0.5475  0.1720
 2554SOL    HW119298   4.243   0.880   3.048 -1.3530  0.1184 -0.7873
 2554SOL    HW219299   4.302   0.853   2.913 -0.3009 -0.1019  0.7769
 2555SOL     OW19300   4.726   3.322   4.601 -0.6257 -0.3993  0.4949
 2555SOL    HW119301   4.693   3.239   4.567 -0.0322 -0.7769  0.8329
 2555SOL    HW219302   0.009   3.297   4.691  0.0672  0.5619  0.5928
 2556SOL     OW19303   4.069   2.000  11.523 -0.1242  0.1413 -0.0385
 2556SOL    HW119304   4.047   2.077  11.576  0.4498 -1.0471  1.9344
 2556SOL    HW219305   4.015   1.934  11.568  2.3619 -3.2303 -2.0396
 2557SOL     OW19306   0.720   2.463  14.579  0.0524 -0.3715 -0.6429
 2557SOL    HW119307   0.655   2.468  14.509  1.4408  0.3642 -1.8633
 2557SOL    HW219308   0.736   2.556  14.594 -0.5649 -0.2343 -0.8393
 2558SOL     OW19309   4.448   3.585   2.821  0.1319 -0.6617 -0.8227
 2558SOL    HW119310   4.417   3.531   2.749  0.2655  0.3592 -1.6397
 2558SOL    HW219311   4.506   3.518   2.857  0.4757  1.0171  1.8056
 2559SOL     OW19312   3.389   1.191   2.918 -0.1635  0.5996 -0.7833
 2559SOL    HW119313   3.363   1.221   3.006 -1.1119  0.0797 -0.8910
 2559SOL    HW219314   3.398   1.272   2.867 -0.7149 -0.3378 -2.3629
 2560SOL     OW19315   1.043   2.396   8.548  0.0732  0.1049  0.3823
 2560SOL    HW119316   1.112   2.422   8.608  0.5452 -0.3270  0.0220
 2560SOL    HW219317   1.003   2.324   8.599  2.2378 -0.9954  0.5164
 2561SOL     OW19318   2.219   1.710   4.367 -0.1311  0.5723 -0.1332
 2561SOL    HW119319   2.249   1.764   4.440 -2.6961  2.2153 -0.2876
 2561SOL    HW219320   2.182   1.773   4.306 -1.9894 -0.5477 -0.1553
 2562SOL     OW19321   3.867   3.732  12.183  0.1019 -0.5606 -0.5784
 2562SOL    HW119322   3.820   3.761  12.105 -2.2395 -1.9023  0.3620
 2562SOL    HW219323   3.872   3.815  12.230 -1.4975 -0.5147 -0.4942
 2563SOL     OW19324   2.319   2.456  10.022 -0.0197  0.6812  0.0823
 2563SOL    HW119325   2.362   2.371  10.021  0.1465  0.7729 -0.8146
 2563SOL    HW219326   2.390   2.508  10.062  0.4916  0.7101 -0.8592
 2564SOL     OW19327   0.016   3.350  13.139  0.3254  0.2937 -0.0314
 2564SOL    HW119328   4.726   3.331  13.228 -2.2793  1.9247 -0.5431
 2564SOL    HW219329   4.678   3.389  13.098 -0.7039 -2.0575 -0.3022
 2565SOL     OW19330   2.921   0.776   1.968 -0.5606 -0.0439  0.5345
 2565SOL    HW119331   2.974   0.839   1.919 -0.7369  0.0624  0.4791
 2565SOL    HW219332   2.855   0.749   1.905  0.9998  1.1487 -1.6090
 2566SOL     OW19333   1.937   3.320  11.559 -0.4091 -0.3624 -0.6237
 2566SOL    HW119334   1.985   3.388  11.512  0.2777  0.1480  0.8083
 2566SOL    HW219335   1.918   3.261  11.486  1.4395 -0.8942 -0.6645
 2567SOL     OW19336   3.588   4.620   3.794 -0.3254  0.0482  0.0831
 2567SOL    HW119337   3.618   4.679   3.864  0.4940 -0.2934  0.0062
 2567SOL    HW219338   3.537   4.560   3.849  0.3557 -1.0931 -0.5433
 2568SOL     OW19339   3.652   3.857   7.710  0.4466 -0.2546  0.7036
 2568SOL    HW119340   3.633   3.911   7.786  0.2858  0.9258 -0.1872
 2568SOL    HW219341   3.746   3.842   7.723  0.7599  0.7931 -0.4367
 2569SOL     OW19342   2.364   2.857   3.981  0.1345  0.0597  0.5206
 2569SOL    HW119343   2.394   2.867   3.890 -0.2666  1.3726  0.5298
 2569SOL    HW219344   2.444   2.878   4.030 -0.7971 -0.7534  2.4037
 2570SOL     OW19345   4.635   3.519   9.079  0.3590  0.3338  0.9937
 2570SOL    HW119346   4.705   3.540   9.018 -0.0076  0.7082  0.7018
 2570SOL    HW219347   4.557   3.543   9.030  0.8747 -0.0451 -0.0203
 2571SOL     OW19348   4.728   1.346   6.655 -0.4133 -0.2770 -0.1720
 2571SOL    HW119349   0.074   1.311   6.629 -1.3396 -1.5120 -1.5070
 2571SOL    HW219350   4.711   1.293   6.733  0.7280  0.6522  0.7043
 2572SOL     OW19351   1.486   1.454   6.008 -0.5611  0.0466 -0.9893
 2572SOL    HW119352   1.469   1.360   5.997  1.2224  0.0179 -3.4964
 2572SOL    HW219353   1.558   1.464   5.946 -1.3958  0.1588 -1.9408
 2573SOL     OW19354   0.871   3.138   8.744 -0.4107 -0.0359  0.1196
 2573SOL    HW119355   0.824   3.189   8.810  0.2752  0.6837  0.0635
 2573SOL    HW219356   0.845   3.051   8.772  1.5849 -1.1157 -1.3523
 2574SOL     OW19357   0.298   0.994  12.280  0.3852 -0.4686  0.0154
 2574SOL    HW119358   0.345   0.971  12.360 -1.5269 -0.9032  1.0251
 2574SOL    HW219359   0.294   0.909  12.237  4.2130 -1.8486  2.4269
 2575SOL     OW19360   4.704   3.745   2.207 -0.4113  0.3819 -0.6910
 2575SOL    HW119361   4.635   3.758   2.272  0.4364 -0.0417  0.2937
 2575SOL    HW219362   4.684   3.652   2.191 -4.5319  0.8419  1.7855
 2576SOL     OW19363   0.858   1.722   2.369  0.1829  0.3113  0.1234
 2576SOL    HW119364   0.792   1.656   2.349  1.7319 -0.3657 -2.7789
 2576SOL    HW219365   0.930   1.687   2.317  0.5420 -0.1450  0.9292
 2577SOL     OW19366   1.701   3.088   1.916  0.3480 -0.2002 -0.5559
 2577SOL    HW119367   1.608   3.067   1.925  0.4532 -0.0429  0.9536
 2577SOL    HW219368   1.737   3.006   1.883  0.8911 -0.5932  1.0219
 2578SOL     OW19369   2.362   3.560   3.385  0.1049 -0.0106  0.4608
 2578SOL    HW119370   2.314   3.478   3.377 -1.7913  0.9576  1.9363
 2578SOL    HW219371   2.439   3.531   3.337 -0.8357 -3.8121  1.2700
 2579SOL     OW19372   2.175   4.354   1.855 -0.6694  0.3903 -0.2067
 2579SOL    HW119373   2.177   4.260   1.835  0.2722 -0.1701  2.6229
 2579SOL    HW219374   2.106   4.361   1.921 -1.7299 -1.1604 -1.1252
 2580SOL     OW19375   4.182   3.179   4.731  0.4891  0.3364  0.1439
 2580SOL    HW119376   4.116   3.166   4.800  0.4067 -0.6475 -0.1081
 2580SOL    HW219377   4.235   3.238   4.783 -1.4116  1.5600  0.7132
 2581SOL     OW19378   4.246   2.758   3.065  0.1245  0.7130 -0.1798
 2581SOL    HW119379   4.223   2.728   3.153 -1.1775 -0.9948 -1.0992
 2581SOL    HW219380   4.163   2.778   3.022 -0.0197 -2.2155 -1.3003
 2582SOL     OW19381   2.296   2.691   3.363 -0.0783  0.3608 -0.1358
 2582SOL    HW119382   2.380   2.694   3.318 -0.2019  1.6393 -0.2975
 2582SOL    HW219383   2.288   2.597   3.376  2.3403  0.0959 -0.6680
 2583SOL     OW19384   1.138   3.114   6.628  0.4716 -0.4116 -0.4824
 2583SOL    HW119385   1.075   3.054   6.668  1.6105 -0.6435  0.9660
 2583SOL    HW219386   1.138   3.078   6.539  0.6644  1.9335 -1.4088
 2584SOL     OW19387   0.106   3.571   8.476  0.0374  0.7943 -1.0197
 2584SOL    HW119388   0.142   3.652   8.439  1.4176  0.3551 -0.6337
 2584SOL    HW219389   0.183   3.533   8.518  0.2868  2.6391  0.2086
 2585SOL     OW19390   1.017   1.560   5.259 -0.8459  0.6389  0.5151
 2585SOL    HW119391   0.972   1.486   5.218  0.3642  1.6218 -2.5861
 2585SOL    HW219392   0.961   1.588   5.332  0.3748  0.0459  1.6675
 2586SOL     OW19393   0.709   1.384   8.425 -0.4783 -1.2030 -0.0222
 2586SOL    HW119394   0.628   1.433   8.432  0.3415  0.1697 -0.1463
 2586SOL    HW219395   0.689   1.336   8.344  0.8327 -1.6759 -0.0812
 2587SOL     OW19396   0.535   1.791   9.484  0.3910  0.0757 -1.0792
 2587SOL    HW119397   0.458   1.818   9.534  1.1248  1.5356 -0.7183
 2587SOL    HW219398   0.517   1.847   9.408  4.3206  1.5066 -0.9666
 2588SOL     OW19399   0.381   4.064   3.096  0.0182 -0.0700 -0.7355
 2588SOL    HW119400   0.399   4.024   3.011 -1.1642 -2.4653  0.1702
 2588SOL    HW219401   0.312   4.008   3.131  0.5948  0.2643  0.9478
 2589SOL     OW19402   1.713   1.155   9.290  0.1695 -0.5537 -0.2754
 2589SOL    HW119403   1.719   1.104   9.371  0.0569 -1.2767 -0.7165
 2589SOL    HW219404   1.745   1.091   9.226  1.2397 -1.6481  1.3561
 2590SOL     OW19405   2.046   1.037   1.367  0.0152  0.1237 -0.2932
 2590SOL    HW119406   2.060   1.051   1.273  1.2686  0.1504 -0.0970
 2590SOL    HW219407   1.965   1.087   1.370  1.0226  1.7904 -0.9992
 2591SOL     OW19408   1.926   3.761   2.040  0.9692 -0.7019  0.3032
 2591SOL    HW119409   1.980   3.840   2.048 -0.9957  0.7603 -0.9144
 2591SOL    HW219410   1.942   3.718   2.124  0.8916 -2.0256 -0.3605
 2592SOL     OW19411   3.117   1.882   0.207  0.4091  0.3308  0.7012
 2592SOL    HW119412   3.122   1.974   0.185 -2.0505  0.1330 -0.6075
 2592SOL    HW219413   3.113   1.881   0.303  0.1323 -0.4319  0.6869
 2593SOL     OW19414   4.280   0.112  10.786  0.1537 -0.0625  1.0247
 2593SOL    HW119415   4.264   0.105  10.881  2.3250  0.0477  1.3934
 2593SOL    HW219416   4.375   0.109  10.787  0.2787  2.5376 -3.2507
 2594SOL     OW19417   3.323   0.275  13.878 -0.1353  0.5470 -0.7070
 2594SOL    HW119418   3.370   0.336  13.936  0.7498 -0.9441  0.1319
 2594SOL    HW219419   3.380   0.202  13.901 -0.7547 -0.7662 -3.4263
 2595SOL     OW19420   3.214   4.615   4.404 -0.3966  0.5222  0.7883
 2595SOL    HW119421   3.208   4.705   4.374 -1.6100  0.3807  0.6210
 2595SOL    HW219422   3.134   4.581   4.364  1.4093  0.9766 -3.2071
 2596SOL     OW19423   4.141   0.532   5.129 -0.1505 -0.0466  0.4450
 2596SOL    HW119424   4.052   0.549   5.098  0.9075  1.0057 -1.9859
 2596SOL    HW219425   4.161   0.470   5.058  3.4005 -0.2703  1.6489
 2597SOL     OW19426   2.561   2.604   0.596 -0.1927 -0.1892  0.2561
 2597SOL    HW119427   2.569   2.686   0.547 -2.2241  0.4199  0.9195
 2597SOL    HW219428   2.601   2.624   0.680 -1.7485  0.4484  0.8431
 2598SOL     OW19429   3.550   2.861   6.865  0.5535  0.0293  0.2306
 2598SOL    HW119430   3.636   2.826   6.892 -0.2663 -0.3791  2.3552
 2598SOL    HW219431   3.565   2.952   6.841 -2.1889  0.1650 -0.9296
 2599SOL     OW19432   2.310   2.649  12.071  0.5444  0.6082  0.0474
 2599SOL    HW119433   2.363   2.729  12.072  1.0526  0.2544  2.2929
 2599SOL    HW219434   2.373   2.578  12.083 -0.4325  0.0768  2.1044
 2600SOL     OW19435   3.730   1.410   1.633 -0.1841  0.6610  0.1655
 2600SOL    HW119436   3.646   1.388   1.592 -0.1038 -1.1993  1.0140
 2600SOL    HW219437   3.719   1.504   1.648 -3.1416  0.2720  0.4943
 2601SOL     OW19438   2.961   2.561   4.955  0.5600 -0.1082 -0.0171
 2601SOL    HW119439   3.007   2.518   4.882 -1.1026  1.5970 -2.0802
 2601SOL    HW219440   3.031   2.622   4.978  0.8315 -0.4042 -0.0464
 2602SOL     OW19441   1.047   2.398  13.711 -0.0574  0.0103 -1.0938
 2602SOL    HW119442   1.061   2.459  13.638 -0.6779  1.6958  0.1895
 2602SOL    HW219443   1.029   2.321  13.657  0.2943 -0.2975 -0.7711
 2603SOL     OW19444   4.242   0.062   1.708 -0.1452 -0.5735 -0.8568
 2603SOL    HW119445   4.266   0.145   1.749 -1.4947  0.8016 -2.8256
 2603SOL    HW219446   4.310   4.738   1.733  0.5794 -0.4038 -2.3734
 2604SOL     OW19447   4.705   4.632  10.418  0.1874  0.4236  0.4936
 2604SOL    HW119448   4.721   4.639  10.324 -1.4830 -0.4890  0.1384
 2604SOL    HW219449   4.622   4.585  10.411 -0.5769  1.8923 -0.1171
 2605SOL     OW19450   3.072   1.497   5.605  0.2345 -0.3659 -0.3623
 2605SOL    HW119451   3.154   1.458   5.575  1.0639  1.3597 -0.3586
 2605SOL    HW219452   3.104   1.546   5.681 -3.8020 -1.2500  1.8911
 2606SOL     OW19453   2.951   0.721   4.273  0.6955 -0.0001  0.0591
 2606SOL    HW119454   2.865   0.757   4.294  0.3561 -1.0166  0.4042
 2606SOL    HW219455   2.990   0.792   4.222  2.0962 -2.1444 -1.8060
 2607SOL     OW19456   2.502   2.423   7.051  0.0573  0.0246  0.0198
 2607SOL    HW119457   2.529   2.410   6.960 -1.0000  1.2407 -0.4787
 2607SOL    HW219458   2.418   2.464   7.030  0.4480 -0.0009 -1.5946
 2608SOL     OW19459   4.661   1.897  17.732  0.0504  0.1286 -0.1165
 2608SOL    HW119460   4.595   1.932  17.671  0.5589  1.3578  0.0221
 2608SOL    HW219461   4.623   1.821   0.023  0.0407  1.0476  1.4544
 2609SOL     OW19462   4.406   3.466   7.543  0.0953 -0.3601 -0.0253
 2609SOL    HW119463   4.319   3.483   7.505 -1.6998 -3.2781  2.7907
 2609SOL    HW219464   4.473   3.520   7.501  1.4775 -0.5677  1.9236
 2610SOL     OW19465   1.974   0.665   8.812  0.1550  0.3419  0.2849
 2610SOL    HW119466   2.014   0.594   8.761  1.5152  1.5221 -0.2594
 2610SOL    HW219467   1.946   0.729   8.747 -0.7530 -0.2053  0.1315
 2611SOL     OW19468   1.828   1.202   1.385 -0.0353  0.8645  0.2738
 2611SOL    HW119469   1.755   1.197   1.447 -0.2901  4.0106  0.2050
 2611SOL    HW219470   1.875   1.272   1.430 -1.2547  0.1101  2.7235
 2612SOL     OW19471   1.444   2.658   2.570 -0.0561 -0.0670  0.5200
 2612SOL    HW119472   1.364   2.707   2.549 -0.7678 -0.2129  2.9145
 2612SOL    HW219473   1.487   2.710   2.638 -2.3313  0.9082  1.2073
 2613SOL     OW19474   3.311   3.787   2.055 -0.6571  0.2385  0.0769
 2613SOL    HW119475   3.265   3.772   1.972 -0.5117 -2.4631  0.4660
 2613SOL    HW219476   3.311   3.703   2.101 -0.0805  0.3156  0.2146
 2614SOL     OW19477   3.634   0.645   6.418 -0.2041 -0.6383 -0.1787
 2614SOL    HW119478   3.541   0.622   6.418 -0.6060  1.0785 -1.8352
 2614SOL    HW219479   3.688   0.568   6.436  0.5681  0.6967  3.1710
 2615SOL     OW19480   3.988   3.617   6.977  0.5574  0.0437  0.5320
 2615SOL    HW119481   4.030   3.640   6.894  0.6130 -0.6631  0.3578
 2615SOL    HW219482   3.988   3.523   6.960  2.0596  0.0781  0.2797
 2616SOL     OW19483   0.729   3.000   7.980 -0.0054 -0.2600  0.1047
 2616SOL    HW119484   0.680   2.921   7.955 -2.1430  0.6216  1.4820
 2616SOL    HW219485   0.820   2.972   7.976 -0.3432 -1.1445 -1.4411
 2617SOL     OW19486   4.008   2.703   6.265  0.0544  0.0149  0.0653
 2617SOL    HW119487   3.984   2.662   6.348  0.1830 -0.2796 -0.0464
 2617SOL    HW219488   4.067   2.641   6.223 -0.0527  1.2761 -1.9461
 2618SOL     OW19489   3.466   1.891   9.040 -0.1995  0.0670  0.1047
 2618SOL    HW119490   3.529   1.847   8.982  0.4173 -2.1540  2.4101
 2618SOL    HW219491   3.386   1.839   9.037 -1.0983  1.4699  0.1229
 2619SOL     OW19492   2.360   2.950  13.763  0.3509  0.0430 -0.1612
 2619SOL    HW119493   2.347   3.041  13.736 -1.5276  0.2548  1.4776
 2619SOL    HW219494   2.344   2.914  13.675 -0.6355 -3.7917  1.6163
 2620SOL     OW19495   3.918   0.249   2.985  0.3359  0.1215 -0.5163
 2620SOL    HW119496   3.883   0.196   2.913  0.5613 -1.5962  0.6406
 2620SOL    HW219497   3.993   0.285   2.939 -1.0527  2.4751 -0.9393
 2621SOL     OW19498   0.351   0.342   3.735  0.7547  0.2165 -0.2967
 2621SOL    HW119499   0.276   0.292   3.768  0.2864  0.9610 -0.2445
 2621SOL    HW219500   0.304   0.421   3.709  0.4302  0.2109  0.2758
 2622SOL     OW19501   0.865   0.152   2.578  0.0276 -0.2586  0.4586
 2622SOL    HW119502   0.829   0.064   2.571  0.8218 -0.5864  0.5184
 2622SOL    HW219503   0.899   0.152   2.668  1.7928 -0.4476 -0.2217
 2623SOL     OW19504   2.333   4.019   1.336 -0.0479  0.2528  0.1084
 2623SOL    HW119505   2.401   4.003   1.271 -0.8594  2.2320 -1.2076
 2623SOL    HW219506   2.357   3.950   1.398  0.2969  0.8520  0.6499
 2624SOL     OW19507   1.962   1.230   8.485  0.8441 -0.6219 -0.3706
 2624SOL    HW119508   1.947   1.298   8.551  1.0055 -0.3665 -0.6031
 2624SOL    HW219509   1.928   1.280   8.412 -0.4856  0.7710  1.1934
 2625SOL     OW19510   0.150   3.885   8.625  0.2872  0.1163 -0.2986
 2625SOL    HW119511   0.187   3.968   8.654  0.7145  0.1422 -0.9194
 2625SOL    HW219512   0.206   3.833   8.682  0.3510 -0.2167 -0.6669
 2626SOL     OW19513   0.422   1.979   2.988  0.3690 -0.0087 -0.3324
 2626SOL    HW119514   0.393   1.905   3.042 -1.7081  0.9276 -0.1952
 2626SOL    HW219515   0.515   1.987   3.012 -0.2549  1.3443  1.6059
 2627SOL     OW19516   0.931   2.387   7.170 -0.0341  0.8590  0.0870
 2627SOL    HW119517   0.950   2.294   7.186 -2.2184  0.0667 -1.7939
 2627SOL    HW219518   0.983   2.402   7.091 -1.8541  2.2482 -0.8607
 2628SOL     OW19519   1.712   3.095   4.320  0.0223  0.3742 -0.0780
 2628SOL    HW119520   1.772   3.168   4.336  1.7422 -1.1024  0.2793
 2628SOL    HW219521   1.755   3.013   4.344 -0.6631  0.6584  2.0694
 2629SOL     OW19522   1.345   3.103   1.504 -0.4193 -0.4110 -0.1961
 2629SOL    HW119523   1.438   3.081   1.511 -0.1371  0.8860  0.1380
 2629SOL    HW219524   1.309   3.037   1.563 -0.6497 -1.7184 -1.8160
 2630SOL     OW19525   3.591   1.251  11.484 -0.3102 -0.2908 -0.1409
 2630SOL    HW119526   3.653   1.227  11.416 -1.4020 -3.6211  0.0564
 2630SOL    HW219527   3.644   1.246  11.564 -0.3687 -0.3807 -0.1080
 2631SOL     OW19528   2.514   1.527   3.247  0.3900  0.2409  0.2163
 2631SOL    HW119529   2.423   1.535   3.217 -0.0876  0.3227  1.6749
 2631SOL    HW219530   2.505   1.454   3.308  1.9499  1.3206  1.7449
 2632SOL     OW19531   0.903   3.402  14.675 -0.1839 -0.0444  0.3399
 2632SOL    HW119532   0.988   3.446  14.684 -0.3253 -0.0840  1.7804
 2632SOL    HW219533   0.893   3.357  14.758 -0.5519  0.5323  0.6054
 2633SOL     OW19534   0.970   1.062   7.082 -0.2430 -0.4762 -0.3561
 2633SOL    HW119535   0.906   1.006   7.128 -0.2163 -1.3000 -1.3290
 2633SOL    HW219536   0.916   1.123   7.032  2.5093  0.5132 -2.0877
 2634SOL     OW19537   0.128   1.365   6.215 -0.2783  0.4000  0.2555
 2634SOL    HW119538   0.196   1.407   6.160 -0.1754 -1.4828 -1.0467
 2634SOL    HW219539   0.061   1.369   6.147 -0.9955  0.0848  0.9510
 2635SOL     OW19540   4.627   4.304  12.296 -0.0589 -0.0947  0.1304
 2635SOL    HW119541   4.651   4.278  12.207 -0.6288 -1.5651  0.4011
 2635SOL    HW219542   4.592   4.221  12.329  2.4294 -0.7489  1.1436
 2636SOL     OW19543   2.686   1.807  11.387  0.0907 -0.0164 -0.0817
 2636SOL    HW119544   2.600   1.832  11.421  0.0146 -1.7488  0.9993
 2636SOL    HW219545   2.691   1.882  11.329  2.7727 -0.2280 -0.1301
 2637SOL     OW19546   0.304   1.176   6.251 -0.5045 -0.0527  0.3869
 2637SOL    HW119547   0.371   1.206   6.189  0.5058 -1.7177  0.6781
 2637SOL    HW219548   0.240   1.247   6.242 -0.9034 -0.0271  3.5567
 2638SOL     OW19549   2.371   2.909  13.154  0.0480 -0.0298  0.4043
 2638SOL    HW119550   2.369   2.814  13.141 -0.3926 -0.1079  1.0395
 2638SOL    HW219551   2.444   2.926  13.214  0.1007 -1.6738  0.8020
 2639SOL     OW19552   3.987   2.250  11.673  0.3952  0.0509 -0.2625
 2639SOL    HW119553   3.962   2.333  11.715 -1.8428 -0.8387  0.1379
 2639SOL    HW219554   4.041   2.282  11.600  2.4613 -0.1720  1.1569
 2640SOL     OW19555   1.092   1.070   2.455  0.5200 -0.3726  0.2210
 2640SOL    HW119556   1.161   1.022   2.500  2.3232  0.2911 -1.8534
 2640SOL    HW219557   1.123   1.160   2.444  0.4706 -0.3038  0.6675
 2641SOL     OW19558   4.132   3.975   6.564 -0.8685  0.5389 -0.1490
 2641SOL    HW119559   4.198   3.936   6.506 -1.4770 -0.6475 -0.0589
 2641SOL    HW219560   4.150   4.068   6.551 -0.2134  0.3068 -0.8875
 2642SOL     OW19561   1.523   3.697   2.372  0.9693 -0.1907 -0.6050
 2642SOL    HW119562   1.548   3.773   2.424 -0.7084  0.2389 -0.4245
 2642SOL    HW219563   1.529   3.730   2.282  1.1936  0.6211 -0.2941
 2643SOL     OW19564   1.752   4.696   7.433 -0.1749  0.6419  0.1966
 2643SOL    HW119565   1.792   0.044   7.437  2.2657 -0.5011  1.2985
 2643SOL    HW219566   1.725   4.673   7.522  1.9657 -0.2574  0.6164
 2644SOL     OW19567   0.162   1.741   7.122  0.6995  0.0078 -0.2683
 2644SOL    HW119568   0.200   1.818   7.164  0.1754  0.7356 -1.1416
 2644SOL    HW219569   0.240   1.700   7.085  1.4550  0.8349  0.4196
 2645SOL     OW19570   2.689   2.897   8.101 -0.3392  0.0300  0.5272
 2645SOL    HW119571   2.698   2.965   8.034 -2.4339 -0.0001  0.1915
 2645SOL    HW219572   2.773   2.851   8.099 -0.4130 -0.1254  0.9862
 2646SOL     OW19573   4.581   1.644  16.180 -0.3245 -0.3247 -0.4795
 2646SOL    HW119574   4.653   1.641  16.244 -0.5470  0.0280 -0.2185
 2646SOL    HW219575   4.600   1.573  16.119 -2.0883 -1.6991  0.5575
 2647SOL     OW19576   4.475   2.018   8.001  0.1749  0.0984 -0.2756
 2647SOL    HW119577   4.494   1.956   7.930 -0.7852 -1.8964  1.2287
 2647SOL    HW219578   4.443   2.099   7.961 -2.4128  0.7950  3.2184
 2648SOL     OW19579   3.137   3.339   2.308 -0.5700  0.3913  0.8911
 2648SOL    HW119580   3.124   3.279   2.381 -0.8588 -0.4934  0.1246
 2648SOL    HW219581   3.058   3.393   2.302  0.9320  2.5792  1.0802
 2649SOL     OW19582   0.055   1.966   9.297 -0.1074  0.1277  0.1744
 2649SOL    HW119583   0.128   2.000   9.350 -0.7941 -0.5884  1.5889
 2649SOL    HW219584   0.104   1.959   9.215 -2.4326 -0.2018 -1.1897
 2650SOL     OW19585   2.654   2.056   7.183  0.1856 -0.0240  0.3889
 2650SOL    HW119586   2.594   1.983   7.203  0.8275  0.1966  3.1001
 2650SOL    HW219587   2.618   2.126   7.238 -0.9170 -0.1495 -0.1700
 2651SOL     OW19588   1.014   1.356   2.271  0.0670  0.1443  0.4402
 2651SOL    HW119589   1.011   1.450   2.256 -0.1267  0.1309  0.4015
 2651SOL    HW219590   1.032   1.366   2.365  1.4714 -0.6182  0.2558
 2652SOL     OW19591   1.267   4.040   4.016 -0.0858 -0.7635  0.6184
 2652SOL    HW119592   1.209   3.974   3.978  0.0597 -0.1467 -0.6822
 2652SOL    HW219593   1.207   4.098   4.064  0.2862 -0.2564  0.4779
 2653SOL     OW19594   4.498   0.520  11.701 -0.0244 -0.1545 -0.5551
 2653SOL    HW119595   4.481   0.613  11.715  2.3939  0.4015 -1.3658
 2653SOL    HW219596   4.461   0.491  11.785 -1.4066  0.8731 -0.8046
 2654SOL     OW19597   4.003   2.534   2.779 -0.2572  0.1487 -0.3604
 2654SOL    HW119598   4.050   2.487   2.848  0.7438  1.4807 -0.1441
 2654SOL    HW219599   4.022   2.623   2.808  0.1419 -0.0739  0.0630
 2655SOL     OW19600   1.188   1.874   9.159 -0.1084 -0.3323  0.2760
 2655SOL    HW119601   1.121   1.884   9.227 -0.2418  1.0941 -0.0661
 2655SOL    HW219602   1.267   1.861   9.212 -0.7788 -3.6220  0.4801
 2656SOL     OW19603   0.468   3.543   9.481  0.4821 -0.0836  0.4681
 2656SOL    HW119604   0.552   3.569   9.445  0.8720  0.6662  1.9188
 2656SOL    HW219605   0.440   3.625   9.522  0.3265  0.0710  0.0546
 2657SOL     OW19606   0.109   1.599   4.204  0.1108  0.6418 -0.6499
 2657SOL    HW119607   0.051   1.532   4.241 -0.4631  0.9996 -0.9158
 2657SOL    HW219608   0.044   1.664   4.179 -0.4862  1.0717  2.0112
 2658SOL     OW19609   2.869   2.349   0.949  0.3680  0.3580  0.1981
 2658SOL    HW119610   2.826   2.399   0.879  2.2702 -0.2267 -1.3578
 2658SOL    HW219611   2.819   2.371   1.028 -0.5469 -0.2037 -0.2254
 2659SOL     OW19612   1.757   2.681   3.958  0.1074  0.3724  0.4277
 2659SOL    HW119613   1.798   2.748   3.903 -1.5277  0.3340 -0.8532
 2659SOL    HW219614   1.717   2.624   3.893  0.2658 -2.5777  2.9240
 2660SOL     OW19615   3.015   0.341   2.340  0.2761 -0.3070 -0.3814
 2660SOL    HW119616   3.063   0.424   2.342 -1.1162  0.5557 -2.1102
 2660SOL    HW219617   3.088   0.283   2.362 -1.8949 -1.7963  2.8809
 2661SOL     OW19618   1.797   3.290   7.797  0.1071  0.4114  0.6826
 2661SOL    HW119619   1.848   3.335   7.730  0.3893 -1.2590 -0.2269
 2661SOL    HW219620   1.869   3.248   7.844 -1.0380  0.0796  2.1413
 2662SOL     OW19621   4.358   0.578   4.241  0.7587 -0.4082 -0.7283
 2662SOL    HW119622   4.266   0.584   4.218  0.6185 -3.4458 -0.9924
 2662SOL    HW219623   4.368   0.648   4.305 -3.0318 -1.1942  0.7043
 2663SOL     OW19624   2.636   1.432  14.705  0.2416 -0.0780  0.0470
 2663SOL    HW119625   2.637   1.430  14.609 -1.0440  0.5287  0.0247
 2663SOL    HW219626   2.720   1.476  14.717 -0.1396  0.5905  0.2472
 2664SOL     OW19627   0.495   1.449   0.496 -0.1278  0.5204  0.1934
 2664SOL    HW119628   0.506   1.360   0.462 -3.0073  0.7177 -1.1921
 2664SOL    HW219629   0.421   1.488   0.451 -0.3936  0.4448  0.5638
 2665SOL     OW19630   2.903   2.536   8.498  0.2048 -0.2197  0.3397
 2665SOL    HW119631   2.995   2.536   8.468  0.1902 -0.2396  0.2946
 2665SOL    HW219632   2.885   2.442   8.496  2.1336 -0.6392  2.0240
 2666SOL     OW19633   2.138   1.937  16.484 -0.5265  0.3854  0.6992
 2666SOL    HW119634   2.095   1.862  16.525  1.8172 -1.1604  0.2795
 2666SOL    HW219635   2.221   1.894  16.463 -0.7796  0.6276 -0.7940
 2667SOL     OW19636   4.376   3.821   4.694 -0.2935 -0.1175  0.4169
 2667SOL    HW119637   4.444   3.850   4.633  0.3325  2.1875  2.1982
 2667SOL    HW219638   4.331   3.904   4.708  0.8615  0.5741 -0.0212
 2668SOL     OW19639   1.620   1.550   7.209  0.1586 -0.0547 -0.1333
 2668SOL    HW119640   1.531   1.578   7.189 -0.9505 -3.7426 -0.3076
 2668SOL    HW219641   1.612   1.483   7.277 -0.3845  2.0850  1.9256
 2669SOL     OW19642   4.586   0.504   1.171  0.2082 -0.0568  0.2538
 2669SOL    HW119643   4.544   0.447   1.107  1.5860  0.5690 -1.2017
 2669SOL    HW219644   4.661   0.448   1.193 -0.1734 -0.1753  1.2621
 2670SOL     OW19645   3.403   2.702   1.433  0.0436  0.5427  0.1677
 2670SOL    HW119646   3.405   2.681   1.526 -0.7852 -0.1151  0.0376
 2670SOL    HW219647   3.344   2.641   1.389 -2.3252  2.3964  0.8022
 2671SOL     OW19648   2.788   2.313   6.014 -0.0747  0.2742  0.2776
 2671SOL    HW119649   2.785   2.227   6.056 -1.3394  0.4627  0.5853
 2671SOL    HW219650   2.862   2.301   5.955 -1.7857 -2.5398 -1.3247
 2672SOL     OW19651   4.010   3.904   8.795 -0.4747  0.1353  1.2405
 2672SOL    HW119652   3.943   3.881   8.731  1.0923  0.3197 -0.4597
 2672SOL    HW219653   4.042   3.816   8.812  0.1943 -0.2816 -2.1283
 2673SOL     OW19654   0.019   4.141   8.071  0.2832  0.2595 -0.3404
 2673SOL    HW119655   4.681   4.090   8.098 -0.4298  1.1805 -0.6283
 2673SOL    HW219656   0.069   4.130   8.152 -0.6327  0.8315  0.2988
 2674SOL     OW19657   3.963   2.213   7.527 -0.3640 -0.2766  0.8410
 2674SOL    HW119658   4.026   2.275   7.564  0.4030 -0.1646 -0.6479
 2674SOL    HW219659   3.973   2.233   7.434  1.2244  1.5729  1.3830
 2675SOL     OW19660   3.140   1.979   2.826 -0.2048 -0.0751  0.4539
 2675SOL    HW119661   3.162   1.959   2.735 -1.0308 -1.0766  0.4716
 2675SOL    HW219662   3.140   1.894   2.869 -0.6395  1.1265  2.8080
 2676SOL     OW19663   1.711   0.606   4.559  0.6787  0.2238  0.3969
 2676SOL    HW119664   1.681   0.684   4.512  0.7890 -0.4457 -0.7674
 2676SOL    HW219665   1.670   0.628   4.643 -1.6044 -2.3230 -0.0415
 2677SOL     OW19666   2.737   2.856  14.721  0.0752 -0.3181 -0.0619
 2677SOL    HW119667   2.721   2.941  14.681  1.2226 -0.6623 -1.2737
 2677SOL    HW219668   2.781   2.819  14.645 -1.3763 -0.7821 -0.6822
 2678SOL     OW19669   2.610   3.935   4.604 -0.1378 -0.4306 -0.3942
 2678SOL    HW119670   2.606   3.984   4.522 -0.0453  0.6083  0.2187
 2678SOL    HW219671   2.520   3.914   4.630 -0.5599  0.1695 -1.3672
 2679SOL     OW19672   1.336   0.191  10.901  0.5550 -0.6288 -0.1773
 2679SOL    HW119673   1.262   0.170  10.843 -0.8556  1.2363  0.9808
 2679SOL    HW219674   1.378   0.105  10.902 -0.3036 -1.0579 -1.0035
 2680SOL     OW19675   2.303   0.045   3.612 -0.5561 -0.1731 -0.2382
 2680SOL    HW119676   2.378   0.025   3.669 -0.6126 -0.2494 -0.1910
 2680SOL    HW219677   2.225   0.050   3.667 -0.6957  1.6146 -0.6032
 2681SOL     OW19678   2.382   2.538   7.676  0.5317  0.0473  0.1950
 2681SOL    HW119679   2.442   2.529   7.751  0.1452  0.6766  0.5781
 2681SOL    HW219680   2.296   2.552   7.717  1.3177 -0.0103  1.8786
 2682SOL     OW19681   0.499   0.037   7.128  0.2085  0.4084  0.6718
 2682SOL    HW119682   0.512   0.110   7.067  1.1473 -0.8026 -0.5671
 2682SOL    HW219683   0.471   0.076   7.211  1.0088 -2.2519  2.1999
 2683SOL     OW19684   2.220   2.660  13.496  0.3674  0.0200 -0.1001
 2683SOL    HW119685   2.276   2.737  13.482  0.7703 -0.3119 -0.2971
 2683SOL    HW219686   2.148   2.671  13.433 -1.1600 -0.1285  1.6216
 2684SOL     OW19687   3.463   4.095   7.508  0.4096 -0.5937 -0.4136
 2684SOL    HW119688   3.501   4.055   7.430  1.4535  1.7067 -1.0718
 2684SOL    HW219689   3.428   4.017   7.551 -0.5514  1.3291  2.3181
 2685SOL     OW19690   1.440   1.953   2.022 -0.1109 -0.3537 -0.1355
 2685SOL    HW119691   1.441   1.986   1.932 -0.0810  0.3248  0.1089
 2685SOL    HW219692   1.475   1.865   2.018  2.3604  0.6414 -0.1602
 2686SOL     OW19693   3.946   1.090   3.037 -0.1545  0.4252 -0.2594
 2686SOL    HW119694   3.911   1.001   3.045  0.6353  0.0263 -1.2516
 2686SOL    HW219695   3.970   1.087   2.944  1.8780  0.4432  0.2719
 2687SOL     OW19696   0.069   2.592   7.350 -0.1770 -0.6869 -0.2494
 2687SOL    HW119697   4.737   2.647   7.317 -0.5120 -1.4275 -0.7492
 2687SOL    HW219698   0.032   2.505   7.335  0.2798 -1.3221  2.2280
 2688SOL     OW19699   4.536   1.771  11.696  0.4090 -0.0347 -0.3649
 2688SOL    HW119700   4.532   1.702  11.630 -2.0604 -0.2743  0.0166
 2688SOL    HW219701   4.629   1.774  11.719  0.0030  3.6223  0.8588
 2689SOL     OW19702   1.129   0.734   2.814  0.8800 -0.0239 -1.0002
 2689SOL    HW119703   1.124   0.641   2.792 -2.7483 -0.5424  1.9490
 2689SOL    HW219704   1.213   0.741   2.860  1.2762  0.4964 -1.8065
 2690SOL     OW19705   1.776   0.322   8.717  0.5827  0.4807  0.2250
 2690SOL    HW119706   1.850   0.363   8.672  1.8890  0.6043  2.4727
 2690SOL    HW219707   1.821   0.289   8.795  1.6235 -0.9224 -0.9720
 2691SOL     OW19708   4.172   1.873   1.105  0.2411  0.4079  0.1163
 2691SOL    HW119709   4.226   1.849   1.180  2.2174  2.0345 -0.7697
 2691SOL    HW219710   4.115   1.942   1.139 -1.5710  0.4691 -2.9829
 2692SOL     OW19711   2.554   0.483  14.357  0.1916  0.3201  0.3361
 2692SOL    HW119712   2.477   0.470  14.302  0.6151 -1.6284  0.2043
 2692SOL    HW219713   2.572   0.577  14.345 -2.1186  0.5152 -1.5433
 2693SOL     OW19714   2.905   0.552   8.741  0.2575 -0.3932 -0.1921
 2693SOL    HW119715   2.989   0.567   8.785 -0.3008 -1.0677  1.1004
 2693SOL    HW219716   2.904   0.456   8.740 -1.0653 -0.3729 -0.9710
 2694SOL     OW19717   2.674   2.234   4.883 -0.6110 -0.0135  0.0656
 2694SOL    HW119718   2.769   2.223   4.878 -0.4482  2.0717 -1.1172
 2694SOL    HW219719   2.666   2.292   4.959 -1.2359  0.2879 -0.2346
 2695SOL     OW19720   4.295   3.385   6.707  0.0445 -0.2962 -0.0309
 2695SOL    HW119721   4.355   3.316   6.736  0.1591 -0.7247 -1.2926
 2695SOL    HW219722   4.300   3.381   6.611 -2.3160 -1.3518 -0.1260
 2696SOL     OW19723   4.565   2.474   9.046  0.5923  0.5307 -0.6024
 2696SOL    HW119724   4.601   2.474   8.957 -0.7700  2.2682 -1.1556
 2696SOL    HW219725   4.489   2.529   9.030 -0.8275 -0.6638  2.0421
 2697SOL     OW19726   1.451   0.553  16.273  0.0118  0.2588 -0.7860
 2697SOL    HW119727   1.539   0.516  16.282 -0.7324 -1.0066  1.3522
 2697SOL    HW219728   1.482   0.637  16.239 -0.3001  0.4219 -0.6754
 2698SOL     OW19729   0.203   3.667  17.026  0.2054 -0.4356 -0.5987
 2698SOL    HW119730   0.203   3.653  17.120  3.2073  1.5791 -0.3060
 2698SOL    HW219731   0.254   3.743  16.999 -0.2175  0.3537  0.8733
 2699SOL     OW19732   4.062   4.085   4.187 -0.4284 -0.3390  0.2876
 2699SOL    HW119733   4.034   4.051   4.102 -1.9917 -0.4695  0.8413
 2699SOL    HW219734   4.057   4.179   4.172  0.2051 -0.7054 -2.2135
 2700SOL     OW19735   3.300   4.289  17.294  0.1249 -0.0055  0.1539
 2700SOL    HW119736   3.265   4.220  17.237 -0.7324 -0.0513  0.7315
 2700SOL    HW219737   3.380   4.261  17.338  1.5149 -0.3559 -2.6248
 2701SOL     OW19738   1.511   0.223   2.177  0.0712 -0.3540 -0.4108
 2701SOL    HW119739   1.582   0.160   2.191 -1.3447 -2.2062 -1.6093
 2701SOL    HW219740   1.493   0.260   2.264 -1.1304  0.7059 -1.1050
 2702SOL     OW19741   3.211   2.002   5.150  1.0150  0.6772  0.0232
 2702SOL    HW119742   3.303   1.994   5.173  0.7008  0.3821  1.1518
 2702SOL    HW219743   3.172   2.028   5.233  0.5111  0.3774 -0.1173
 2703SOL     OW19744   3.233   0.687   4.148  0.3696  0.2013  0.4389
 2703SOL    HW119745   3.140   0.691   4.125  0.0431 -1.2031  1.4649
 2703SOL    HW219746   3.239   0.648   4.236 -0.2101  0.9239  0.7942
 2704SOL     OW19747   3.354   1.154   7.239 -0.5091 -0.2737  0.2511
 2704SOL    HW119748   3.414   1.227   7.256  0.1445 -0.8298  0.3507
 2704SOL    HW219749   3.386   1.135   7.150  0.0295  1.9777 -0.0368
 2705SOL     OW19750   1.998   3.186   3.198 -0.1681  0.5729  0.0742
 2705SOL    HW119751   2.088   3.170   3.226 -0.1156  1.4260  0.3933
 2705SOL    HW219752   2.009   3.207   3.106  1.0937  0.3364  0.1701
 2706SOL     OW19753   0.227   1.719  10.018 -0.1097  0.1847  0.4867
 2706SOL    HW119754   0.322   1.732  10.023 -0.0765 -0.8653  2.9879
 2706SOL    HW219755   0.216   1.629   9.988 -0.7755  0.1331  0.8619
 2707SOL     OW19756   2.732   0.194   6.948  0.0176  0.1110 -0.3374
 2707SOL    HW119757   2.675   0.269   6.929 -0.6785  0.3688  2.6701
 2707SOL    HW219758   2.808   0.252   6.961  0.0397  0.4851 -2.1029
 2708SOL     OW19759   2.295   3.117  15.746  0.5364  0.8733  0.7561
 2708SOL    HW119760   2.226   3.073  15.797 -0.8944  1.8757 -0.3212
 2708SOL    HW219761   2.333   3.162  15.821  0.7051  1.8347  0.0848
 2709SOL     OW19762   0.444   3.116  10.035  0.3704 -0.6067 -0.7345
 2709SOL    HW119763   0.537   3.120  10.014  0.4883  1.0396  0.0747
 2709SOL    HW219764   0.423   3.023  10.037 -0.7356 -0.3916 -1.9494
 2710SOL     OW19765   3.236   3.365   2.813 -0.5032  0.9435  0.7497
 2710SOL    HW119766   3.291   3.311   2.757 -0.6386  0.8697  0.6885
 2710SOL    HW219767   3.291   3.440   2.835 -0.3082  1.6175 -1.9997
 2711SOL     OW19768   0.275   0.196   2.908  0.1031  0.1177  0.0566
 2711SOL    HW119769   0.241   0.218   2.822  4.6449 -0.1553 -1.7789
 2711SOL    HW219770   0.368   0.205   2.886  0.1935  1.0636  0.8026
 2712SOL     OW19771   2.337   1.974   3.194  0.4542  0.1705 -0.2354
 2712SOL    HW119772   2.281   1.910   3.150  0.5498  1.6742 -2.5335
 2712SOL    HW219773   2.412   1.924   3.226 -0.6903 -1.5115 -0.1984
 2713SOL     OW19774   4.532   4.536   2.118  0.0405  0.1700 -0.5921
 2713SOL    HW119775   4.561   4.558   2.206  0.6782 -3.4869  0.0980
 2713SOL    HW219776   4.509   4.622   2.084  0.3172  0.4119 -0.1585
 2714SOL     OW19777   1.239   0.428   2.969 -0.0779 -0.0160 -0.5006
 2714SOL    HW119778   1.245   0.498   3.034 -1.7888 -0.8026  0.4822
 2714SOL    HW219779   1.257   0.350   3.022 -1.0868  1.0898  1.4572
 2715SOL     OW19780   0.017   4.179   4.899 -0.1222 -0.2472 -0.0625
 2715SOL    HW119781   4.695   4.119   4.856  0.3071 -1.7410  1.4427
 2715SOL    HW219782   0.044   4.140   4.982  2.7717 -0.1725 -0.9589
 2716SOL     OW19783   0.569   0.948   2.159  0.5117  0.5058 -0.7426
 2716SOL    HW119784   0.554   0.886   2.088 -0.4132 -0.6197  0.4186
 2716SOL    HW219785   0.569   1.029   2.110  1.1623  1.2700  0.5220
 2717SOL     OW19786   2.250   0.367   6.497  0.5995  0.0849  0.6122
 2717SOL    HW119787   2.170   0.316   6.510 -0.0142  1.6556  3.2471
 2717SOL    HW219788   2.314   0.296   6.500  1.0548  0.4160 -1.5082
 2718SOL     OW19789   1.061   2.854   5.505  0.2347  0.0454 -0.5576
 2718SOL    HW119790   1.036   2.945   5.492 -1.5528 -0.3520  0.1355
 2718SOL    HW219791   0.988   2.802   5.471  0.7006  0.0700 -1.6173
 2719SOL     OW19792   2.083   3.485   5.971  0.2927 -0.3545  0.5118
 2719SOL    HW119793   2.000   3.525   5.997  0.6264  1.0642 -0.5933
 2719SOL    HW219794   2.140   3.562   5.978  2.0074 -1.7493  1.7353
 2720SOL     OW19795   2.811   0.060   9.755 -0.7035 -0.7013  0.4243
 2720SOL    HW119796   2.785   4.720   9.804 -1.5188 -1.0458 -0.5741
 2720SOL    HW219797   2.733   0.115   9.752 -0.4460 -0.1975  2.5806
 2721SOL     OW19798   2.117   0.278   7.057  0.0363 -0.0354 -0.1352
 2721SOL    HW119799   2.148   0.254   7.144 -2.4243  1.6024  1.1806
 2721SOL    HW219800   2.068   0.356   7.083  1.5701  1.2873 -1.1832
 2722SOL     OW19801   2.987   0.446   2.816  0.2370 -0.1139 -0.1940
 2722SOL    HW119802   2.928   0.390   2.867 -0.1575  0.7809  0.3344
 2722SOL    HW219803   3.047   0.390   2.766 -0.4451  0.4981 -1.6796
 2723SOL     OW19804   3.621   1.397   3.087 -0.2139 -0.4359  0.2189
 2723SOL    HW119805   3.702   1.399   3.138 -1.0795  1.1933  1.5541
 2723SOL    HW219806   3.666   1.387   3.003  1.0700  2.4171  0.5578
 2724SOL     OW19807   0.750   0.798   4.401 -0.6895  0.3398 -0.2707
 2724SOL    HW119808   0.746   0.866   4.334  2.4751  1.4160  0.6655
 2724SOL    HW219809   0.748   0.847   4.484  1.0877  1.6539 -1.0119
 2725SOL     OW19810   1.291   0.247  14.535 -0.3182 -0.2745  0.3822
 2725SOL    HW119811   1.376   0.207  14.516 -1.1133 -0.8878 -1.8888
 2725SOL    HW219812   1.246   0.176  14.581 -1.4209  0.1089 -0.1330
 2726SOL     OW19813   3.277   3.171   1.910 -0.3158  0.6740 -0.3684
 2726SOL    HW119814   3.191   3.180   1.869 -0.8783 -0.0493  0.6698
 2726SOL    HW219815   3.315   3.097   1.863 -0.2701  0.0799  0.5954
 2727SOL     OW19816   2.922   4.383   3.829 -0.1104  0.1351  0.0338
 2727SOL    HW119817   2.982   4.374   3.755  0.8108 -1.0278  0.9227
 2727SOL    HW219818   2.901   4.293   3.853 -1.3987  0.1605 -0.9719
 2728SOL     OW19819   0.012   4.524   3.869  0.1647  0.1018  0.0773
 2728SOL    HW119820   0.091   4.474   3.849 -3.0935 -4.0303 -2.5146
 2728SOL    HW219821   4.724   4.496   3.956  0.2491 -0.5445 -0.1071
 2729SOL     OW19822   4.392   1.367   2.884 -0.0575  0.3663  0.4474
 2729SOL    HW119823   4.315   1.312   2.896 -0.9751  2.0784  2.5241
 2729SOL    HW219824   4.405   1.363   2.790 -0.3462  0.6467  0.3938
 2730SOL     OW19825   0.724   2.454   7.352 -0.0763  0.1368 -0.2569
 2730SOL    HW119826   0.728   2.371   7.398  1.4352  0.8513  0.8898
 2730SOL    HW219827   0.778   2.445   7.273  4.0695  4.3415  2.1584
 2731SOL     OW19828   4.023   1.503   0.016  0.4029  0.0840 -0.0806
 2731SOL    HW119829   3.928   1.513   0.023  0.2180 -1.9176  0.3494
 2731SOL    HW219830   4.034   1.532  17.679 -1.7471  0.7247 -0.1478
 2732SOL     OW19831   0.406   2.998   0.622 -0.6990  0.9888 -0.4480
 2732SOL    HW119832   0.349   2.981   0.546  0.7029 -0.0244 -1.2723
 2732SOL    HW219833   0.442   3.084   0.602 -1.4542  1.7697  1.5821
 2733SOL     OW19834   2.490   3.470   1.372 -0.0976  0.1832  0.2749
 2733SOL    HW119835   2.534   3.546   1.408  1.7965 -0.8178  0.0563
 2733SOL    HW219836   2.402   3.465   1.410  0.5349  1.4297  1.8885
 2734SOL     OW19837   2.779   1.371   2.410 -0.0972 -0.3164  0.6157
 2734SOL    HW119838   2.687   1.398   2.417  0.1280 -0.2611  3.3211
 2734SOL    HW219839   2.772   1.294   2.353 -0.9679  0.7158 -0.6540
 2735SOL     OW19840   0.404   0.370   4.087 -0.2189  0.2234 -0.2838
 2735SOL    HW119841   0.362   0.302   4.034  0.1675 -2.3063  2.5906
 2735SOL    HW219842   0.324   0.401   4.130  0.2129 -0.0237  0.6932
 2736SOL     OW19843   3.771   0.224   5.132  0.2614 -0.1145  0.2701
 2736SOL    HW119844   3.714   0.208   5.207 -1.0112  2.7271 -0.1022
 2736SOL    HW219845   3.738   0.305   5.095 -0.6655 -0.2261  0.8606
 2737SOL     OW19846   1.926   4.214   6.307 -0.7193 -0.4663  0.0045
 2737SOL    HW119847   1.870   4.240   6.235  0.9559  0.8842 -0.8121
 2737SOL    HW219848   2.008   4.259   6.285 -2.1840  2.5205  0.7057
 2738SOL     OW19849   3.056   4.013   3.512  0.2390  0.2368 -0.1317
 2738SOL    HW119850   3.095   4.067   3.580  0.3530  0.8461 -0.6740
 2738SOL    HW219851   3.011   3.948   3.566  0.7237  0.1792  0.1980
 2739SOL     OW19852   1.217   3.617   3.811  0.0040  0.3741  0.0744
 2739SOL    HW119853   1.223   3.533   3.858  0.9180  0.7646  0.6471
 2739SOL    HW219854   1.302   3.651   3.839  0.6900 -1.4693  0.2626
 2740SOL     OW19855   2.033   3.599   7.286 -1.1261 -0.3050  0.2312
 2740SOL    HW119856   2.106   3.642   7.241 -0.1433 -0.5626  1.5716
 2740SOL    HW219857   2.062   3.508   7.291 -4.9734 -1.4441  1.5208
 2741SOL     OW19858   1.010   4.433   7.041  0.2020  0.2329  0.4254
 2741SOL    HW119859   0.933   4.453   7.094  0.3885  4.3241 -0.8473
 2741SOL    HW219860   0.969   4.396   6.962 -0.8826  0.5042  0.8631
 2742SOL     OW19861   1.122   0.757   7.982  0.1780 -0.1181  0.5241
 2742SOL    HW119862   1.087   0.813   8.051 -1.2901  1.4845 -1.5182
 2742SOL    HW219863   1.154   0.687   8.040  2.6657  1.2699  0.7728
 2743SOL     OW19864   0.823   1.819  16.797 -0.0972 -0.5689 -0.0473
 2743SOL    HW119865   0.753   1.878  16.769  1.6589  1.7308  0.3036
 2743SOL    HW219866   0.850   1.860  16.880  0.1885  0.9094 -0.8613
 2744SOL     OW19867   3.388   4.559   5.383 -0.6662  0.1102  0.0268
 2744SOL    HW119868   3.314   4.586   5.437  1.1386  0.2845  2.4176
 2744SOL    HW219869   3.455   4.613   5.425 -0.4214 -0.7668  0.7704
 2745SOL     OW19870   4.182   3.336   1.225  0.0097  0.6502  0.0244
 2745SOL    HW119871   4.137   3.347   1.308  0.8343 -0.5289  0.6315
 2745SOL    HW219872   4.127   3.269   1.184  1.2793 -0.9686  0.9813
 2746SOL     OW19873   0.888   4.416   3.767  0.2192  0.0791 -0.0330
 2746SOL    HW119874   0.802   4.376   3.777  1.0843 -1.8169  0.0019
 2746SOL    HW219875   0.942   4.348   3.807  1.2803  1.7531  1.3592
 2747SOL     OW19876   0.645   1.755   2.887 -0.3869 -0.0946  0.0698
 2747SOL    HW119877   0.635   1.674   2.838  2.0067 -0.0627 -0.4565
 2747SOL    HW219878   0.592   1.819   2.839  1.3447 -0.0305 -1.7869
 2748SOL     OW19879   2.983   3.986  16.961  0.2457  0.0025 -0.0322
 2748SOL    HW119880   2.920   3.914  16.959 -0.2211  0.4270 -1.0642
 2748SOL    HW219881   3.053   3.959  16.902  1.6022 -3.1112  3.0684
 2749SOL     OW19882   4.716   3.284  15.149  0.3137 -0.1541  0.0820
 2749SOL    HW119883   4.631   3.240  15.142  0.1909  0.0573  0.2343
 2749SOL    HW219884   4.695   3.377  15.146  1.3937  0.0833  0.0168
 2750SOL     OW19885   2.367   0.848   2.202  0.0863  0.9378  0.8218
 2750SOL    HW119886   2.331   0.936   2.214 -0.1119  1.1440 -1.4160
 2750SOL    HW219887   2.376   0.821   2.293  0.1008 -0.0682  0.5159
 2751SOL     OW19888   2.659   4.579   8.040  0.9779  0.0511  0.2982
 2751SOL    HW119889   2.728   4.531   7.995  0.2285 -1.2929  0.5808
 2751SOL    HW219890   2.610   4.620   7.969  1.2967 -2.7051 -1.4887
 2752SOL     OW19891   1.671   2.115   2.897 -0.1597  0.0515 -0.5885
 2752SOL    HW119892   1.754   2.127   2.852  0.2485 -2.8705 -0.6385
 2752SOL    HW219893   1.694   2.034   2.943 -0.3855 -0.6599 -1.7287
 2753SOL     OW19894   1.924   0.756   7.286 -0.3076  0.4199  0.1540
 2753SOL    HW119895   2.000   0.800   7.324 -0.8097  0.1200  1.5112
 2753SOL    HW219896   1.877   0.834   7.256 -1.4467 -0.3914 -0.1860
 2754SOL     OW19897   2.375   1.651   9.435 -0.0765  0.7966 -0.4674
 2754SOL    HW119898   2.321   1.636   9.357  0.0285 -1.3172 -0.1513
 2754SOL    HW219899   2.462   1.669   9.400 -0.8657  0.6266 -2.5266
 2755SOL     OW19900   0.643   0.859  13.418 -0.1892  0.4012  0.0491
 2755SOL    HW119901   0.623   0.837  13.327  0.2772 -1.1202  0.3160
 2755SOL    HW219902   0.623   0.953  13.419 -1.5429  0.1267 -1.5239
 2756SOL     OW19903   3.423   3.146   6.944 -0.3585  0.0910 -0.2291
 2756SOL    HW119904   3.393   3.128   6.855  0.9269  0.1491 -0.6788
 2756SOL    HW219905   3.351   3.096   6.981 -0.3385 -0.0955 -0.4472
 2757SOL     OW19906   4.379   2.593   1.699  0.3145  0.2332 -0.2182
 2757SOL    HW119907   4.465   2.617   1.667  0.1055 -2.1600 -2.6392
 2757SOL    HW219908   4.343   2.542   1.626  0.1813 -0.3128  0.2200
 2758SOL     OW19909   3.709   1.355  15.699 -0.3588  0.1526  0.1323
 2758SOL    HW119910   3.786   1.334  15.646  0.5764  0.0744  1.5396
 2758SOL    HW219911   3.637   1.344  15.636 -0.0792  1.6511 -0.4492
 2759SOL     OW19912   3.912   1.660  14.943 -0.0064 -0.4699 -0.3627
 2759SOL    HW119913   3.971   1.704  14.881 -1.4644  1.7548 -0.2131
 2759SOL    HW219914   3.968   1.586  14.963 -0.8939 -1.4074 -1.3085
 2760SOL     OW19915   2.016   0.944   1.019  0.4783 -0.6662 -0.4367
 2760SOL    HW119916   2.042   1.032   1.045  1.1848 -0.9435 -0.2015
 2760SOL    HW219917   1.922   0.957   1.005  0.0420 -2.3878  0.8681
 2761SOL     OW19918   1.178   0.249   1.810 -0.3360  0.0259 -0.3135
 2761SOL    HW119919   1.221   0.296   1.881 -0.3506 -1.2463  0.5379
 2761SOL    HW219920   1.222   0.283   1.732 -0.1138  1.5648  0.4908
 2762SOL     OW19921   2.079   1.069   8.659  0.0039  0.3236 -0.3553
 2762SOL    HW119922   2.045   1.133   8.596 -0.3970 -1.9900 -2.4550
 2762SOL    HW219923   2.010   1.003   8.654  0.9167 -0.5948 -0.7779
 2763SOL     OW19924   3.480   2.214   2.409  0.4527  0.5397 -0.2447
 2763SOL    HW119925   3.551   2.156   2.434 -0.2535 -0.8656 -1.4540
 2763SOL    HW219926   3.503   2.231   2.317  1.4234 -1.5323 -0.3573
 2764SOL     OW19927   1.494   2.654   1.069 -0.2772  0.2740  0.0622
 2764SOL    HW119928   1.424   2.692   1.122 -2.5220  0.4809 -3.0619
 2764SOL    HW219929   1.462   2.683   0.984  0.3549 -3.3366 -1.4093
 2765SOL     OW19930   0.987   1.026   4.360  0.1254 -1.0014  0.6189
 2765SOL    HW119931   0.953   1.100   4.410 -0.6451 -0.6091 -0.4893
 2765SOL    HW219932   0.919   1.020   4.293  0.6304  1.6060 -0.1106
 2766SOL     OW19933   2.255   3.385   1.583  0.2887  0.1179 -0.5475
 2766SOL    HW119934   2.172   3.411   1.621  0.9618 -0.6143  1.4005
 2766SOL    HW219935   2.228   3.308   1.533 -1.1321  0.3495 -0.1343
 2767SOL     OW19936   2.867   2.403   3.452  0.5032  0.1411  0.2344
 2767SOL    HW119937   2.803   2.360   3.509 -1.5609 -0.6189 -2.6394
 2767SOL    HW219938   2.892   2.478   3.506 -1.0533  1.3155 -0.6767
 2768SOL     OW19939   2.892   1.985   6.678 -0.1189 -0.1380 -0.5584
 2768SOL    HW119940   2.884   1.977   6.773  1.7326  1.1797 -0.2872
 2768SOL    HW219941   2.819   2.046   6.665  0.7680  1.2095  0.7423
 2769SOL     OW19942   0.011   2.166   3.945 -0.1408  0.0645 -0.2292
 2769SOL    HW119943   4.714   2.198   4.028 -1.1306 -1.1770 -0.1785
 2769SOL    HW219944   0.037   2.077   3.969 -0.6515  0.1475  0.6237
 2770SOL     OW19945   2.095   2.095   7.064 -0.1116  0.0117  0.5692
 2770SOL    HW119946   2.093   2.157   6.991 -3.7891 -0.9215 -0.1119
 2770SOL    HW219947   2.127   2.145   7.140 -1.4202  0.3158  0.9347
 2771SOL     OW19948   2.858   3.871   6.548  0.2784  0.1009  0.6433
 2771SOL    HW119949   2.935   3.875   6.605  0.8226 -0.6450 -0.0416
 2771SOL    HW219950   2.825   3.960   6.557  1.5638  0.5432  0.9253
 2772SOL     OW19951   1.470   2.811   3.375  0.2663  0.0391  0.5686
 2772SOL    HW119952   1.445   2.732   3.327 -1.2775  2.2491 -2.2354
 2772SOL    HW219953   1.509   2.780   3.457  1.9034 -1.3396 -0.7258
 2773SOL     OW19954   0.693   1.568   9.088  0.2136  0.1449  0.0549
 2773SOL    HW119955   0.723   1.488   9.044 -1.2703 -0.5120  0.2270
 2773SOL    HW219956   0.601   1.546   9.071 -0.1292  1.0509  0.7626
 2774SOL     OW19957   1.458   2.959  16.352  0.8993  0.8113 -0.1460
 2774SOL    HW119958   1.552   2.957  16.369  0.3650 -0.8829  2.6560
 2774SOL    HW219959   1.462   2.963  16.257  0.4520  1.2011 -0.1462
 2775SOL     OW19960   0.842   3.252   4.306 -0.6120  0.6378  0.1450
 2775SOL    HW119961   0.937   3.242   4.299 -0.6795  0.7862 -0.9817
 2775SOL    HW219962   0.816   3.189   4.373  0.4751 -1.6526 -1.5525
 2776SOL     OW19963   3.425   2.719  16.646 -0.1161 -0.3708 -0.9337
 2776SOL    HW119964   3.351   2.779  16.645 -0.1405 -0.4123 -1.5053
 2776SOL    HW219965   3.454   2.718  16.555  2.2808 -1.4710 -0.1691
 2777SOL     OW19966   3.555   3.538   4.749 -0.3127  0.3889 -0.1551
 2777SOL    HW119967   3.646   3.564   4.736  0.2237 -1.0812  0.7059
 2777SOL    HW219968   3.514   3.597   4.685  1.8754  1.2524 -0.7635
 2778SOL     OW19969   2.703   2.561   4.784 -0.2661 -0.2799  0.2258
 2778SOL    HW119970   2.722   2.487   4.726 -1.4424  0.4145 -1.0434
 2778SOL    HW219971   2.695   2.530   4.874  0.6571 -0.3060  0.3011
 2779SOL     OW19972   2.310   3.858   3.303 -0.0170  0.4797 -0.2325
 2779SOL    HW119973   2.381   3.795   3.292  0.6200  0.5514  3.4569
 2779SOL    HW219974   2.266   3.838   3.221 -2.1066  1.4910  0.6283
 2780SOL     OW19975   1.525   1.683  10.242  0.1207 -0.3100 -0.2596
 2780SOL    HW119976   1.455   1.701  10.180 -2.6476  0.1755  2.9880
 2780SOL    HW219977   1.489   1.600  10.274 -1.2241  0.8245  1.1763
 2781SOL     OW19978   4.255   3.457   8.730  0.0110  0.4211  0.3449
 2781SOL    HW119979   4.312   3.385   8.756  0.1830  0.2914 -0.4108
 2781SOL    HW219980   4.276   3.464   8.637  0.9488 -2.8121  0.3238
 2782SOL     OW19981   2.366   0.188   5.685  0.0086  0.1191  0.1407
 2782SOL    HW119982   2.382   0.213   5.776  1.5830 -0.9500  0.1602
 2782SOL    HW219983   2.430   0.242   5.637  0.8393  0.2463  1.4030
 2783SOL     OW19984   1.521   1.122  10.780 -0.2481  0.1534  0.0226
 2783SOL    HW119985   1.580   1.119  10.855  1.0288  0.7665 -0.9596
 2783SOL    HW219986   1.513   1.030  10.757  1.6464  0.0620 -0.2625
 2784SOL     OW19987   2.824   2.057  10.205  0.0850  0.4002  0.2726
 2784SOL    HW119988   2.852   1.976  10.248  0.6201 -0.2182 -1.2418
 2784SOL    HW219989   2.779   2.100  10.278  1.5273 -0.0291  1.4053
 2785SOL     OW19990   2.876   0.677  16.679  0.2574  0.2567 -0.5189
 2785SOL    HW119991   2.881   0.582  16.670 -0.2728  0.4125 -2.4619
 2785SOL    HW219992   2.783   0.687  16.695  0.7024  2.9289  0.3844
 2786SOL     OW19993   4.653   3.488   0.286  0.6289 -0.2928  0.7287
 2786SOL    HW119994   4.612   3.464   0.369 -1.9971  0.8858 -0.2141
 2786SOL    HW219995   4.681   3.408   0.241  2.7803  0.4167  0.8135
 2787SOL     OW19996   3.898   4.305   4.408 -0.1139  0.5011 -0.4150
 2787SOL    HW119997   3.942   4.390   4.404 -0.4631  0.8582  3.4347
 2787SOL    HW219998   3.819   4.309   4.353 -0.5127  1.1294  0.2068
 2788SOL     OW19999   3.639   3.682   5.048  0.2298 -0.8060  0.5249
 2788SOL    HW120000   3.730   3.712   5.049 -0.3054  0.9742 -2.4248
 2788SOL    HW220001   3.579   3.753   5.068  1.2952 -0.0531  1.0538
 2789SOL     OW20002   4.563   4.720   7.210 -0.1009  0.3248  0.1570
 2789SOL    HW120003   4.607   4.646   7.168  0.8539  1.2017 -0.3942
 2789SOL    HW220004   4.522   0.028   7.137  2.2962  1.8336 -0.2543
 2790SOL     OW20005   0.215   2.339  17.664 -0.1912 -0.3291 -0.0617
 2790SOL    HW120006   0.121   2.329  17.677 -0.3428 -0.9026 -1.5715
 2790SOL    HW220007   0.207   2.312  17.572  0.6429  0.6975 -0.4421
 2791SOL     OW20008   2.228   3.680   2.079  0.5043 -0.2798 -0.3589
 2791SOL    HW120009   2.282   3.611   2.118  0.2315 -1.2298 -1.6671
 2791SOL    HW220010   2.145   3.642   2.108  1.2261 -0.5955  1.3028
 2792SOL     OW20011   0.967   2.375  11.628  0.4997  0.0083  0.3540
 2792SOL    HW120012   1.012   2.460  11.629  0.2373  0.1612 -0.9639
 2792SOL    HW220013   0.882   2.404  11.595  0.1695 -0.4560  0.7842
 2793SOL     OW20014   4.141   4.509   5.032 -0.2107  0.3213 -0.5225
 2793SOL    HW120015   4.140   4.578   5.098 -1.1812 -0.8742  0.7104
 2793SOL    HW220016   4.223   4.465   5.054 -1.5099 -1.7724  0.1180
 2794SOL     OW20017   3.212   3.315  10.792 -0.8431  0.2205  0.5361
 2794SOL    HW120018   3.150   3.367  10.844  0.9297  1.2184  1.6473
 2794SOL    HW220019   3.271   3.288  10.863  0.0167  0.3961 -0.1163
 2795SOL     OW20020   0.596   0.639   7.719 -0.5386 -0.2109 -0.3179
 2795SOL    HW120021   0.612   0.734   7.719 -1.5641 -0.0459  0.8508
 2795SOL    HW220022   0.515   0.647   7.769 -0.9759 -1.0738 -0.8885
 2796SOL     OW20023   3.637   0.424   2.334  0.1130 -0.6557 -0.1638
 2796SOL    HW120024   3.696   0.497   2.354 -0.4957 -0.4450  0.8464
 2796SOL    HW220025   3.557   0.473   2.318  1.0602  0.8423 -0.3380
 2797SOL     OW20026   1.295   3.564   7.075  0.1268 -0.1654  0.1411
 2797SOL    HW120027   1.381   3.570   7.117  0.1949  0.2494 -0.0578
 2797SOL    HW220028   1.295   3.485   7.020 -0.1788 -0.6758  0.8792
 2798SOL     OW20029   0.840   0.235   4.225  0.0123  0.1572  0.2934
 2798SOL    HW120030   0.750   0.259   4.245 -0.3472 -0.7425 -0.2585
 2798SOL    HW220031   0.873   0.204   4.310  1.6408 -1.5087 -0.9230
 2799SOL     OW20032   3.171   2.636   1.751  0.4006 -0.0751 -0.4540
 2799SOL    HW120033   3.194   2.663   1.840 -2.2774  1.3069 -0.2101
 2799SOL    HW220034   3.190   2.543   1.762 -1.1153 -0.0792  2.2075
 2800SOL     OW20035   0.381   4.122   8.011  0.6257 -0.1319  0.2572
 2800SOL    HW120036   0.447   4.065   7.971  0.7542  0.2380 -0.0613
 2800SOL    HW220037   0.339   4.147   7.928 -1.3500 -0.2505  1.2260
 2801SOL     OW20038   4.118   1.829   4.731  0.3651  0.0387 -0.3843
 2801SOL    HW120039   4.069   1.781   4.664 -2.2473 -0.0327  1.5725
 2801SOL    HW220040   4.054   1.898   4.753 -0.9601 -1.3615  0.1336
 2802SOL     OW20041   3.871   2.061   8.355 -0.4371  0.5993 -0.6731
 2802SOL    HW120042   3.908   1.973   8.347 -0.5155  0.5231 -0.1754
 2802SOL    HW220043   3.860   2.060   8.450  2.4100 -0.8801 -0.3798
 2803SOL     OW20044   1.005   3.748  13.397  0.4249  0.5486  0.0023
 2803SOL    HW120045   0.921   3.725  13.437 -0.3040  1.8798 -0.7342
 2803SOL    HW220046   1.074   3.717  13.455  3.2354  3.5664 -1.6850
 2804SOL     OW20047   4.154   3.281  16.489 -0.3086 -0.0456  0.4349
 2804SOL    HW120048   4.245   3.251  16.483 -1.3867 -2.7496 -2.8937
 2804SOL    HW220049   4.154   3.333  16.569  0.5009  0.2911  0.2197
 2805SOL     OW20050   1.855   4.594   7.800 -0.8038 -0.5818  0.4037
 2805SOL    HW120051   1.770   4.587   7.759 -0.3258 -0.7047 -0.5651
 2805SOL    HW220052   1.882   4.503   7.808 -0.6526 -0.4139  1.8580
 2806SOL     OW20053   0.539   0.564  17.438 -0.6125 -0.1849 -0.0092
 2806SOL    HW120054   0.614   0.508  17.420  0.1097  1.3735 -1.7960
 2806SOL    HW220055   0.476   0.510  17.486 -2.1664  0.3228 -1.4952
 2807SOL     OW20056   0.289   3.353   0.305  0.1460 -0.4974  0.2041
 2807SOL    HW120057   0.283   3.448   0.315  0.6995 -0.4599  0.1955
 2807SOL    HW220058   0.276   3.315   0.392  0.4551  1.1669  0.9733
 2808SOL     OW20059   4.490   1.781   9.637  0.1747 -0.0957 -0.2201
 2808SOL    HW120060   4.413   1.727   9.622  1.0265 -1.2559 -0.4019
 2808SOL    HW220061   4.500   1.832   9.557  0.3083  0.4787  0.1538
 2809SOL     OW20062   4.424   2.258   9.463 -0.4554  0.7045 -0.1422
 2809SOL    HW120063   4.414   2.351   9.483 -1.7115  0.1450  1.9256
 2809SOL    HW220064   4.454   2.257   9.372  1.6106  3.7986  0.5124
 2810SOL     OW20065   3.676   0.689   7.960  0.2092 -0.1915 -0.1708
 2810SOL    HW120066   3.625   0.760   7.998 -1.0712 -0.9424 -0.5024
 2810SOL    HW220067   3.764   0.724   7.945  0.3037  1.0968  3.4810
 2811SOL     OW20068   0.233   4.293   6.805  0.2490 -0.1669  0.3397
 2811SOL    HW120069   0.294   4.358   6.840 -2.0610  2.5484 -0.6863
 2811SOL    HW220070   0.186   4.346   6.741 -2.5033 -0.6035  2.0181
 2812SOL     OW20071   1.189   1.279  15.023 -0.1535 -0.2748  0.0097
 2812SOL    HW120072   1.171   1.373  15.028  1.7336  0.0891 -0.2946
 2812SOL    HW220073   1.108   1.253  14.977  0.6485 -2.4124 -0.1659
 2813SOL     OW20074   3.818   4.402   6.426  0.0121  0.0232 -0.3509
 2813SOL    HW120075   3.753   4.445   6.371 -0.4710 -1.3409 -0.8381
 2813SOL    HW220076   3.900   4.404   6.376 -0.2932 -0.2624 -0.8703
 2814SOL     OW20077   1.865   0.400   9.617 -0.3486  0.4974 -0.4792
 2814SOL    HW120078   1.785   0.375   9.570  0.3199  0.6570 -1.6865
 2814SOL    HW220079   1.832   0.419   9.705  2.1655 -0.2795  0.6146
 2815SOL     OW20080   2.389   2.336   4.544  0.3752 -0.5216  0.6311
 2815SOL    HW120081   2.390   2.290   4.628 -1.3981  0.4263  1.1675
 2815SOL    HW220082   2.446   2.276   4.495  3.3146  3.4345 -0.7468
 2816SOL     OW20083   0.464   0.151  14.945 -0.3461  0.1497 -0.6154
 2816SOL    HW120084   0.454   0.215  14.875 -0.6367 -0.3825 -1.0668
 2816SOL    HW220085   0.374   0.119  14.951 -0.0002 -0.3297  1.8542
 2817SOL     OW20086   1.633   3.112   6.530  0.0392 -0.1598  0.2366
 2817SOL    HW120087   1.607   3.185   6.474  0.0243 -0.1982  0.1926
 2817SOL    HW220088   1.549   3.076   6.559  0.2787 -1.8029 -1.0849
 2818SOL     OW20089   1.967   1.969   8.101 -0.5859 -0.2113  0.8281
 2818SOL    HW120090   1.914   1.957   8.022 -1.0090 -0.1825  1.1078
 2818SOL    HW220091   2.000   1.883   8.126 -0.9629 -0.5069  0.3194
 2819SOL     OW20092   0.619   1.237  16.441  0.0685  0.4340  0.0618
 2819SOL    HW120093   0.672   1.311  16.411  2.2175 -1.2419 -0.2158
 2819SOL    HW220094   0.617   1.193  16.356  0.0191 -0.5486  0.5661
 2820SOL     OW20095   3.766   3.257   3.155 -0.1997  0.4896 -0.2395
 2820SOL    HW120096   3.822   3.334   3.160 -1.2796  1.2875 -0.4686
 2820SOL    HW220097   3.696   3.294   3.102 -0.9968  1.5307  1.5573
 2821SOL     OW20098   3.851   0.428   6.573  0.1076 -0.1659 -0.2177
 2821SOL    HW120099   3.817   0.417   6.662 -0.6249 -3.0502 -0.8701
 2821SOL    HW220100   3.929   0.481   6.586  1.2180 -1.9451  0.3018
 2822SOL     OW20101   4.436   1.188   3.714  0.1597 -1.0746  0.1207
 2822SOL    HW120102   4.441   1.093   3.713  0.2461 -1.0586 -1.3192
 2822SOL    HW220103   4.516   1.217   3.669 -0.3273 -0.7437 -0.5299
 2823SOL     OW20104   1.898   3.509   3.353 -0.1069  0.3916  0.2101
 2823SOL    HW120105   1.941   3.504   3.438  0.8432 -0.6385 -0.3304
 2823SOL    HW220106   1.854   3.594   3.363  0.3522  0.4075  2.0164
 2824SOL     OW20107   2.195   2.966   0.615  0.1286 -0.8708 -0.1172
 2824SOL    HW120108   2.196   2.870   0.624 -1.2075 -0.6463  2.2847
 2824SOL    HW220109   2.239   2.993   0.695 -1.7862  1.4609  0.1554
 2825SOL     OW20110   0.617   3.674   0.394 -0.3052 -0.3226  0.4199
 2825SOL    HW120111   0.543   3.713   0.441 -0.8762 -0.4227 -0.3906
 2825SOL    HW220112   0.678   3.730   0.442 -2.0916  2.6214 -0.7267
 2826SOL     OW20113   4.057   2.628   1.660  0.6171 -0.3380 -0.1106
 2826SOL    HW120114   4.008   2.687   1.602  2.1969  1.7155  0.6834
 2826SOL    HW220115   4.144   2.648   1.626  0.4824 -0.9455 -0.8355
 2827SOL     OW20116   1.944   2.408   6.684 -0.0863  0.1016  0.3283
 2827SOL    HW120117   2.019   2.455   6.648  0.2967 -1.7660 -1.3162
 2827SOL    HW220118   1.867   2.447   6.644  0.2642  0.8059  0.3396
 2828SOL     OW20119   1.847   3.951   7.310  0.0624  0.2338  0.0536
 2828SOL    HW120120   1.852   4.006   7.389  2.7329  0.1357 -0.0396
 2828SOL    HW220121   1.927   3.987   7.272 -1.3366  1.0171 -2.1922
 2829SOL     OW20122   0.994   0.170   5.539 -0.1793  0.0520  0.5847
 2829SOL    HW120123   0.902   0.198   5.538 -0.7044 -1.8066 -1.4937
 2829SOL    HW220124   1.015   0.201   5.628  1.6406 -1.8078  0.7813
 2830SOL     OW20125   3.703   0.004   7.830 -0.2455 -0.0729  0.1423
 2830SOL    HW120126   3.743   4.729   7.744 -0.2508  1.8910 -0.1785
 2830SOL    HW220127   3.759   4.682   7.878  0.7639  0.7287 -0.0167
 2831SOL     OW20128   2.747   4.203   7.153 -0.1522 -0.4190  0.0163
 2831SOL    HW120129   2.654   4.182   7.165 -0.2431  0.2283  0.4266
 2831SOL    HW220130   2.789   4.117   7.157  2.5396  1.0133  1.6655
 2832SOL     OW20131   0.353   1.650  17.676  0.7904 -0.2371  0.1892
 2832SOL    HW120132   0.421   1.596  17.716  0.1687 -1.4775 -0.4081
 2832SOL    HW220133   0.388   1.652  17.587 -0.1737 -0.2559 -0.1888
 2833SOL     OW20134   0.979   0.178  10.922 -0.4202 -0.3509  0.1850
 2833SOL    HW120135   0.993   0.195  10.829  2.1976 -0.5104  0.5398
 2833SOL    HW220136   1.040   0.107  10.941  0.7516  0.2983 -1.2269
 2834SOL     OW20137   1.708   3.475   5.512 -0.1195  0.3763  0.5218
 2834SOL    HW120138   1.705   3.568   5.487 -1.7068  0.0495 -0.5275
 2834SOL    HW220139   1.752   3.439   5.435  1.0835 -0.2769  1.5279
 2835SOL     OW20140   2.185   1.709   8.775 -0.2717 -0.4367 -0.0966
 2835SOL    HW120141   2.213   1.757   8.696  2.4887 -0.9170  0.5988
 2835SOL    HW220142   2.271   1.672   8.794  0.9604  4.1940  3.3794
 2836SOL     OW20143   1.813   0.169   5.931 -0.7071  0.9063  0.5281
 2836SOL    HW120144   1.821   0.079   5.962  0.7894  1.0518  0.5443
 2836SOL    HW220145   1.878   0.222   5.977 -0.6361  0.5271  0.8617
 2837SOL     OW20146   4.049   4.556   6.441  0.1066 -0.6312  0.8070
 2837SOL    HW120147   4.120   4.506   6.481  0.8953 -1.3444 -1.4447
 2837SOL    HW220148   4.009   4.597   6.517  0.5209 -1.7004  1.6101
 2838SOL     OW20149   1.313   1.105   7.357  0.1725  0.2848 -0.0061
 2838SOL    HW120150   1.380   1.150   7.306 -0.0735  0.1883 -0.4122
 2838SOL    HW220151   1.279   1.038   7.297  0.4547  1.1385 -1.1264
 2839SOL     OW20152   4.088   4.688   3.479  0.1698 -0.3628  0.3391
 2839SOL    HW120153   4.168   4.635   3.476  0.6633  0.2792  2.7033
 2839SOL    HW220154   4.059   4.663   3.391  0.7176 -0.5849  0.2204
 2840SOL     OW20155   4.101   2.119  13.833 -0.3855 -0.2964  0.0759
 2840SOL    HW120156   4.083   2.150  13.744  1.0744  0.1738 -0.0439
 2840SOL    HW220157   4.076   2.026  13.829  0.7817 -0.6438  1.1964
 2841SOL     OW20158   2.437   3.395   4.735  0.1408  0.0707  0.1124
 2841SOL    HW120159   2.450   3.309   4.774  0.9828 -0.8105 -2.1302
 2841SOL    HW220160   2.411   3.378   4.645 -0.9340 -0.8405  0.5996
 2842SOL     OW20161   0.351   4.255  15.229  0.3123  0.5153  0.1011
 2842SOL    HW120162   0.287   4.231  15.296  0.3568  0.7480  0.2291
 2842SOL    HW220163   0.349   4.176  15.176  0.7267 -1.2589  2.7017
 2843SOL     OW20164   0.694   0.430   9.117 -0.6378 -0.2458  0.3393
 2843SOL    HW120165   0.751   0.490   9.068  0.3149 -1.0213  0.5025
 2843SOL    HW220166   0.665   0.389   9.036  1.0897  1.1168 -0.9853
 2844SOL     OW20167   2.282   1.232  12.633 -0.1864 -0.2593  0.3920
 2844SOL    HW120168   2.236   1.303  12.587  0.8364  0.3304  0.2972
 2844SOL    HW220169   2.376   1.249  12.626  0.1632 -2.3062  0.1655
 2845SOL     OW20170   2.480   0.537  15.395 -0.1896  0.5087 -0.2076
 2845SOL    HW120171   2.428   0.610  15.428 -1.2081 -0.4266  0.2800
 2845SOL    HW220172   2.495   0.490  15.477 -1.5066  0.9457  0.2903
 2846SOL     OW20173   3.997   2.909   9.366  0.2891  0.3291 -0.2666
 2846SOL    HW120174   3.974   3.000   9.386 -0.5787 -0.3898  2.0102
 2846SOL    HW220175   3.926   2.876   9.312  1.2862 -1.2650 -0.6031
 2847SOL     OW20176   3.648   2.721   6.114  0.1277 -0.3621  0.0888
 2847SOL    HW120177   3.554   2.734   6.127  0.2859  2.0422 -1.2044
 2847SOL    HW220178   3.672   2.812   6.095  0.7883 -0.9977 -2.0057
 2848SOL     OW20179   3.080   3.916   1.240  0.2145  0.0145  0.4838
 2848SOL    HW120180   3.107   3.838   1.289 -0.8187 -0.6176  0.0505
 2848SOL    HW220181   3.117   3.888   1.156  0.4372  1.1157  0.2148
 2849SOL     OW20182   1.226   1.296  17.554  0.1106  0.0103  0.1821
 2849SOL    HW120183   1.255   1.262  17.469 -0.9748  0.0847 -0.2211
 2849SOL    HW220184   1.236   1.216  17.605  2.5501 -0.2936 -0.7246
 2850SOL     OW20185   2.437   3.639  13.296 -0.2154 -0.0229  0.1985
 2850SOL    HW120186   2.355   3.591  13.310 -0.5207  0.3054 -0.4432
 2850SOL    HW220187   2.443   3.633  13.201 -0.8392  1.0494  0.0832
 2851SOL     OW20188   4.001   0.884  11.787 -0.3287 -0.4621  0.6560
 2851SOL    HW120189   3.912   0.900  11.757  0.3905 -1.5957 -2.1105
 2851SOL    HW220190   4.046   0.944  11.728  0.5157  0.3607  2.1239
 2852SOL     OW20191   1.162   3.385   9.156 -0.0717 -0.1967 -0.1233
 2852SOL    HW120192   1.178   3.466   9.108  0.0932  0.0620  0.3611
 2852SOL    HW220193   1.205   3.415   9.236  1.8024 -2.6861 -0.1896
 2853SOL     OW20194   0.170   1.813  10.643  0.5506 -0.4331  0.4262
 2853SOL    HW120195   0.215   1.855  10.715  0.6854  2.1869 -1.1894
 2853SOL    HW220196   0.239   1.777  10.587  0.1967  1.0938 -0.9837
 2854SOL     OW20197   2.331   2.273   5.011  0.0818 -0.5229 -0.3434
 2854SOL    HW120198   2.236   2.274   5.024  0.1618  0.6060  0.1837
 2854SOL    HW220199   2.352   2.344   4.951 -2.4243  2.5384  2.3714
 2855SOL     OW20200   3.358   2.510   8.670  0.0152  0.5708  0.4750
 2855SOL    HW120201   3.291   2.448   8.700 -2.2182  3.3679  1.3624
 2855SOL    HW220202   3.386   2.547   8.754  0.1574 -1.1750  1.1994
 2856SOL     OW20203   2.596   3.208   3.529  0.8183  0.1519  0.2936
 2856SOL    HW120204   2.582   3.117   3.501  0.7588  0.2924 -0.1335
 2856SOL    HW220205   2.515   3.232   3.574  0.0809 -1.9145  0.0751
 2857SOL     OW20206   3.513   1.808   2.257 -0.1963 -0.2828  0.1959
 2857SOL    HW120207   3.547   1.890   2.222 -0.9791 -0.8098 -1.8028
 2857SOL    HW220208   3.506   1.757   2.176 -0.9752 -0.2694  0.2508
 2858SOL     OW20209   1.769   2.966   5.472 -0.0312 -0.0628  0.0080
 2858SOL    HW120210   1.851   2.981   5.424 -0.5683  2.2212 -0.1846
 2858SOL    HW220211   1.752   3.049   5.514 -0.9477 -0.4101  0.3050
 2859SOL     OW20212   2.863   2.346   6.460 -0.1592  0.2737 -0.3284
 2859SOL    HW120213   2.857   2.403   6.382  1.6663  0.8735 -0.0098
 2859SOL    HW220214   2.837   2.416   6.520 -0.7370  1.0882 -1.5263
 2860SOL     OW20215   4.301   0.838  11.024 -0.3314 -0.4908  0.2999
 2860SOL    HW120216   4.388   0.844  10.983 -0.5539  2.7776  0.3050
 2860SOL    HW220217   4.336   0.844  11.113 -0.5701  3.4910  0.0938
 2861SOL     OW20218   4.729   2.557   3.105  0.0273  0.4303 -0.6783
 2861SOL    HW120219   4.717   2.492   3.174 -0.1958  0.4292 -0.7163
 2861SOL    HW220220   0.056   2.516   3.049  2.3285  1.9044  0.9511
 2862SOL     OW20221   2.072   2.208   4.415  0.2080 -0.0729  0.8851
 2862SOL    HW120222   2.085   2.136   4.353  3.0971 -0.6658  2.1496
 2862SOL    HW220223   2.159   2.203   4.456  0.3425 -0.6066  0.5449
 2863SOL     OW20224   4.378   2.589   1.284 -0.2506 -0.4734 -0.0451
 2863SOL    HW120225   4.293   2.552   1.259 -1.0684  0.6732  1.0331
 2863SOL    HW220226   4.437   2.538   1.229 -0.3206  0.9796 -1.4422
 2864SOL     OW20227   3.973   1.851  13.805 -1.0277  0.1570 -0.3237
 2864SOL    HW120228   3.949   1.904  13.729 -2.2799  0.5586  0.3571
 2864SOL    HW220229   3.957   1.762  13.772 -3.4881  1.2062 -1.9521
 2865SOL     OW20230   0.140   3.253  16.806 -0.2502 -0.8646  0.1959
 2865SOL    HW120231   0.167   3.248  16.898  1.1097 -2.0474 -0.2705
 2865SOL    HW220232   0.147   3.346  16.787 -0.6862 -1.3341 -2.2914
 2866SOL     OW20233   2.120   2.649   4.531  0.4396 -0.0538 -0.5216
 2866SOL    HW120234   2.208   2.612   4.536  0.1790 -0.6151 -0.0923
 2866SOL    HW220235   2.120   2.697   4.448 -0.9464 -0.0199 -0.5130
 2867SOL     OW20236   1.820   4.217   6.053  0.0957 -0.4769  0.0873
 2867SOL    HW120237   1.754   4.280   6.024  0.9874 -0.0791 -1.0941
 2867SOL    HW220238   1.850   4.188   5.967  0.2625 -0.5350  0.1642
 2868SOL     OW20239   1.507   0.522   1.188 -0.4503 -0.4221 -0.6992
 2868SOL    HW120240   1.422   0.546   1.226 -0.2445 -0.1597 -0.4065
 2868SOL    HW220241   1.567   0.517   1.262 -1.9834  1.9492  0.7226
 2869SOL     OW20242   1.181   0.208   3.989 -0.6648  0.0582  0.0458
 2869SOL    HW120243   1.175   0.288   4.041  0.8888  0.0179  0.2905
 2869SOL    HW220244   1.239   0.247   3.924  0.8662 -2.3014  0.0039
 2870SOL     OW20245   3.033   1.678   6.440  0.1810  0.5407  0.0947
 2870SOL    HW120246   3.042   1.617   6.367  0.9893 -1.0837  1.5213
 2870SOL    HW220247   2.945   1.711   6.425  0.1774 -0.3497 -1.8209
 2871SOL     OW20248   3.499   1.802   4.059  0.2665 -0.2550  0.0897
 2871SOL    HW120249   3.430   1.748   4.021  0.3447 -0.3899  0.1378
 2871SOL    HW220250   3.552   1.816   3.981  0.1010  1.6549  0.3110
 2872SOL     OW20251   4.641   2.009   0.407  0.2098  0.1805 -0.2660
 2872SOL    HW120252   4.624   1.923   0.369  1.0960  0.7398 -1.9257
 2872SOL    HW220253   4.685   2.051   0.334  1.1877  0.2448  0.3598
 2873SOL     OW20254   4.027   0.847  12.700 -0.0870  0.0385 -0.4282
 2873SOL    HW120255   4.031   0.914  12.632  1.8571 -2.0089 -2.3263
 2873SOL    HW220256   4.046   0.912  12.767  0.1645  0.9238 -1.3466
 2874SOL     OW20257   4.134   3.871   8.378  0.7970  0.2592 -0.0987
 2874SOL    HW120258   4.104   3.789   8.418 -0.1514  0.4035 -0.5073
 2874SOL    HW220259   4.120   3.934   8.449 -3.1868 -1.1034  0.3640
 2875SOL     OW20260   3.860   1.282   5.898 -0.2725 -0.7936 -0.0366
 2875SOL    HW120261   3.846   1.230   5.819  3.8804 -1.8118 -0.0726
 2875SOL    HW220262   3.951   1.305   5.886 -1.2764  2.1655 -1.7497
 2876SOL     OW20263   1.097   2.214   6.544  0.4005  0.3375 -0.2112
 2876SOL    HW120264   1.039   2.231   6.470 -1.8018  0.1455  1.4793
 2876SOL    HW220265   1.072   2.275   6.613 -0.8790  0.2207 -0.5779
 2877SOL     OW20266   0.539   3.001   2.642  0.5325 -0.6677 -0.0948
 2877SOL    HW120267   0.558   2.915   2.679  0.2078 -1.3899 -1.6164
 2877SOL    HW220268   0.619   3.021   2.593 -0.4670  2.3957 -0.5093
 2878SOL     OW20269   2.081   0.319   4.063 -0.1144  0.1477 -0.5389
 2878SOL    HW120270   2.000   0.369   4.073 -0.4263 -0.7993  1.7832
 2878SOL    HW220271   2.099   0.287   4.152 -0.2620 -0.2079 -0.6339
 2879SOL     OW20272   4.416   2.731   7.499  0.2043  0.2519 -0.0215
 2879SOL    HW120273   4.449   2.648   7.463 -1.4882 -0.8307  0.9383
 2879SOL    HW220274   4.324   2.711   7.485  0.6351 -2.0813  0.3283
 2880SOL     OW20275   2.722   4.262   1.281 -1.4449  0.5158 -0.0724
 2880SOL    HW120276   2.752   4.237   1.369 -1.8234  1.2465  0.2636
 2880SOL    HW220277   2.807   4.267   1.237 -1.7576 -0.2723 -0.7618
 2881SOL     OW20278   0.768   1.014   4.186  0.4233 -0.0640  0.0761
 2881SOL    HW120279   0.705   0.983   4.121  0.8023  1.2448 -0.9096
 2881SOL    HW220280   0.715   1.077   4.236  1.7818  0.2125  1.1643
 2882SOL     OW20281   3.109   0.844   9.023  0.0145 -0.4789  0.5097
 2882SOL    HW120282   3.037   0.810   8.971  0.4511 -0.2749 -0.2261
 2882SOL    HW220283   3.172   0.773   9.006  0.9627 -0.1339  2.5412
 2883SOL     OW20284   1.637   2.784   5.324 -0.8884  0.5670 -0.0029
 2883SOL    HW120285   1.587   2.858   5.289  0.7940  2.5978  1.8376
 2883SOL    HW220286   1.691   2.836   5.384 -0.8539  0.0660  0.4002
 2884SOL     OW20287   1.607   2.681  16.214 -0.1372 -0.2218  0.2025
 2884SOL    HW120288   1.536   2.661  16.154 -0.1498  1.1513 -0.2419
 2884SOL    HW220289   1.648   2.746  16.157 -3.3950 -0.9867 -3.0060
 2885SOL     OW20290   2.621   3.334   9.425  0.0154  0.1386 -0.2694
 2885SOL    HW120291   2.575   3.255   9.395 -2.0595  1.0323  0.5728
 2885SOL    HW220292   2.594   3.343   9.517 -2.0916 -1.9253 -0.6847
 2886SOL     OW20293   2.363   2.714  13.908  0.3192  0.7399 -0.4834
 2886SOL    HW120294   2.344   2.792  13.855  2.5677  1.6172 -0.0068
 2886SOL    HW220295   2.458   2.713  13.898  0.5509  0.2252  1.9897
 2887SOL     OW20296   2.017   4.170   4.428 -0.0344  0.4275 -0.7842
 2887SOL    HW120297   1.978   4.206   4.348  0.8575  2.1120 -0.4350
 2887SOL    HW220298   1.937   4.155   4.479  1.0719  0.1440  0.8577
 2888SOL     OW20299   0.045   0.525   9.391  0.0731  0.3672 -0.3994
 2888SOL    HW120300   0.033   0.613   9.355  0.4253 -0.3471 -2.2268
 2888SOL    HW220301   0.091   0.483   9.318  2.2771 -0.7217  1.6207
 2889SOL     OW20302   1.578   1.966  11.030  0.6135  0.5035  0.8767
 2889SOL    HW120303   1.609   2.027  11.097 -2.7307  1.1603  1.8076
 2889SOL    HW220304   1.630   2.001  10.958 -0.5512 -0.2068 -0.2962
 2890SOL     OW20305   4.055   3.366   6.853 -0.4093  0.0406  0.1083
 2890SOL    HW120306   4.001   3.366   6.774  0.1639 -3.1136 -0.2707
 2890SOL    HW220307   4.134   3.389   6.805  0.0835  0.4763  1.1368
 2891SOL     OW20308   4.443   4.606   4.075  0.1545 -0.0244  0.0832
 2891SOL    HW120309   4.522   4.571   4.118  1.4213  2.6032 -0.0959
 2891SOL    HW220310   4.378   4.608   4.144 -0.1045  0.4171 -0.1774
 2892SOL     OW20311   2.316   3.286   1.957 -0.4209 -0.8096  0.5847
 2892SOL    HW120312   2.237   3.232   1.951 -0.1668 -1.1722  0.4478
 2892SOL    HW220313   2.284   3.375   1.944 -1.6217 -0.7350  3.9975
 2893SOL     OW20314   4.422   0.018   3.676  0.0669  0.0283  0.2726
 2893SOL    HW120315   4.408   0.047   3.586  1.8111 -1.9995 -0.6466
 2893SOL    HW220316   4.484   4.686   3.658 -0.5792 -0.6297  0.6336
 2894SOL     OW20317   2.493   3.344  16.528 -0.0513 -0.1069 -0.3713
 2894SOL    HW120318   2.419   3.396  16.559 -0.0001  0.1147 -0.6265
 2894SOL    HW220319   2.468   3.256  16.556 -0.5309  0.9609  2.5350
 2895SOL     OW20320   2.212   3.845   5.081 -0.0002  0.1001 -0.5497
 2895SOL    HW120321   2.243   3.894   5.157 -1.3126  0.2867 -0.1287
 2895SOL    HW220322   2.261   3.763   5.085  0.8174  0.7912  3.0145
 2896SOL     OW20323   0.203   0.106   4.214  0.8578  0.3341  0.2472
 2896SOL    HW120324   0.122   0.055   4.210  0.0762  1.5580  0.7472
 2896SOL    HW220325   0.229   0.097   4.306 -0.2024  1.6727  0.6867
 2897SOL     OW20326   3.574   3.174   4.984  0.3717  0.3101 -0.1822
 2897SOL    HW120327   3.556   3.267   4.997  0.3844  0.5370 -1.8123
 2897SOL    HW220328   3.637   3.152   5.053 -0.9802  0.1151  1.0131
 2898SOL     OW20329   4.700   4.237   1.231 -0.0318  0.2754 -0.5438
 2898SOL    HW120330   4.683   4.283   1.313 -2.7836 -1.9374  0.1620
 2898SOL    HW220331   0.029   4.285   1.184  0.1177  1.0355  0.4632
 2899SOL     OW20332   1.235   4.081   7.535  0.2410  0.1177 -0.1515
 2899SOL    HW120333   1.217   3.996   7.495  3.0431 -1.1190  1.2423
 2899SOL    HW220334   1.147   4.090   7.573  0.4998  0.7794  0.2957
 2900SOL     OW20335   1.619   3.599   6.952  0.4991 -0.2937  0.5000
 2900SOL    HW120336   1.714   3.613   6.956  0.1737  1.9060  0.5686
 2900SOL    HW220337   1.599   3.627   7.041  0.7793 -1.0089  0.7920
 2901SOL     OW20338   0.048   3.504  13.707 -0.0953  0.5438 -0.7336
 2901SOL    HW120339   0.077   3.420  13.743  2.2846  1.4203 -0.6137
 2901SOL    HW220340   0.019   3.477  13.620  1.1978  2.1218 -1.6493
 2902SOL     OW20341   1.860   2.723   8.454  0.1049 -0.9939  0.0780
 2902SOL    HW120342   1.795   2.760   8.394  1.1132 -2.7897 -2.1223
 2902SOL    HW220343   1.871   2.634   8.419  1.4894 -0.1496 -1.6383
 2903SOL     OW20344   0.442   1.706   7.986  0.1580 -0.6383 -0.0335
 2903SOL    HW120345   0.445   1.800   7.965 -3.5317 -0.5610 -0.2991
 2903SOL    HW220346   0.424   1.698   8.080  0.2734 -1.2074 -0.0610
 2904SOL     OW20347   2.661   1.771   0.396  0.3887 -1.0880 -0.4239
 2904SOL    HW120348   2.598   1.829   0.440  0.9495 -1.7216  1.2019
 2904SOL    HW220349   2.616   1.744   0.315  1.2019 -0.2214 -1.1654
 2905SOL     OW20350   3.501   2.695   2.650 -0.5429  0.2313 -0.5155
 2905SOL    HW120351   3.417   2.691   2.694  0.1795  0.3298  0.8805
 2905SOL    HW220352   3.524   2.602   2.646  2.1554  0.9337 -1.9956
 2906SOL     OW20353   2.103   1.091   8.147 -0.0619  0.2889 -0.1430
 2906SOL    HW120354   2.088   1.051   8.233 -1.4507  0.9957 -0.0628
 2906SOL    HW220355   2.174   1.152   8.167  1.9065 -1.7885 -0.7440
 2907SOL     OW20356   1.759   0.333   2.514 -0.4305 -0.1151  0.2367
 2907SOL    HW120357   1.743   0.364   2.424 -0.7149 -0.0061  0.3227
 2907SOL    HW220358   1.800   0.410   2.553  0.9848 -0.9725  0.4359
 2908SOL     OW20359   4.739   3.931   3.636 -0.3024 -0.7400 -0.1081
 2908SOL    HW120360   4.699   4.013   3.608 -2.1417 -1.4813  0.3412
 2908SOL    HW220361   4.728   3.893   3.549  0.5937  0.1194 -0.5913
 2909SOL     OW20362   2.675   1.035  13.019 -0.5293 -0.1886 -0.2277
 2909SOL    HW120363   2.616   0.960  13.023 -0.5206 -0.0097  2.9959
 2909SOL    HW220364   2.705   1.021  13.109  2.4457  0.2292 -1.1526
 2910SOL     OW20365   3.320   1.262   8.076 -0.3214  0.6010  0.5622
 2910SOL    HW120366   3.323   1.354   8.048 -2.4392  1.0016  1.6343
 2910SOL    HW220367   3.412   1.237   8.066 -1.1181 -2.8297  2.1209
 2911SOL     OW20368   3.635   1.791   1.276 -0.0111 -0.2516 -0.4334
 2911SOL    HW120369   3.543   1.809   1.259  0.2021  1.5075  0.1741
 2911SOL    HW220370   3.675   1.877   1.289  1.2070 -0.5925 -2.0382
 2912SOL     OW20371   3.678   3.618   3.604 -0.2038 -0.1033  0.1834
 2912SOL    HW120372   3.763   3.648   3.637 -0.5623  0.4250  0.6144
 2912SOL    HW220373   3.661   3.698   3.555  1.9094 -0.3641 -0.9744
 2913SOL     OW20374   3.605   4.367   4.271  0.1462  0.9775 -0.4093
 2913SOL    HW120375   3.547   4.389   4.344 -0.2959 -1.7301  0.0434
 2913SOL    HW220376   3.648   4.451   4.256 -1.2068  1.4323 -1.6618
 2914SOL     OW20377   1.213   1.649  11.734 -0.3553 -0.0739 -0.2300
 2914SOL    HW120378   1.141   1.589  11.719  0.2461 -0.4353 -1.6043
 2914SOL    HW220379   1.221   1.640  11.829  0.4149  0.0822 -0.2765
 2915SOL     OW20380   3.709   2.476   1.772 -0.0558 -0.0880 -0.3433
 2915SOL    HW120381   3.653   2.481   1.850 -0.0536 -0.3246 -0.3246
 2915SOL    HW220382   3.781   2.417   1.796  0.6142 -0.1773 -2.6497
 2916SOL     OW20383   1.951   3.058   0.962 -0.7217  0.4266 -0.0827
 2916SOL    HW120384   1.935   2.969   0.931 -0.6696 -0.8766  3.5515
 2916SOL    HW220385   1.902   3.114   0.902 -1.8900  0.5922  1.0320
 2917SOL     OW20386   4.261   0.228   8.522 -0.1538 -0.4193 -0.0879
 2917SOL    HW120387   4.294   0.310   8.486 -1.9124  0.0648 -0.6196
 2917SOL    HW220388   4.331   0.199   8.581  0.4135  0.0512 -0.5339
 2918SOL     OW20389   3.617   3.870  13.469  0.3371 -0.4423 -0.3015
 2918SOL    HW120390   3.638   3.895  13.559 -0.9663 -1.2597  0.2278
 2918SOL    HW220391   3.563   3.795  13.495 -0.6582  0.3535 -0.0635
 2919SOL     OW20392   0.897   2.129  11.746  0.5991 -0.5170 -0.3953
 2919SOL    HW120393   0.967   2.065  11.736  1.6166  0.4539  0.5123
 2919SOL    HW220394   0.941   2.207  11.712 -0.6367 -0.9452 -2.9952
 2920SOL     OW20395   2.227   0.974   7.229  0.2225 -0.0272 -0.1864
 2920SOL    HW120396   2.283   0.952   7.303 -1.1208 -0.2617  0.7572
 2920SOL    HW220397   2.142   0.983   7.272 -0.4969 -1.1850 -1.3463
 2921SOL     OW20398   0.114   2.808   8.277 -0.3239  0.1406  0.0304
 2921SOL    HW120399   0.157   2.841   8.198  1.7097 -1.2977  0.5440
 2921SOL    HW220400   0.039   2.758   8.244 -0.7183  0.2698  0.7376
 2922SOL     OW20401   0.011   2.340   1.955 -0.3555 -0.4976  0.7334
 2922SOL    HW120402   0.055   2.274   1.901  1.0609  0.7751  0.3337
 2922SOL    HW220403   4.665   2.297   1.966 -0.7433  0.4333  1.3445
 2923SOL     OW20404   4.497   4.662   1.805 -0.4639 -0.4582  0.6346
 2923SOL    HW120405   4.506   0.013   1.774  2.1052 -0.6831  0.7000
 2923SOL    HW220406   4.518   4.678   1.897  1.1702 -1.7413  0.4851
 2924SOL     OW20407   4.463   1.590   2.070 -0.0837 -0.1619 -0.1509
 2924SOL    HW120408   4.452   1.679   2.037 -2.6297  0.3989  2.1520
 2924SOL    HW220409   4.445   1.534   1.994  1.5468  1.0279 -1.4158
 2925SOL     OW20410   1.025   0.411   4.112 -0.4727 -0.4101 -0.0763
 2925SOL    HW120411   0.987   0.328   4.140 -1.2623 -0.3955 -1.0915
 2925SOL    HW220412   0.979   0.479   4.162  2.1067  0.4740  1.0863
 2926SOL     OW20413   1.851   0.195   9.160  0.2683 -0.6300 -0.2595
 2926SOL    HW120414   1.854   0.134   9.234 -1.2619  0.2182  0.5110
 2926SOL    HW220415   1.868   0.274   9.211 -0.4384 -0.1564 -0.7579
 2927SOL     OW20416   0.082   2.450   7.614 -0.2458 -0.4855  0.6627
 2927SOL    HW120417   0.161   2.504   7.615  1.0376 -2.3854  1.7887
 2927SOL    HW220418   0.037   2.471   7.696  0.1557 -4.2651  1.8506
 2928SOL     OW20419   3.545   4.578   2.532  0.2097  0.0849 -0.9361
 2928SOL    HW120420   3.526   4.535   2.615 -0.5779 -1.0923 -1.7260
 2928SOL    HW220421   3.563   4.498   2.483  0.2698  0.3113 -1.2861
 2929SOL     OW20422   0.619   2.719  14.407 -0.6974  0.6045  0.0291
 2929SOL    HW120423   0.682   2.766  14.462 -0.7764 -1.8654  2.2390
 2929SOL    HW220424   0.687   2.681  14.351 -1.3152  1.6086 -1.3834
 2930SOL     OW20425   1.127   3.606   4.206 -0.3194 -0.2439 -0.2287
 2930SOL    HW120426   1.072   3.682   4.189 -1.1134 -0.8504 -0.4206
 2930SOL    HW220427   1.071   3.543   4.252 -1.1187  0.3067 -0.4404
 2931SOL     OW20428   0.692   0.939  13.860  0.7362  0.6097  0.2986
 2931SOL    HW120429   0.627   0.992  13.813  0.1876 -0.4643 -0.1480
 2931SOL    HW220430   0.698   0.984  13.944  1.7036 -0.4757  0.7986
 2932SOL     OW20431   3.006   3.226   4.521  0.3236  0.3327  0.2217
 2932SOL    HW120432   2.937   3.175   4.479  1.8820 -0.4966 -1.3068
 2932SOL    HW220433   2.970   3.232   4.610 -1.5529 -1.1407 -0.4277
 2933SOL     OW20434   2.986   0.301   4.832 -0.0162 -0.1908  0.2495
 2933SOL    HW120435   3.071   0.303   4.877 -1.1495  1.4152  2.3168
 2933SOL    HW220436   2.948   0.378   4.874  1.8205 -0.3996  2.2783
 2934SOL     OW20437   1.004   2.937  13.468 -0.2021 -0.1650  0.1476
 2934SOL    HW120438   0.973   2.907  13.553 -1.1461  2.6007  0.8000
 2934SOL    HW220439   0.920   2.971  13.435 -0.0348  0.2531  0.1503
 2935SOL     OW20440   3.254   2.023   0.793  0.7636  0.2016 -0.5794
 2935SOL    HW120441   3.190   2.071   0.740  0.9362  1.9177  0.7551
 2935SOL    HW220442   3.211   1.938   0.789 -1.8627  1.4219  1.5206
 2936SOL     OW20443   2.369   1.404   9.814 -0.1840 -0.3618  0.3190
 2936SOL    HW120444   2.403   1.435   9.898  0.2748 -1.0186  0.3790
 2936SOL    HW220445   2.327   1.482   9.778 -0.1163 -1.3138 -1.8385
 2937SOL     OW20446   4.484   3.058   9.303  0.8320  0.1033  0.1063
 2937SOL    HW120447   4.456   3.057   9.212  2.2386  0.0338 -0.3255
 2937SOL    HW220448   4.403   3.030   9.347 -0.0785  1.1700 -0.9030
 2938SOL     OW20449   3.425   1.423  12.917  0.3741  0.0128  0.4275
 2938SOL    HW120450   3.413   1.421  12.822 -0.0272 -0.5434  0.4860
 2938SOL    HW220451   3.454   1.511  12.941 -2.9069  1.0634  0.5867
 2939SOL     OW20452   4.145   3.337  11.223 -0.2819 -0.3255  0.0573
 2939SOL    HW120453   4.191   3.364  11.143 -2.9711  1.0613 -0.9987
 2939SOL    HW220454   4.189   3.254  11.244  1.5326  0.5980 -0.0882
 2940SOL     OW20455   1.718   1.444   6.543  0.1469 -0.8533 -0.6907
 2940SOL    HW120456   1.761   1.511   6.490  0.1394 -2.0147 -2.1634
 2940SOL    HW220457   1.793   1.405   6.586 -0.5963 -1.8152 -0.2749
 2941SOL     OW20458   4.162   2.626   7.463  0.1537 -0.2650  0.2706
 2941SOL    HW120459   4.130   2.584   7.383  3.6749 -0.7724 -0.8987
 2941SOL    HW220460   4.148   2.555   7.526  1.0877 -0.7146 -0.0308
 2942SOL     OW20461   4.524   2.235   9.199  0.8930  0.3251  1.0212
 2942SOL    HW120462   4.554   2.155   9.157 -0.2347  0.4071  0.0388
 2942SOL    HW220463   4.547   2.306   9.139 -2.2866  1.5422  1.2508
 2943SOL     OW20464   2.437   1.910   2.902 -0.3904 -0.0649  0.6121
 2943SOL    HW120465   2.532   1.909   2.886 -0.0970  0.6278  2.3038
 2943SOL    HW220466   2.403   1.958   2.826  2.0496  0.6173 -0.0734
 2944SOL     OW20467   0.523   4.300   2.945 -0.7259 -0.6431  0.5421
 2944SOL    HW120468   0.462   4.251   2.890  1.8767 -1.7087 -1.3796
 2944SOL    HW220469   0.466   4.349   3.005 -1.8117 -1.1624 -0.0699
 2945SOL     OW20470   2.258   3.732   7.166 -0.6098  0.2609 -0.1125
 2945SOL    HW120471   2.298   3.647   7.146 -0.5166  0.5706 -1.2305
 2945SOL    HW220472   2.267   3.767   7.078  0.8126 -0.0233 -0.0795
 2946SOL     OW20473   1.062   2.939   9.047  0.3134 -0.2656  0.0775
 2946SOL    HW120474   1.081   2.845   9.055  1.0910 -0.0500  0.7857
 2946SOL    HW220475   0.967   2.935   9.057  0.4619 -1.7929  1.0572
 2947SOL     OW20476   3.179   2.478   3.049  0.0115 -0.0923 -0.4537
 2947SOL    HW120477   3.182   2.413   2.979 -0.7660 -0.1382 -0.4449
 2947SOL    HW220478   3.118   2.432   3.106  0.5355  1.3739  1.2982
 2948SOL     OW20479   2.731   3.629   4.346  0.0813  0.1010 -0.0277
 2948SOL    HW120480   2.810   3.623   4.399 -0.1678  0.4441  0.3862
 2948SOL    HW220481   2.664   3.598   4.408  0.5927 -0.9567 -0.0002
 2949SOL     OW20482   4.474   3.737  11.869 -0.6452  0.2550  0.4705
 2949SOL    HW120483   4.562   3.699  11.867 -1.1949 -0.8131 -2.5275
 2949SOL    HW220484   4.436   3.731  11.782 -0.1839  2.4990  0.1091
 2950SOL     OW20485   3.449   3.158   3.905 -0.4334 -1.0426  0.4248
 2950SOL    HW120486   3.465   3.177   3.997  1.1921  0.5228 -0.1824
 2950SOL    HW220487   3.501   3.225   3.861 -2.3890  0.3363  0.2211
 2951SOL     OW20488   1.535   1.725   8.883  0.3382  0.1119  0.3786
 2951SOL    HW120489   1.516   1.819   8.876 -1.4294 -0.3895 -1.3691
 2951SOL    HW220490   1.452   1.701   8.924  0.8605  0.6605  1.7546
 2952SOL     OW20491   0.313   1.825   1.258  0.3111 -0.1920 -0.2499
 2952SOL    HW120492   0.390   1.864   1.299 -0.0371  0.7808 -0.5347
 2952SOL    HW220493   0.316   1.831   1.163  1.9932 -0.0816 -0.1949
 2953SOL     OW20494   1.810   3.289  11.806 -0.1500  0.3142 -0.5963
 2953SOL    HW120495   1.874   3.327  11.867 -1.4861 -0.8485  1.5284
 2953SOL    HW220496   1.850   3.313  11.722 -0.7635 -1.4290 -1.3716
 2954SOL     OW20497   3.131   0.751   8.576  0.2800 -0.0110  0.9340
 2954SOL    HW120498   3.154   0.678   8.633 -0.1267  0.7140  2.0247
 2954SOL    HW220499   3.037   0.761   8.591  0.1179 -0.0609 -0.0493
 2955SOL     OW20500   3.935   0.134   6.691 -0.3381  0.4728  0.1117
 2955SOL    HW120501   3.862   0.128   6.630  1.1583  0.9672 -1.7304
 2955SOL    HW220502   3.889   0.155   6.772  2.6905 -0.0721  1.9747
 2956SOL     OW20503   3.400   2.413   7.459  0.6019  0.7879  0.2604
 2956SOL    HW120504   3.490   2.425   7.488  0.2510 -0.6389  2.0243
 2956SOL    HW220505   3.388   2.318   7.458  1.3357  0.7147 -1.1223
 2957SOL     OW20506   4.404   4.186  16.114 -0.2826 -0.1954 -0.0207
 2957SOL    HW120507   4.483   4.237  16.133 -1.3394  1.8365 -1.1378
 2957SOL    HW220508   4.345   4.248  16.071  2.1004  0.6444 -2.0796
 2958SOL     OW20509   1.440   0.915  17.395  0.3187 -0.0641  0.2112
 2958SOL    HW120510   1.362   0.963  17.367 -0.3087 -1.5687 -0.6604
 2958SOL    HW220511   1.390   0.861  17.455 -0.6982  0.5817 -0.0559
 2959SOL     OW20512   0.077   2.029   9.743  0.0559 -0.0584  0.6284
 2959SOL    HW120513   0.002   2.068   9.698  1.5005 -0.5341 -2.1966
 2959SOL    HW220514   0.064   1.940   9.710  0.9332 -0.2019  0.6787
 2960SOL     OW20515   3.372   3.794  17.098 -0.4521  0.6117  0.4197
 2960SOL    HW120516   3.369   3.828  17.008  0.0548  0.5759  0.3905
 2960SOL    HW220517   3.316   3.855  17.146 -1.3962 -0.7159  0.9847
 2961SOL     OW20518   1.096   1.903   6.252  0.6187 -0.3134  0.1863
 2961SOL    HW120519   1.081   1.947   6.169  0.0863  1.6118  1.2962
 2961SOL    HW220520   1.044   1.823   6.244  1.6929 -0.6450 -3.3583
 2962SOL     OW20521   4.359   3.262   0.105  0.3528  0.4009  0.0765
 2962SOL    HW120522   4.424   3.268   0.036 -0.6091 -3.7520 -1.1437
 2962SOL    HW220523   4.302   3.191   0.075 -0.2673  0.9013  0.0529
 2963SOL     OW20524   1.260   2.550   4.233  0.0211 -0.4011 -0.7496
 2963SOL    HW120525   1.312   2.501   4.296  0.0200 -1.3203 -1.4658
 2963SOL    HW220526   1.267   2.641   4.262 -2.4200 -0.8157  1.1914
 2964SOL     OW20527   4.575   0.590  12.214  0.6776  0.2067 -0.0688
 2964SOL    HW120528   4.647   0.561  12.271  0.6898 -2.0807 -1.2382
 2964SOL    HW220529   4.540   0.511  12.173 -2.8496  0.8314  1.7031
 2965SOL     OW20530   3.040   4.347   3.570 -0.1274 -0.2076  0.3701
 2965SOL    HW120531   3.104   4.409   3.535  1.4522 -2.0482 -0.0046
 2965SOL    HW220532   2.980   4.342   3.496  0.9388  1.0208 -0.5938
 2966SOL     OW20533   1.216   2.963   5.027  0.0417 -0.6474 -0.5094
 2966SOL    HW120534   1.248   2.994   4.943  1.9370 -0.5128  0.2667
 2966SOL    HW220535   1.208   2.868   5.016  0.0115 -0.9925  2.2976
 2967SOL     OW20536   2.911   0.732   4.796  0.9150  0.1587  0.2123
 2967SOL    HW120537   2.980   0.788   4.830 -0.2694  1.4196  0.5522
 2967SOL    HW220538   2.947   0.710   4.710 -2.7567  0.5291 -1.4400
 2968SOL     OW20539   3.491   0.237   3.857 -0.3710 -0.5709  0.1562
 2968SOL    HW120540   3.502   0.280   3.942 -3.5189  0.7069 -0.1000
 2968SOL    HW220541   3.570   0.182   3.864 -0.8911 -1.1852  1.1597
 2969SOL     OW20542   4.155   1.710   2.876  0.3510  0.1672  0.1083
 2969SOL    HW120543   4.218   1.703   2.805 -0.1075  2.0553 -0.4789
 2969SOL    HW220544   4.106   1.788   2.848 -1.7041 -0.9387  0.6015
 2970SOL     OW20545   2.600   0.303   5.052 -0.1710 -0.0913 -0.0290
 2970SOL    HW120546   2.563   0.304   4.963  0.0969  0.2815 -0.1351
 2970SOL    HW220547   2.521   0.281   5.102  0.0770 -1.6561 -0.3340
 2971SOL     OW20548   4.266   1.818   1.353 -0.3134 -0.0359 -0.3227
 2971SOL    HW120549   4.350   1.851   1.384 -0.5056 -0.4444  0.6286
 2971SOL    HW220550   4.212   1.889   1.389 -1.5482 -1.4222  0.5986
 2972SOL     OW20551   0.002   4.173   3.942 -0.6951 -0.0548  0.2852
 2972SOL    HW120552   4.658   4.221   3.944  0.2112  1.4455  1.6608
 2972SOL    HW220553   0.022   4.162   4.035 -0.0917 -1.6408 -0.0421
 2973SOL     OW20554   2.297   4.662   9.012  0.0736 -0.5588  0.2580
 2973SOL    HW120555   2.240   4.637   8.940  1.5301 -1.0592 -0.7385
 2973SOL    HW220556   2.338   0.002   8.977 -0.3828 -0.6591 -0.4924
 2974SOL     OW20557   2.163   1.702   2.299 -0.3196 -0.2793  0.0863
 2974SOL    HW120558   2.206   1.787   2.309  1.0138 -0.9542  0.0151
 2974SOL    HW220559   2.143   1.698   2.206  0.8484  1.1715 -0.2308
 2975SOL     OW20560   1.536   2.131   4.105 -0.3893 -0.1841  0.2803
 2975SOL    HW120561   1.565   2.078   4.031  0.9314  1.3738 -0.3122
 2975SOL    HW220562   1.554   2.067   4.175  0.0485  1.2434  1.4730
 2976SOL     OW20563   1.896   1.262  13.208  0.6154  0.1945 -0.0936
 2976SOL    HW120564   1.962   1.331  13.202 -0.3248  1.0452 -0.6638
 2976SOL    HW220565   1.903   1.249  13.303  0.9331  4.4141  0.4567
 2977SOL     OW20566   1.523   3.410   6.641  0.4242 -0.2349 -0.0027
 2977SOL    HW120567   1.602   3.369   6.676 -0.4901 -0.4982  1.7447
 2977SOL    HW220568   1.463   3.339   6.663  0.3405 -0.5300 -1.1906
 2978SOL     OW20569   0.724   1.220   7.513  0.3956  0.0860 -0.1988
 2978SOL    HW120570   0.764   1.273   7.582 -0.3493 -0.6179  0.7776
 2978SOL    HW220571   0.758   1.257   7.432  3.7413 -1.4821  0.5060
 2979SOL     OW20572   1.859   0.253   7.399  0.4554 -0.0549 -0.0729
 2979SOL    HW120573   1.849   0.221   7.489  1.5322  1.6308  0.6294
 2979SOL    HW220574   1.883   0.341   7.425 -0.5580  0.0701  0.4552
 2980SOL     OW20575   2.735   4.580   6.035  0.0733  0.2740 -0.1118
 2980SOL    HW120576   2.759   4.575   6.128 -2.8445 -0.4232  0.6136
 2980SOL    HW220577   2.679   4.504   6.018 -1.5261  1.6247 -0.8986
 2981SOL     OW20578   3.890   3.436   6.604  0.1691 -0.5231  0.6953
 2981SOL    HW120579   3.837   3.508   6.638 -0.8089 -1.5410  1.3535
 2981SOL    HW220580   3.954   3.482   6.550  1.5669 -1.9092  1.1655
 2982SOL     OW20581   0.357   3.196   7.450  0.0560  0.3135  0.0444
 2982SOL    HW120582   0.279   3.249   7.469  0.7536  0.7395  1.7117
 2982SOL    HW220583   0.309   3.127   7.405 -1.7928  0.8232  1.2131
 2983SOL     OW20584   2.577   2.531   7.868  0.1822 -0.1951 -0.1624
 2983SOL    HW120585   2.546   2.563   7.953 -0.1905 -1.1917  0.0718
 2983SOL    HW220586   2.661   2.574   7.854 -1.2005  2.4782 -0.4121
 2984SOL     OW20587   3.400   1.722   5.393  0.6638  0.2952  0.0628
 2984SOL    HW120588   3.380   1.649   5.334  1.4019  1.8018 -2.0734
 2984SOL    HW220589   3.310   1.736   5.419  1.1193 -1.4107  2.5104
 2985SOL     OW20590   2.901   0.319   8.375 -0.4686 -0.4240  0.1582
 2985SOL    HW120591   2.995   0.338   8.384 -0.4474  0.0076 -0.9681
 2985SOL    HW220592   2.861   0.405   8.391  0.5445 -0.0633  0.8137
 2986SOL     OW20593   3.950   1.262   3.438 -0.4663 -0.2351  0.1519
 2986SOL    HW120594   3.886   1.298   3.499 -0.8491 -0.1669 -0.2922
 2986SOL    HW220595   4.034   1.263   3.484  0.4758 -0.6155 -1.5728
 2987SOL     OW20596   0.072   1.278  11.356  0.0754 -0.2483 -0.4120
 2987SOL    HW120597   0.133   1.220  11.402  1.3980  1.1055 -0.4637
 2987SOL    HW220598   0.114   1.276  11.269 -1.0313 -1.0115 -0.9230
 2988SOL     OW20599   1.814   3.855   5.974  0.4893 -0.4653  0.2204
 2988SOL    HW120600   1.755   3.917   5.931 -0.2492 -1.0568  0.3742
 2988SOL    HW220601   1.817   3.880   6.067  0.6319 -0.7689  0.2983
 2989SOL     OW20602   0.072   4.293  16.340  0.2705 -0.3913  0.7055
 2989SOL    HW120603   0.007   4.274  16.407 -0.2335  0.7136  0.5288
 2989SOL    HW220604   0.149   4.296  16.397 -0.9773  3.2362  2.1735
 2990SOL     OW20605   2.975   2.838   4.157  0.0244  0.2978 -0.3067
 2990SOL    HW120606   2.932   2.757   4.184 -0.7050  0.3910 -1.1644
 2990SOL    HW220607   2.938   2.843   4.069 -2.0926 -2.8261  0.3975
 2991SOL     OW20608   3.223   3.692   4.688 -0.0583  0.4964  0.1096
 2991SOL    HW120609   3.305   3.717   4.647 -0.5071 -0.9078 -1.6430
 2991SOL    HW220610   3.257   3.635   4.758  0.8694  0.1902 -0.6015
 2992SOL     OW20611   2.792   2.250   2.295  0.1393 -0.4177  0.2922
 2992SOL    HW120612   2.776   2.219   2.206  1.1844 -0.6937  0.2118
 2992SOL    HW220613   2.886   2.269   2.291  0.1584 -0.3685  0.9195
 2993SOL     OW20614   3.039   1.422   7.936  0.4504  0.5531  0.0611
 2993SOL    HW120615   3.023   1.367   8.013  1.7133 -0.1311 -0.1555
 2993SOL    HW220616   3.115   1.377   7.900  0.0892  0.9167 -1.1738
 2994SOL     OW20617   2.795   0.465  14.456 -0.5277  0.2350  0.0117
 2994SOL    HW120618   2.825   0.483  14.545 -3.3083 -1.7112  1.3395
 2994SOL    HW220619   2.699   0.468  14.461 -0.6129  1.7026 -2.9038
 2995SOL     OW20620   2.359   0.089   0.690 -0.4658  0.0510 -0.6031
 2995SOL    HW120621   2.450   0.118   0.702 -0.9414  1.8806 -1.5788
 2995SOL    HW220622   2.324   0.115   0.776  0.6368 -0.0539 -0.1198
 2996SOL     OW20623   0.801   0.673   8.111 -0.0216  0.0292  0.0879
 2996SOL    HW120624   0.792   0.753   8.059  1.7176 -0.7555 -1.4429
 2996SOL    HW220625   0.841   0.705   8.192 -0.5799  2.0067 -0.4299
 2997SOL     OW20626   2.847   3.985   4.302 -0.2223 -0.2873  0.1587
 2997SOL    HW120627   2.762   3.982   4.346 -0.3636  2.0813  0.0668
 2997SOL    HW220628   2.845   3.912   4.240  1.7681 -0.6463  0.4884
 2998SOL     OW20629   3.559   0.041   7.143  0.4756 -0.3586 -0.3226
 2998SOL    HW120630   3.632   0.036   7.081 -0.6757  0.2687 -1.7296
 2998SOL    HW220631   3.559   4.688   7.170 -1.3325 -0.1710  0.2766
 2999SOL     OW20632   4.572   0.981   5.090 -0.2443  0.2817 -0.6613
 2999SOL    HW120633   4.597   0.893   5.114  0.0844  0.3977 -0.5854
 2999SOL    HW220634   4.522   1.015   5.165  0.4731 -1.1927  0.4799
 3000SOL     OW20635   2.891   2.035   0.701  0.4443  0.0574  0.1495
 3000SOL    HW120636   2.923   2.101   0.639 -0.1747 -3.6211 -4.0831
 3000SOL    HW220637   2.910   1.955   0.652  0.2452  2.6524 -4.1669
 3001SOL     OW20638   4.491   2.501   4.597  0.1309 -0.2955  0.0594
 3001SOL    HW120639   4.406   2.545   4.591  0.5843  0.4295 -1.0224
 3001SOL    HW220640   4.485   2.468   4.687  0.9844 -0.5636  0.0155
 3002SOL     OW20641   3.032   4.324   8.301  0.0474  0.2828  0.2486
 3002SOL    HW120642   3.099   4.391   8.287 -1.4602  1.9527  1.1518
 3002SOL    HW220643   3.023   4.303   8.208 -1.9912 -0.9662  0.7364
 3003SOL     OW20644   2.776   4.142  10.721  0.2061  0.2250 -1.0026
 3003SOL    HW120645   2.797   4.161  10.813 -0.3574 -0.1897 -0.7925
 3003SOL    HW220646   2.846   4.188  10.675 -0.0160  0.4060 -1.1589
 3004SOL     OW20647   3.494   4.706  16.262  0.3290  0.2539 -0.8084
 3004SOL    HW120648   3.464   4.703  16.353 -1.1143  0.3072 -1.2808
 3004SOL    HW220649   3.587   4.701  16.281  0.1105 -0.4986  0.0740
 3005SOL     OW20650   3.225   1.600   6.845 -0.0707  0.7988  0.3378
 3005SOL    HW120651   3.261   1.687   6.860  3.5658 -0.4567 -1.0927
 3005SOL    HW220652   3.137   1.630   6.825  1.2585  2.5710 -2.8374
 3006SOL     OW20653   4.064   1.945   8.991  0.0853 -0.2308 -0.5669
 3006SOL    HW120654   4.133   1.917   8.931 -0.2774  0.8819 -1.4979
 3006SOL    HW220655   4.120   2.013   9.030 -0.6903  0.2831 -0.3547
 3007SOL     OW20656   1.374   2.020   4.532 -0.0396  0.0837 -0.4648
 3007SOL    HW120657   1.429   2.009   4.610  0.5576  1.4356 -0.6924
 3007SOL    HW220658   1.310   1.951   4.548 -0.4729  0.2442 -1.5775
 3008SOL     OW20659   3.652   1.227  12.719 -0.3827  0.1740 -0.3613
 3008SOL    HW120660   3.722   1.225  12.784 -0.4605  2.2602 -0.2208
 3008SOL    HW220661   3.633   1.133  12.729 -2.2262  0.5533 -0.4159
 3009SOL     OW20662   3.216   3.480   8.108 -0.0427 -0.6379 -0.1228
 3009SOL    HW120663   3.151   3.486   8.177  0.0183 -0.0343 -0.1182
 3009SOL    HW220664   3.262   3.563   8.124  0.4555 -1.1306  1.0108
 3010SOL     OW20665   0.971   2.488   2.273  0.3950  0.8503 -0.2683
 3010SOL    HW120666   1.033   2.465   2.342  0.6812 -0.5857 -1.0100
 3010SOL    HW220667   0.926   2.403   2.272  1.7125  0.1458  0.5590
 3011SOL     OW20668   2.958   3.361  17.730  0.0566 -0.9075 -0.1844
 3011SOL    HW120669   3.047   3.335  17.705  0.8862  0.7512  1.0124
 3011SOL    HW220670   2.931   3.293   0.039  2.3257 -4.0968 -2.6574
 3012SOL     OW20671   3.145   1.600   5.847  0.7107  0.3289 -0.0918
 3012SOL    HW120672   3.192   1.531   5.892  1.5399  1.2947  0.5371
 3012SOL    HW220673   3.213   1.667   5.853  1.7728 -0.9050  1.5745
 3013SOL     OW20674   4.131   4.726   5.210  0.1858  0.5095  0.0171
 3013SOL    HW120675   4.096   0.072   5.186  0.2174  0.2791 -0.8296
 3013SOL    HW220676   4.069   4.705   5.280 -0.5259  0.6443 -0.5724
 3014SOL     OW20677   4.104   1.751   3.531 -0.1063  0.5234 -0.3216
 3014SOL    HW120678   4.179   1.714   3.485 -0.0502 -0.0773  0.2540
 3014SOL    HW220679   4.085   1.674   3.585  0.5585  0.3228 -0.3784
 3015SOL     OW20680   3.509   1.826  10.749  0.3214 -0.1264 -0.1798
 3015SOL    HW120681   3.423   1.794  10.776  0.8913 -0.6899  0.9673
 3015SOL    HW220682   3.509   1.920  10.769  0.9854 -0.0769 -0.3968
 3016SOL     OW20683   0.724   2.577   1.292  0.3688  0.4476  0.0584
 3016SOL    HW120684   0.687   2.639   1.354 -2.6749 -0.6461 -0.6426
 3016SOL    HW220685   0.816   2.602   1.301  0.5989  0.4451 -2.1137
 3017SOL     OW20686   2.227   1.604  10.116  0.4679  0.8013  0.1334
 3017SOL    HW120687   2.140   1.637  10.096  0.3752 -0.6193 -1.7844
 3017SOL    HW220688   2.217   1.516  10.154  1.0213 -0.3654 -2.3928
 3018SOL     OW20689   4.482   1.378   1.857 -0.6562 -0.1521 -0.7144
 3018SOL    HW120690   4.451   1.288   1.850 -0.9550 -0.2514  1.8201
 3018SOL    HW220691   4.572   1.349   1.845 -0.5899 -1.1733  2.2899
 3019SOL     OW20692   1.793   0.164   8.012  0.7315 -0.1667 -0.6769
 3019SOL    HW120693   1.732   0.162   7.938  0.1001 -0.7921 -0.1412
 3019SOL    HW220694   1.759   0.235   8.066  1.0924 -1.3590  1.1462
 3020SOL     OW20695   0.292   1.587   0.365 -0.3933  0.1310 -0.4406
 3020SOL    HW120696   0.302   1.681   0.381 -0.3592 -0.0459  0.5503
 3020SOL    HW220697   0.241   1.590   0.284  1.7528  0.9911 -1.7448
 3021SOL     OW20698   1.328   3.609   6.701 -0.2979  0.1166  0.2508
 3021SOL    HW120699   1.360   3.672   6.766 -1.6688 -0.1464  1.1739
 3021SOL    HW220700   1.406   3.554   6.704  0.4564  1.0509 -2.2386
 3022SOL     OW20701   0.011   0.745   8.362  0.3252 -0.2515  0.2572
 3022SOL    HW120702   4.666   0.721   8.403  0.4796  0.4014  0.9500
 3022SOL    HW220703   4.718   0.741   8.272 -0.7033  1.1816  0.5540
 3023SOL     OW20704   2.012   0.897   5.059 -0.3392 -0.2507 -0.1285
 3023SOL    HW120705   2.002   0.852   4.975  1.0654 -0.0648 -0.3992
 3023SOL    HW220706   1.956   0.850   5.121  0.1572 -0.5259  0.1175
 3024SOL     OW20707   2.159   0.805   3.407 -0.2101  0.0437  0.4107
 3024SOL    HW120708   2.074   0.841   3.383 -0.4138  0.1431  1.2926
 3024SOL    HW220709   2.143   0.786   3.499  0.0348  1.0870  0.6649
 3025SOL     OW20710   2.901   4.511   2.282  0.1464  0.1783  0.0143
 3025SOL    HW120711   2.920   4.553   2.366 -0.4658 -0.7306  0.6173
 3025SOL    HW220712   2.807   4.528   2.276  0.4210  1.2859 -1.0959
 3026SOL     OW20713   2.572   1.614  12.886 -0.0298  0.6533 -0.8193
 3026SOL    HW120714   2.517   1.535  12.886  1.6946 -0.5253  3.1368
 3026SOL    HW220715   2.615   1.604  12.801  0.7352 -2.7833 -0.0405
 3027SOL     OW20716   3.003   3.282  11.739 -0.1267 -0.1840  0.3286
 3027SOL    HW120717   2.929   3.232  11.704 -2.2129  0.7474  3.4220
 3027SOL    HW220718   2.970   3.371  11.732 -0.2494 -0.3424 -1.0602
 3028SOL     OW20719   1.355   3.226  16.331 -0.6380  0.2179 -0.1711
 3028SOL    HW120720   1.334   3.135  16.352 -1.5188  0.1848 -1.2114
 3028SOL    HW220721   1.448   3.225  16.352 -0.0928  1.7836 -2.5716
 3029SOL     OW20722   3.375   3.193   2.674 -0.0412  0.5061 -0.0417
 3029SOL    HW120723   3.319   3.115   2.671 -0.7308  1.0919 -2.4536
 3029SOL    HW220724   3.380   3.221   2.583 -1.6362  1.0616  0.0285
 3030SOL     OW20725   1.118   3.814   2.804 -0.2140  0.2026  0.5094
 3030SOL    HW120726   1.061   3.792   2.879 -0.6440 -0.6295 -0.0531
 3030SOL    HW220727   1.055   3.828   2.733  0.8080  3.0072  0.1962
 3031SOL     OW20728   3.357   0.564  12.602  0.4050  0.3273  0.0972
 3031SOL    HW120729   3.334   0.590  12.691 -1.6624 -0.6433 -0.1357
 3031SOL    HW220730   3.441   0.608  12.592  0.6443 -0.1962 -0.2103
 3032SOL     OW20731   4.326   1.539  15.816 -0.3591 -0.0713 -0.3337
 3032SOL    HW120732   4.313   1.453  15.857  1.0505  0.2039  0.7223
 3032SOL    HW220733   4.321   1.516  15.724 -3.3488  0.8281 -0.4005
 3033SOL     OW20734   2.266   0.365   8.947  0.3221 -0.3356  0.2433
 3033SOL    HW120735   2.173   0.348   8.936  0.6936 -1.8093 -0.6638
 3033SOL    HW220736   2.265   0.451   8.988 -3.8775 -0.2106 -0.1293
 3034SOL     OW20737   1.192   1.086  16.319  0.1862 -0.0772  0.6753
 3034SOL    HW120738   1.162   1.150  16.384 -0.0205 -0.3658  0.8667
 3034SOL    HW220739   1.112   1.044  16.289 -0.9260 -0.2734  3.9298
 3035SOL     OW20740   0.448   0.625   5.611  0.4587 -0.3430 -0.0636
 3035SOL    HW120741   0.502   0.687   5.563  0.8531 -0.6227  0.0109
 3035SOL    HW220742   0.476   0.557   5.549  1.3092 -0.7298  0.7442
 3036SOL     OW20743   2.360   2.154   2.710  0.0142 -0.0416  0.2548
 3036SOL    HW120744   2.345   2.205   2.630 -0.8535 -2.8564 -1.3670
 3036SOL    HW220745   2.283   2.183   2.758  0.1992  1.4839 -0.3622
 3037SOL     OW20746   1.659   0.404   1.890  0.0682 -0.4933 -0.4401
 3037SOL    HW120747   1.727   0.370   1.948 -0.1680  0.5604  0.4585
 3037SOL    HW220748   1.584   0.361   1.932 -0.4518  1.4159  0.5867
 3038SOL     OW20749   0.976   1.676   4.036  0.3215  0.3809 -0.1890
 3038SOL    HW120750   0.978   1.695   4.130  1.4896 -0.4291 -0.0577
 3038SOL    HW220751   0.900   1.617   4.038  1.3425 -0.9348 -0.6789
 3039SOL     OW20752   0.283   1.013   2.318 -0.2557 -0.3913 -0.2805
 3039SOL    HW120753   0.209   1.066   2.291 -1.3449 -1.3255  0.8456
 3039SOL    HW220754   0.282   0.937   2.260 -1.6456 -1.6214  1.3421
 3040SOL     OW20755   2.214   1.552   1.597 -0.5165 -0.0243  0.0339
 3040SOL    HW120756   2.254   1.592   1.520 -0.9324  0.1526 -0.0913
 3040SOL    HW220757   2.214   1.615   1.668  0.7915  0.0105 -0.0057
 3041SOL     OW20758   2.519   2.603  10.129  0.5893  0.4723  0.2405
 3041SOL    HW120759   2.544   2.603  10.037 -1.2420 -0.2712 -0.2604
 3041SOL    HW220760   2.488   2.689  10.156  0.2347  0.2995  0.3845
 3042SOL     OW20761   2.960   2.369   6.843  0.7977  0.2249  0.1172
 3042SOL    HW120762   2.977   2.463   6.836  0.0638  0.4512  1.3600
 3042SOL    HW220763   2.904   2.375   6.921 -2.0883 -0.6528 -1.9005
 3043SOL     OW20764   1.181   1.379   8.716  0.5745  0.1200 -0.5206
 3043SOL    HW120765   1.230   1.367   8.634  0.7989 -0.6106 -0.2794
 3043SOL    HW220766   1.090   1.387   8.687  0.2727 -1.8858 -0.0995
 3044SOL     OW20767   4.406   1.846   1.943  0.2706  0.3727  0.3018
 3044SOL    HW120768   4.374   1.801   1.865 -1.3481  3.2486 -0.7044
 3044SOL    HW220769   4.467   1.913   1.912 -1.2140  2.1176  1.1454
 3045SOL     OW20770   0.860   3.227   3.850 -0.1069 -0.1424  0.6691
 3045SOL    HW120771   0.908   3.300   3.889  0.7719 -0.7946  0.7957
 3045SOL    HW220772   0.819   3.265   3.772  0.5892  0.3024  0.5215
 3046SOL     OW20773   0.360   3.199   3.049  0.2585  0.0972  0.9518
 3046SOL    HW120774   0.292   3.134   3.065 -0.3393  0.9927  2.0582
 3046SOL    HW220775   0.349   3.192   2.954  1.8332 -1.1437  0.8518
 3047SOL     OW20776   2.270   2.553   6.151  0.2531  0.1421  0.3243
 3047SOL    HW120777   2.276   2.488   6.082 -1.0497 -0.4488  0.7719
 3047SOL    HW220778   2.258   2.482   6.214  1.1745 -1.3264 -1.1606
 3048SOL     OW20779   4.184   0.163   2.546  0.2093 -0.0706  0.7947
 3048SOL    HW120780   4.163   0.158   2.453  2.6197  0.4377  0.2294
 3048SOL    HW220781   4.259   0.222   2.546 -0.8849  1.3174 -0.9892
 3049SOL     OW20782   3.088   4.335   6.684 -0.2655  0.2162  0.5774
 3049SOL    HW120783   3.024   4.326   6.754 -0.9759 -0.4248 -0.1536
 3049SOL    HW220784   3.167   4.347   6.737  0.7043  0.2200 -0.8450
 3050SOL     OW20785   1.737   0.543  13.538  0.0241 -0.4580 -0.7317
 3050SOL    HW120786   1.739   0.555  13.633 -1.4800  2.4533 -1.0869
 3050SOL    HW220787   1.644   0.544  13.516 -0.1453 -3.1695 -0.1478
 3051SOL     OW20788   2.475   0.216   2.129  0.0666  0.2461 -0.1433
 3051SOL    HW120789   2.457   0.275   2.056 -0.4472 -2.3481 -2.1458
 3051SOL    HW220790   2.568   0.207   2.110 -0.1429  0.7910 -1.4065
 3052SOL     OW20791   1.712   1.249   2.405  0.1052 -0.6985 -0.4244
 3052SOL    HW120792   1.744   1.298   2.329  0.2411  0.7919  0.6035
 3052SOL    HW220793   1.752   1.164   2.385  0.3790 -0.5772 -0.3831
 3053SOL     OW20794   4.377   3.387  11.866 -0.1048  0.1873  0.5956
 3053SOL    HW120795   4.304   3.391  11.805 -0.8432  1.2690  1.5510
 3053SOL    HW220796   4.438   3.452  11.831 -0.2247  0.1350  0.2888
 3054SOL     OW20797   2.533   3.216   8.780 -0.3513 -0.0736  0.3001
 3054SOL    HW120798   2.491   3.273   8.844 -2.6830  0.3115 -1.5471
 3054SOL    HW220799   2.552   3.272   8.704  1.0490 -0.4427  0.3685
 3055SOL     OW20800   0.849   3.747   0.613 -0.1750 -0.5313  0.8624
 3055SOL    HW120801   0.885   3.682   0.674  2.2619 -0.0151 -0.0359
 3055SOL    HW220802   0.799   3.799   0.675 -2.6135 -0.4407 -1.1852
 3056SOL     OW20803   3.148   2.393   0.381 -0.1808  0.0838  0.0905
 3056SOL    HW120804   3.123   2.481   0.410  0.9700  0.5479 -0.3278
 3056SOL    HW220805   3.244   2.397   0.378 -0.2257  3.2086  2.2864
 3057SOL     OW20806   0.810   2.005   3.817 -0.4443  0.3492 -0.3704
 3057SOL    HW120807   0.749   1.968   3.752  0.0527 -0.0396 -0.6223
 3057SOL    HW220808   0.793   2.098   3.806 -0.9712  0.3506  0.4239
 3058SOL     OW20809   3.705   2.176  17.139 -0.0549 -0.4438  0.1630
 3058SOL    HW120810   3.668   2.154  17.224 -2.0202  0.6473 -0.4096
 3058SOL    HW220811   3.677   2.264  17.112 -0.8044 -0.5963  0.4667
 3059SOL     OW20812   1.244   2.768  12.713  0.4283 -0.2471 -0.0802
 3059SOL    HW120813   1.217   2.857  12.736 -1.3702 -0.6724 -0.5565
 3059SOL    HW220814   1.176   2.708  12.743  0.2342 -0.7105 -1.4260
 3060SOL     OW20815   2.792   3.992   2.995 -0.7934 -0.3037 -0.1440
 3060SOL    HW120816   2.790   4.010   3.089  0.4073 -1.1864  0.0578
 3060SOL    HW220817   2.875   4.035   2.974  0.2324 -1.9851  0.4425
 3061SOL     OW20818   1.216   0.159   7.562 -0.7224  0.1443  0.1605
 3061SOL    HW120819   1.186   0.247   7.538  0.4146  0.5363  0.1530
 3061SOL    HW220820   1.197   0.156   7.656 -0.8842  3.9633  0.2489
 3062SOL     OW20821   0.799   0.663  15.746  0.0098 -0.1155  0.1507
 3062SOL    HW120822   0.793   0.739  15.804  4.0739  0.0471  0.3435
 3062SOL    HW220823   0.887   0.627  15.758 -0.1867 -1.0364 -1.1794
 3063SOL     OW20824   4.465   1.881  14.407 -0.6683  1.0994 -0.0887
 3063SOL    HW120825   4.477   1.822  14.333 -0.3913  1.4439 -0.3152
 3063SOL    HW220826   4.489   1.961  14.360 -0.3826  1.8770  1.3937
 3064SOL     OW20827   0.404   4.718   6.514  0.4595  0.1695  0.4681
 3064SOL    HW120828   0.310   4.722   6.497  0.7017  0.7978 -0.7443
 3064SOL    HW220829   0.416   0.070   6.541  1.6257  0.1000  0.1882
 3065SOL     OW20830   4.259   1.217   4.480 -0.1749 -0.4353 -0.3769
 3065SOL    HW120831   4.294   1.144   4.531  0.2293 -0.9181 -1.3401
 3065SOL    HW220832   4.326   1.220   4.411 -0.6064 -0.9053 -0.8144
 3066SOL     OW20833   3.496   0.472   3.296  0.2148  0.3533 -0.0845
 3066SOL    HW120834   3.407   0.480   3.331 -0.5675 -1.8462 -1.5586
 3066SOL    HW220835   3.494   0.385   3.255  0.1566  0.3548 -0.0852
 3067SOL     OW20836   1.746   0.422   7.176 -0.4730  0.3878  0.0499
 3067SOL    HW120837   1.839   0.423   7.198 -0.6347 -2.3747  0.8807
 3067SOL    HW220838   1.734   0.328   7.162  1.4221 -0.3367  3.2240
 3068SOL     OW20839   0.423   1.427  15.646  0.3951  0.2959 -0.0736
 3068SOL    HW120840   0.483   1.374  15.593  0.8119  1.1397 -0.4464
 3068SOL    HW220841   0.371   1.471  15.579 -0.6653  0.8827  1.1423
 3069SOL     OW20842   2.190   4.258   7.027 -0.1189 -0.0971 -0.1384
 3069SOL    HW120843   2.117   4.313   7.054 -0.4292 -0.2932 -0.5923
 3069SOL    HW220844   2.256   4.328   7.025 -0.3276  0.1536  2.0636
 3070SOL     OW20845   0.082   4.342  12.961 -0.1306 -0.2324 -0.1670
 3070SOL    HW120846   0.143   4.416  12.968 -1.0453  0.5758 -0.7295
 3070SOL    HW220847   0.143   4.275  12.991  1.2095  0.3270 -1.6003
 3071SOL     OW20848   3.297   1.972   5.627 -0.0087  0.5091 -0.2991
 3071SOL    HW120849   3.310   1.997   5.536  1.6886 -2.0827 -0.7739
 3071SOL    HW220850   3.202   1.966   5.630 -0.0113  0.1164 -1.4454
 3072SOL     OW20851   1.551   3.477   8.610  0.6373 -0.3401 -0.0740
 3072SOL    HW120852   1.623   3.457   8.550  2.9009  2.8231  1.6310
 3072SOL    HW220853   1.473   3.463   8.556  1.4331 -1.6526 -0.9028
 3073SOL     OW20854   2.025   3.697  12.896  0.1898 -0.4696 -0.2769
 3073SOL    HW120855   2.104   3.657  12.860  1.9596  1.9999  0.8493
 3073SOL    HW220856   1.987   3.617  12.930 -2.9246  0.9007 -0.4841
 3074SOL     OW20857   0.866   4.108   7.876 -0.4513 -0.1517  0.1597
 3074SOL    HW120858   0.841   4.191   7.918 -1.0439 -0.7634  1.0054
 3074SOL    HW220859   0.889   4.057   7.954  0.2550  0.0834  0.1068
 3075SOL     OW20860   3.412   1.705  14.015 -0.3767 -0.3044  0.7230
 3075SOL    HW120861   3.330   1.673  14.053 -1.9664  1.0707 -1.5645
 3075SOL    HW220862   3.407   1.672  13.926  1.7027  1.3887 -0.0368
 3076SOL     OW20863   3.028   1.065   4.435  0.4329  0.0021  0.4596
 3076SOL    HW120864   2.949   1.013   4.452  1.4534 -2.5930 -2.7716
 3076SOL    HW220865   3.075   1.064   4.519 -1.9672  0.8019  1.8410
 3077SOL     OW20866   3.863   1.470  16.291 -0.6275 -0.2553 -0.8353
 3077SOL    HW120867   3.838   1.457  16.199  1.3922 -0.9545 -1.2701
 3077SOL    HW220868   3.958   1.480  16.291 -0.5779 -0.7596 -0.1832
 3078SOL     OW20869   2.569   2.878   2.093 -0.0933 -0.2745  0.2901
 3078SOL    HW120870   2.516   2.891   2.171 -1.1680  0.1829 -0.5102
 3078SOL    HW220871   2.573   2.971   2.070 -1.4185  0.2474  2.1638
 3079SOL     OW20872   3.834   1.845  17.751 -1.0102 -1.1155  0.4216
 3079SOL    HW120873   3.780   1.766   0.003 -0.8204 -1.3433 -1.0681
 3079SOL    HW220874   3.814   1.889   0.080 -0.9973  0.1699 -0.2623
 3080SOL     OW20875   1.153   2.289   4.786  0.2830 -0.2885  0.0784
 3080SOL    HW120876   1.159   2.244   4.871  0.3602 -1.3879 -0.5050
 3080SOL    HW220877   1.112   2.215   4.742  0.4925  1.5579 -3.2321
 3081SOL     OW20878   2.624   2.512  12.798 -0.2866 -0.2021 -0.2025
 3081SOL    HW120879   2.631   2.581  12.732 -1.7178  0.7245  0.5930
 3081SOL    HW220880   2.715   2.485  12.807  0.3244  0.6873 -3.7712
 3082SOL     OW20881   3.514   2.247  17.650 -0.2658 -0.0949  0.6340
 3082SOL    HW120882   3.505   2.335  17.612  0.4626  0.2519  1.2692
 3082SOL    HW220883   3.581   2.263  17.716 -1.4622  0.7495  1.6600
 3083SOL     OW20884   0.782   0.703   5.212 -0.6057 -0.2335 -0.1543
 3083SOL    HW120885   0.698   0.675   5.176 -0.6129 -0.1535 -0.2001
 3083SOL    HW220886   0.849   0.642   5.183 -1.3266 -0.9940 -0.2032
 3084SOL     OW20887   2.356   2.928  13.490  0.0378 -0.5915 -0.2491
 3084SOL    HW120888   2.448   2.939  13.465 -0.1728  1.2444 -0.1734
 3084SOL    HW220889   2.311   2.991  13.434  0.8265  1.2903  1.2424
 3085SOL     OW20890   0.986   0.767   5.018  0.3107 -0.2894 -0.0981
 3085SOL    HW120891   0.903   0.807   5.041 -0.3209 -1.8740  0.3767
 3085SOL    HW220892   0.967   0.721   4.936  2.5823 -1.6701  0.1289
 3086SOL     OW20893   0.546   1.114  13.692 -0.3664  0.1234  0.4212
 3086SOL    HW120894   0.583   1.159  13.616 -1.1647 -1.3632 -0.8296
 3086SOL    HW220895   0.473   1.175  13.704 -1.0919 -0.6634 -0.0533
 3087SOL     OW20896   1.703   4.531   6.200  0.3344  0.6080  0.2435
 3087SOL    HW120897   1.754   4.519   6.280  1.8786 -1.1423 -0.9916
 3087SOL    HW220898   1.617   4.548   6.238  0.1378  0.5680 -0.1756
 3088SOL     OW20899   3.866   0.842   6.127 -0.5058 -0.5489  0.6743
 3088SOL    HW120900   3.876   0.772   6.062 -0.3309 -0.3230  0.4569
 3088SOL    HW220901   3.909   0.803   6.203  0.5291 -1.0727 -0.1837
 3089SOL     OW20902   4.355   1.355   1.620 -0.8185  0.1907 -0.7998
 3089SOL    HW120903   4.405   1.381   1.697 -1.1033 -2.2262  0.1901
 3089SOL    HW220904   4.267   1.352   1.658  0.8127 -0.4813  2.8534
 3090SOL     OW20905   1.301   0.320   2.381 -0.4008 -0.3195  0.3159
 3090SOL    HW120906   1.321   0.279   2.465  1.4511  0.3935  0.2138
 3090SOL    HW220907   1.213   0.284   2.380 -0.5182  0.0073 -2.7402
 3091SOL     OW20908   2.713   3.733   9.908 -0.5631  0.6378 -0.1722
 3091SOL    HW120909   2.757   3.654   9.940  0.5285  1.1477 -0.4093
 3091SOL    HW220910   2.652   3.695   9.845 -0.1524 -0.1332 -0.1012
 3092SOL     OW20911   0.775   2.889   2.285  0.0991  0.1671 -0.2927
 3092SOL    HW120912   0.681   2.886   2.299  0.2140 -1.5196  0.0455
 3092SOL    HW220913   0.787   2.984   2.276  3.1199 -0.1951 -0.2064
 3093SOL     OW20914   2.476   1.033   5.199  0.2242 -0.2271 -0.1412
 3093SOL    HW120915   2.442   1.059   5.284 -0.7265  1.6715 -1.0937
 3093SOL    HW220916   2.393   1.028   5.151 -0.5876  2.1086  1.0436
 3094SOL     OW20917   3.510   1.497   4.633 -0.1486 -0.2903  0.2809
 3094SOL    HW120918   3.470   1.543   4.707  1.4976  0.9601  0.3835
 3094SOL    HW220919   3.433   1.445   4.610  0.2897 -1.3975  1.3162
 3095SOL     OW20920   1.602   2.750   6.847 -0.0155  0.0163  0.0434
 3095SOL    HW120921   1.689   2.724   6.879  0.2264  0.0114 -0.6189
 3095SOL    HW220922   1.608   2.842   6.869 -2.4340 -0.2048  1.5477
 3096SOL     OW20923   0.901   3.354   1.184  0.4750  0.6184  0.5298
 3096SOL    HW120924   0.849   3.318   1.255 -2.1083  0.3730 -1.4761
 3096SOL    HW220925   0.946   3.432   1.217 -0.1429  0.9716  0.5458
 3097SOL     OW20926   2.376   2.714   2.947 -0.6605 -0.0333  0.4845
 3097SOL    HW120927   2.449   2.731   2.887 -0.0956 -2.3954  0.4936
 3097SOL    HW220928   2.402   2.645   3.008  0.0103  0.7739  1.1088
 3098SOL     OW20929   0.000   2.441   4.645  0.3208  0.1461 -0.4030
 3098SOL    HW120930   4.661   2.427   4.591  0.0749 -4.1014  1.0111
 3098SOL    HW220931   0.062   2.453   4.573  1.5014 -0.0809  0.5726
 3099SOL     OW20932   1.226   3.066   4.766  0.3583 -0.0798 -0.8654
 3099SOL    HW120933   1.307   3.102   4.731  0.3611  2.9526  2.1829
 3099SOL    HW220934   1.156   3.103   4.711 -0.0955  0.4355  0.0377
 3100SOL     OW20935   2.805   4.651   2.923 -0.4389 -0.8121 -0.0859
 3100SOL    HW120936   2.738   4.675   2.858  0.3732 -0.3540 -0.7517
 3100SOL    HW220937   2.869   4.637   2.853  2.2405 -0.9914  2.4119
 3101SOL     OW20938   2.856   3.512  14.026 -0.5595  0.1225 -0.0160
 3101SOL    HW120939   2.836   3.425  14.061  0.4699  0.7383  2.0912
 3101SOL    HW220940   2.772   3.557  14.039 -1.4448 -0.9247 -2.1138
 3102SOL     OW20941   3.057   1.634  13.279 -0.5699  0.5752  0.3979
 3102SOL    HW120942   3.019   1.637  13.191 -2.4380  1.0813  1.2256
 3102SOL    HW220943   2.991   1.592  13.335  1.5325 -1.6075  1.2162
 3103SOL     OW20944   1.807   2.461   6.230  0.1247 -0.5084 -0.4649
 3103SOL    HW120945   1.730   2.512   6.207  0.1545 -0.7221 -1.0401
 3103SOL    HW220946   1.850   2.491   6.149 -2.3836  1.2578 -1.1184
 3104SOL     OW20947   2.887   2.708   8.060 -0.3598 -0.1750  0.0482
 3104SOL    HW120948   2.863   2.696   7.968 -1.6003  2.6632  0.0180
 3104SOL    HW220949   2.845   2.625   8.085  0.9905 -0.3750  1.6015
 3105SOL     OW20950   0.991   2.064   7.558 -0.4700  0.1498 -0.7348
 3105SOL    HW120951   1.049   2.128   7.599 -0.7182 -0.4148  0.4899
 3105SOL    HW220952   1.016   1.978   7.593  0.3081 -0.2789 -2.3300
 3106SOL     OW20953   2.977   0.843   8.150  0.5922  0.2134  0.1542
 3106SOL    HW120954   2.938   0.876   8.231 -1.3547  0.9588 -1.0888
 3106SOL    HW220955   3.019   0.923   8.118 -0.4609  1.0185  0.7687
 3107SOL     OW20956   2.279   2.552   9.067 -0.3275 -0.1737  0.7639
 3107SOL    HW120957   2.227   2.632   9.058  1.0386  0.4301 -1.5449
 3107SOL    HW220958   2.218   2.487   9.032 -0.3237  0.5420 -0.5504
 3108SOL     OW20959   1.239   4.493   5.787  0.2244  0.5720 -0.2794
 3108SOL    HW120960   1.166   4.523   5.841 -0.2294 -0.1798 -0.4602
 3108SOL    HW220961   1.302   4.564   5.790  1.2946 -0.4487  1.6440
 3109SOL     OW20962   3.797   2.968   4.983  0.2394 -0.7536  0.1800
 3109SOL    HW120963   3.797   2.946   5.076  2.6756 -2.6237 -0.2771
 3109SOL    HW220964   3.703   2.980   4.967  0.5383  2.7260  0.9388
 3110SOL     OW20965   3.203   3.500  11.909 -0.2242  0.3806  0.8026
 3110SOL    HW120966   3.163   3.573  11.954  0.6255  0.3289  1.6521
 3110SOL    HW220967   3.127   3.443  11.900  1.2452 -1.4034 -0.6160
 3111SOL     OW20968   3.623   0.406   2.809  0.2458 -0.2722  0.5349
 3111SOL    HW120969   3.593   0.446   2.891 -0.9980 -1.0928  0.4696
 3111SOL    HW220970   3.538   0.384   2.771  0.1493 -1.1982  1.2987
 3112SOL     OW20971   1.581   0.862   5.814  0.3560 -0.0270  0.5131
 3112SOL    HW120972   1.540   0.941   5.779 -1.7341 -1.5883 -0.5738
 3112SOL    HW220973   1.673   0.860   5.786 -0.3172  3.2159 -1.8056
 3113SOL     OW20974   2.903   1.900   7.788 -0.3461 -0.1566 -0.3973
 3113SOL    HW120975   2.915   1.808   7.813  1.0710  0.1266 -0.0202
 3113SOL    HW220976   2.994   1.930   7.794 -0.5408 -0.1686  2.5803
 3114SOL     OW20977   3.466   2.673   7.898 -0.0020 -0.4062  0.0046
 3114SOL    HW120978   3.388   2.718   7.868  0.0751  0.9035  1.7449
 3114SOL    HW220979   3.502   2.732   7.964  0.6804 -0.3070 -0.4516
 3115SOL     OW20980   0.784   1.206   2.204  0.0816 -0.4238  0.6697
 3115SOL    HW120981   0.803   1.113   2.204  1.8691 -0.0617  1.3283
 3115SOL    HW220982   0.871   1.247   2.206 -0.0048 -0.3063  2.3079
 3116SOL     OW20983   1.904   1.535   0.079 -0.4368  0.4979  0.1612
 3116SOL    HW120984   1.879   1.580   0.160 -1.5531 -0.1028  0.1536
 3116SOL    HW220985   1.877   1.445   0.094  0.6785  0.1632  0.1210
 3117SOL     OW20986   4.426   3.910   3.021  0.4380  0.0316 -0.0238
 3117SOL    HW120987   4.497   3.950   3.071  1.3434 -1.6442  0.0156
 3117SOL    HW220988   4.351   3.908   3.080  0.3476  0.4023 -0.1246
 3118SOL     OW20989   4.288   3.994   7.746  0.1531 -0.6739 -0.2886
 3118SOL    HW120990   4.296   3.899   7.753 -0.0453 -0.5044  2.4185
 3118SOL    HW220991   4.209   4.016   7.696 -0.2900 -1.6193 -0.0109
 3119SOL     OW20992   3.570   0.801   8.650 -0.1366  0.2033 -0.3667
 3119SOL    HW120993   3.507   0.734   8.673 -0.0753  0.1963 -0.2220
 3119SOL    HW220994   3.558   0.858   8.726 -2.5435  1.6834 -1.8586
 3120SOL     OW20995   4.212   0.878   4.212  0.0036 -0.0409  0.8570
 3120SOL    HW120996   4.150   0.809   4.188  0.1065  0.1988 -0.1073
 3120SOL    HW220997   4.170   0.957   4.179  1.0213  0.1432 -0.0005
 3121SOL     OW20998   2.780   0.597   8.352  0.0065  0.0866  0.0778
 3121SOL    HW120999   2.830   0.674   8.376 -2.7102  1.8591  0.1146
 3121SOL    HW221000   2.774   0.600   8.257  1.1110 -0.8668 -0.0229
 3122SOL     OW21001   3.039   1.943   5.622  0.0825 -0.0591  0.0096
 3122SOL    HW121002   2.953   1.968   5.589 -0.3062 -0.6127  0.6060
 3122SOL    HW221003   3.027   1.954   5.717  1.3215 -2.2751  0.4475
 3123SOL     OW21004   3.332   0.813   8.412  0.1771  0.1532 -0.1858
 3123SOL    HW121005   3.388   0.765   8.474  2.2279  0.6630 -1.6493
 3123SOL    HW221006   3.248   0.811   8.458  0.2754 -2.2510 -0.0900
 3124SOL     OW21007   4.674   1.009   7.151 -0.8763 -0.0609  0.3151
 3124SOL    HW121008   4.634   0.928   7.182  0.1605 -1.1107 -1.0919
 3124SOL    HW221009   4.606   1.073   7.173 -2.1385 -1.5244  0.6231
 3125SOL     OW21010   2.437   0.741   5.504  0.3557 -0.2204  0.2077
 3125SOL    HW121011   2.475   0.658   5.475  0.0415 -1.0952  2.2378
 3125SOL    HW221012   2.355   0.750   5.456  0.0942  2.3809  1.1515
 3126SOL     OW21013   3.346   0.029   3.336 -0.2637  0.2252  0.1587
 3126SOL    HW121014   3.313   0.077   3.412 -3.1169 -1.5950  0.0647
 3126SOL    HW221015   3.396   4.693   3.371 -2.8137 -2.6644 -2.3599
 3127SOL     OW21016   4.247   0.871  14.337  0.0303  0.3386  0.2620
 3127SOL    HW121017   4.174   0.933  14.336  0.8059  1.2717  0.9573
 3127SOL    HW221018   4.281   0.883  14.248 -2.7368 -1.5414 -1.0511
 3128SOL     OW21019   0.607   3.925   4.316  0.0620 -0.0418 -0.2284
 3128SOL    HW121020   0.684   3.982   4.312  1.4027 -1.7897  0.3101
 3128SOL    HW221021   0.557   3.957   4.240  0.3535 -1.6303 -1.0876
 3129SOL     OW21022   4.138   0.353   6.087  0.3711  0.1016 -0.2959
 3129SOL    HW121023   4.166   0.351   6.179 -0.0217 -1.2179 -0.1998
 3129SOL    HW221024   4.045   0.374   6.092  0.5918  1.1303 -0.4112
 3130SOL     OW21025   2.251   1.308   8.223  0.2302 -0.7475  0.1713
 3130SOL    HW121026   2.318   1.241   8.237  2.0271  1.4021  1.8757
 3130SOL    HW221027   2.291   1.385   8.184 -1.3414 -1.0177 -2.0055
 3131SOL     OW21028   2.998   1.193  11.400  0.4887  0.1634  0.2574
 3131SOL    HW121029   3.010   1.172  11.307  0.0608 -0.7764  0.4199
 3131SOL    HW221030   3.022   1.108  11.436 -1.1282 -0.1853  0.4799
 3132SOL     OW21031   4.572   1.408   0.980  0.4062 -0.5583  0.2083
 3132SOL    HW121032   4.494   1.368   1.018  0.0527  0.7131  0.8189
 3132SOL    HW221033   4.626   1.330   0.992  1.7750  0.4648  0.6651
 3133SOL     OW21034   2.767   2.167   0.314 -0.6400  0.4683  0.0814
 3133SOL    HW121035   2.847   2.161   0.367  0.2677  2.8991 -1.0339
 3133SOL    HW221036   2.697   2.159   0.380  0.9343 -1.9084  1.4675
 3134SOL     OW21037   4.141   1.023   8.319 -0.3628 -0.6020  0.4452
 3134SOL    HW121038   4.125   0.952   8.381  1.7657 -0.0164  1.6911
 3134SOL    HW221039   4.072   1.085   8.343 -0.5402 -0.4039 -0.5721
 3135SOL     OW21040   3.870   0.514   2.741 -1.1137  0.0479 -0.1837
 3135SOL    HW121041   3.888   0.508   2.647  1.7656  0.7743  0.3279
 3135SOL    HW221042   3.793   0.458   2.754 -0.7809  0.1762  2.1768
 3136SOL     OW21043   1.160   1.851   5.429  0.5488 -0.3326 -0.0877
 3136SOL    HW121044   1.230   1.907   5.396 -1.8171  1.5384 -1.9139
 3136SOL    HW221045   1.194   1.762   5.418  1.3732 -0.1303  0.8327
 3137SOL     OW21046   1.816   3.880   8.093  0.3630  0.4044  0.4129
 3137SOL    HW121047   1.844   3.790   8.080 -0.3583 -0.0153  1.6699
 3137SOL    HW221048   1.769   3.868   8.176 -1.5523  2.6699 -0.3296
 3138SOL     OW21049   0.683   1.091  16.768 -0.3342 -0.4438 -0.4611
 3138SOL    HW121050   0.706   0.998  16.773  1.0223 -0.1642 -1.3311
 3138SOL    HW221051   0.600   1.077  16.723 -1.2839  1.5836  0.6511
 3139SOL     OW21052   3.550   3.150   4.138  0.2501 -0.4879 -0.3961
 3139SOL    HW121053   3.620   3.213   4.126  0.8953 -1.1822 -0.2935
 3139SOL    HW221054   3.554   3.142   4.234  0.1519  1.2506 -0.2497
 3140SOL     OW21055   1.181   2.249   5.087  0.4092  0.0359 -0.2488
 3140SOL    HW121056   1.144   2.201   5.161 -1.4076  0.7221 -0.7158
 3140SOL    HW221057   1.213   2.331   5.126  0.2328 -0.4521  0.9321
 3141SOL     OW21058   2.699   2.359   9.889  0.4107  0.6996 -0.0486
 3141SOL    HW121059   2.666   2.448   9.897  1.8624  1.1465  1.0403
 3141SOL    HW221060   2.731   2.364   9.799 -2.5778 -0.7500 -1.2080
 3142SOL     OW21061   0.837   4.354  13.699 -0.4093  0.3698 -0.4995
 3142SOL    HW121062   0.919   4.374  13.654  0.2137 -0.2060  0.3517
 3142SOL    HW221063   0.781   4.364  13.623  1.3607 -0.6082 -1.9369
 3143SOL     OW21064   3.836   1.260   4.450 -0.1116 -0.1125 -0.0262
 3143SOL    HW121065   3.804   1.330   4.508  1.6064  0.6753 -0.0318
 3143SOL    HW221066   3.799   1.185   4.496 -1.7454 -0.5173 -1.9921
 3144SOL     OW21067   4.723   2.411   2.549  0.1460 -0.0574  0.2985
 3144SOL    HW121068   4.733   2.317   2.560  0.8726 -0.1763 -1.3342
 3144SOL    HW221069   0.073   2.423   2.515 -0.2623  0.5040 -0.5832
 3145SOL     OW21070   3.557   3.050   2.861 -0.2135 -0.5987 -0.2419
 3145SOL    HW121071   3.607   3.019   2.785  0.7842  0.4069  0.0060
 3145SOL    HW221072   3.508   3.118   2.816  0.7215  0.3448  0.1644
 3146SOL     OW21073   1.757   1.366   5.267  0.7765 -0.5349  0.3929
 3146SOL    HW121074   1.802   1.328   5.192 -1.7731  0.3439 -1.5577
 3146SOL    HW221075   1.723   1.290   5.314  0.7835  0.4427  1.9849
 3147SOL     OW21076   0.152   3.674  10.039  0.5041 -0.0333 -0.5688
 3147SOL    HW121077   0.207   3.608   9.996  1.4113  0.9725 -0.9700
 3147SOL    HW221078   0.106   3.707   9.962  2.9197  2.0662 -1.0965
 3148SOL     OW21079   3.640   3.182   0.817 -0.1898  0.1778  0.3403
 3148SOL    HW121080   3.691   3.242   0.763  1.5440 -0.2137  1.5453
 3148SOL    HW221081   3.645   3.229   0.900 -1.7904  0.2578  0.4079
 3149SOL     OW21082   0.688   3.290   0.041 -0.2241 -0.2036  0.1169
 3149SOL    HW121083   0.716   3.349   0.110 -0.1701 -0.6198  0.4513
 3149SOL    HW221084   0.763   3.305  17.737 -0.6437  3.8245  0.6533
 3150SOL     OW21085   4.059   3.118  11.823 -0.0750 -0.3527  0.0193
 3150SOL    HW121086   3.993   3.141  11.757  0.2009  1.0292  0.2271
 3150SOL    HW221087   4.017   3.179  11.884  3.1964  1.4837  0.4759
 3151SOL     OW21088   1.764   4.559   2.984 -0.7533 -0.0174  0.2182
 3151SOL    HW121089   1.750   4.578   2.891 -0.8421  2.3169  0.7193
 3151SOL    HW221090   1.858   4.572   2.996 -0.9600  0.6873  1.0935
 3152SOL     OW21091   1.350   3.826  14.414 -0.3533  0.0685 -0.3764
 3152SOL    HW121092   1.306   3.751  14.454 -1.0883  0.1288 -1.0712
 3152SOL    HW221093   1.319   3.814  14.324 -2.8156 -0.8563  0.5802
 3153SOL     OW21094   0.266   3.456  11.008 -0.5275  0.0434 -0.1772
 3153SOL    HW121095   0.207   3.522  11.044 -0.9578 -1.9154  2.6471
 3153SOL    HW221096   0.341   3.452  11.068 -0.6764  2.5608  0.1827
 3154SOL     OW21097   1.983   1.609   4.468  0.5000  0.1612  0.1943
 3154SOL    HW121098   2.039   1.646   4.400  0.0379  1.0724  0.2995
 3154SOL    HW221099   1.941   1.534   4.426 -2.2424  1.6197  0.2766
 3155SOL     OW21100   3.937   3.270  12.027  0.6042 -0.0547 -0.2325
 3155SOL    HW121101   3.854   3.312  12.002 -0.4530 -1.3152  1.1193
 3155SOL    HW221102   3.997   3.339  11.999 -0.0912 -0.3425 -2.3720
 3156SOL     OW21103   3.558   1.945   5.957  0.1181  0.4705 -0.1820
 3156SOL    HW121104   3.623   1.948   5.886  0.9112 -0.9518  0.4908
 3156SOL    HW221105   3.609   1.893   6.018 -0.4363  1.3174  1.0038
 3157SOL     OW21106   3.219   1.151   4.687  0.6369 -0.8420  0.3992
 3157SOL    HW121107   3.263   1.236   4.681 -1.3034 -0.0014 -2.2351
 3157SOL    HW221108   3.155   1.155   4.757  1.6522  0.3918  1.2533
 3158SOL     OW21109   1.205   3.156  16.597 -0.2451 -0.0823  0.3337
 3158SOL    HW121110   1.158   3.207  16.531  0.9264  0.1188 -0.3458
 3158SOL    HW221111   1.277   3.214  16.621 -1.3338  1.1438  0.6540
 3159SOL     OW21112   2.181   4.412  13.126 -0.4323 -0.6378  0.2377
 3159SOL    HW121113   2.220   4.468  13.193 -1.7924  0.6308 -0.0349
 3159SOL    HW221114   2.090   4.437  13.136 -0.2733  0.8607 -2.0113
 3160SOL     OW21115   0.365   4.309   3.263  0.2950  0.3718 -0.1710
 3160SOL    HW121116   0.356   4.224   3.221  1.1210  0.0252  0.3502
 3160SOL    HW221117   0.452   4.307   3.304  0.5896 -0.0826 -0.8333
 3161SOL     OW21118   1.757   1.852   6.573 -0.4265 -0.3250  0.3454
 3161SOL    HW121119   1.782   1.939   6.544  0.4440 -0.6166  0.2274
 3161SOL    HW221120   1.795   1.794   6.507  0.2310  0.9069 -0.3430
 3162SOL     OW21121   1.562   0.302   5.621 -0.2793 -0.0190  0.0843
 3162SOL    HW121122   1.514   0.384   5.631  0.5467  0.2626  1.7448
 3162SOL    HW221123   1.537   0.279   5.532 -3.9112  0.3255  1.0338
 3163SOL     OW21124   1.394   0.592   7.715  0.0580  0.2899  0.1539
 3163SOL    HW121125   1.432   0.607   7.628  2.7450  0.3141  1.3531
 3163SOL    HW221126   1.428   0.662   7.770 -0.9148 -0.0349  1.1591
 3164SOL     OW21127   3.191   2.529   7.981 -0.3712  0.1214 -0.3996
 3164SOL    HW121128   3.173   2.444   8.020  1.7190 -0.3981 -0.5382
 3164SOL    HW221129   3.277   2.505   7.946 -0.1854 -1.1142  0.8866
 3165SOL     OW21130   3.972   2.268  12.714  0.1013  0.3122  0.0760
 3165SOL    HW121131   3.921   2.191  12.739 -1.0195  0.6135 -1.2231
 3165SOL    HW221132   4.053   2.233  12.676 -1.1125 -1.7304 -0.6447
 3166SOL     OW21133   2.444   3.531  10.826  0.4733  0.0353  0.8285
 3166SOL    HW121134   2.496   3.593  10.774 -0.0533 -1.5693 -1.6485
 3166SOL    HW221135   2.496   3.535  10.906  0.4354  3.1665  0.7051
 3167SOL     OW21136   3.719   4.722   6.305 -0.4095  0.0220 -0.4451
 3167SOL    HW121137   3.629   4.734   6.274 -0.2872  2.2522  0.0965
 3167SOL    HW221138   3.713   0.028   6.389 -1.6349 -1.5537  0.2971
 3168SOL     OW21139   1.160   4.684   4.164  0.2033  0.2318 -0.1136
 3168SOL    HW121140   1.168   0.029   4.119 -0.4275 -0.5707 -1.7140
 3168SOL    HW221141   1.098   4.636   4.108 -1.7000  1.1547  1.1999
 3169SOL     OW21142   4.221   3.330  15.524  0.5160  0.1880  0.6853
 3169SOL    HW121143   4.126   3.323  15.531  0.5694 -0.8206  0.4333
 3169SOL    HW221144   4.250   3.240  15.537  1.3379  0.9890  4.2539
 3170SOL     OW21145   1.864   1.860   3.782 -0.4123 -0.3534  0.0392
 3170SOL    HW121146   1.813   1.868   3.701 -0.7700  0.8921  0.3955
 3170SOL    HW221147   1.791   1.846   3.843 -0.2872 -0.2729  0.2071
 3171SOL     OW21148   0.926   3.185  14.476 -0.3712  0.5310  0.2746
 3171SOL    HW121149   0.839   3.176  14.438 -0.9219  0.3450  1.6044
 3171SOL    HW221150   0.907   3.254  14.539 -1.7664 -2.5327  3.1898
 3172SOL     OW21151   4.620   3.483   2.141 -0.1855 -0.0586  0.1270
 3172SOL    HW121152   4.600   3.518   2.054 -0.8230 -1.8441 -0.4407
 3172SOL    HW221153   4.534   3.471   2.181  0.0541 -0.2456  0.5820
 3173SOL     OW21154   3.037   0.681   5.818  0.3788  0.0314 -0.0578
 3173SOL    HW121155   2.990   0.678   5.901 -1.0386  0.9381 -0.8191
 3173SOL    HW221156   2.974   0.637   5.761 -1.1019  1.8279  0.1958
 3174SOL     OW21157   0.857   2.275   4.422 -0.6285  0.3045  0.4959
 3174SOL    HW121158   0.917   2.207   4.391 -1.8372 -0.5277 -0.0238
 3174SOL    HW221159   0.835   2.332   4.349 -0.4908 -0.7219 -0.3480
 3175SOL     OW21160   4.223   0.698   3.520  0.0277 -0.0678 -0.0905
 3175SOL    HW121161   4.133   0.727   3.513  1.4244  3.8265 -1.9536
 3175SOL    HW221162   4.218   0.607   3.546 -3.4055  0.0232 -0.4542
 3176SOL     OW21163   1.324   0.239   3.182  0.8846  0.2559 -0.0093
 3176SOL    HW121164   1.378   0.195   3.116 -0.7645 -1.9666  0.1276
 3176SOL    HW221165   1.368   0.215   3.264  0.3380  0.2586  0.2893
 3177SOL     OW21166   0.985   1.771   4.319 -0.0776  0.4745  0.4752
 3177SOL    HW121167   0.942   1.848   4.355 -2.0380 -0.9124  1.1224
 3177SOL    HW221168   1.056   1.811   4.269  0.0060 -0.1632  0.0849
 3178SOL     OW21169   1.354   1.011  12.716 -0.4340  0.4759 -0.2130
 3178SOL    HW121170   1.357   1.053  12.630 -0.7739  0.9541  0.0106
 3178SOL    HW221171   1.296   0.938  12.694 -0.4622  0.0102  1.4559
 3179SOL     OW21172   2.222   2.976  12.324 -0.2434 -0.1790  0.7161
 3179SOL    HW121173   2.159   2.919  12.279 -0.6720  0.6076  0.3067
 3179SOL    HW221174   2.292   2.925  12.363  1.3881  1.7527  0.3135
 3180SOL     OW21175   1.702   0.990   4.634 -0.2560  0.2092 -0.0066
 3180SOL    HW121176   1.634   0.954   4.691  0.0073  1.9823  1.4611
 3180SOL    HW221177   1.701   0.922   4.567  1.6333  2.1709 -2.0468
 3181SOL     OW21178   1.934   1.396   2.698 -0.3876 -0.4666 -0.4581
 3181SOL    HW121179   1.845   1.365   2.683  0.0439 -2.2251  0.6430
 3181SOL    HW221180   1.931   1.482   2.654  2.6007  1.2323  2.6596
 3182SOL     OW21181   2.938   0.876  15.113 -0.0350 -0.2332  0.3061
 3182SOL    HW121182   2.862   0.917  15.073  1.2022 -1.0230 -2.8597
 3182SOL    HW221183   3.005   0.928  15.069 -0.8159  1.4760  1.1422
 3183SOL     OW21184   1.782   1.004   8.391  0.4446 -0.4112  0.4684
 3183SOL    HW121185   1.844   1.071   8.421  0.1384 -1.1007  2.6751
 3183SOL    HW221186   1.792   0.989   8.297 -0.1826 -0.6647  0.4408
 3184SOL     OW21187   0.163   1.450  14.936  0.9956  0.5063  0.6008
 3184SOL    HW121188   0.087   1.480  14.985  0.6141  0.9478 -0.2710
 3184SOL    HW221189   0.169   1.512  14.863 -0.8417  1.3287  1.1711
 3185SOL     OW21190   0.016   2.075   5.412  0.0692 -0.4051 -0.2591
 3185SOL    HW121191   0.092   2.035   5.455  1.3591 -0.5002 -2.6585
 3185SOL    HW221192   4.719   1.998   5.369 -1.1493  0.3622 -0.6226
 3186SOL     OW21193   0.008   1.774   3.632  0.1325 -0.2337 -0.1066
 3186SOL    HW121194   0.022   1.864   3.602  0.9224 -0.0841  0.7173
 3186SOL    HW221195   4.656   1.769   3.662  0.5927 -2.2615  0.9669
 3187SOL     OW21196   1.394   2.378   9.008  0.0503  0.2077 -0.1973
 3187SOL    HW121197   1.319   2.323   9.033 -1.3871  3.1159  1.9375
 3187SOL    HW221198   1.440   2.325   8.944 -0.3849  0.1019 -0.4179
 3188SOL     OW21199   0.697   2.956   3.276  0.7076  0.7501 -0.7604
 3188SOL    HW121200   0.640   3.032   3.264  2.9529  2.4749 -0.5433
 3188SOL    HW221201   0.669   2.919   3.360 -1.7609  1.5790 -1.2163
 3189SOL     OW21202   1.881   3.366  12.350 -0.1568 -0.2522 -0.0309
 3189SOL    HW121203   1.861   3.430  12.419 -0.7007 -0.6999  0.2301
 3189SOL    HW221204   1.960   3.319  12.374 -0.7996 -0.8921  0.8386
 3190SOL     OW21205   0.076   0.332   3.567 -0.1103  0.2509  0.1018
 3190SOL    HW121206   0.018   0.380   3.626 -1.5800 -2.2468  0.6912
 3190SOL    HW221207   0.137   0.294   3.631  2.6639  1.4801 -1.7861
 3191SOL     OW21208   0.016   0.013   2.703 -0.2339 -0.1439 -0.0830
 3191SOL    HW121209   0.070   4.688   2.751 -1.7222 -1.4108 -0.0849
 3191SOL    HW221210   0.073   0.089   2.695 -0.8503  0.7025  3.5082
 3192SOL     OW21211   1.118   3.224  16.846 -0.2589  0.2179 -0.0459
 3192SOL    HW121212   1.151   3.150  16.794 -2.1014  0.9550 -2.2891
 3192SOL    HW221213   1.056   3.181  16.905  1.6009  0.2798  1.9469
 3193SOL     OW21214   2.898   0.947   8.418  0.4350 -0.2284 -0.2224
 3193SOL    HW121215   2.859   0.952   8.505  0.8834 -0.1798 -0.0247
 3193SOL    HW221216   2.981   0.995   8.422 -0.5345  1.1282  3.4657
 3194SOL     OW21217   0.216   2.765   1.393  0.4628 -0.0226  0.4171
 3194SOL    HW121218   0.254   2.827   1.454 -0.4278  1.0503 -0.1144
 3194SOL    HW221219   0.288   2.725   1.344  1.3515  1.6038  0.4263
 3195SOL     OW21220   4.506   3.414  17.681  0.4577  0.4185 -0.1418
 3195SOL    HW121221   4.475   3.383  17.595  1.1531  1.0335 -0.6138
 3195SOL    HW221222   4.515   3.507  17.663  1.2825  0.1407 -1.1404
 3196SOL     OW21223   2.995   2.340   2.603  0.1576  0.0421 -0.4375
 3196SOL    HW121224   2.927   2.276   2.620  2.1029 -2.0124 -0.3605
 3196SOL    HW221225   3.070   2.280   2.605 -0.9668 -1.3098  1.2643
 3197SOL     OW21226   1.959   3.540   9.948  0.4457 -0.1427 -0.3796
 3197SOL    HW121227   1.906   3.562  10.025  2.0718  1.3637  0.2993
 3197SOL    HW221228   1.913   3.590   9.881  0.3335  2.7997  1.8447
 3198SOL     OW21229   2.655   1.596   6.657  0.4376  0.4330  0.2710
 3198SOL    HW121230   2.657   1.546   6.738  1.7894 -0.6156 -0.4106
 3198SOL    HW221231   2.651   1.524   6.594 -2.8951 -0.8838  1.9895
 3199SOL     OW21232   3.359   3.279   2.171  0.0570  0.5203  0.1029
 3199SOL    HW121233   3.341   3.220   2.098 -1.9969 -0.3668  1.3484
 3199SOL    HW221234   3.276   3.291   2.217 -0.6889 -0.6673 -0.9419
 3200SOL     OW21235   2.969   4.283  10.575  0.3762  0.4454 -0.4924
 3200SOL    HW121236   3.018   4.330  10.507  0.5243  1.4691  0.3250
 3200SOL    HW221237   3.048   4.264  10.626  0.5517  2.1468 -0.1307
 3201SOL     OW21238   0.946   1.333   9.202 -0.3271  0.1129  0.3300
 3201SOL    HW121239   1.028   1.300   9.240 -2.2208 -2.6685  2.0474
 3201SOL    HW221240   0.958   1.418   9.160 -0.6321  1.0169  2.0443
 3202SOL     OW21241   4.432   4.455  15.079 -0.5540 -0.0995  0.0005
 3202SOL    HW121242   4.521   4.422  15.062  0.4676  2.0783  1.0837
 3202SOL    HW221243   4.442   4.511  15.156  0.0789 -0.4940  0.2080
 3203SOL     OW21244   0.373   2.004   8.257 -0.0173  0.5553 -0.2844
 3203SOL    HW121245   0.306   1.959   8.206 -0.2665 -0.2239  0.7221
 3203SOL    HW221246   0.321   2.021   8.335  1.8374 -2.6706  1.6718
 3204SOL     OW21247   0.255   3.001   0.405 -0.1992 -0.3192 -0.3584
 3204SOL    HW121248   0.199   2.979   0.331  1.6480 -1.5544 -1.3903
 3204SOL    HW221249   0.299   3.079   0.373  1.3438 -1.8463 -1.9449
 3205SOL     OW21250   4.184   1.289   3.607 -0.0973 -0.4117  0.5176
 3205SOL    HW121251   4.164   1.242   3.689  0.7543 -2.0424 -0.1972
 3205SOL    HW221252   4.278   1.270   3.614 -0.0775 -0.4257  0.1963
 3206SOL     OW21253   0.337   1.477   5.552  0.6209 -0.2352 -0.3530
 3206SOL    HW121254   0.351   1.411   5.485  1.3471 -1.5021  1.0491
 3206SOL    HW221255   0.314   1.552   5.498  1.4094  0.7302  0.6467
 3207SOL     OW21256   2.091   1.436  13.094  0.2226 -0.0738  0.2374
 3207SOL    HW121257   2.149   1.501  13.135  1.3075  0.0679 -1.5213
 3207SOL    HW221258   2.081   1.478  13.009 -1.8378  0.6692  0.8544
 3208SOL     OW21259   2.376   0.385   7.547  0.1824  0.1061  0.1558
 3208SOL    HW121260   2.472   0.386   7.551  0.1534  2.2158 -0.0756
 3208SOL    HW221261   2.369   0.469   7.592 -2.8447 -0.6785  1.1246
 3209SOL     OW21262   3.753   1.314   7.486  0.1216 -0.1531 -0.2421
 3209SOL    HW121263   3.737   1.276   7.399 -2.5729 -1.3646  0.7785
 3209SOL    HW221264   3.693   1.263   7.540 -0.1433  2.0241  1.5015
 3210SOL     OW21265   4.320   3.500  12.114  0.2098 -0.0187 -0.0454
 3210SOL    HW121266   4.330   3.428  12.053  2.6352 -0.0532  0.4085
 3210SOL    HW221267   4.296   3.575  12.060 -0.1329 -0.3079 -0.3028
 3211SOL     OW21268   3.132   2.663   0.459  1.0762 -0.7781 -0.0224
 3211SOL    HW121269   3.172   2.684   0.543 -0.4033 -0.8183  0.6988
 3211SOL    HW221270   3.048   2.709   0.469  1.7866  0.1358  1.6418
 3212SOL     OW21271   1.149   2.547  15.931  0.1342 -0.1608 -0.3302
 3212SOL    HW121272   1.146   2.476  15.866  0.4391 -0.3086 -0.1805
 3212SOL    HW221273   1.056   2.569  15.937 -0.3572 -2.5980  0.7091
 3213SOL     OW21274   0.956   2.660   4.921  0.1676 -0.5021  0.4862
 3213SOL    HW121275   1.047   2.674   4.894 -0.8724  1.2463 -2.1625
 3213SOL    HW221276   0.967   2.616   5.005 -0.9739  0.4257  1.1143
 3214SOL     OW21277   1.727   1.681   7.789 -0.3571 -0.1945 -0.0701
 3214SOL    HW121278   1.766   1.602   7.828  1.0006  1.0243  1.0397
 3214SOL    HW221279   1.633   1.666   7.799 -0.1221  0.2052  2.6501
 3215SOL     OW21280   0.866   0.699  17.507  0.0071  0.2879 -0.2914
 3215SOL    HW121281   0.902   0.784  17.480  0.6881  0.0042 -0.2850
 3215SOL    HW221282   0.928   0.635  17.472 -1.7218 -0.4328 -2.0060
 3216SOL     OW21283   1.431   1.773   4.816  0.1376 -0.1199 -0.4423
 3216SOL    HW121284   1.471   1.855   4.789  1.1423 -0.3319  0.3808
 3216SOL    HW221285   1.463   1.774   4.907  0.8216 -1.6222 -0.6594
 3217SOL     OW21286   4.686   2.884   9.024  0.1207  0.3860  0.4281
 3217SOL    HW121287   0.040   2.862   9.012  0.8006  4.2931 -1.4087
 3217SOL    HW221288   4.694   2.975   8.997 -0.5988  0.2812 -0.1349
 3218SOL     OW21289   0.169   0.491  13.446  0.1218  0.2203  0.3130
 3218SOL    HW121290   0.099   0.481  13.381  0.4176 -1.2332  0.2144
 3218SOL    HW221291   0.128   0.534  13.521 -2.6359  2.0619 -2.2192
 3219SOL     OW21292   1.000   2.137   7.277  0.0499  0.2391 -0.1768
 3219SOL    HW121293   0.973   2.130   7.368  0.2094  0.9566 -0.0728
 3219SOL    HW221294   0.984   2.045   7.258  1.6269  0.3241 -2.0211
 3220SOL     OW21295   2.005   0.533   2.622  0.1632 -0.2080  0.1567
 3220SOL    HW121296   1.995   0.626   2.640  2.8168  0.5828 -2.4378
 3220SOL    HW221297   2.026   0.532   2.529  2.0437  1.1759  0.5674
 3221SOL     OW21298   0.950   2.668   5.994 -0.3593  0.5288  0.0710
 3221SOL    HW121299   0.891   2.721   5.940 -0.5300  0.4605  0.1917
 3221SOL    HW221300   1.038   2.696   5.968  0.3717 -0.6533  1.2996
 3222SOL     OW21301   3.606   0.016   0.620 -0.2331 -0.0560  0.5546
 3222SOL    HW121302   3.617   0.110   0.607 -1.4513  0.0896  0.5648
 3222SOL    HW221303   3.563   4.730   0.538 -1.4152  0.8395  0.8966
 3223SOL     OW21304   3.751   0.102   8.136 -0.0195  0.3115  0.2257
 3223SOL    HW121305   3.845   0.108   8.119  0.5650 -0.8037  3.1053
 3223SOL    HW221306   3.751   0.126   8.228  1.1510 -0.1455  0.3419
 3224SOL     OW21307   2.544   0.058   1.839 -0.1462 -0.0573  0.0462
 3224SOL    HW121308   2.524   0.139   1.886  1.1530  0.1884  0.1824
 3224SOL    HW221309   2.499   0.078   1.757 -3.4431 -2.0052  1.3587
 3225SOL     OW21310   4.649   2.796   6.205  0.4275  0.3358  0.1158
 3225SOL    HW121311   4.659   2.711   6.163  1.9160 -0.0188  1.1936
 3225SOL    HW221312   4.720   2.844   6.162  2.7691 -3.2170 -0.0191
 3226SOL     OW21313   2.661   4.287   7.503  0.6724 -0.3706 -0.1617
 3226SOL    HW121314   2.750   4.255   7.487  0.9826  0.4761 -0.1353
 3226SOL    HW221315   2.678   4.381   7.505  0.9541 -0.3918 -1.2625
 3227SOL     OW21316   1.787   2.004  16.510  0.8173 -0.0806 -0.1013
 3227SOL    HW121317   1.796   1.920  16.465  3.6028 -0.4718  1.1792
 3227SOL    HW221318   1.833   2.057  16.445  1.8587  0.1282  0.8166
 3228SOL     OW21319   0.131   3.624   0.268  0.2418 -0.1986  0.2798
 3228SOL    HW121320   0.049   3.576   0.283  1.1233 -1.5268  0.8151
 3228SOL    HW221321   0.148   3.652   0.358 -0.7914 -0.3839  0.5385
 3229SOL     OW21322   4.342   4.235   3.111  0.7309 -0.1501 -0.2589
 3229SOL    HW121323   4.314   4.237   3.020 -2.6954  0.4560  0.8312
 3229SOL    HW221324   4.366   4.327   3.121 -2.2616  0.9063 -3.0295
 3230SOL     OW21325   4.079   2.450   0.687  1.1667 -0.2298  0.2670
 3230SOL    HW121326   3.995   2.450   0.734  1.0327  1.8569  0.0204
 3230SOL    HW221327   4.063   2.394   0.610 -0.8442  0.8284 -0.0897
 3231SOL     OW21328   3.404   1.549   8.649  0.1080 -0.0422  0.2909
 3231SOL    HW121329   3.348   1.622   8.623 -2.3052 -1.5560  1.1647
 3231SOL    HW221330   3.405   1.501   8.566  0.2450 -1.4874  1.1290
 3232SOL     OW21331   3.682   0.206   2.515 -0.2515  0.0986 -0.6299
 3232SOL    HW121332   3.717   0.289   2.484 -1.0681  1.0629  0.9993
 3232SOL    HW221333   3.746   0.140   2.487 -0.4033 -0.0366 -0.6562
 3233SOL     OW21334   2.714   0.644   5.940 -0.2860  0.0429  0.0843
 3233SOL    HW121335   2.656   0.587   5.887 -1.1676 -0.3839  1.5164
 3233SOL    HW221336   2.736   0.582   6.010  1.4692  0.6190  0.0360
 3234SOL     OW21337   3.210   1.509   7.528 -0.4955 -0.4680 -0.6524
 3234SOL    HW121338   3.227   1.602   7.542  1.6888 -0.6144 -2.4225
 3234SOL    HW221339   3.226   1.491   7.435 -2.0847  4.2177 -1.8296
 3235SOL     OW21340   1.614   4.686   1.998 -0.3896  0.0405 -0.1432
 3235SOL    HW121341   1.549   4.629   2.037  0.4774 -0.8717 -0.0464
 3235SOL    HW221342   1.548   4.729   1.943 -1.3578 -1.6537 -0.3139
 3236SOL     OW21343   4.045   4.282   3.810 -0.0079  0.4530 -0.0903
 3236SOL    HW121344   4.045   4.367   3.854 -1.0853 -0.3807  1.5176
 3236SOL    HW221345   3.977   4.239   3.862 -0.4344  0.2869 -0.7839
 3237SOL     OW21346   4.509   1.466   8.185 -0.2121  0.1730 -0.6751
 3237SOL    HW121347   4.545   1.390   8.138 -0.2158 -0.3645  0.1817
 3237SOL    HW221348   4.450   1.421   8.246 -0.9471  1.5597 -0.3884
 3238SOL     OW21349   4.314   0.828  12.821  0.0985 -0.0189  0.2408
 3238SOL    HW121350   4.235   0.774  12.824  2.3498 -3.2652 -0.0491
 3238SOL    HW221351   4.273   0.906  12.782  0.3563  0.1983  0.4030
 3239SOL     OW21352   1.469   3.221   4.645 -0.1700 -0.0283 -0.3987
 3239SOL    HW121353   1.449   3.287   4.579 -1.0880  1.1317  1.0316
 3239SOL    HW221354   1.506   3.146   4.599  1.0340 -1.0888  2.2915
 3240SOL     OW21355   0.253   2.348   0.960  0.5449  0.3301 -0.0488
 3240SOL    HW121356   0.230   2.403   0.885 -0.6943  0.5348  0.4882
 3240SOL    HW221357   0.337   2.383   0.991  1.0547  0.6724 -1.7967
 3241SOL     OW21358   4.525   2.325  14.919  0.1262 -0.0217  0.6928
 3241SOL    HW121359   4.620   2.311  14.922  0.4631  2.3248  0.6682
 3241SOL    HW221360   4.494   2.286  14.838 -2.4352 -0.9768  2.1477
 3242SOL     OW21361   0.863   0.971  15.851 -0.4094  0.1094 -0.0930
 3242SOL    HW121362   0.881   0.884  15.887  0.9428  0.2623 -0.3816
 3242SOL    HW221363   0.801   1.014  15.910 -1.2162  1.1085 -1.6902
 3243SOL     OW21364   1.484   1.085  12.457 -0.1679  0.0241  0.2946
 3243SOL    HW121365   1.397   1.067  12.421  1.1769 -1.6806 -2.1893
 3243SOL    HW221366   1.493   1.174  12.423  0.0132  0.1016  0.5473
 3244SOL     OW21367   3.708   4.138   6.446  0.2320  0.2197  0.2845
 3244SOL    HW121368   3.748   4.218   6.413 -2.4018  1.2351 -0.4890
 3244SOL    HW221369   3.748   4.136   6.533  0.2164 -0.5883  0.2723
 3245SOL     OW21370   3.444   1.499   9.598  0.1074 -0.6595  0.2229
 3245SOL    HW121371   3.393   1.418   9.602  1.4128 -1.3842  2.4105
 3245SOL    HW221372   3.529   1.458   9.617 -0.4972 -2.2502 -0.4667
 3246SOL     OW21373   1.411   1.668   6.673 -0.6484 -0.0622 -0.2357
 3246SOL    HW121374   1.352   1.737   6.706 -0.1745 -0.0894  0.6797
 3246SOL    HW221375   1.434   1.714   6.593  1.4711 -0.4949  0.1262
 3247SOL     OW21376   1.214   1.972   0.580  0.1378 -0.2919  0.0821
 3247SOL    HW121377   1.187   1.965   0.672 -1.8977 -1.4070 -0.5982
 3247SOL    HW221378   1.154   2.037   0.542  0.3951 -0.1725 -0.1168
 3248SOL     OW21379   2.394   0.496   2.770  0.0354 -0.0451 -0.1778
 3248SOL    HW121380   2.364   0.551   2.842  0.3391 -0.0410 -0.0586
 3248SOL    HW221381   2.323   0.434   2.785  0.0778  0.2833  1.3192
 3249SOL     OW21382   3.324   3.268  13.902  0.3665 -0.4362 -0.1027
 3249SOL    HW121383   3.352   3.179  13.924  1.1160 -0.0353  0.5838
 3249SOL    HW221384   3.262   3.286  13.972 -0.2601 -0.8768 -0.5452
 3250SOL     OW21385   4.206   2.601   0.923  0.7523 -0.3204  0.3748
 3250SOL    HW121386   4.209   2.539   0.849 -0.1023  0.4111 -0.2711
 3250SOL    HW221387   4.273   2.658   0.886  0.1025  0.0247 -0.2726
 3251SOL     OW21388   3.994   3.735  14.787 -0.2100 -0.5117 -0.0323
 3251SOL    HW121389   4.034   3.652  14.762  2.2848  0.8056 -0.4604
 3251SOL    HW221390   3.917   3.750  14.732 -0.8004  0.1071  0.9670
 3252SOL     OW21391   3.727   2.341   8.910  0.0802  1.0658 -0.1577
 3252SOL    HW121392   3.818   2.320   8.890 -0.5273 -0.1009 -1.6637
 3252SOL    HW221393   3.705   2.298   8.993  0.9816  0.3059 -0.3184
 3253SOL     OW21394   1.337   3.312  16.973  0.0586 -0.2775 -0.2307
 3253SOL    HW121395   1.259   3.293  16.920  0.6647 -0.1445 -1.1771
 3253SOL    HW221396   1.405   3.332  16.909  2.8649  0.1306  2.8921
 3254SOL     OW21397   2.938   2.109   0.951  0.3418  0.5225  0.4012
 3254SOL    HW121398   2.933   2.073   0.863  0.4836  0.1497  0.5457
 3254SOL    HW221399   2.919   2.203   0.943  0.6062  0.4671 -0.8157
 3255SOL     OW21400   0.196   1.817   6.654  0.1423  0.3991  0.7487
 3255SOL    HW121401   0.145   1.747   6.695 -0.2673 -0.4219 -1.1502
 3255SOL    HW221402   0.129   1.858   6.600 -0.0967  0.8232  1.3751
 3256SOL     OW21403   3.676   3.528   5.839 -0.1632 -0.4395  0.1130
 3256SOL    HW121404   3.639   3.445   5.870 -1.1586 -0.5783 -1.4523
 3256SOL    HW221405   3.767   3.508   5.862 -0.0472  2.1984  1.9789
 3257SOL     OW21406   2.934   3.425   4.756  0.6564 -0.1179 -0.2314
 3257SOL    HW121407   3.006   3.421   4.819 -1.1215  2.2520  1.9913
 3257SOL    HW221408   2.912   3.518   4.765  1.1930 -0.2820  2.7397
 3258SOL     OW21409   1.558   1.125   4.332 -0.0481 -0.5554  0.3883
 3258SOL    HW121410   1.648   1.136   4.360 -0.9473 -0.9378  3.4612
 3258SOL    HW221411   1.529   1.064   4.400 -3.3066 -0.3477 -0.7769
 3259SOL     OW21412   2.163   1.228   1.168  0.1684 -0.1439  0.0350
 3259SOL    HW121413   2.141   1.268   1.252 -0.6029  1.3292 -0.8715
 3259SOL    HW221414   2.195   1.300   1.113  3.0117 -0.6009  1.0826
 3260SOL     OW21415   4.285   2.497   7.132 -0.2229  0.2407  0.5552
 3260SOL    HW121416   4.339   2.533   7.061 -0.5185  1.0280  0.7298
 3260SOL    HW221417   4.196   2.512   7.099  0.1303 -1.9845 -1.4034
 3261SOL     OW21418   2.085   1.027   4.107  0.2346  0.6327  0.0888
 3261SOL    HW121419   2.096   1.004   4.199  3.2600  0.7092 -0.2379
 3261SOL    HW221420   2.163   0.982   4.075 -1.9996 -1.8425 -1.8826
 3262SOL     OW21421   0.654   3.267   8.922 -0.0871  0.1024  0.1289
 3262SOL    HW121422   0.636   3.355   8.955 -1.2802 -0.1619  0.2120
 3262SOL    HW221423   0.691   3.244   9.008 -1.9694  0.0916  0.9434
 3263SOL     OW21424   1.215   4.522   8.484 -0.2020  0.2075  0.3858
 3263SOL    HW121425   1.246   4.485   8.401  1.7758 -0.9306  1.6398
 3263SOL    HW221426   1.132   4.560   8.455  0.0524  1.8965  1.9066
 3264SOL     OW21427   1.805   1.628   2.557 -0.0869  0.4470  0.4511
 3264SOL    HW121428   1.731   1.625   2.497 -0.0449 -0.9960  0.4694
 3264SOL    HW221429   1.772   1.671   2.635 -2.5935 -1.4708  0.4150
 3265SOL     OW21430   2.545   3.080   4.709  0.1069 -0.2700  0.3922
 3265SOL    HW121431   2.471   3.019   4.711 -0.8945  1.0312  2.7789
 3265SOL    HW221432   2.542   3.099   4.615  2.4970  1.6877  0.7005
 3266SOL     OW21433   3.985   1.696   8.804 -0.0345  0.0619  0.1686
 3266SOL    HW121434   4.051   1.764   8.793 -1.2912  0.8901 -2.1488
 3266SOL    HW221435   4.039   1.617   8.807 -0.0971  0.0411  0.7448
 3267SOL     OW21436   1.100   2.377   6.824 -0.9982 -0.4677 -0.1832
 3267SOL    HW121437   1.140   2.457   6.858 -0.3702 -0.8497 -0.0103
 3267SOL    HW221438   1.116   2.322   6.901 -2.2685  1.9327  1.7858
 3268SOL     OW21439   3.170   4.317   1.035  0.2287 -0.5920 -0.3239
 3268SOL    HW121440   3.114   4.379   1.082  1.6159  0.7320 -0.4248
 3268SOL    HW221441   3.162   4.258   1.111  2.2878 -1.1672 -0.5471
 3269SOL     OW21442   0.615   3.190   5.227 -0.4819 -0.3149 -0.7851
 3269SOL    HW121443   0.541   3.133   5.244 -1.4944  0.9306 -0.9757
 3269SOL    HW221444   0.685   3.137   5.265 -0.8265  0.2903  0.7337
 3270SOL     OW21445   3.740   2.222   8.149 -0.1513 -0.2104 -0.1065
 3270SOL    HW121446   3.766   2.154   8.210  1.6000 -0.3823 -1.0461
 3270SOL    HW221447   3.677   2.267   8.206 -0.8444 -0.3315 -0.7833
 3271SOL     OW21448   0.131   0.965   9.249 -0.0121  0.0152 -0.0125
 3271SOL    HW121449   0.218   0.958   9.210  0.6814  1.2520  1.3305
 3271SOL    HW221450   0.139   0.972   9.344  1.3592 -1.4879 -0.0226
 3272SOL     OW21451   2.427   1.792   6.671  0.0126  0.2666 -0.0497
 3272SOL    HW121452   2.462   1.709   6.704  1.2495  1.5972  1.9531
 3272SOL    HW221453   2.458   1.854   6.738 -1.8797  0.0409  1.0350
 3273SOL     OW21454   3.766   2.568  15.567 -0.0838  0.7779  0.0214
 3273SOL    HW121455   3.771   2.525  15.652 -2.9717  1.1061  0.3518
 3273SOL    HW221456   3.778   2.661  15.588 -0.1496 -0.0131  3.4229
 3274SOL     OW21457   2.870   0.036   9.481 -0.3135 -0.1758  0.4044
 3274SOL    HW121458   2.848   0.050   9.573 -0.9252  3.2233 -0.2669
 3274SOL    HW221459   2.833   0.114   9.441 -0.1739  0.3865  1.3573
 3275SOL     OW21460   3.632   0.596   6.920 -0.3066 -0.3340  0.1919
 3275SOL    HW121461   3.647   0.566   7.010 -0.6586  1.7432  0.9618
 3275SOL    HW221462   3.662   0.517   6.876  1.6535 -0.2497  1.3703
 3276SOL     OW21463   3.881   0.973  14.439  0.1738 -0.1302  0.4548
 3276SOL    HW121464   3.906   0.884  14.463 -1.5604 -0.3997  1.3140
 3276SOL    HW221465   3.789   0.962  14.414  1.2840  0.4656 -3.9424
 3277SOL     OW21466   0.812   2.100   9.606  0.1125 -0.4778 -0.4883
 3277SOL    HW121467   0.840   2.159   9.675 -2.4665  0.7344 -0.4791
 3277SOL    HW221468   0.892   2.095   9.552 -0.5865 -1.2477 -1.4598
 3278SOL     OW21469   3.623   1.215   5.706  0.2437 -0.0030  0.3582
 3278SOL    HW121470   3.676   1.166   5.643  0.1786  0.0450  0.2666
 3278SOL    HW221471   3.611   1.292   5.651 -0.9737 -0.5478 -0.1383
 3279SOL     OW21472   2.017   1.620   5.725 -0.3353 -0.1713  0.0411
 3279SOL    HW121473   1.945   1.679   5.702  0.8431  1.7454  1.3329
 3279SOL    HW221474   2.063   1.664   5.796 -0.0038 -1.3150  0.5439
 3280SOL     OW21475   3.044   2.311   5.871 -0.2372 -0.0266  0.0940
 3280SOL    HW121476   3.101   2.361   5.929  0.5238  1.2582 -1.7549
 3280SOL    HW221477   3.094   2.232   5.854 -0.8496 -0.5717  0.8430
 3281SOL     OW21478   2.379   3.227  10.106 -0.6795  0.2807  0.2701
 3281SOL    HW121479   2.387   3.179  10.188 -1.2743  1.5056  1.0525
 3281SOL    HW221480   2.444   3.296  10.123 -0.9156  0.1051  1.8991
 3282SOL     OW21481   4.394   2.076   7.151 -0.1407 -0.0285 -0.2181
 3282SOL    HW121482   4.331   2.059   7.081  2.2219  0.9861 -2.5911
 3282SOL    HW221483   4.336   2.080   7.227  1.3171 -2.5315  1.0179
 3283SOL     OW21484   4.371   0.815   3.305  0.1293 -0.5952 -0.2577
 3283SOL    HW121485   4.337   0.769   3.382  2.7996  0.0245  1.2923
 3283SOL    HW221486   4.298   0.816   3.243 -0.7900  0.8007  0.8631
 3284SOL     OW21487   0.570   3.394   0.347 -0.6713 -0.4685  0.2261
 3284SOL    HW121488   0.476   3.397   0.333 -0.6446 -1.3886 -0.1669
 3284SOL    HW221489   0.595   3.480   0.381 -0.9747 -0.7721  1.2255
 3285SOL     OW21490   3.090   4.190   1.240  0.2415  0.1429 -0.6113
 3285SOL    HW121491   3.111   4.099   1.259 -2.2634 -0.0878  1.1260
 3285SOL    HW221492   3.063   4.216   1.329 -0.0968 -1.2599 -0.3161
 3286SOL     OW21493   3.003   3.468   1.474 -0.2034 -0.8471  0.1330
 3286SOL    HW121494   3.073   3.405   1.491  1.7330  0.9186 -1.2558
 3286SOL    HW221495   2.924   3.439   1.519  0.4028 -2.5620  0.0865
 3287SOL     OW21496   2.681   1.673   7.140 -0.1209 -0.1355  0.4078
 3287SOL    HW121497   2.599   1.712   7.112  0.9030  1.2913 -0.5991
 3287SOL    HW221498   2.650   1.635   7.222  0.9725  0.1889  0.9696
 3288SOL     OW21499   2.033   1.667  16.838 -0.5809 -0.2376 -0.0633
 3288SOL    HW121500   2.066   1.662  16.748  1.0514  3.6775  0.3185
 3288SOL    HW221501   1.965   1.734  16.823 -0.1900  0.2252  0.2401
 3289SOL     OW21502   4.575   0.868  12.177  0.1549  0.0578  0.7699
 3289SOL    HW121503   4.483   0.887  12.193  0.2225 -0.4915  1.8420
 3289SOL    HW221504   4.590   0.778  12.206  2.3078  0.0378 -0.3783
 3290SOL     OW21505   0.970   4.655   8.341  1.0075  0.3072 -0.4454
 3290SOL    HW121506   1.000   4.672   8.251 -0.5616 -0.6138 -1.1422
 3290SOL    HW221507   0.895   4.597   8.326  1.8292 -1.1277  0.9897
 3291SOL     OW21508   4.638   3.207   1.696 -0.3884 -0.3313  0.1935
 3291SOL    HW121509   4.657   3.297   1.720 -1.3175 -0.3416  0.9697
 3291SOL    HW221510   4.730   3.182   1.688 -1.1300 -3.0036 -0.1508
 3292SOL     OW21511   1.488   4.281   3.892 -0.3265  0.3295  0.7281
 3292SOL    HW121512   1.582   4.294   3.906 -0.3407 -1.0490  2.0358
 3292SOL    HW221513   1.476   4.201   3.943  1.9750  0.0234  0.8211
 3293SOL     OW21514   4.354   0.869   6.798 -0.3291 -0.4191 -0.2468
 3293SOL    HW121515   4.330   0.869   6.705  1.1887  0.1085 -0.6463
 3293SOL    HW221516   4.450   0.861   6.797 -0.3545 -0.6786 -1.6290
 3294SOL     OW21517   0.666   3.244   8.272 -0.7049 -0.3952 -0.0961
 3294SOL    HW121518   0.689   3.305   8.342  2.4476 -2.0315  0.2833
 3294SOL    HW221519   0.701   3.162   8.306  0.3624  0.0024 -0.2389
 3295SOL     OW21520   4.650   0.519  16.396  0.4551 -0.2194  0.5953
 3295SOL    HW121521   4.705   0.567  16.333  0.6326 -0.2941  0.6967
 3295SOL    HW221522   4.647   0.581  16.468 -2.5367  1.2781 -0.8187
 3296SOL     OW21523   3.439   2.299   5.339 -0.0693 -1.0601  0.0511
 3296SOL    HW121524   3.396   2.242   5.403 -0.7180 -0.8861 -0.2286
 3296SOL    HW221525   3.509   2.239   5.312 -0.5639 -1.8337  0.4643
 3297SOL     OW21526   3.416   1.439   6.691 -0.3968 -0.7913 -0.2387
 3297SOL    HW121527   3.437   1.480   6.607 -2.1821 -1.4168 -0.9970
 3297SOL    HW221528   3.369   1.507   6.740  0.0720  0.3750 -1.4187
 3298SOL     OW21529   2.585   2.106   5.435 -0.2529  0.1249 -0.3569
 3298SOL    HW121530   2.589   2.119   5.530 -0.0311  0.5799 -0.4291
 3298SOL    HW221531   2.560   2.013   5.433 -0.5946  0.1712  1.4804
 3299SOL     OW21532   0.655   3.923   3.903  0.1040  0.4842  0.1068
 3299SOL    HW121533   0.701   3.851   3.860  1.2315  1.2760 -0.0064
 3299SOL    HW221534   0.567   3.885   3.908  0.7573 -0.9757  0.8733
 3300SOL     OW21535   3.062   1.311   6.003  0.3590  0.1902  0.0617
 3300SOL    HW121536   3.150   1.319   5.967  0.5749  0.6103  0.6854
 3300SOL    HW221537   3.020   1.230   5.971 -0.8708 -0.0988  2.4197
 3301SOL     OW21538   0.867   0.470   3.013 -0.0360  0.2192 -0.0091
 3301SOL    HW121539   0.860   0.548   2.958  1.3864  0.0217 -0.4457
 3301SOL    HW221540   0.909   0.510   3.089  0.0055  0.8980 -0.3891
 3302SOL     OW21541   0.365   1.290  14.049 -0.1206 -0.1799 -0.2568
 3302SOL    HW121542   0.273   1.313  14.061 -0.2524 -1.0572  0.4146
 3302SOL    HW221543   0.399   1.354  14.111  2.3977  1.8181 -3.6915
 3303SOL     OW21544   2.931   2.012   2.990 -0.2840  0.0117 -0.6498
 3303SOL    HW121545   2.970   1.941   3.042 -1.8876 -1.4164 -1.3825
 3303SOL    HW221546   2.985   2.019   2.911 -3.3870  0.5243 -2.7087
 3304SOL     OW21547   4.080   0.517   2.898 -0.3489  0.4382  0.2335
 3304SOL    HW121548   3.995   0.535   2.858  1.2534  2.6665 -2.2154
 3304SOL    HW221549   4.056   0.553   2.983 -1.7466 -2.4485  1.0589
 3305SOL     OW21550   2.541   0.353   0.584 -0.5198 -0.5635 -0.0320
 3305SOL    HW121551   2.573   0.275   0.630  1.1062 -1.3068 -2.3910
 3305SOL    HW221552   2.565   0.345   0.491 -2.2547 -0.0467 -0.5235
 3306SOL     OW21553   2.973   1.099   4.860  0.4404  0.2104  0.1652
 3306SOL    HW121554   2.972   1.139   4.947  1.4950  2.0135 -0.6615
 3306SOL    HW221555   2.880   1.109   4.840  1.1607 -2.3426 -4.4232
 3307SOL     OW21556   4.040   4.241   5.755  0.1177 -0.1846 -0.1711
 3307SOL    HW121557   4.118   4.212   5.707 -0.8701 -0.3961 -1.6679
 3307SOL    HW221558   4.078   4.242   5.843  1.0595  0.2295 -0.5753
 3308SOL     OW21559   0.506   0.105   4.695  0.6680 -0.2915  0.2287
 3308SOL    HW121560   0.411   0.091   4.691  0.7919 -0.9973 -0.2420
 3308SOL    HW221561   0.521   0.046   4.769  0.7798  1.7267  1.8324
 3309SOL     OW21562   3.994   1.163   7.487  0.4635 -0.5233 -0.5709
 3309SOL    HW121563   3.919   1.208   7.527  1.3204 -0.4005  0.8892
 3309SOL    HW221564   3.986   1.193   7.397  0.4215  1.0134 -0.0526
 3310SOL     OW21565   3.390   3.929   8.078 -0.9715  0.0676  0.0145
 3310SOL    HW121566   3.458   3.939   8.011  0.1100  0.3767  1.1510
 3310SOL    HW221567   3.412   3.995   8.143 -0.1122  0.5573 -0.7757
 3311SOL     OW21568   2.487   4.127  12.167  0.0752 -0.2304 -0.6162
 3311SOL    HW121569   2.446   4.067  12.104  0.1865  0.3981 -1.2916
 3311SOL    HW221570   2.474   4.079  12.249  1.0862  1.0317  0.2779
 3312SOL     OW21571   1.599   2.421   3.349  0.1754  0.1793  0.4057
 3312SOL    HW121572   1.686   2.384   3.366  0.0663 -0.7949 -1.1336
 3312SOL    HW221573   1.548   2.346   3.381 -0.4842  0.0309 -0.9965
 3313SOL     OW21574   1.387   0.652  15.951  0.1554 -0.1026  0.3247
 3313SOL    HW121575   1.441   0.730  15.963  1.4427 -0.7082 -1.5954
 3313SOL    HW221576   1.378   0.653  15.856  0.9487 -0.3443  0.2471
 3314SOL     OW21577   0.327   3.748  17.505 -0.1243 -0.2427  0.5219
 3314SOL    HW121578   0.380   3.687  17.555 -0.7731  0.5551  2.1791
 3314SOL    HW221579   0.259   3.766  17.571  1.3145  0.6998  1.7504
 3315SOL     OW21580   3.876   1.617   2.743  0.9618 -0.5094  0.3163
 3315SOL    HW121581   3.934   1.564   2.688  1.6145  0.7329 -0.1988
 3315SOL    HW221582   3.907   1.589   2.829 -0.5779 -0.5475  0.8678
 3316SOL     OW21583   3.022   2.857   6.791 -0.2129  0.0942 -0.0774
 3316SOL    HW121584   2.965   2.870   6.867  1.0763  2.3685  0.5157
 3316SOL    HW221585   3.101   2.909   6.807 -0.4884  0.0658  1.3296
 3317SOL     OW21586   1.272   2.177  14.755 -0.1692 -0.2086 -0.0150
 3317SOL    HW121587   1.209   2.169  14.684  1.1955 -4.2059 -0.7616
 3317SOL    HW221588   1.216   2.234  14.808  1.3765  0.2724  1.1186
 3318SOL     OW21589   2.238   4.257   4.752 -0.0783  0.2337 -0.2342
 3318SOL    HW121590   2.178   4.218   4.815  0.9631  0.4659  0.9070
 3318SOL    HW221591   2.316   4.279   4.803  0.5896  0.7042 -1.4388
 3319SOL     OW21592   0.608   0.609   4.731 -0.0105  0.5621 -0.3340
 3319SOL    HW121593   0.621   0.601   4.825  1.2981 -0.2144 -0.5835
 3319SOL    HW221594   0.566   0.523   4.723 -2.3464  1.7155 -0.3973
 3320SOL     OW21595   0.795   1.326   3.620 -0.5221 -0.3255  0.3471
 3320SOL    HW121596   0.798   1.285   3.707  2.4867  0.1262  0.4528
 3320SOL    HW221597   0.756   1.410   3.644  2.4005  0.7512  1.3223
 3321SOL     OW21598   3.345   4.433  10.949 -0.0239 -0.7780 -0.5822
 3321SOL    HW121599   3.337   4.347  10.908 -0.3098 -0.4756 -1.1491
 3321SOL    HW221600   3.260   4.433  10.992  0.4516 -1.2168  0.3654
 3322SOL     OW21601   1.700   3.838   4.521  0.5858  0.1080 -0.6418
 3322SOL    HW121602   1.653   3.842   4.604  0.9602 -0.8147 -0.3825
 3322SOL    HW221603   1.748   3.755   4.531  1.6082  0.8637  0.7150
 3323SOL     OW21604   1.902   4.561   0.290  0.0966 -0.2543 -0.6533
 3323SOL    HW121605   1.943   4.643   0.318 -0.3073  0.3998 -1.9632
 3323SOL    HW221606   1.965   4.491   0.305  1.0509  0.7870  0.1913
 3324SOL     OW21607   2.751   2.616  14.868  0.0414  0.0100 -0.5292
 3324SOL    HW121608   2.690   2.659  14.928 -0.3398 -0.1038 -0.8323
 3324SOL    HW221609   2.768   2.689  14.809 -1.8909 -1.0956 -2.4619
 3325SOL     OW21610   2.113   2.199  16.563 -0.0125  0.4548  0.7682
 3325SOL    HW121611   2.028   2.201  16.607 -0.4946 -0.7614 -0.1133
 3325SOL    HW221612   2.121   2.105  16.544 -2.0569  0.6539 -0.9814
 3326SOL     OW21613   4.140   1.046   1.772  0.4469  0.5854  0.2548
 3326SOL    HW121614   4.050   1.079   1.761  0.5654  0.6598 -0.4699
 3326SOL    HW221615   4.164   1.028   1.682  1.5805 -0.9050  0.8540
 3327SOL     OW21616   1.457   1.835  15.473  0.1576 -0.0202 -0.3737
 3327SOL    HW121617   1.450   1.807  15.565  0.3635 -0.9842 -0.6450
 3327SOL    HW221618   1.552   1.841  15.468 -0.0284  0.3090 -3.1668
 3328SOL     OW21619   0.962   0.512   5.120 -0.1621 -0.3280  0.3660
 3328SOL    HW121620   1.057   0.521   5.113 -0.0746 -1.5763 -0.1505
 3328SOL    HW221621   0.932   0.513   5.029 -0.4241  3.6953  0.5246
 3329SOL     OW21622   0.721   0.799  12.636 -0.0008  0.3596  0.2310
 3329SOL    HW121623   0.684   0.725  12.684 -0.0365 -0.4412 -1.0330
 3329SOL    HW221624   0.637   0.839  12.615  0.9019  1.5298 -1.1936
 3330SOL     OW21625   2.710   2.588  14.038  0.2713  0.3302  0.0430
 3330SOL    HW121626   2.628   2.563  14.080  0.2386  1.0724  0.4233
 3330SOL    HW221627   2.689   2.614  13.948 -1.3234  2.5867  1.0988
 3331SOL     OW21628   2.033   0.431   8.620 -0.8001  0.1345  0.1881
 3331SOL    HW121629   2.015   0.362   8.556 -0.0945  0.1709 -0.0506
 3331SOL    HW221630   2.108   0.465   8.571 -1.0849  0.0118 -0.3256
 3332SOL     OW21631   2.364   0.905   0.822 -0.3331  0.3477  0.4330
 3332SOL    HW121632   2.382   0.977   0.883  3.5211 -0.1782 -0.1138
 3332SOL    HW221633   2.444   0.856   0.806 -2.2619 -2.7297  0.1446
 3333SOL     OW21634   3.443   0.017  13.846  0.4079 -0.4257 -0.1482
 3333SOL    HW121635   3.510   0.046  13.785  0.8553 -0.5065  0.3067
 3333SOL    HW221636   3.483   4.681  13.890  0.1210  0.3183  1.4083
 3334SOL     OW21637   1.445   2.635   8.460 -0.3132  0.4106 -0.3082
 3334SOL    HW121638   1.401   2.609   8.541 -1.6927  1.5836 -0.6863
 3334SOL    HW221639   1.512   2.567   8.450 -0.4939  0.4082 -1.4732
 3335SOL     OW21640   3.254   2.226  17.751  0.1486  0.0088  0.1189
 3335SOL    HW121641   3.237   2.293  17.685 -1.3504 -0.4426  0.0634
 3335SOL    HW221642   3.350   2.227  17.747  0.0434  0.4874 -1.9829
 3336SOL     OW21643   0.833   2.031   8.455 -0.0990  0.1610  0.7321
 3336SOL    HW121644   0.759   1.995   8.503  0.5191 -0.1384  1.4454
 3336SOL    HW221645   0.807   2.036   8.363 -1.0329 -1.5928  0.9045
 3337SOL     OW21646   0.912   4.301   2.723 -0.4778  0.0553  0.2446
 3337SOL    HW121647   0.914   4.206   2.710 -1.8534  0.3639 -2.3936
 3337SOL    HW221648   0.885   4.331   2.636 -1.8626 -1.7361  0.0656
 3338SOL     OW21649   2.757   3.339  13.796 -0.3507 -0.4937 -0.1490
 3338SOL    HW121650   2.760   3.336  13.892  0.7920 -1.2785 -0.2085
 3338SOL    HW221651   2.806   3.260  13.773 -0.1704 -0.8724  1.5451
 3339SOL     OW21652   1.338   0.019  14.992  0.1148 -0.4107 -0.2767
 3339SOL    HW121653   1.328   4.687  15.056 -0.4153 -1.6442 -1.7375
 3339SOL    HW221654   1.310   0.097  15.040  1.8418  0.0157  0.0476
 3340SOL     OW21655   0.089   1.054  16.746  0.4569 -0.7778  0.1161
 3340SOL    HW121656   0.102   1.127  16.685  1.1905 -1.1081 -0.1267
 3340SOL    HW221657   0.165   1.006  16.713  0.2850 -0.1287 -1.2011
 3341SOL     OW21658   0.111   3.415  14.416  0.1325 -0.3222 -0.0934
 3341SOL    HW121659   0.095   3.382  14.328  0.6110 -0.7883  0.0010
 3341SOL    HW221660   0.086   3.343  14.474  0.2899 -0.2772  0.0285
 3342SOL     OW21661   1.963   2.776  16.146  0.1712 -0.1574  0.5864
 3342SOL    HW121662   1.918   2.691  16.148 -0.2328  0.0191 -0.9915
 3342SOL    HW221663   2.049   2.753  16.110  0.5124  3.9223 -1.1158
 3343SOL     OW21664   3.932   3.234   6.323  0.0473  0.3798 -0.8051
 3343SOL    HW121665   3.884   3.190   6.393 -1.0657  1.6080 -0.8066
 3343SOL    HW221666   3.894   3.321   6.324 -0.6966  0.0584 -1.9647
 3344SOL     OW21667   3.902   4.213   8.370  0.5844 -0.1596 -0.7558
 3344SOL    HW121668   3.983   4.174   8.403  1.0065  0.0141 -1.5964
 3344SOL    HW221669   3.912   4.308   8.368  2.0220 -0.2817  0.4831
 3345SOL     OW21670   3.336   4.633  13.446  0.8565 -0.5033  0.5598
 3345SOL    HW121671   3.291   4.671  13.521 -1.3230 -1.0386 -0.4628
 3345SOL    HW221672   3.368   4.711  13.402  0.0828 -1.3829 -1.5873
 3346SOL     OW21673   2.655   3.660   1.431  0.9422  0.4146  0.5390
 3346SOL    HW121674   2.714   3.735   1.429  1.2576  0.0685 -2.6809
 3346SOL    HW221675   2.692   3.598   1.368  0.5494  1.7049 -0.9544
 3347SOL     OW21676   0.715   0.854   4.934  0.3295  0.3419 -0.0195
 3347SOL    HW121677   0.734   0.937   4.977  1.6725  0.3726 -0.6418
 3347SOL    HW221678   0.625   0.831   4.953  0.7919 -1.5105 -0.0097
 3348SOL     OW21679   2.863   2.678   9.732  0.1595 -0.1945 -0.0279
 3348SOL    HW121680   2.875   2.694   9.638  0.2412 -0.9656 -0.1476
 3348SOL    HW221681   2.903   2.591   9.738  1.3813  0.4130  0.5360
 3349SOL     OW21682   2.075   3.216   2.943 -0.3332 -0.4716 -0.6814
 3349SOL    HW121683   2.042   3.145   2.889 -1.3303 -1.7636  1.6185
 3349SOL    HW221684   2.048   3.296   2.898  0.1386  0.3745  0.5258
 3350SOL     OW21685   2.803   0.511   2.380  0.2983  0.2706 -0.5501
 3350SOL    HW121686   2.733   0.487   2.441  0.9991  0.5058  0.3457
 3350SOL    HW221687   2.854   0.431   2.377 -2.3369 -1.4658  0.4027
 3351SOL     OW21688   0.540   0.949   9.808 -0.1564 -0.1579 -0.1948
 3351SOL    HW121689   0.479   0.886   9.846 -0.8266 -0.9958 -2.6438
 3351SOL    HW221690   0.613   0.896   9.778  0.1226  0.5010 -0.6813
 3352SOL     OW21691   1.661   3.822   7.502  0.2296  0.4719  0.1975
 3352SOL    HW121692   1.720   3.798   7.431 -1.4339 -1.3345 -0.5775
 3352SOL    HW221693   1.674   3.914   7.522  2.8056 -0.1110  1.2481
 3353SOL     OW21694   4.419   0.714   2.549  0.0528 -0.0404 -0.3564
 3353SOL    HW121695   4.360   0.650   2.510 -0.7090 -0.9455  2.2672
 3353SOL    HW221696   4.410   0.781   2.481 -4.4539 -0.5756 -0.2678
 3354SOL     OW21697   3.672   3.114   7.051 -0.7801  0.5252 -0.0463
 3354SOL    HW121698   3.650   3.128   7.143 -1.2200  0.3670 -0.1278
 3354SOL    HW221699   3.599   3.165   7.015  0.7118 -0.9650 -5.1247
 3355SOL     OW21700   2.220   0.820   5.324  0.3718  0.3751 -0.4400
 3355SOL    HW121701   2.127   0.824   5.299  0.0617 -0.6064  0.5601
 3355SOL    HW221702   2.225   0.915   5.338  0.0743  0.3306 -0.0283
 3356SOL     OW21703   3.810   2.842  13.895 -0.1182  0.2528  0.6266
 3356SOL    HW121704   3.891   2.876  13.933  0.3117 -1.9918  1.6962
 3356SOL    HW221705   3.832   2.749  13.895 -1.6222 -0.1003  0.9383
 3357SOL     OW21706   2.816   0.872   2.187 -0.3801  0.0302  0.0441
 3357SOL    HW121707   2.764   0.792   2.182 -1.5052  0.8636 -1.5385
 3357SOL    HW221708   2.867   0.850   2.109  0.5919  1.1031  0.3712
 3358SOL     OW21709   3.950   0.748   3.490 -0.4818  0.0623 -0.4143
 3358SOL    HW121710   3.873   0.706   3.453 -1.9966  1.4709  1.1502
 3358SOL    HW221711   3.935   0.842   3.474 -1.7939 -0.0112  0.4725
 3359SOL     OW21712   0.868   1.895   2.805  0.0842 -0.2539 -0.4919
 3359SOL    HW121713   0.906   1.950   2.874 -0.4382 -1.2536  0.5809
 3359SOL    HW221714   0.806   1.837   2.849  0.0470  1.4565  1.7562
 3360SOL     OW21715   3.653   0.040   1.867  0.1636 -0.8093 -0.1814
 3360SOL    HW121716   3.617   4.690   1.874 -0.6715 -0.3789  1.2229
 3360SOL    HW221717   3.679   0.046   1.776 -0.3601 -2.4349 -0.4266
 3361SOL     OW21718   0.417   1.562   3.680 -0.1936 -0.2574 -0.8096
 3361SOL    HW121719   0.499   1.558   3.630  0.2612 -0.4317 -0.0487
 3361SOL    HW221720   0.358   1.519   3.618 -1.6092  1.7785 -0.8719
 3362SOL     OW21721   2.029   1.243   5.492  0.4537  0.0038  0.5007
 3362SOL    HW121722   1.934   1.232   5.493  0.5953 -1.3276 -0.7543
 3362SOL    HW221723   2.036   1.338   5.485 -2.1353  0.3649  3.0341
 3363SOL     OW21724   2.842   0.292   5.468 -0.1688  0.3844  0.3682
 3363SOL    HW121725   2.840   0.268   5.376  0.3827 -0.5571  0.6069
 3363SOL    HW221726   2.749   0.295   5.492 -0.7602  0.8693 -1.9949
 3364SOL     OW21727   2.050   3.279   9.106  0.2576  0.1576 -0.5471
 3364SOL    HW121728   2.136   3.255   9.072  1.1877  0.1797  1.7885
 3364SOL    HW221729   2.062   3.242   9.194 -1.5236  1.4554  0.2283
 3365SOL     OW21730   2.463   3.103   9.373  0.4831 -0.4304 -0.4417
 3365SOL    HW121731   2.452   3.049   9.295  2.1819  0.7382 -1.4769
 3365SOL    HW221732   2.501   3.044   9.438  2.1303  0.6301 -0.4589
 3366SOL     OW21733   3.633   2.874   8.260 -0.3046 -0.1618 -0.5966
 3366SOL    HW121734   3.595   2.956   8.292 -1.8489 -1.3172  0.5692
 3366SOL    HW221735   3.560   2.812   8.264 -0.9327  0.4468 -2.7143
 3367SOL     OW21736   3.512   4.606   6.853 -0.2790 -0.8281  0.2016
 3367SOL    HW121737   3.535   4.551   6.928 -0.9946 -0.3556  0.7717
 3367SOL    HW221738   3.543   4.554   6.779 -1.6532 -0.8238 -0.3832
 3368SOL     OW21739   1.435   1.000   1.254 -0.5851 -0.3278 -0.0951
 3368SOL    HW121740   1.527   1.010   1.227 -0.3178 -1.2957  0.4643
 3368SOL    HW221741   1.417   1.071   1.316 -0.8132  0.7376 -1.3741
 3369SOL     OW21742   4.243   2.609   4.598 -0.3384 -0.2093  0.2851
 3369SOL    HW121743   4.200   2.584   4.681 -1.9034  1.6152  0.0221
 3369SOL    HW221744   4.225   2.702   4.608  1.9049  0.3022 -0.5572
 3370SOL     OW21745   2.176   3.119   9.968 -0.4547 -0.0888  0.5191
 3370SOL    HW121746   2.253   3.144  10.019  0.7977 -1.1779 -0.8330
 3370SOL    HW221747   2.138   3.197   9.928  0.9051  0.4986  0.3766
 3371SOL     OW21748   3.053   1.570   9.253  0.1939  0.4044 -0.6984
 3371SOL    HW121749   3.083   1.577   9.343  1.0957 -1.2487 -0.8690
 3371SOL    HW221750   3.084   1.483   9.231  2.1940  0.4352  2.0173
 3372SOL     OW21751   4.328   1.686  12.121  0.2071  0.2342 -0.0625
 3372SOL    HW121752   4.307   1.739  12.044 -1.6429 -1.7378 -0.9163
 3372SOL    HW221753   4.237   1.663  12.139  0.2585  0.1731  0.1163
 3373SOL     OW21754   0.749   3.908   6.316  0.6520 -0.3271 -0.0055
 3373SOL    HW121755   0.757   3.997   6.350  0.1422 -1.1498  2.2744
 3373SOL    HW221756   0.676   3.880   6.372 -0.1216 -1.8134 -1.7753
 3374SOL     OW21757   0.491   3.775  13.281  0.1318  0.2461  0.7173
 3374SOL    HW121758   0.542   3.854  13.302  3.6960 -1.3077 -2.1490
 3374SOL    HW221759   0.559   3.712  13.258 -2.7355 -2.0426 -1.3780
 3375SOL     OW21760   3.888   0.980   3.321  0.0653  0.1180  0.3566
 3375SOL    HW121761   3.799   0.987   3.289 -0.0551 -1.8454  0.2813
 3375SOL    HW221762   3.918   1.069   3.303 -1.0730  0.4946  0.3317
 3376SOL     OW21763   2.949   4.661   4.595 -0.0768  0.8156 -1.1858
 3376SOL    HW121764   2.998   4.638   4.674  1.1065 -1.5259 -2.6004
 3376SOL    HW221765   2.893   4.733   4.624 -1.0567 -0.1626 -0.6388
 3377SOL     OW21766   0.170   0.889   6.758 -0.3878 -1.0464  0.2071
 3377SOL    HW121767   0.158   0.910   6.666 -3.2709 -1.5870  0.4698
 3377SOL    HW221768   0.235   0.823   6.732 -1.8445 -1.7907 -1.4989
 3378SOL     OW21769   0.483   1.737   8.856  0.0966 -0.5783 -0.5676
 3378SOL    HW121770   0.455   1.823   8.826  0.3748 -0.4036 -0.3204
 3378SOL    HW221771   0.406   1.679   8.849 -0.3738 -0.2106  1.7150
 3379SOL     OW21772   3.134   0.402  10.390 -0.4362  0.5454  0.5809
 3379SOL    HW121773   3.218   0.422  10.432 -0.0858 -0.3654  0.3087
 3379SOL    HW221774   3.105   0.483  10.346 -0.4192 -0.6055 -1.5389
 3380SOL     OW21775   2.138   4.578   2.650 -0.6493 -0.7297  0.2603
 3380SOL    HW121776   2.143   4.494   2.605  0.3403  0.3983 -1.7305
 3380SOL    HW221777   2.119   4.551   2.740  0.5496 -2.7046 -0.0722
 3381SOL     OW21778   1.798   4.140   2.383  0.5330 -0.2487  0.4048
 3381SOL    HW121779   1.789   4.186   2.300 -0.0896 -1.0684  0.0179
 3381SOL    HW221780   1.849   4.193   2.445  2.5612  0.2031 -1.6673
 3382SOL     OW21781   2.382   0.495   0.783  0.0369  0.4922  0.0240
 3382SOL    HW121782   2.459   0.542   0.817 -0.6485  1.4339  0.2683
 3382SOL    HW221783   2.406   0.457   0.699 -0.1688 -1.0641  0.6666
 3383SOL     OW21784   4.201   0.501   7.758 -0.2128  0.1415 -0.2932
 3383SOL    HW121785   4.290   0.476   7.781 -0.2477  0.4851  0.2303
 3383SOL    HW221786   4.204   0.511   7.663  1.5109 -0.4777 -0.3049
 3384SOL     OW21787   4.233   1.532   8.781 -0.7582 -0.5339  0.0348
 3384SOL    HW121788   4.216   1.446   8.741 -0.1505 -0.9695  0.7147
 3384SOL    HW221789   4.310   1.568   8.738 -0.8347 -2.7955 -2.0119
 3385SOL     OW21790   0.267   3.128   8.603 -0.1898 -0.0305  0.2750
 3385SOL    HW121791   0.185   3.079   8.606 -0.6564  0.8785  1.9196
 3385SOL    HW221792   0.294   3.141   8.694  1.0468 -2.0793  0.2180
 3386SOL     OW21793   0.173   0.390  11.963 -0.4460  0.0639  1.1921
 3386SOL    HW121794   0.267   0.406  11.961 -0.3917 -0.3231  0.7336
 3386SOL    HW221795   0.135   0.465  11.916 -0.4321 -0.5926  0.1549
 3387SOL     OW21796   0.261   0.651   7.520 -0.4641  0.0212 -0.4543
 3387SOL    HW121797   0.318   0.690   7.454  0.4625  1.9700  1.4941
 3387SOL    HW221798   0.277   0.708   7.596 -0.3467  0.2141 -0.6245
 3388SOL     OW21799   1.311   4.113   0.130  0.1356 -0.3427  0.2113
 3388SOL    HW121800   1.275   4.126   0.042 -0.3836  1.0683  0.6466
 3388SOL    HW221801   1.226   4.088   0.167  0.5966  0.3526  1.7134
 3389SOL     OW21802   0.289   4.557   9.600  0.0776  0.6753 -0.2307
 3389SOL    HW121803   0.244   4.572   9.684 -2.6931 -0.9403 -1.4186
 3389SOL    HW221804   0.225   4.606   9.548 -0.6510  0.3368  0.3403
 3390SOL     OW21805   2.188   4.501   7.823 -0.3780  0.1579  0.3990
 3390SOL    HW121806   2.228   4.563   7.884  1.4522  0.3734 -1.0180
 3390SOL    HW221807   2.157   4.439   7.890  2.5396 -1.4805  0.2105
 3391SOL     OW21808   0.327   1.527   6.098 -0.2290 -0.8092 -0.2685
 3391SOL    HW121809   0.338   1.568   6.012 -0.3672  0.5816  0.3868
 3391SOL    HW221810   0.408   1.476   6.109 -1.5047 -2.8691 -0.2890
 3392SOL     OW21811   2.415   3.617   4.325 -0.0264  0.6245 -0.2143
 3392SOL    HW121812   2.437   3.573   4.243 -2.1943 -1.2664  0.2410
 3392SOL    HW221813   2.414   3.712   4.308 -2.6982  1.1663  3.0167
 3393SOL     OW21814   4.522   2.939  17.698  0.0768  0.1148  0.0304
 3393SOL    HW121815   4.562   3.022  17.675 -0.4960  0.2346 -0.5369
 3393SOL    HW221816   4.456   2.938  17.628 -2.8139  2.3358  2.7686
 3394SOL     OW21817   3.418   0.572  15.919 -0.3746  0.0556 -0.5098
 3394SOL    HW121818   3.438   0.636  15.987 -1.5511 -0.0152 -0.1008
 3394SOL    HW221819   3.487   0.595  15.856  0.2465 -0.3351  0.0328
 3395SOL     OW21820   0.440   0.579  10.573  0.0717  0.0980 -0.2659
 3395SOL    HW121821   0.409   0.489  10.570  0.1108  0.0685  0.3416
 3395SOL    HW221822   0.360   0.623  10.544 -0.2011 -0.0849  0.2338
 3396SOL     OW21823   1.424   3.589   4.661 -0.0179 -0.1939  0.3666
 3396SOL    HW121824   1.399   3.674   4.625  0.4414 -0.0494  0.3857
 3396SOL    HW221825   1.517   3.608   4.675 -0.1401  1.7087 -1.3436
 3397SOL     OW21826   2.916   0.081   0.673 -0.7707 -0.0157 -0.4036
 3397SOL    HW121827   2.844   0.068   0.735 -2.3857 -0.6392 -2.4481
 3397SOL    HW221828   2.976   0.119   0.738 -0.5929  0.3157 -0.7607
 3398SOL     OW21829   2.490   2.513  15.276  0.7342  0.3081 -0.1851
 3398SOL    HW121830   2.462   2.433  15.320  2.8257 -0.2451  0.1162
 3398SOL    HW221831   2.508   2.578  15.344  2.8100  0.5802 -0.9953
 3399SOL     OW21832   2.411   2.478   2.596 -0.9003  0.8274  0.0670
 3399SOL    HW121833   2.349   2.447   2.530  2.2566 -2.3259 -1.4428
 3399SOL    HW221834   2.394   2.572   2.591 -2.1999  0.5502 -0.7273
 3400SOL     OW21835   1.029   3.679   0.195  0.7555 -0.1378 -0.5444
 3400SOL    HW121836   0.943   3.645   0.218  0.4372  0.1469 -1.2962
 3400SOL    HW221837   1.026   3.679   0.099  0.5312 -0.5273 -0.5362
 3401SOL     OW21838   4.528   4.620   7.468  0.1347  0.1838  0.6159
 3401SOL    HW121839   4.543   4.654   7.380  1.7522  0.7667  1.1244
 3401SOL    HW221840   4.609   4.582   7.501  0.4222  1.8757  1.8632
 3402SOL     OW21841   4.566   2.175   3.421  0.3143  0.2743  0.6183
 3402SOL    HW121842   4.600   2.108   3.361 -2.1366 -1.2925  1.0026
 3402SOL    HW221843   4.609   2.160   3.505  1.3222 -2.1739 -0.3146
 3403SOL     OW21844   2.868   3.838   1.491 -0.3176 -0.2250  0.2500
 3403SOL    HW121845   2.888   3.929   1.514  0.4179  0.0300 -1.4458
 3403SOL    HW221846   2.944   3.790   1.522  0.7557  0.3247 -1.5586
 3404SOL     OW21847   3.949   2.299   2.197  0.3412 -0.4335 -0.6002
 3404SOL    HW121848   4.009   2.257   2.258 -0.6693  0.4623  1.0196
 3404SOL    HW221849   3.905   2.221   2.163 -0.2861 -0.2656 -0.1725
 3405SOL     OW21850   3.843   0.762   4.105 -0.3280 -0.0610  0.7262
 3405SOL    HW121851   3.814   0.844   4.145 -2.2049 -0.3717 -0.0048
 3405SOL    HW221852   3.799   0.765   4.020  1.7288 -1.2882 -0.3762
 3406SOL     OW21853   2.521   2.538  11.732  0.2319  0.6918  0.1364
 3406SOL    HW121854   2.562   2.544  11.646  2.8271 -0.9154  1.2507
 3406SOL    HW221855   2.435   2.507  11.706  0.0892 -0.0226  1.4737
 3407SOL     OW21856   2.452   0.595   8.308  0.1749  0.1258  0.2447
 3407SOL    HW121857   2.465   0.613   8.215  1.1858 -2.2265 -0.0645
 3407SOL    HW221858   2.449   0.500   8.294  0.9508  0.0653  0.5061
 3408SOL     OW21859   1.320   2.258   4.141  0.8639  0.1217 -0.2934
 3408SOL    HW121860   1.349   2.279   4.230 -1.4240  1.4077  0.1682
 3408SOL    HW221861   1.401   2.213   4.118 -0.1171 -0.7302 -2.1044
 3409SOL     OW21862   0.388   3.971  17.059  0.0417  0.6828 -0.4187
 3409SOL    HW121863   0.350   3.956  17.146  3.0505 -0.6725  0.6682
 3409SOL    HW221864   0.440   4.047  17.084  0.0682 -0.3734  2.8013
 3410SOL     OW21865   3.184   2.820  14.086  0.2232 -0.1708  0.0508
 3410SOL    HW121866   3.114   2.757  14.076  0.5849 -0.7617  1.2568
 3410SOL    HW221867   3.260   2.764  14.103  0.1759 -0.3892 -0.4663
 3411SOL     OW21868   1.876   4.704   8.802  0.1435  0.1238  0.9388
 3411SOL    HW121869   1.824   4.642   8.853  1.5284 -1.0387  0.9615
 3411SOL    HW221870   1.829   4.694   8.720 -1.2589 -0.8523  1.8506
 3412SOL     OW21871   1.412   3.325  16.651  0.1532 -0.4278  0.2447
 3412SOL    HW121872   1.479   3.327  16.719  1.8801 -1.8660 -1.4041
 3412SOL    HW221873   1.467   3.323  16.573 -1.6911  0.0688 -1.0509
 3413SOL     OW21874   4.248   4.475  15.479 -0.5534  0.2304 -0.3305
 3413SOL    HW121875   4.324   4.428  15.512 -1.1723  0.6314  1.6866
 3413SOL    HW221876   4.292   4.542  15.427  1.2303 -2.1395 -1.8594
 3414SOL     OW21877   0.159   0.986  14.517 -0.0533 -0.8608 -0.2436
 3414SOL    HW121878   0.133   1.014  14.429 -0.2299 -0.9831 -0.2306
 3414SOL    HW221879   0.074   0.961  14.553  0.3302 -1.5756  0.1623
 3415SOL     OW21880   0.836   3.094   4.535  0.1116  0.0862 -0.4245
 3415SOL    HW121881   0.840   3.015   4.589  0.4870  0.3349 -0.0964
 3415SOL    HW221882   0.919   3.128   4.567 -0.2516  0.1429  0.4542
 3416SOL     OW21883   2.553   1.089   7.318  0.3795 -0.7294 -0.0021
 3416SOL    HW121884   2.499   1.027   7.267  0.3298 -1.7423  1.2906
 3416SOL    HW221885   2.521   1.178   7.306  0.2987 -0.8199 -0.4692
 3417SOL     OW21886   4.403   2.112  12.540 -0.5172 -0.2029 -0.1305
 3417SOL    HW121887   4.319   2.092  12.581  0.5062 -1.1739  1.4596
 3417SOL    HW221888   4.372   2.183  12.483  1.6876  0.7238 -0.1950
 3418SOL     OW21889   4.202   0.987   1.514  0.0936 -0.5611  0.5293
 3418SOL    HW121890   4.106   0.988   1.516  0.0564 -2.8351 -0.4338
 3418SOL    HW221891   4.219   0.930   1.439  0.0324 -1.1100  0.9320
 3419SOL     OW21892   3.898   0.625   4.986  0.1706  0.3041 -0.0015
 3419SOL    HW121893   3.828   0.562   4.971  0.5982  0.0059 -0.7164
 3419SOL    HW221894   3.888   0.668   4.901  1.5100  0.0711 -0.2873
 3420SOL     OW21895   0.389   0.576  11.904 -0.1162  0.1567 -0.2269
 3420SOL    HW121896   0.410   0.594  11.812 -0.6925 -0.3072 -0.4441
 3420SOL    HW221897   0.463   0.518  11.919 -0.2031 -0.0316 -0.5223
 3421SOL     OW21898   3.298   1.415   5.489 -0.1914 -0.2182  0.0629
 3421SOL    HW121899   3.334   1.326   5.485  2.0473  0.6551  0.5734
 3421SOL    HW221900   3.309   1.441   5.398 -1.2106  0.3865  0.1262
 3422SOL     OW21901   4.521   0.016   8.046 -0.2076  0.4177 -0.1505
 3422SOL    HW121902   4.432   0.003   8.011 -0.3418 -0.5848  0.5531
 3422SOL    HW221903   4.510   0.072   8.122 -0.2166 -0.3625  0.4316
 3423SOL     OW21904   0.756   1.882  15.344 -0.1963 -0.4450 -0.4486
 3423SOL    HW121905   0.777   1.882  15.250 -0.8266  0.3004 -0.5849
 3423SOL    HW221906   0.828   1.835  15.386  0.0945  1.1083  0.7669
 3424SOL     OW21907   0.024   0.574   2.019  0.2401 -0.1259 -0.6679
 3424SOL    HW121908   0.115   0.568   1.988  0.3622  0.3052 -0.3980
 3424SOL    HW221909   0.000   0.665   2.008 -1.6766 -0.0906  3.4958
 3425SOL     OW21910   0.501   4.603  10.814 -0.0171 -0.0722 -0.7092
 3425SOL    HW121911   0.509   4.612  10.909 -0.5375 -1.1829 -0.5599
 3425SOL    HW221912   0.422   4.550  10.806 -2.0515  2.7560  0.6666
 3426SOL     OW21913   1.679   3.016   5.091 -1.0917 -0.2008 -0.5655
 3426SOL    HW121914   1.596   2.992   5.132 -0.4944 -3.2196 -1.1248
 3426SOL    HW221915   1.726   2.933   5.082  0.5938  0.9749 -2.5434
 3427SOL     OW21916   2.562   1.217   3.712 -0.2962 -0.0201  0.2693
 3427SOL    HW121917   2.489   1.155   3.703  1.3789 -1.9495 -0.0926
 3427SOL    HW221918   2.518   1.301   3.699 -0.8570 -0.5412 -1.2458
 3428SOL     OW21919   4.677   4.399   1.449  0.4400  0.3348 -0.4145
 3428SOL    HW121920   4.655   4.409   1.541  2.1898  0.9038 -0.0747
 3428SOL    HW221921   4.720   4.483   1.436  0.8015  0.5956  2.6456
 3429SOL     OW21922   1.167   0.003   9.565  0.7311 -0.5042 -0.0557
 3429SOL    HW121923   1.237   0.006   9.630  2.3181 -0.9164 -1.7366
 3429SOL    HW221924   1.189   4.655   9.531 -0.5987  0.3917 -3.1937
 3430SOL     OW21925   1.710   4.514   2.424  0.3411  0.4282  0.1877
 3430SOL    HW121926   1.792   4.467   2.439 -0.6272 -1.1788  0.4690
 3430SOL    HW221927   1.680   4.534   2.513  0.5267  2.0079 -0.1118
 3431SOL     OW21928   2.845   2.716  11.610  0.3401  0.4583 -0.1317
 3431SOL    HW121929   2.897   2.683  11.537  0.2575  1.1500 -0.5000
 3431SOL    HW221930   2.816   2.802  11.580 -0.1732  0.2393 -0.2644
 3432SOL     OW21931   3.463   3.342   1.153  0.2781 -0.1453  0.0763
 3432SOL    HW121932   3.542   3.329   1.100  1.4944 -1.3630  2.1947
 3432SOL    HW221933   3.412   3.270   1.115  0.7452 -0.6125  0.3311
 3433SOL     OW21934   1.727   2.032   1.338  0.0661 -0.3262  1.1394
 3433SOL    HW121935   1.770   2.067   1.416  0.4953 -0.2806  0.8810
 3433SOL    HW221936   1.641   2.074   1.341 -0.3249 -1.1628  1.7136
 3434SOL     OW21937   3.523   0.794   2.665  0.1107 -0.2065  0.1406
 3434SOL    HW121938   3.456   0.837   2.719  1.0064  0.7094  0.5117
 3434SOL    HW221939   3.567   0.747   2.736 -3.2026 -0.7410  1.8911
 3435SOL     OW21940   2.297   1.981   1.991  0.4708  0.0578 -0.2534
 3435SOL    HW121941   2.351   1.958   2.067  0.7882  3.1848  0.4737
 3435SOL    HW221942   2.211   1.970   2.031  0.3671 -2.7994 -1.2611
 3436SOL     OW21943   4.143   1.458   7.749 -0.1846 -0.2971 -0.1584
 3436SOL    HW121944   4.161   1.436   7.658 -0.3318  0.0303 -0.2617
 3436SOL    HW221945   4.048   1.465   7.744 -0.1050  1.6631  1.4166
 3437SOL     OW21946   2.597   2.917  13.302 -0.2944 -0.1684 -0.7162
 3437SOL    HW121947   2.612   2.858  13.229 -1.2350  1.0675 -1.9235
 3437SOL    HW221948   2.684   2.942  13.333 -0.8596  0.6137  0.2671
 3438SOL     OW21949   4.259   4.604   3.843  0.0279 -0.1131 -0.1343
 3438SOL    HW121950   4.325   4.617   3.911 -0.2122 -2.0028  0.4496
 3438SOL    HW221951   4.296   4.655   3.770 -1.2739  1.2557  0.1480
 3439SOL     OW21952   3.864   4.680   8.684  0.6582 -0.1507 -0.5963
 3439SOL    HW121953   3.906   0.008   8.630  3.4976 -0.6241  1.0166
 3439SOL    HW221954   3.945   4.629   8.679 -0.5551 -2.1164 -0.1487
 3440SOL     OW21955   4.217   2.673  17.708 -0.0046 -0.0507  0.5237
 3440SOL    HW121956   4.140   2.625  17.737  0.4847 -0.6981  0.7732
 3440SOL    HW221957   4.244   2.632  17.626 -0.4713  1.6751 -0.4828
 3441SOL     OW21958   2.412   3.396  14.327  0.0412 -0.0700 -0.6976
 3441SOL    HW121959   2.460   3.477  14.313 -0.1414 -0.1084 -1.6054
 3441SOL    HW221960   2.368   3.393  14.241 -0.7051  2.5527 -0.3960
 3442SOL     OW21961   0.093   4.132   6.449  0.4243  0.0530 -0.1733
 3442SOL    HW121962   0.021   4.196   6.448 -0.8299 -1.3530 -0.3177
 3442SOL    HW221963   0.145   4.154   6.372 -0.8568 -1.9075 -1.6098
 3443SOL     OW21964   1.516   0.282   6.572  0.6864  0.4311  0.2533
 3443SOL    HW121965   1.479   0.315   6.654 -0.5934  0.9470 -0.5242
 3443SOL    HW221966   1.450   0.301   6.505 -1.5224 -0.7836  2.0832
 3444SOL     OW21967   4.439   0.223  16.060  0.4813 -0.2668  0.6058
 3444SOL    HW121968   4.504   0.260  16.120  0.5846 -0.9535  0.9158
 3444SOL    HW221969   4.493   0.157  16.017 -0.0475  0.9001 -1.8424
 3445SOL     OW21970   4.482   0.194   2.893  0.3450 -0.3127 -0.6101
 3445SOL    HW121971   4.398   0.232   2.866  0.3455 -0.9014 -1.4432
 3445SOL    HW221972   4.515   0.278   2.925 -1.0724  1.0413 -2.7377
 3446SOL     OW21973   4.170   0.014   8.191 -0.2904  0.1420  0.0557
 3446SOL    HW121974   4.246   0.070   8.208 -1.1020  0.7195  1.7915
 3446SOL    HW221975   4.113   0.083   8.156  0.7534  1.1516  0.3468
 3447SOL     OW21976   2.838   0.243  15.956  0.4409 -0.0523  0.3726
 3447SOL    HW121977   2.929   0.224  15.979  0.5277 -1.1281 -0.8474
 3447SOL    HW221978   2.828   0.332  15.989  2.5857  0.6732 -0.9436
 3448SOL     OW21979   2.877   1.974  15.233 -0.2686 -0.1098  0.0921
 3448SOL    HW121980   2.973   1.975  15.228 -0.3674  1.9417 -1.2585
 3448SOL    HW221981   2.858   2.020  15.151  1.7591 -0.8476 -0.8030
 3449SOL     OW21982   1.409   0.028   9.701  0.8329 -0.3079  0.1986
 3449SOL    HW121983   1.425   0.085   9.776  0.5484 -0.3262  0.2699
 3449SOL    HW221984   1.493   0.039   9.656  1.0983  0.1662  0.8140
 3450SOL     OW21985   4.401   3.586  14.900 -0.0531  0.2392 -0.0575
 3450SOL    HW121986   4.446   3.568  14.983  0.5365  0.3836 -0.3467
 3450SOL    HW221987   4.321   3.533  14.897  0.8521 -1.1685  0.5432
 3451SOL     OW21988   0.416   3.655   3.130  0.3726 -0.2820 -0.2556
 3451SOL    HW121989   0.447   3.634   3.042 -0.5691  0.9500 -0.8848
 3451SOL    HW221990   0.322   3.635   3.132  0.0673  1.0872 -0.8308
 3452SOL     OW21991   4.732   0.208   5.242 -0.2341 -0.1498 -0.4150
 3452SOL    HW121992   4.733   0.233   5.149 -2.2395 -1.3703 -0.7721
 3452SOL    HW221993   4.680   0.128   5.244 -0.5609  0.0649 -0.2904
 3453SOL     OW21994   4.524   0.058  17.408 -0.1002 -0.4183 -0.2979
 3453SOL    HW121995   4.516   0.022  17.497  1.2861  1.3804  0.5377
 3453SOL    HW221996   4.518   0.150  17.432  1.5406 -1.2550  3.4622
 3454SOL     OW21997   0.855   4.490   2.174 -0.0116 -0.2456 -0.0941
 3454SOL    HW121998   0.946   4.469   2.193  0.7429  1.8983 -1.2424
 3454SOL    HW221999   0.820   4.408   2.138 -0.6965 -0.7349  1.6791
 3455SOL     OW22000   2.597   2.781  10.544  0.3434  0.0402  0.4190
 3455SOL    HW122001   2.507   2.750  10.540  0.3713 -0.4514  3.8458
 3455SOL    HW222002   2.569   2.870  10.566 -2.8266 -0.8608 -0.0430
 3456SOL     OW22003   4.400   2.625   6.929  0.4107 -0.7171 -0.4119
 3456SOL    HW122004   4.460   2.699   6.928  0.7594 -1.0101 -1.0546
 3456SOL    HW222005   4.432   2.561   6.866  3.3723  0.3196  0.0735
 3457SOL     OW22006   1.296   4.294   5.426  0.1861  0.2589 -0.1628
 3457SOL    HW122007   1.266   4.289   5.335  2.1186 -2.4820 -0.6259
 3457SOL    HW222008   1.236   4.232   5.468 -0.1747 -0.2664 -1.4618
 3458SOL     OW22009   3.239   2.158  15.122  0.6119 -1.0214 -0.4118
 3458SOL    HW122010   3.163   2.212  15.097  1.3220  0.2203  0.1116
 3458SOL    HW222011   3.205   2.105  15.194  2.7231 -0.7075  0.8106
 3459SOL     OW22012   0.629   2.578   6.348 -0.5827  0.6164  0.1199
 3459SOL    HW122013   0.584   2.517   6.407  1.1461 -0.5635  0.2336
 3459SOL    HW222014   0.553   2.601   6.294  1.5131  0.8428 -2.7168
 3460SOL     OW22015   2.155   0.119   9.357 -0.6967  0.1305  0.1472
 3460SOL    HW122016   2.075   0.067   9.363  1.2822 -3.0439 -0.8733
 3460SOL    HW222017   2.223   0.055   9.336  0.4337  1.4345 -0.1208
 3461SOL     OW22018   4.139   2.253   3.155  0.4869 -0.0434  0.0843
 3461SOL    HW122019   4.097   2.217   3.077  1.2639 -2.4489  0.7645
 3461SOL    HW222020   4.217   2.197   3.153  0.7372  0.3496 -0.9883
 3462SOL     OW22021   0.004   1.556   7.715  0.1118  0.2564  0.8131
 3462SOL    HW122022   4.657   1.520   7.738  0.1339 -1.5085 -1.9238
 3462SOL    HW222023   4.729   1.639   7.669  0.8140  0.4943  1.0415
 3463SOL     OW22024   0.794   0.186  14.841  0.0750  0.5620 -0.2114
 3463SOL    HW122025   0.714   0.148  14.805  0.5044  0.2442 -0.8215
 3463SOL    HW222026   0.857   0.164  14.773  0.0108  3.4599 -1.2185
 3464SOL     OW22027   3.447   4.407   8.651  0.3891  0.2916 -0.0631
 3464SOL    HW122028   3.431   4.329   8.705 -0.4985 -0.3143 -1.1935
 3464SOL    HW222029   3.536   4.433   8.676  0.3258  2.2434 -1.8340
 3465SOL     OW22030   4.107   4.464   7.187 -0.3580  0.4295  0.4566
 3465SOL    HW122031   4.021   4.428   7.165 -0.8293  2.8773 -1.5824
 3465SOL    HW222032   4.091   4.502   7.273  0.4354 -1.3756  1.4024
 3466SOL     OW22033   0.959   2.606   5.196  0.2749  0.1017  0.2918
 3466SOL    HW122034   0.947   2.573   5.285  3.0183 -1.6702  0.0078
 3466SOL    HW222035   0.866   2.605   5.174  0.8706 -2.5073 -2.1392
 3467SOL     OW22036   0.301   1.964  10.377  0.2312 -0.5075  0.4059
 3467SOL    HW122037   0.325   1.883  10.422  2.6819 -1.3106 -2.3682
 3467SOL    HW222038   0.296   2.021  10.453 -1.0028  2.1001 -1.6296
 3468SOL     OW22039   0.125   2.387  14.545  0.2401 -0.1069  0.0841
 3468SOL    HW122040   0.107   2.293  14.538 -1.3468  0.1634  0.6351
 3468SOL    HW222041   0.128   2.405  14.639  1.5059 -1.5243  0.3194
 3469SOL     OW22042   2.687   2.865   9.260 -0.7304  0.3070 -0.4962
 3469SOL    HW122043   2.778   2.887   9.279 -0.7452 -0.4164  0.4425
 3469SOL    HW222044   2.640   2.869   9.344 -1.9968  0.8311 -1.2313
 3470SOL     OW22045   3.739   0.969  11.750  0.2956 -0.2960 -0.6949
 3470SOL    HW122046   3.690   0.941  11.827 -0.2851 -1.4871 -1.5082
 3470SOL    HW222047   3.712   1.061  11.748 -0.8807 -0.6155  0.3860
 3471SOL     OW22048   0.150   0.016   5.045  0.2595  0.1912  0.3907
 3471SOL    HW122049   0.109   0.102   5.036 -1.9788 -1.0615 -1.4383
 3471SOL    HW222050   0.081   4.705   5.090  0.2338 -0.1530 -0.0302
 3472SOL     OW22051   1.975   3.281   9.880  0.0150  0.2620  0.2985
 3472SOL    HW122052   1.966   3.371   9.913  2.6498 -0.6207  3.4461
 3472SOL    HW222053   1.994   3.298   9.788  0.4277  1.9465  0.6825
 3473SOL     OW22054   4.137   1.594   6.842  0.4279 -0.0587  0.2220
 3473SOL    HW122055   4.197   1.562   6.774  0.1003  0.3726 -0.2694
 3473SOL    HW222056   4.209   1.636   6.889 -0.4385  0.1509  1.3430
 3474SOL     OW22057   2.617   4.017   0.675 -0.1758 -0.2751 -0.3312
 3474SOL    HW122058   2.638   4.066   0.755 -2.2422  1.4856 -0.8649
 3474SOL    HW222059   2.547   3.966   0.716  0.8742 -0.6979  0.9278
 3475SOL     OW22060   3.493   1.806   3.205 -0.3356 -0.4409  0.3391
 3475SOL    HW122061   3.530   1.891   3.226 -0.3550 -0.6662  1.3022
 3475SOL    HW222062   3.558   1.770   3.145 -0.5890 -0.7298  0.2369
 3476SOL     OW22063   3.974   3.085   3.930  0.3663 -0.1609  0.1582
 3476SOL    HW122064   3.964   2.999   3.971 -2.3622 -0.6717 -1.5973
 3476SOL    HW222065   3.906   3.136   3.975  0.7726  0.6137 -0.1139
 3477SOL     OW22066   1.607   3.903  15.526 -0.2114  1.0998 -0.5524
 3477SOL    HW122067   1.633   3.824  15.480 -3.1343  0.0453 -0.4257
 3477SOL    HW222068   1.519   3.878  15.557  0.5189 -0.5761  0.1660
 3478SOL     OW22069   3.835   2.454   8.531  0.1437 -0.0445 -0.2149
 3478SOL    HW122070   3.769   2.410   8.585  0.8515  0.9254  1.4462
 3478SOL    HW222071   3.901   2.463   8.600  1.3618 -4.4655 -0.7646
 3479SOL     OW22072   2.860   2.879   5.368 -0.3339 -0.4637  0.4634
 3479SOL    HW122073   2.836   2.970   5.385  0.4017  0.2296 -2.2652
 3479SOL    HW222074   2.771   2.849   5.348 -0.3943  0.4633 -0.6357
 3480SOL     OW22075   4.101   2.846   7.332 -0.2635  0.1599  0.1336
 3480SOL    HW122076   4.011   2.820   7.355 -0.6228  3.2665  2.1676
 3480SOL    HW222077   4.151   2.776   7.373 -1.5468 -0.6993  0.2481
 3481SOL     OW22078   4.345   4.656  15.792 -0.5758  0.1002  0.2008
 3481SOL    HW122079   4.287   4.644  15.867 -0.6610  2.5187  0.5424
 3481SOL    HW222080   4.411   4.712  15.832 -0.9875  0.6699  0.0901
 3482SOL     OW22081   3.577   2.282   0.516  0.5007  0.0452  0.5811
 3482SOL    HW122082   3.533   2.362   0.488  2.9309  1.8552  1.8447
 3482SOL    HW222083   3.510   2.220   0.488  2.3773 -1.0014 -1.6457
 3483SOL     OW22084   0.062   0.811  13.438 -0.3411  0.0014 -1.0069
 3483SOL    HW122085   0.013   0.843  13.361 -0.3271  1.1628 -0.5416
 3483SOL    HW222086   0.047   0.867  13.514 -1.0596 -1.3688 -0.1474
 3484SOL     OW22087   2.470   0.935   8.887  0.6500  0.2739  0.6045
 3484SOL    HW122088   2.467   0.857   8.832  0.3461  0.3558  0.5040
 3484SOL    HW222089   2.467   1.007   8.823  0.3492 -0.2904 -0.0151
 3485SOL     OW22090   4.130   3.721   6.034 -0.0407  0.1419 -0.2570
 3485SOL    HW122091   4.171   3.635   6.043  1.2020  0.7344 -0.2741
 3485SOL    HW222092   4.137   3.761   6.121 -0.8232  0.2909 -0.2610
 3486SOL     OW22093   3.564   3.069   0.539  0.1850  0.2023  0.1884
 3486SOL    HW122094   3.483   3.109   0.506 -0.7178 -1.2057  0.6890
 3486SOL    HW222095   3.530   3.060   0.628  0.8389 -1.2003  0.3018
 3487SOL     OW22096   0.222   0.590   3.752 -0.2363 -0.3110  0.0567
 3487SOL    HW122097   0.278   0.619   3.824 -0.4325 -0.9684  0.4737
 3487SOL    HW222098   0.131   0.602   3.779 -0.3987 -1.0600 -0.1502
 3488SOL     OW22099   0.501   2.407   4.636 -0.2514 -0.1527 -0.4931
 3488SOL    HW122100   0.552   2.362   4.703  2.1692  1.8296 -1.0309
 3488SOL    HW222101   0.475   2.487   4.682  1.3029 -0.0027  0.1414
 3489SOL     OW22102   1.304   0.203  15.845  0.0304 -0.9491  0.1484
 3489SOL    HW122103   1.238   0.156  15.895  0.1152 -2.1782 -0.8770
 3489SOL    HW222104   1.345   0.245  15.920 -2.5428  1.9294 -0.0483
 3490SOL     OW22105   2.850   3.283  10.871 -0.2704  0.3120 -0.2370
 3490SOL    HW122106   2.891   3.302  10.786 -1.5222  1.1636 -0.6577
 3490SOL    HW222107   2.778   3.230  10.834  1.2815 -0.4892 -2.1081
 3491SOL     OW22108   0.575   2.372  10.947 -0.5602  0.0658 -0.3372
 3491SOL    HW122109   0.510   2.426  10.902 -2.0492 -2.9515 -1.7722
 3491SOL    HW222110   0.567   2.284  10.910 -1.3957 -0.1842  0.4569
 3492SOL     OW22111   0.598   1.485  17.753 -0.2288 -0.1065  0.5719
 3492SOL    HW122112   0.555   1.402  17.732  1.3572 -1.0946  1.2239
 3492SOL    HW222113   0.680   1.459   0.041  1.5768  0.4138 -2.6927
 3493SOL     OW22114   0.476   0.442   6.772 -0.6674 -0.1111 -0.2366
 3493SOL    HW122115   0.474   0.398   6.858 -0.6412 -0.2097 -0.2868
 3493SOL    HW222116   0.453   0.531   6.797 -0.8290 -0.3568  0.4972
 3494SOL     OW22117   2.956   0.851   5.230 -0.3231 -0.3783 -0.0232
 3494SOL    HW122118   2.917   0.783   5.285 -1.2559 -1.0544 -1.5218
 3494SOL    HW222119   2.873   0.895   5.211  0.2975  0.7241 -0.2004
 3495SOL     OW22120   1.068   1.273   8.004 -0.6007 -0.3636  0.8053
 3495SOL    HW122121   1.079   1.252   7.911  1.5882  2.2013  0.4671
 3495SOL    HW222122   1.077   1.369   7.999 -1.3641 -0.4343 -2.1083
 3496SOL     OW22123   1.082   1.968   5.980 -0.1086 -0.0468  0.0236
 3496SOL    HW122124   1.151   1.910   5.949 -1.0250 -1.2327  0.2003
 3496SOL    HW222125   1.065   1.999   5.891 -0.8587 -1.4846 -0.3293
 3497SOL     OW22126   0.047   3.605  17.488 -0.2224  0.3856  0.1610
 3497SOL    HW122127   4.709   3.659  17.510  0.1085  2.2568 -3.2223
 3497SOL    HW222128   0.085   3.597  17.575 -1.0640 -0.0845  0.4854
 3498SOL     OW22129   2.047   0.436  17.340  0.3124 -0.1156  0.0161
 3498SOL    HW122130   2.084   0.422  17.427 -0.9866 -1.1247  0.4037
 3498SOL    HW222131   1.952   0.444  17.343  0.4316  1.9091 -1.9269
 3499SOL     OW22132   0.884   3.440   2.674  0.2207 -0.1446  0.0330
 3499SOL    HW122133   0.852   3.530   2.674  1.1716  0.1922  0.6454
 3499SOL    HW222134   0.925   3.443   2.761 -0.8138 -2.8471  0.6215
 3500SOL     OW22135   4.430   2.133  14.586  0.2474  0.1539 -0.1532
 3500SOL    HW122136   4.401   2.201  14.524 -0.7829 -0.9679 -0.9029
 3500SOL    HW222137   4.362   2.131  14.653 -1.8326 -0.4421 -2.2422
 3501SOL     OW22138   2.693   2.807   6.385 -0.2713  0.2054 -0.7440
 3501SOL    HW122139   2.645   2.766   6.457  3.0592  0.0911  1.4573
 3501SOL    HW222140   2.623   2.869   6.364 -1.1263 -0.3897  0.3166
 3502SOL     OW22141   0.989   4.118   7.641  0.0171  0.2514 -0.8410
 3502SOL    HW122142   0.930   4.109   7.716  1.3054  0.1066  0.1602
 3502SOL    HW222143   0.937   4.160   7.573  0.1519  1.5414 -0.1495
 3503SOL     OW22144   1.375   0.815   5.369 -0.2251  0.7607  0.3070
 3503SOL    HW122145   1.455   0.794   5.321 -1.5574 -0.9579 -1.1659
 3503SOL    HW222146   1.303   0.792   5.310  0.2473  0.3560 -0.1167
 3504SOL     OW22147   0.151   2.119   2.210 -0.9310 -0.1714  0.0707
 3504SOL    HW122148   0.225   2.108   2.270 -1.4270 -0.0106  0.7116
 3504SOL    HW222149   0.190   2.179   2.145  2.8995 -1.7798  0.8575
 3505SOL     OW22150   2.042   1.853   9.533  0.0213  0.1284 -0.3399
 3505SOL    HW122151   1.982   1.928   9.538 -1.9054 -1.4447  0.4172
 3505SOL    HW222152   2.124   1.886   9.569 -0.9306  1.1967  0.8660
 3506SOL     OW22153   1.977   2.480   4.049 -0.0849  0.2506 -0.2159
 3506SOL    HW122154   1.940   2.427   4.119  1.3075 -1.1269 -0.5156
 3506SOL    HW222155   1.928   2.562   4.057 -0.5709 -0.3029  2.3963
 3507SOL     OW22156   1.349   2.080   6.538 -0.5615 -0.1107  0.3575
 3507SOL    HW122157   1.419   2.129   6.495 -0.3318 -2.0512 -1.4956
 3507SOL    HW222158   1.282   2.147   6.531 -0.3465  0.0959  0.2757
 3508SOL     OW22159   4.008   1.785  13.441 -0.3353 -0.5951  0.4909
 3508SOL    HW122160   3.981   1.849  13.506  1.5542 -0.5672  1.2177
 3508SOL    HW222161   4.099   1.806  13.423 -1.2304  0.2612 -3.0327
 3509SOL     OW22162   2.810   2.961  10.632  0.1464  0.3586 -0.2735
 3509SOL    HW122163   2.720   2.983  10.657 -0.2858 -0.6338 -1.0049
 3509SOL    HW222164   2.824   3.012  10.552  1.0244 -1.2963 -1.1733
 3510SOL     OW22165   1.659   0.112   5.157 -0.2935 -0.2924 -0.1289
 3510SOL    HW122166   1.676   0.018   5.160  0.1391 -0.2142 -0.1361
 3510SOL    HW222167   1.744   0.155   5.159 -0.7498  0.6906 -1.8303
 3511SOL     OW22168   4.281   2.419  17.522  0.1255 -0.0122  0.5357
 3511SOL    HW122169   4.202   2.367  17.506 -1.3491  3.0312 -2.2407
 3511SOL    HW222170   4.348   2.380  17.467 -0.0562 -1.5108  1.3867
 3512SOL     OW22171   0.983   0.919  17.281 -0.2630  0.0362 -0.4058
 3512SOL    HW122172   0.893   0.886  17.279 -0.4205  0.5077 -1.0080
 3512SOL    HW222173   0.977   1.015  17.279 -0.2800  0.0797  1.6360
 3513SOL     OW22174   2.507   3.645   8.959 -0.6179 -0.1955 -0.4965
 3513SOL    HW122175   2.567   3.618   9.029 -0.6914 -0.9874 -0.7443
 3513SOL    HW222176   2.433   3.677   9.012 -0.9484 -1.9834  0.1157
 3514SOL     OW22177   2.937   4.438   6.487  0.2130 -0.2340 -0.3893
 3514SOL    HW122178   3.000   4.376   6.523  1.5923  0.8157 -0.9976
 3514SOL    HW222179   2.936   4.502   6.557 -2.5538 -2.7627  1.8661
 3515SOL     OW22180   3.491   0.758   3.798 -0.5799  0.2980 -0.4064
 3515SOL    HW122181   3.465   0.669   3.819  0.3120  0.1969  0.2634
 3515SOL    HW222182   3.504   0.752   3.703 -0.3156  1.7955 -0.4740
 3516SOL     OW22183   1.063   2.561   2.999 -0.8137 -0.3326 -0.2675
 3516SOL    HW122184   1.113   2.614   2.936  0.9619 -1.4530  0.1848
 3516SOL    HW222185   1.130   2.522   3.055 -0.6399  0.8460  0.3490
 3517SOL     OW22186   2.965   4.079   1.550  0.2800  0.2124  0.4847
 3517SOL    HW122187   2.999   4.069   1.638 -1.3606 -0.5114  1.0410
 3517SOL    HW222188   2.988   4.168   1.524  1.2991 -0.2127 -0.0458
 3518SOL     OW22189   1.663   4.165   4.765  0.0215  0.5457 -0.4004
 3518SOL    HW122190   1.710   4.234   4.812 -1.1723  0.5571  0.8249
 3518SOL    HW222191   1.574   4.177   4.800  0.3656  1.0941  0.3122
 3519SOL     OW22192   0.020   3.451   1.756  0.3504 -0.0005 -0.0610
 3519SOL    HW122193   0.026   3.546   1.766 -0.8946  0.1857 -1.0670
 3519SOL    HW222194   4.733   3.452   1.663  0.1062  0.8113  0.0154
 3520SOL     OW22195   2.691   3.449   4.566  0.7028  0.9071 -0.0147
 3520SOL    HW122196   2.606   3.425   4.604  1.6266  0.1691  1.6045
 3520SOL    HW222197   2.747   3.420   4.638 -1.9162  0.6544  1.9129
 3521SOL     OW22198   2.709   0.916   5.931  0.2784  0.1856  0.4198
 3521SOL    HW122199   2.789   0.920   5.984 -0.1232  0.2158  1.0224
 3521SOL    HW222200   2.706   0.821   5.920 -0.9874  0.4761 -1.5418
 3522SOL     OW22201   0.756   0.557   5.520 -0.3313  0.2127  0.0923
 3522SOL    HW122202   0.722   0.613   5.450  1.0627 -0.1033 -0.8465
 3522SOL    HW222203   0.778   0.616   5.592 -0.1609  1.3249 -0.8736
 3523SOL     OW22204   1.537   0.168   3.396 -0.9034 -0.2534  0.3505
 3523SOL    HW122205   1.623   0.124   3.399 -0.3134  0.8816  0.0053
 3523SOL    HW222206   1.483   0.089   3.401 -2.2524  0.5619 -2.0089
 3524SOL     OW22207   0.903   3.133   6.991  0.0173 -0.0241 -0.0130
 3524SOL    HW122208   0.931   3.199   7.054  0.3558  1.0421 -1.2694
 3524SOL    HW222209   0.911   3.187   6.912 -1.7199 -0.7228 -0.6522
 3525SOL     OW22210   1.978   0.753   5.635  0.0734 -0.5121 -0.4900
 3525SOL    HW122211   2.023   0.685   5.585  1.5197 -1.5632  2.2562
 3525SOL    HW222212   1.926   0.702   5.697  0.6117 -0.7348 -0.2258
 3526SOL     OW22213   2.566   1.683   2.217  0.3493 -0.0707  0.1721
 3526SOL    HW122214   2.653   1.723   2.205 -0.1187  0.6697 -0.7387
 3526SOL    HW222215   2.588   1.645   2.302 -2.5272 -2.0050  0.0421
 3527SOL     OW22216   0.561   2.517   4.262  0.2316  0.0958 -0.0348
 3527SOL    HW122217   0.466   2.524   4.253  0.4122 -0.4215 -2.3305
 3527SOL    HW222218   0.601   2.602   4.243  2.5678 -0.7283  1.1585
 3528SOL     OW22219   4.087   4.272   8.973  0.3139 -0.1525  0.3620
 3528SOL    HW122220   4.114   4.184   8.998  0.8698 -0.8460 -2.6940
 3528SOL    HW222221   4.002   4.250   8.934  0.4356 -0.2366  0.1474
 3529SOL     OW22222   2.534   4.666   5.840 -0.0535  0.3870 -0.0318
 3529SOL    HW122223   2.583   4.662   5.921  0.1604  1.5768 -0.1080
 3529SOL    HW222224   2.457   4.615   5.867 -0.5258  0.5529 -1.0540
 3530SOL     OW22225   1.362   3.148   9.347  0.3504  0.4331  0.0793
 3530SOL    HW122226   1.295   3.104   9.294  1.8823 -0.9219 -0.7217
 3530SOL    HW222227   1.443   3.127   9.301  2.3127  2.6604  2.5377
 3531SOL     OW22228   4.031   1.083   4.382 -0.4330  0.3747  0.0169
 3531SOL    HW122229   3.991   1.164   4.412 -0.7126  0.5106 -0.7359
 3531SOL    HW222230   4.123   1.111   4.384 -0.2976 -0.2324  3.0468
 3532SOL     OW22231   2.891   0.805   0.899 -0.0866  0.1474  0.5108
 3532SOL    HW122232   2.971   0.767   0.862 -0.8923  0.6789 -1.8001
 3532SOL    HW222233   2.865   0.868   0.832  2.4928  1.2298  0.4995
 3533SOL     OW22234   0.072   1.657   1.983 -0.4520 -0.4352  0.7110
 3533SOL    HW122235   0.058   1.661   1.888  1.6272 -0.8034  0.3941
 3533SOL    HW222236   0.056   1.746   2.011  1.3815 -0.3865  1.5868
 3534SOL     OW22237   0.047   3.526   5.290  0.2526  0.2342  0.6810
 3534SOL    HW122238   0.034   3.488   5.377  0.4751  0.8403  0.9800
 3534SOL    HW222239   0.140   3.508   5.278 -0.3192 -2.2528  0.0705
 3535SOL     OW22240   2.856   2.513  15.143  0.3108 -0.2281  0.0971
 3535SOL    HW122241   2.884   2.587  15.090 -0.3297  2.4134  3.4239
 3535SOL    HW222242   2.803   2.565  15.204  1.5439 -0.9063  1.7525
 3536SOL     OW22243   4.603   1.491   4.497  0.6720  0.1218 -0.3144
 3536SOL    HW122244   4.529   1.467   4.553  0.9932 -1.6875 -0.6787
 3536SOL    HW222245   4.560   1.567   4.457 -0.9422 -1.3807 -1.4198
 3537SOL     OW22246   4.370   3.482  15.339 -0.2451  0.3446  0.4361
 3537SOL    HW122247   4.304   3.443  15.397 -0.0361 -0.0365  0.4229
 3537SOL    HW222248   4.454   3.453  15.374  0.0259  1.7772  0.9795
 3538SOL     OW22249   0.631   2.726   3.117  0.0024  0.0174  0.2382
 3538SOL    HW122250   0.643   2.808   3.164  2.3235  0.5681 -1.3075
 3538SOL    HW222251   0.536   2.733   3.106  0.2002 -1.9829 -2.9617
 3539SOL     OW22252   4.144   0.273  15.448 -0.1284 -0.1932 -0.3307
 3539SOL    HW122253   4.213   0.207  15.444  0.7123  0.5710  1.6503
 3539SOL    HW222254   4.181   0.340  15.506 -1.6465  0.9032 -0.6204
 3540SOL     OW22255   0.235   0.077   4.697 -0.3453 -0.1493  0.3109
 3540SOL    HW122256   0.187   0.068   4.778  0.6402  0.6103  0.9847
 3540SOL    HW222257   0.158   0.066   4.642 -0.9817  1.0220  0.9793
 3541SOL     OW22258   1.786   0.527   4.003 -0.5119  0.0675  0.2096
 3541SOL    HW122259   1.716   0.556   3.944 -0.5219  1.3329  0.8399
 3541SOL    HW222260   1.784   0.432   4.004  0.8601  0.0581  2.3725
 3542SOL     OW22261   2.636   3.728  10.828  0.6469  0.4944 -0.1656
 3542SOL    HW122262   2.680   3.787  10.767  2.7957 -0.3523  0.5980
 3542SOL    HW222263   2.701   3.732  10.897 -1.0781 -2.0944  1.5984
 3543SOL     OW22264   3.155   1.050   7.383 -0.0727  0.0416  0.3398
 3543SOL    HW122265   3.220   1.095   7.330 -1.3430  0.1273 -1.1679
 3543SOL    HW222266   3.189   0.961   7.378 -1.8500 -0.6894  1.1826
 3544SOL     OW22267   2.386   0.394   3.750 -0.0854  0.1983 -0.4106
 3544SOL    HW122268   2.444   0.339   3.699 -0.3192 -1.0835  0.6960
 3544SOL    HW222269   2.301   0.351   3.744 -1.0464  1.9386  0.4640
 3545SOL     OW22270   1.676   1.594   8.703 -0.7317 -0.0131 -0.0788
 3545SOL    HW122271   1.617   1.556   8.637 -2.4093  2.9794 -0.2950
 3545SOL    HW222272   1.617   1.642   8.762 -1.3019  0.7150 -1.2358
 3546SOL     OW22273   0.628   0.842  10.632  0.4123 -0.1306 -0.9137
 3546SOL    HW122274   0.551   0.795  10.666  0.6518 -0.2301 -0.5098
 3546SOL    HW222275   0.678   0.773  10.589  0.5264 -0.9448  0.5196
 3547SOL     OW22276   0.261   2.767   6.366 -0.6143  0.5684 -0.1420
 3547SOL    HW122277   0.229   2.850   6.329 -0.5429 -0.3573 -2.2804
 3547SOL    HW222278   0.305   2.733   6.288 -0.9155  2.6394 -1.2156
 3548SOL     OW22279   4.240   1.910   6.652  0.1393  0.0010 -0.0238
 3548SOL    HW122280   4.304   1.874   6.591 -0.2708  0.5139 -0.7567
 3548SOL    HW222281   4.190   1.966   6.593  0.4428  0.0475 -0.2363
 3549SOL     OW22282   1.656   1.673  16.820 -0.1429  0.3017 -0.0675
 3549SOL    HW122283   1.598   1.678  16.745 -0.0546  1.4158 -0.0635
 3549SOL    HW222284   1.613   1.746  16.865  2.1715  2.0046 -0.5878
 3550SOL     OW22285   0.601   3.377   5.977 -0.2339  0.0769  0.8906
 3550SOL    HW122286   0.622   3.415   5.893 -1.6126 -0.9148  0.0922
 3550SOL    HW222287   0.529   3.435   5.998 -0.8468  0.1237 -1.3639
 3551SOL     OW22288   1.575   2.409   2.577 -0.1143 -0.2744 -0.8422
 3551SOL    HW122289   1.613   2.443   2.658  1.8391  3.2153 -3.1867
 3551SOL    HW222290   1.515   2.481   2.558  0.4152  0.8593  1.8397
 3552SOL     OW22291   2.396   4.558   0.670  0.0587  0.0937  0.8190
 3552SOL    HW122292   2.371   4.648   0.651 -1.8324 -0.3924  1.0327
 3552SOL    HW222293   2.308   4.523   0.680  0.2369 -0.9370 -1.0440
 3553SOL     OW22294   1.355   1.613  17.503  0.0894 -0.0974 -0.0760
 3553SOL    HW122295   1.449   1.624  17.517  0.0782 -0.8195  0.5246
 3553SOL    HW222296   1.350   1.564  17.421  1.0674 -0.3401  0.0045
 3554SOL     OW22297   4.213   2.667  17.381  0.1820  0.2984  0.0195
 3554SOL    HW122298   4.238   2.586  17.424 -0.8552  0.4277  0.8894
 3554SOL    HW222299   4.217   2.648  17.287 -2.6953  0.3357 -0.1108
 3555SOL     OW22300   0.834   0.018  13.805  0.1563  0.5347  0.2262
 3555SOL    HW122301   0.808   4.711  13.725 -2.8296  0.3363  1.2932
 3555SOL    HW222302   0.756   0.072  13.821  0.6974  1.3404  0.1470
 3556SOL     OW22303   0.787   2.410   4.183 -0.2801 -0.1321 -0.1988
 3556SOL    HW122304   0.699   2.419   4.219  1.2563  3.7451  2.6683
 3556SOL    HW222305   0.806   2.504   4.179  0.1916 -0.2958 -1.7342
 3557SOL     OW22306   1.887   2.062   4.028 -0.1913 -0.4967  0.5817
 3557SOL    HW122307   1.931   2.086   3.946 -1.2048 -2.1566 -0.4479
 3557SOL    HW222308   1.803   2.033   3.992 -1.0508  1.3331  1.0995
 3558SOL     OW22309   3.977   1.063   7.157  0.3834 -0.7190  0.1322
 3558SOL    HW122310   4.037   0.998   7.119  1.4113 -0.8029  1.9159
 3558SOL    HW222311   3.924   1.015   7.220 -1.2904 -1.7403 -2.0407
 3559SOL     OW22312   3.683   4.356   2.552 -0.1312  0.1349  0.4777
 3559SOL    HW122313   3.746   4.425   2.530 -0.4609  0.2337 -0.1673
 3559SOL    HW222314   3.743   4.282   2.550  3.2844  2.9309  0.3750
 3560SOL     OW22315   3.954   1.546   0.808  0.5795 -0.0727 -0.5370
 3560SOL    HW122316   3.898   1.548   0.731 -0.6081  0.7076  0.3627
 3560SOL    HW222317   3.898   1.602   0.861 -0.0313  0.2166 -1.4873
 3561SOL     OW22318   1.588   2.100  10.018  0.3887 -0.0222 -0.7387
 3561SOL    HW122319   1.575   2.107  10.112 -0.3925  2.1394 -1.0019
 3561SOL    HW222320   1.511   2.053   9.985 -0.3179  0.9861 -0.5416
 3562SOL     OW22321   4.075   1.614  12.072 -0.6745 -0.1620  0.0976
 3562SOL    HW122322   4.086   1.608  11.977 -0.1958 -2.1378  0.2777
 3562SOL    HW222323   4.006   1.550  12.091  1.2166 -2.4254 -0.6154
 3563SOL     OW22324   0.594   0.505  12.677 -0.4540 -0.6723 -0.3800
 3563SOL    HW122325   0.577   0.515  12.770  0.9117 -0.3276 -0.1698
 3563SOL    HW222326   0.605   0.410  12.679 -2.1073 -0.8550  0.1934
 3564SOL     OW22327   0.388   2.480   5.285 -0.5084  0.2834  0.7899
 3564SOL    HW122328   0.378   2.541   5.358 -1.5434 -0.7265  1.4997
 3564SOL    HW222329   0.362   2.544   5.219  2.4261  0.6400 -0.0214
 3565SOL     OW22330   4.080   2.771   3.534  0.5055  0.2457 -0.8647
 3565SOL    HW122331   4.111   2.832   3.601  0.9312 -1.1591  0.2205
 3565SOL    HW222332   4.140   2.696   3.542 -0.5276 -0.4904  0.0247
 3566SOL     OW22333   3.915   4.611   9.659 -0.1249  0.2444  0.5371
 3566SOL    HW122334   3.847   4.549   9.685 -1.5970  0.2768 -3.2196
 3566SOL    HW222335   3.903   4.612   9.564 -0.2386 -1.0589  0.5381
 3567SOL     OW22336   1.776   3.309   2.791  0.1443 -0.0655  0.0315
 3567SOL    HW122337   1.812   3.396   2.776  1.0577 -0.4110  0.2064
 3567SOL    HW222338   1.768   3.305   2.887 -0.9108 -2.9218 -0.1798
 3568SOL     OW22339   2.718   2.037   7.639  0.4032 -0.3066 -0.8187
 3568SOL    HW122340   2.787   2.006   7.696 -0.8146  0.0911  0.8803
 3568SOL    HW222341   2.668   2.097   7.695  0.1268 -1.7922  0.5085
 3569SOL     OW22342   1.619   1.682   9.690  0.3878 -0.4467  0.1866
 3569SOL    HW122343   1.620   1.675   9.785  0.5118 -0.1422  0.2108
 3569SOL    HW222344   1.541   1.737   9.681 -0.9647 -2.4798 -0.6225
 3570SOL     OW22345   4.201   2.968   3.694 -0.2563 -0.1524  0.0589
 3570SOL    HW122346   4.131   2.985   3.757  1.0504 -0.0560  1.4983
 3570SOL    HW222347   4.277   3.021   3.718 -1.0991  1.4757 -0.9139
 3571SOL     OW22348   3.932   3.732   2.670  0.0100 -0.4976 -0.0440
 3571SOL    HW122349   4.013   3.746   2.719  0.5603  0.0064 -1.1026
 3571SOL    HW222350   3.969   3.757   2.586 -0.2344 -0.8090 -0.2460
 3572SOL     OW22351   0.082   2.615   6.586  0.1464 -0.5551 -0.3387
 3572SOL    HW122352   0.157   2.648   6.537 -0.3738  2.0598  0.6397
 3572SOL    HW222353   0.015   2.670   6.546  1.8392  1.0282 -0.9588
 3573SOL     OW22354   1.485   3.207  13.990  0.0935 -0.1033  0.3148
 3573SOL    HW122355   1.498   3.171  13.903 -2.0309  0.1213 -0.0907
 3573SOL    HW222356   1.569   3.244  14.019 -0.3431  0.4271  0.9151
 3574SOL     OW22357   2.127   1.134   3.837  0.1440 -0.1711  0.0460
 3574SOL    HW122358   2.105   1.225   3.819 -2.2408 -0.7572 -0.0049
 3574SOL    HW222359   2.100   1.125   3.928 -1.5308 -0.5682 -0.4871
 3575SOL     OW22360   0.048   3.347   5.716 -0.2213 -0.5208  0.3805
 3575SOL    HW122361   0.016   3.333   5.626 -0.7496 -1.8752  0.7841
 3575SOL    HW222362   4.709   3.318   5.764  0.7812 -1.6384  1.3114
 3576SOL     OW22363   3.546   0.964   2.038  0.4639  0.1980  0.3249
 3576SOL    HW122364   3.504   1.033   2.091  1.0909  0.8852 -0.0703
 3576SOL    HW222365   3.495   0.950   1.958  0.6605 -0.5117  0.3251
 3577SOL     OW22366   4.340   2.049   3.088 -0.6060 -0.3243 -0.3450
 3577SOL    HW122367   4.434   2.068   3.094 -0.7398  0.6339 -1.2687
 3577SOL    HW222368   4.319   2.076   2.999 -0.5097  2.3282  0.4204
 3578SOL     OW22369   1.414   1.173   6.462 -0.7443  0.3082 -0.4081
 3578SOL    HW122370   1.472   1.141   6.531  0.8624  0.7142 -1.5766
 3578SOL    HW222371   1.330   1.153   6.504 -1.1817  1.0007 -0.9633
 3579SOL     OW22372   0.525   4.693   4.921 -0.1172  0.0539  0.2495
 3579SOL    HW122373   0.435   4.662   4.907  0.0783 -0.5488  0.3273
 3579SOL    HW222374   0.530   4.658   5.010 -1.3122 -0.3409  0.1719
 3580SOL     OW22375   0.251   4.547  12.969 -0.3566  0.0521  0.0950
 3580SOL    HW122376   0.331   4.598  12.986  1.6800 -3.0543 -0.0917
 3580SOL    HW222377   0.209   4.604  12.906 -0.5777 -1.1222 -0.8214
 3581SOL     OW22378   4.296   4.094  10.693 -0.4052  0.0932 -0.6108
 3581SOL    HW122379   4.371   4.137  10.733  0.2865 -0.6534 -1.0879
 3581SOL    HW222380   4.229   4.102  10.760 -1.1171 -0.8538 -1.2127
 3582SOL     OW22381   1.187   4.360   7.631 -0.2251 -0.7784  0.4659
 3582SOL    HW122382   1.208   4.410   7.552  1.5388  1.0092  2.0935
 3582SOL    HW222383   1.230   4.276   7.613  0.2460 -0.6874  1.1916
 3583SOL     OW22384   1.548   3.202  15.656 -0.2262 -0.5522 -0.1475
 3583SOL    HW122385   1.471   3.256  15.673 -1.4328 -2.1078 -0.7038
 3583SOL    HW222386   1.506   3.132  15.606 -2.5013 -0.5930  1.8393
 3584SOL     OW22387   4.479   2.519   2.022 -0.8876  0.2261  0.4928
 3584SOL    HW122388   4.517   2.577   1.956  0.3038 -0.9892  0.0939
 3584SOL    HW222389   4.486   2.583   2.093 -1.2788  0.3658  0.4060
 3585SOL     OW22390   3.336   3.229   4.774 -0.7310  0.0291  0.3751
 3585SOL    HW122391   3.276   3.158   4.796 -0.1312 -1.2961 -2.2706
 3585SOL    HW222392   3.383   3.228   4.857 -1.0627  2.4524  0.5983
 3586SOL     OW22393   0.770   4.466   8.349  0.0586  0.0125  0.6700
 3586SOL    HW122394   0.681   4.481   8.382 -0.7828  1.5781 -2.2339
 3586SOL    HW222395   0.788   4.374   8.366  1.4454 -0.0370 -1.0757
 3587SOL     OW22396   0.176   0.652   2.806  0.1064 -0.5603 -0.2760
 3587SOL    HW122397   0.244   0.606   2.855 -0.7007 -2.7585 -1.2047
 3587SOL    HW222398   0.104   0.610   2.853  0.3759 -2.0346 -1.1661
 3588SOL     OW22399   4.491   1.686   1.623 -0.3793  0.3562  0.2509
 3588SOL    HW122400   4.579   1.663   1.653 -1.3125 -3.1217  0.3544
 3588SOL    HW222401   4.518   1.734   1.545  1.0163  1.1130  1.2049
 3589SOL     OW22402   1.101   2.601   9.169 -0.2741 -0.3731 -1.2228
 3589SOL    HW122403   1.138   2.599   9.081  0.1999 -2.0126 -1.0085
 3589SOL    HW222404   1.187   2.602   9.212  0.0003 -1.4392 -1.7367
 3590SOL     OW22405   3.422   4.353   4.815 -0.3858  0.0736  0.3387
 3590SOL    HW122406   3.361   4.427   4.813 -0.0424  0.3136 -1.2056
 3590SOL    HW222407   3.372   4.274   4.833 -2.1269  1.0454 -0.2161
 3591SOL     OW22408   4.447   0.102  17.696  0.5970 -0.5316  0.3294
 3591SOL    HW122409   4.386   0.034  17.725  2.0851 -2.0771 -0.2149
 3591SOL    HW222410   4.521   0.092   0.003  0.9112 -0.4332 -0.0438
 3592SOL     OW22411   3.342   0.644  15.576  0.0150  0.0781 -0.2258
 3592SOL    HW122412   3.301   0.645  15.662  0.0293 -0.7185 -0.2159
 3592SOL    HW222413   3.433   0.648  15.604 -0.1384  0.2490  0.2451
 3593SOL     OW22414   4.647   1.594  11.968 -0.0172  0.2866 -0.3980
 3593SOL    HW122415   4.690   1.567  12.050  0.5361 -2.1235 -1.4712
 3593SOL    HW222416   4.699   1.672  11.947  1.0021 -0.2821 -0.0380
 3594SOL     OW22417   1.397   3.156   8.620  0.8828  0.1065 -0.0915
 3594SOL    HW122418   1.403   3.081   8.561 -1.3439  1.7789 -2.4818
 3594SOL    HW222419   1.485   3.192   8.612  0.5754  0.6703 -0.9996
 3595SOL     OW22420   0.471   2.537   1.524  0.6633 -0.8161  0.0805
 3595SOL    HW122421   0.564   2.530   1.504  0.3851  0.5112 -1.6776
 3595SOL    HW222422   0.437   2.573   1.442 -1.8407 -2.1654  0.5345
 3596SOL     OW22423   4.693   1.751   7.917  0.3786 -0.2834 -0.0508
 3596SOL    HW122424   4.713   1.701   7.838 -0.3848 -0.6441 -0.0220
 3596SOL    HW222425   4.600   1.728   7.927  0.3516  0.4606  1.4710
 3597SOL     OW22426   1.796   1.498   1.800  0.0316  0.3246  0.5268
 3597SOL    HW122427   1.811   1.528   1.890 -2.0261  0.5153  0.8090
 3597SOL    HW222428   1.730   1.564   1.780  0.0740  0.2014 -0.0211
 3598SOL     OW22429   0.318   3.732   3.618 -0.3208 -0.1476 -0.0617
 3598SOL    HW122430   0.248   3.668   3.604 -1.0690  1.2286 -2.5758
 3598SOL    HW222431   0.334   3.757   3.527  0.1371  1.2962  0.4125
 3599SOL     OW22432   4.223   3.289   0.610 -0.4295  0.0334 -0.4257
 3599SOL    HW122433   4.205   3.208   0.562  1.6053 -0.2512 -0.7323
 3599SOL    HW222434   4.281   3.266   0.682  0.8879 -0.2544 -1.5700
 3600SOL     OW22435   2.379   1.527  16.248  0.4327 -0.5497  0.2668
 3600SOL    HW122436   2.406   1.498  16.162  4.3477  0.2811  1.2056
 3600SOL    HW222437   2.430   1.469  16.304  1.2921  0.9445  1.0428
 3601SOL     OW22438   3.857   4.156   2.458 -0.0998  0.6615  0.0463
 3601SOL    HW122439   3.790   4.128   2.395 -0.6205  1.8529  0.0852
 3601SOL    HW222440   3.919   4.188   2.393 -0.4397  1.5354  0.1610
 3602SOL     OW22441   1.029   0.249   5.926 -0.2540  0.3830  0.1217
 3602SOL    HW122442   1.089   0.323   5.931 -0.8222  1.0173 -2.2739
 3602SOL    HW222443   0.980   0.264   5.845  1.2885  0.0840 -0.8653
 3603SOL     OW22444   3.823   4.154  16.903  0.0113 -0.1174  0.4115
 3603SOL    HW122445   3.914   4.159  16.930  0.5915 -1.6055 -1.2206
 3603SOL    HW222446   3.831   4.093  16.829 -2.3923  0.6598 -0.4862
 3604SOL     OW22447   3.524   1.279   9.369  0.0011  0.0586  0.0177
 3604SOL    HW122448   3.561   1.367   9.374 -0.7679  0.2570  2.5291
 3604SOL    HW222449   3.517   1.252   9.278  1.1166 -2.8638  0.8220
 3605SOL     OW22450   0.485   4.244   8.421  0.2603  0.3004  0.1576
 3605SOL    HW122451   0.506   4.229   8.514  0.6569 -0.9784 -0.1396
 3605SOL    HW222452   0.453   4.158   8.393 -0.5726  0.2527  1.2236
 3606SOL     OW22453   1.973   3.589   6.395 -0.0209  0.6321  0.4372
 3606SOL    HW122454   1.906   3.652   6.422 -0.3159  0.7324 -0.5326
 3606SOL    HW222455   1.938   3.557   6.312  0.0035  0.6070  0.4365
 3607SOL     OW22456   1.503   4.647   5.681 -0.4500 -0.0022  0.6816
 3607SOL    HW122457   1.469   4.735   5.696 -1.4895 -0.0585 -1.3674
 3607SOL    HW222458   1.452   4.616   5.607  2.0328 -0.6577 -0.7613
 3608SOL     OW22459   0.937   1.710   3.568 -0.2534  0.1125 -0.0328
 3608SOL    HW122460   0.910   1.749   3.485 -0.0079  0.2752 -0.0355
 3608SOL    HW222461   0.984   1.776   3.619 -0.5341  1.0192 -0.9444
 3609SOL     OW22462   2.366   2.877   4.745 -0.1249 -0.1561 -0.2149
 3609SOL    HW122463   2.432   2.840   4.804 -1.7684 -3.8137 -0.6215
 3609SOL    HW222464   2.296   2.813   4.760  0.4675 -0.9210 -0.6966
 3610SOL     OW22465   0.678   1.605  14.999  0.0046 -0.7613 -0.1226
 3610SOL    HW122466   0.679   1.694  15.035 -3.0899 -0.6699 -0.3004
 3610SOL    HW222467   0.587   1.590  14.973  0.2263 -1.3537 -0.5324
 3611SOL     OW22468   1.911   4.382   8.254 -0.6701 -0.2984 -0.0693
 3611SOL    HW122469   2.004   4.361   8.249 -1.0867 -2.0964 -0.3638
 3611SOL    HW222470   1.887   4.295   8.287 -1.6834 -0.5676 -1.5185
 3612SOL     OW22471   1.040   1.127  15.691 -0.1865  0.1948  0.4178
 3612SOL    HW122472   0.984   1.077  15.750 -1.7644  0.9807 -0.4381
 3612SOL    HW222473   1.125   1.086  15.709 -0.5699 -0.3080  1.0998
 3613SOL     OW22474   1.778   3.581  11.634  0.1347  0.4308 -0.5524
 3613SOL    HW122475   1.835   3.517  11.591 -0.7035 -2.8996  3.2622
 3613SOL    HW222476   1.752   3.641  11.565  1.4044 -0.4623 -1.8127
 3614SOL     OW22477   4.014   1.431   8.246 -0.2888  0.1536  0.3862
 3614SOL    HW122478   3.957   1.503   8.218 -0.8880 -0.4534  0.0327
 3614SOL    HW222479   4.075   1.469   8.310  0.6793  0.3372 -0.6455
 3615SOL     OW22480   2.145   2.725   4.815 -0.2283  0.1003  0.5077
 3615SOL    HW122481   2.086   2.799   4.829 -2.4141 -1.5078 -0.1573
 3615SOL    HW222482   2.116   2.695   4.728 -1.2433  1.2474  0.4597
 3616SOL     OW22483   0.214   0.092  12.651  0.7942  0.3088 -0.4821
 3616SOL    HW122484   0.230   4.737  12.665 -4.0312 -0.2618  0.9102
 3616SOL    HW222485   0.249   0.101  12.562  0.3253  1.4590 -0.5463
 3617SOL     OW22486   1.892   0.909   3.184 -0.0779 -0.1467 -0.3740
 3617SOL    HW122487   1.869   0.926   3.275  1.2128  0.5755 -0.1743
 3617SOL    HW222488   1.841   0.980   3.144 -0.1937 -0.7367 -1.2701
 3618SOL     OW22489   1.792   1.913   9.200  0.2012 -0.7231 -0.4180
 3618SOL    HW122490   1.722   1.977   9.211  2.8487  2.2411 -1.0908
 3618SOL    HW222491   1.789   1.881   9.290  2.3713  0.3797  0.0445
 3619SOL     OW22492   1.107   3.855   7.793  0.1998 -0.5594 -0.5577
 3619SOL    HW122493   1.152   3.932   7.761 -1.7755 -0.2129 -2.5296
 3619SOL    HW222494   1.084   3.884   7.882  0.4114  1.2221 -1.0935
 3620SOL     OW22495   4.021   0.523   7.967  0.2067 -0.3020  0.5211
 3620SOL    HW122496   4.079   0.523   7.890 -1.8885 -0.0086 -1.0617
 3620SOL    HW222497   3.976   0.607   7.958 -1.3379 -1.4495 -2.5201
 3621SOL     OW22498   1.557   1.130   3.060  0.3497  0.1001  0.5412
 3621SOL    HW122499   1.544   1.151   2.968 -1.7117 -0.0302  0.8130
 3621SOL    HW222500   1.651   1.115   3.053  0.3797 -0.5000  2.1453
 3622SOL     OW22501   4.459   3.357  15.707 -0.1209 -0.6169 -0.0769
 3622SOL    HW122502   4.465   3.300  15.784 -3.7085  0.0796  0.7515
 3622SOL    HW222503   4.373   3.327  15.677 -0.4992  1.4800 -1.1095
 3623SOL     OW22504   1.259   2.963  14.334  0.5009 -0.0723  0.0279
 3623SOL    HW122505   1.342   3.005  14.359  1.8354 -2.3757 -0.5777
 3623SOL    HW222506   1.216   3.042  14.300 -0.4682  0.3385  2.1910
 3624SOL     OW22507   4.555   4.466  16.766 -0.0078  0.3791  0.3953
 3624SOL    HW122508   4.484   4.502  16.712  0.8766  1.6063  0.0592
 3624SOL    HW222509   4.515   4.384  16.796  0.0813  0.0654 -0.3477
 3625SOL     OW22510   3.115   0.884   6.756  0.9944  0.3021 -0.2939
 3625SOL    HW122511   3.097   0.957   6.697  1.6037  1.2109  0.6176
 3625SOL    HW222512   3.145   0.924   6.838 -0.0951 -0.5562  0.5257
 3626SOL     OW22513   0.699   0.867   6.337 -0.1895  0.5837 -0.2057
 3626SOL    HW122514   0.732   0.783   6.306 -0.7020  0.5949 -0.7811
 3626SOL    HW222515   0.671   0.894   6.250  1.4842 -0.8246 -1.1680
 3627SOL     OW22516   0.259   2.820   4.221  0.1348  0.8588  0.0184
 3627SOL    HW122517   0.303   2.879   4.159  0.2719 -0.1275 -0.8350
 3627SOL    HW222518   0.303   2.740   4.191 -0.8312 -0.4577  2.0881
 3628SOL     OW22519   0.857   3.518   7.003  0.1251 -0.1308  0.3547
 3628SOL    HW122520   0.818   3.504   7.089  0.4676  0.8919  0.6726
 3628SOL    HW222521   0.878   3.610   7.016 -2.2693  0.8175 -2.6923
 3629SOL     OW22522   4.336   1.190  15.558 -0.2120 -0.0159  0.6494
 3629SOL    HW122523   4.416   1.182  15.506  0.1423  1.6597  0.9528
 3629SOL    HW222524   4.294   1.105  15.545 -0.1983 -0.0549  0.8673
 3630SOL     OW22525   2.554   0.538   5.361  0.2810  0.1654 -0.0715
 3630SOL    HW122526   2.621   0.543   5.294  1.0765 -1.1789  0.6327
 3630SOL    HW222527   2.484   0.508   5.304 -0.2805 -1.2581  1.3533
 3631SOL     OW22528   2.240   2.965   6.087 -0.2668  0.1380  0.1315
 3631SOL    HW122529   2.330   2.984   6.113  0.1074 -2.5205  0.8168
 3631SOL    HW222530   2.186   3.014   6.149  0.4003  0.5759  0.3579
 3632SOL     OW22531   3.494   0.198   0.884  0.6430  0.1083  0.2159
 3632SOL    HW122532   3.533   0.253   0.816 -0.8279  3.6661  2.2802
 3632SOL    HW222533   3.423   0.153   0.838  0.2535  1.4568 -0.4897
 3633SOL     OW22534   2.776   1.885   3.265 -1.0644 -0.1953 -0.1915
 3633SOL    HW122535   2.799   1.887   3.172 -1.7671 -0.5636 -0.3753
 3633SOL    HW222536   2.756   1.978   3.273  2.1682  0.2738  2.0489
 3634SOL     OW22537   4.626   3.397   7.385  1.1770 -0.0009  0.2203
 3634SOL    HW122538   4.582   3.424   7.304 -0.8037  0.0110  1.3043
 3634SOL    HW222539   4.555   3.365   7.439  0.2737 -0.1963 -1.0887
 3635SOL     OW22540   1.200   2.802   5.965  0.1730  0.3894  0.8627
 3635SOL    HW122541   1.277   2.855   5.944 -0.1775  0.8480  0.7274
 3635SOL    HW222542   1.208   2.810   6.060  1.3600  0.5462  0.7544
 3636SOL     OW22543   3.882   3.368   4.692 -0.4725  0.1480  0.0006
 3636SOL    HW122544   3.808   3.326   4.649  0.6812  0.8985 -2.7452
 3636SOL    HW222545   3.942   3.376   4.617 -0.4408 -2.4955 -0.2729
 3637SOL     OW22546   0.736   4.342   8.024 -0.3156 -0.0573  0.2917
 3637SOL    HW122547   0.642   4.338   8.041 -0.8504 -0.9317 -2.8477
 3637SOL    HW222548   0.759   4.298   8.106 -1.0591  1.3247  1.2245
 3638SOL     OW22549   4.204   3.313   1.926  0.4586  0.3966 -0.3478
 3638SOL    HW122550   4.123   3.339   1.883  1.5012  2.7868 -0.8933
 3638SOL    HW222551   4.226   3.227   1.891 -3.6766 -0.8172  0.1148
 3639SOL     OW22552   2.109   0.556   5.461 -0.2920 -0.0473  0.8482
 3639SOL    HW122553   2.166   0.525   5.531  0.3818 -1.6804 -0.4008
 3639SOL    HW222554   2.173   0.575   5.392 -0.2394  0.6111  1.0756
 3640SOL     OW22555   4.600   0.094  15.617 -0.0151  0.0524  0.0718
 3640SOL    HW122556   4.646   0.038  15.680  3.1112  0.5134 -1.8222
 3640SOL    HW222557   4.629   0.180  15.644 -1.2251  0.3631  0.3693
 3641SOL     OW22558   1.342   2.498  17.717 -0.1602  0.8612  0.7555
 3641SOL    HW122559   1.416   2.559  17.707 -0.6245  1.3364  0.2493
 3641SOL    HW222560   1.390   2.427   0.007  0.5104  0.2774 -0.9729
 3642SOL     OW22561   2.818   4.215   0.542  0.2742  0.0041  0.1597
 3642SOL    HW122562   2.743   4.155   0.541 -0.1645  0.5468  0.3119
 3642SOL    HW222563   2.790   4.265   0.619  1.1106  0.1846  0.3457
 3643SOL     OW22564   0.489   3.193   6.672  0.0757 -0.2579  0.6046
 3643SOL    HW122565   0.504   3.197   6.766  0.6334 -1.9286  0.5894
 3643SOL    HW222566   0.566   3.143   6.643  0.2620  1.3328 -1.6177
 3644SOL     OW22567   1.827   2.207   3.224  0.2628  0.3284  0.0193
 3644SOL    HW122568   1.834   2.265   3.301  1.0480  0.0667  0.1522
 3644SOL    HW222569   1.828   2.274   3.156 -2.0094  0.5180  0.1882
 3645SOL     OW22570   4.180   2.368   2.337 -0.1263  0.0064 -0.2371
 3645SOL    HW122571   4.115   2.427   2.375 -0.9021 -0.2172 -1.2108
 3645SOL    HW222572   4.258   2.411   2.372 -0.5173  0.5811 -0.0839
 3646SOL     OW22573   1.904   2.112   9.506  0.4176 -0.3267  0.0905
 3646SOL    HW122574   1.902   2.150   9.594  0.9026  0.8367 -0.4135
 3646SOL    HW222575   1.829   2.053   9.510 -0.4122  0.6692 -0.8069
 3647SOL     OW22576   2.698   0.208   9.187 -0.1373  0.6689  0.7392
 3647SOL    HW122577   2.623   0.244   9.235  0.8620 -1.7497  4.0940
 3647SOL    HW222578   2.692   0.117   9.214  1.6013  0.6052  0.8794
 3648SOL     OW22579   2.992   3.983   4.539 -0.2785 -0.0099 -0.1848
 3648SOL    HW122580   3.053   3.941   4.478 -1.9857 -0.1167 -1.8219
 3648SOL    HW222581   2.927   4.005   4.472  1.5768  2.3640 -1.2028
 3649SOL     OW22582   3.210   1.556  16.495  0.0986 -0.2015  0.3602
 3649SOL    HW122583   3.122   1.593  16.491  1.3927  2.8063 -0.5210
 3649SOL    HW222584   3.205   1.508  16.578 -0.9179  0.7616  0.8546
 3650SOL     OW22585   3.398   3.118   6.439  0.1398  0.6195  0.1950
 3650SOL    HW122586   3.353   3.167   6.371 -2.0959 -4.6049 -2.0367
 3650SOL    HW222587   3.400   3.035   6.392  0.9219  1.3066 -1.0066
 3651SOL     OW22588   2.349   0.994  10.169 -0.4953 -0.0991  0.5397
 3651SOL    HW122589   2.267   1.036  10.193 -0.3786 -1.4901  3.4060
 3651SOL    HW222590   2.395   1.027  10.247 -1.6259  1.9373  0.3504
 3652SOL     OW22591   4.507   4.259   2.645 -0.0927 -0.7187 -0.8461
 3652SOL    HW122592   4.519   4.352   2.664  2.3160 -1.3785  0.7781
 3652SOL    HW222593   4.419   4.254   2.681 -0.0317  1.5446 -0.3657
 3653SOL     OW22594   1.146   0.119  10.695 -0.3398 -0.4826  0.3708
 3653SOL    HW122595   1.166   0.050  10.632 -1.6329  0.3868 -0.9935
 3653SOL    HW222596   1.111   0.182  10.632 -0.4747 -0.2206  0.7096
 3654SOL     OW22597   1.019   1.338   6.144  0.2646  0.0695 -0.6757
 3654SOL    HW122598   1.095   1.396   6.133  1.9934 -1.8229  1.2349
 3654SOL    HW222599   0.970   1.390   6.207  2.6302  2.0201 -0.4474
 3655SOL     OW22600   2.714   3.050   7.851 -0.1715  0.1824  0.4278
 3655SOL    HW122601   2.784   3.081   7.793 -0.3216  0.5759  0.4624
 3655SOL    HW222602   2.671   2.987   7.792 -0.1592  0.1299  0.4750
 3656SOL     OW22603   4.089   2.265  17.426  0.2695  0.3318  0.5060
 3656SOL    HW122604   3.999   2.279  17.456  0.5274  0.4397  1.2553
 3656SOL    HW222605   4.085   2.261  17.331  0.6868  2.1748  0.4047
 3657SOL     OW22606   0.710   1.152   9.178 -0.3208 -0.2192 -0.0103
 3657SOL    HW122607   0.789   1.206   9.168 -0.6898  0.2851 -0.1727
 3657SOL    HW222608   0.663   1.210   9.237  0.5072  2.2773 -1.8039
 3658SOL     OW22609   0.207   2.467   5.604  0.0142 -0.0613  0.3974
 3658SOL    HW122610   0.264   2.397   5.635 -0.1921  0.4228  1.8863
 3658SOL    HW222611   0.137   2.427   5.553  0.4394 -0.8842  0.4704
 3659SOL     OW22612   3.909   1.717   6.853 -0.7642  0.1323 -0.4434
 3659SOL    HW122613   3.826   1.669   6.843  0.3945 -1.8356 -0.6460
 3659SOL    HW222614   3.980   1.653   6.849 -0.7347  0.0603  1.2936
 3660SOL     OW22615   1.743   0.762  17.249  0.0890  0.3785 -0.2737
 3660SOL    HW122616   1.654   0.739  17.225  0.3932 -1.0577 -0.0682
 3660SOL    HW222617   1.776   0.808  17.172 -0.7090 -0.2135 -0.9559
 3661SOL     OW22618   1.819   3.241   3.411  0.5361 -0.2929  0.1958
 3661SOL    HW122619   1.842   3.329   3.383  2.8845 -0.7181  0.8367
 3661SOL    HW222620   1.858   3.194   3.338 -0.6296 -2.6590  1.0798
 3662SOL     OW22621   4.346   2.496   8.595  0.3757 -0.3736 -0.2344
 3662SOL    HW122622   4.319   2.428   8.533  1.1619  1.1984 -2.2813
 3662SOL    HW222623   4.370   2.571   8.541  1.0918 -1.5256 -1.5204
 3663SOL     OW22624   2.088   0.395   8.143 -0.2270  0.2976 -0.1668
 3663SOL    HW122625   2.104   0.319   8.198  0.5921  1.0081  0.5831
 3663SOL    HW222626   2.177   0.423   8.124 -0.0565 -0.4846 -0.5010
 3664SOL     OW22627   0.269   2.599   0.030  0.0930 -0.0241  0.1113
 3664SOL    HW122628   0.266   2.521  17.727 -1.4379  0.4290 -0.4512
 3664SOL    HW222629   0.184   2.583   0.071  0.7269  0.3891  1.5798
 3665SOL     OW22630   4.738   1.525   8.676  0.0182 -0.3795  0.0057
 3665SOL    HW122631   0.003   1.572   8.592  0.6148 -0.0056  0.2457
 3665SOL    HW222632   4.691   1.591   8.727  0.1376  1.0609 -1.7437
 3666SOL     OW22633   2.496   0.088   1.529  0.4428  0.3056  0.0691
 3666SOL    HW122634   2.458   0.154   1.472  1.4675 -0.3954 -1.4213
 3666SOL    HW222635   2.486   0.004   1.484  0.0751 -0.0595  0.8340
 3667SOL     OW22636   4.125   4.378  15.709  0.1402  0.1079 -0.0079
 3667SOL    HW122637   4.165   4.424  15.634 -0.8466  1.2521  0.1711
 3667SOL    HW222638   4.045   4.344  15.669 -1.0085  3.2854 -0.4208
 3668SOL     OW22639   1.087   2.113   5.369 -0.2346  0.3464  0.0326
 3668SOL    HW122640   1.073   2.069   5.284 -0.9028 -0.6453  0.6573
 3668SOL    HW222641   1.103   2.045   5.434 -1.2851  1.6751  1.6566
 3669SOL     OW22642   2.557   1.985   2.158  1.1276  0.0199  0.0941
 3669SOL    HW122643   2.570   1.894   2.183  1.0452  0.8430  3.1452
 3669SOL    HW222644   2.617   2.023   2.223 -1.3223  2.0356  1.1643
 3670SOL     OW22645   2.997   2.180  11.883  0.2449 -0.6313 -0.2502
 3670SOL    HW122646   2.963   2.091  11.872 -3.0606  0.6558 -0.4115
 3670SOL    HW222647   3.091   2.168  11.878  0.2582 -0.6584  0.1106
 3671SOL     OW22648   4.156   4.277  16.319  0.0532  0.2247 -0.4990
 3671SOL    HW122649   4.150   4.373  16.314 -2.4437 -0.0069 -2.4889
 3671SOL    HW222650   4.193   4.254  16.234  1.9447 -1.1780  0.7296
 3672SOL     OW22651   2.588   2.905  16.454  0.2125 -0.0233  0.2050
 3672SOL    HW122652   2.672   2.948  16.462 -0.3937  1.3176 -0.6405
 3672SOL    HW222653   2.533   2.957  16.513 -0.7367 -0.5950 -0.1757
 3673SOL     OW22654   1.795   1.594   4.178  0.1838  0.0607 -0.6929
 3673SOL    HW122655   1.822   1.617   4.089  1.7018  0.9790  0.0144
 3673SOL    HW222656   1.700   1.584   4.174  0.2942 -1.9633  1.8340
 3674SOL     OW22657   2.084   4.522   6.168 -1.1114 -0.0279 -0.5089
 3674SOL    HW122658   2.101   4.441   6.215  0.0776  1.2979  1.3281
 3674SOL    HW222659   2.137   4.592   6.207 -3.4861  1.1116  0.6893
 3675SOL     OW22660   3.668   1.761  11.469  0.1268 -0.0654  0.2366
 3675SOL    HW122661   3.698   1.807  11.548 -0.1729 -0.7420  0.7408
 3675SOL    HW222662   3.652   1.834  11.410 -1.5349 -1.5723 -1.1538
 3676SOL     OW22663   3.234   0.434   7.017  0.8377  0.0962 -0.3568
 3676SOL    HW122664   3.299   0.364   7.024 -1.7970 -2.1616  1.4706
 3676SOL    HW222665   3.268   0.499   7.079  2.8988  0.1312 -1.4895
 3677SOL     OW22666   0.493   0.277  13.063  0.2749  0.3237  0.4071
 3677SOL    HW122667   0.422   0.289  12.999 -1.1170 -0.4777  1.8019
 3677SOL    HW222668   0.444   0.277  13.145 -0.7978  2.1500 -0.2298
 3678SOL     OW22669   0.466   4.471   2.031  0.1475  0.4203  0.1177
 3678SOL    HW122670   0.470   4.531   1.957  0.0604  1.3929  0.9068
 3678SOL    HW222671   0.518   4.515   2.098 -1.4827  2.3189  0.1312
 3679SOL     OW22672   1.736   2.390   2.366 -0.4039  0.7145  0.2725
 3679SOL    HW122673   1.658   2.425   2.323 -1.0754  0.3009  1.1504
 3679SOL    HW222674   1.720   2.405   2.459  0.9717  1.6513  0.3564
 3680SOL     OW22675   2.877   4.371   2.757 -0.2861  0.4164  0.1956
 3680SOL    HW122676   2.841   4.350   2.843  2.3536 -0.3297  1.1188
 3680SOL    HW222677   2.971   4.383   2.768 -0.2280  0.6664 -0.5823
 3681SOL     OW22678   0.512   0.323   3.102 -0.2994  0.2794 -0.0074
 3681SOL    HW122679   0.534   0.310   3.010  0.6252 -0.3135  0.2996
 3681SOL    HW222680   0.574   0.272   3.154 -1.7906 -1.1310  0.4078
 3682SOL     OW22681   0.458   0.371   2.583 -0.1563 -0.3005 -0.1734
 3682SOL    HW122682   0.508   0.381   2.502  0.0735 -1.5651 -0.1997
 3682SOL    HW222683   0.530   0.379   2.646  0.6497 -1.0879 -0.9855
 3683SOL     OW22684   4.146   0.663  10.874 -0.1453  0.0682 -0.5746
 3683SOL    HW122685   4.100   0.650  10.957  2.7665  0.0277  1.0250
 3683SOL    HW222686   4.215   0.719  10.910 -0.1859  0.6620 -1.4315
 3684SOL     OW22687   2.623   3.525   7.822 -0.9306 -0.3602 -0.0014
 3684SOL    HW122688   2.552   3.586   7.802 -0.1266  1.2708  2.1199
 3684SOL    HW222689   2.610   3.506   7.915 -1.6654 -0.3462 -0.1036
 3685SOL     OW22690   1.838   4.594  13.100  0.8503 -0.2410 -0.3390
 3685SOL    HW122691   1.845   4.505  13.136 -2.4319 -1.3868 -2.4740
 3685SOL    HW222692   1.799   4.641  13.173  0.5190  1.7768 -1.8164
 3686SOL     OW22693   4.156   2.177   9.939 -0.5956 -0.4723  0.4674
 3686SOL    HW122694   4.189   2.220   9.860 -0.8408  0.2543  0.7629
 3686SOL    HW222695   4.067   2.150   9.920 -0.8614  0.5459  0.2803
 3687SOL     OW22696   0.216   2.713   1.707 -0.1213  0.6251 -0.3954
 3687SOL    HW122697   0.148   2.763   1.752 -1.2174  0.9842 -2.4519
 3687SOL    HW222698   0.165   2.684   1.631 -0.5916  0.5094 -0.0353
 3688SOL     OW22699   0.408   2.700   3.584  0.3676  0.2916 -0.7734
 3688SOL    HW122700   0.471   2.769   3.565  1.2894 -0.4539 -0.3971
 3688SOL    HW222701   0.454   2.665   3.660  1.4204 -1.8943 -2.3952
 3689SOL     OW22702   0.900   0.892   3.106  0.5544  0.2235 -0.1895
 3689SOL    HW122703   0.913   0.985   3.089  1.0583  0.4029  1.2506
 3689SOL    HW222704   0.806   0.888   3.126  0.5502 -0.8644 -0.4088
 3690SOL     OW22705   1.784   3.689   3.006  0.0734  0.0850 -0.2971
 3690SOL    HW122706   1.760   3.774   3.041  1.3281  0.2202  0.1986
 3690SOL    HW222707   1.702   3.640   2.994  0.8465 -1.0619 -0.8411
 3691SOL     OW22708   1.710   0.088  13.253 -0.5749  0.0204 -0.2357
 3691SOL    HW122709   1.724   0.164  13.195  1.3887  0.3822  0.7218
 3691SOL    HW222710   1.718   0.133  13.337 -0.1742  1.3904 -1.0144
 3692SOL     OW22711   0.318   2.229   5.636 -0.1878  0.5943 -0.2876
 3692SOL    HW122712   0.291   2.179   5.558 -0.4747 -1.1797  0.9330
 3692SOL    HW222713   0.282   2.164   5.697  0.0019 -1.1661 -2.0479
 3693SOL     OW22714   0.919   1.529  11.714  0.0111 -0.1946 -0.0666
 3693SOL    HW122715   0.877   1.445  11.696 -2.1265  1.1463 -1.3086
 3693SOL    HW222716   0.941   1.552  11.624  2.2908 -1.7040  0.0934
 3694SOL     OW22717   1.425   4.160   2.082 -0.5326 -0.1409  0.1260
 3694SOL    HW122718   1.503   4.161   2.026  0.5787  1.8998  1.6877
 3694SOL    HW222719   1.453   4.129   2.168 -0.5710 -0.0684  0.1649
 3695SOL     OW22720   2.944   0.023   5.114  0.7386  0.5628 -0.2534
 3695SOL    HW122721   2.909   4.681   5.151  0.8033  0.3634 -0.6287
 3695SOL    HW222722   3.038   0.007   5.113  0.9584  1.7728  1.9850
 3696SOL     OW22723   3.408   4.190   2.227 -0.3674  0.1933 -0.3594
 3696SOL    HW122724   3.387   4.283   2.222 -3.0352 -0.3825  0.0857
 3696SOL    HW222725   3.428   4.196   2.320  1.1206 -0.9921 -0.5961
 3697SOL     OW22726   4.017   0.598   8.449  0.3119 -0.1674  0.0468
 3697SOL    HW122727   4.030   0.521   8.394 -1.3179  1.4176 -2.5414
 3697SOL    HW222728   3.935   0.577   8.494 -0.6520 -0.5233 -1.9084
 3698SOL     OW22729   1.215   2.675   8.902 -0.2913  0.3244 -0.1313
 3698SOL    HW122730   1.175   2.690   8.817 -1.4180 -1.1350  0.1491
 3698SOL    HW222731   1.295   2.726   8.889  0.1599 -0.7669 -1.5565
 3699SOL     OW22732   4.217   2.442   6.440 -0.0691 -0.0990 -0.1263
 3699SOL    HW122733   4.270   2.492   6.502  1.1041 -1.7152  0.1851
 3699SOL    HW222734   4.134   2.480   6.466  0.9711  1.1148  1.4332
 3700SOL     OW22735   4.302   2.190  16.002 -0.2471 -0.5601 -0.4881
 3700SOL    HW122736   4.391   2.155  16.006 -0.0545 -0.2184 -1.6344
 3700SOL    HW222737   4.259   2.116  16.043 -2.4672 -0.6394 -2.9744
 3701SOL     OW22738   1.316   1.422   6.934 -0.1449 -0.0272 -1.0138
 3701SOL    HW122739   1.268   1.352   6.890 -0.5135 -1.0305  1.0128
 3701SOL    HW222740   1.402   1.411   6.892 -0.0431 -3.3496  0.0541
 3702SOL     OW22741   2.275   3.317   6.959 -0.4576  0.2775  0.8950
 3702SOL    HW122742   2.237   3.230   6.969 -0.2072 -0.0377 -0.8574
 3702SOL    HW222743   2.289   3.326   6.865 -2.0988 -0.8257  0.5588
 3703SOL     OW22744   1.005   3.432   2.928 -0.4125 -0.3889 -0.7157
 3703SOL    HW122745   0.934   3.475   2.976 -1.3053  0.7359 -3.0649
 3703SOL    HW222746   1.028   3.374   3.000 -1.8349  0.5628  0.5191
 3704SOL     OW22747   1.637   2.311   5.708 -0.0648  0.3909  0.1666
 3704SOL    HW122748   1.716   2.364   5.709 -0.8828  1.6248 -0.1407
 3704SOL    HW222749   1.631   2.290   5.614 -0.5204 -2.0358  0.7184
 3705SOL     OW22750   1.729   2.211   4.514 -0.0216 -0.6373 -0.1277
 3705SOL    HW122751   1.634   2.206   4.511 -0.1455  0.6799  1.6968
 3705SOL    HW222752   1.747   2.281   4.577  1.8592 -1.7085  0.5469
 3706SOL     OW22753   4.693   3.887   4.738  0.4846  0.0167 -0.2060
 3706SOL    HW122754   4.736   3.927   4.662 -0.6287  1.1594 -0.2400
 3706SOL    HW222755   4.622   3.948   4.758 -0.7690 -0.8232 -2.0806
 3707SOL     OW22756   1.803   0.954   3.449  0.6149 -0.5402 -0.3376
 3707SOL    HW122757   1.725   0.905   3.475  0.9858 -0.3359  1.1355
 3707SOL    HW222758   1.848   0.969   3.532 -0.5805  0.7916  0.0718
 3708SOL     OW22759   2.532   2.567   8.666 -0.4312 -0.1653  0.4832
 3708SOL    HW122760   2.536   2.515   8.585  1.6069  1.2255 -0.3194
 3708SOL    HW222761   2.438   2.563   8.682 -0.6277  0.6632 -0.4324
 3709SOL     OW22762   1.649   1.208   5.047 -0.4087 -0.6066 -0.6073
 3709SOL    HW122763   1.567   1.251   5.072 -0.6832 -0.6766 -1.3609
 3709SOL    HW222764   1.651   1.144   5.119 -0.7002 -0.0102 -0.0694
 3710SOL     OW22765   0.140   3.727  17.730  0.0273  0.0678 -0.0142
 3710SOL    HW122766   0.146   3.684   0.062  1.0969  1.3309  0.5438
 3710SOL    HW222767   0.068   3.788  17.747  0.2421 -0.3148  2.1868
 3711SOL     OW22768   3.266   2.199  11.315 -0.5299  0.2190  0.0916
 3711SOL    HW122769   3.211   2.275  11.332  1.2427  1.6265 -0.4462
 3711SOL    HW222770   3.201   2.130  11.302  0.7435 -1.1461  0.9191
 3712SOL     OW22771   3.080   1.895   0.471 -0.2411 -0.4320  0.6686
 3712SOL    HW122772   3.143   1.836   0.512  0.2147  0.7699  1.6887
 3712SOL    HW222773   3.081   1.976   0.523 -2.1670 -0.5468  0.9109
 3713SOL     OW22774   4.725   3.358  17.433  0.4729 -0.0601  0.3285
 3713SOL    HW122775   0.017   3.329  17.347  0.8154 -0.4673  0.5864
 3713SOL    HW222776   0.016   3.449  17.435 -1.9667  0.6771  3.1894
 3714SOL     OW22777   1.699   1.217   6.185  0.2940 -0.0170 -0.3471
 3714SOL    HW122778   1.749   1.209   6.104 -2.0902 -0.6519 -1.7676
 3714SOL    HW222779   1.662   1.129   6.183  0.3391 -0.0578  0.6409
 3715SOL     OW22780   1.777   2.358   4.791  0.1444  0.2443  0.3484
 3715SOL    HW122781   1.786   2.442   4.836  2.0135 -1.0158  2.3297
 3715SOL    HW222782   1.863   2.350   4.749  0.3393  0.2235  0.7573
 3716SOL     OW22783   0.390   3.573   5.655 -0.6323  0.2908  0.2196
 3716SOL    HW122784   0.345   3.604   5.734  0.3374 -0.2968  0.9890
 3716SOL    HW222785   0.361   3.630   5.584  0.9097 -1.2244 -1.6163
 3717SOL     OW22786   3.712   1.148   4.228  0.0757  0.1942  0.1111
 3717SOL    HW122787   3.763   1.161   4.307  0.5212  2.8655 -0.6088
 3717SOL    HW222788   3.645   1.082   4.247  0.8703 -0.5293  0.3993
 3718SOL     OW22789   4.222   3.958   9.734  0.6848 -0.3987  0.3811
 3718SOL    HW122790   4.314   3.984   9.739  0.6770  0.0661 -1.6993
 3718SOL    HW222791   4.227   3.862   9.735 -0.4970 -0.4850 -2.4013
 3719SOL     OW22792   3.564   0.935  12.631  0.6575  0.5157  0.2981
 3719SOL    HW122793   3.519   0.916  12.713 -2.4680 -1.1719 -1.7748
 3719SOL    HW222794   3.495   0.983  12.584  0.4542  1.3007  1.3975
 3720SOL     OW22795   0.291   3.140   4.722 -0.3716  1.0452  0.3481
 3720SOL    HW122796   0.224   3.077   4.695  1.1410 -0.3915 -0.0471
 3720SOL    HW222797   0.372   3.089   4.715 -1.6558 -0.9792  0.2854
 3721SOL     OW22798   4.609   1.799   7.640  0.2173 -0.1126 -0.3629
 3721SOL    HW122799   4.659   1.858   7.584 -1.8489 -0.8638 -3.0133
 3721SOL    HW222800   4.517   1.819   7.622  0.3172 -1.3768 -2.3197
 3722SOL     OW22801   2.892   2.613   6.020  0.4600  0.2447 -0.4471
 3722SOL    HW122802   2.959   2.613   5.951  1.4614 -0.9468  0.5486
 3722SOL    HW222803   2.866   2.521   6.023  1.1422  0.1195  1.5179
 3723SOL     OW22804   0.416   1.745   6.384 -0.8981 -0.7008 -0.1901
 3723SOL    HW122805   0.384   1.658   6.408  1.9980 -1.2354  1.7517
 3723SOL    HW222806   0.410   1.793   6.467 -1.7559  0.5165 -0.9480
 3724SOL     OW22807   3.852   3.529   8.642  0.7899 -0.0052  0.1626
 3724SOL    HW122808   3.836   3.543   8.548 -0.7531  0.8489  0.5405
 3724SOL    HW222809   3.840   3.622   8.663 -0.5070  0.3253 -2.0177
 3725SOL     OW22810   0.434   2.768  10.456 -0.0361  0.1843  0.1629
 3725SOL    HW122811   0.347   2.778  10.495 -1.5040  1.3629 -3.3987
 3725SOL    HW222812   0.416   2.794  10.366 -1.9871 -1.1644  0.1742
 3726SOL     OW22813   3.856   2.092  11.051  0.1382 -0.2333 -0.5424
 3726SOL    HW122814   3.762   2.108  11.057  0.4129  1.6250 -1.2608
 3726SOL    HW222815   3.898   2.170  11.086 -0.4758  0.7405 -1.9980
 3727SOL     OW22816   3.128   1.719   2.880 -0.5583 -0.7569 -0.1335
 3727SOL    HW122817   3.154   1.671   2.801 -0.3309 -1.4773  0.3791
 3727SOL    HW222818   3.069   1.659   2.927 -1.5667 -0.6143 -1.2034
 3728SOL     OW22819   3.155   3.004   0.885  0.0545  0.4015 -0.0480
 3728SOL    HW122820   3.154   2.910   0.863  1.0192  0.4076 -0.0938
 3728SOL    HW222821   3.228   3.032   0.830 -0.0405  0.5331 -0.1056
 3729SOL     OW22822   3.847   1.067   3.638 -0.7037 -0.1135  0.1390
 3729SOL    HW122823   3.760   1.080   3.602 -0.8821  0.1451  0.6596
 3729SOL    HW222824   3.900   1.125   3.581  0.9455 -1.9274 -0.1766
 3730SOL     OW22825   3.084   2.899   2.050 -0.1088  0.4181 -0.1826
 3730SOL    HW122826   3.026   2.886   1.975 -0.0104 -1.6991  0.1041
 3730SOL    HW222827   3.153   2.832   2.047 -0.2660  0.1021  2.8339
 3731SOL     OW22828   3.943   1.762   4.535  0.5506  0.2429  0.1017
 3731SOL    HW122829   3.923   1.827   4.468 -1.7599 -0.5519  0.0085
 3731SOL    HW222830   3.883   1.693   4.505 -0.2680  0.3317  1.5445
 3732SOL     OW22831   4.614   3.722  15.550  0.1277  0.2057 -0.2606
 3732SOL    HW122832   4.579   3.714  15.639 -1.8252  1.3693 -0.9215
 3732SOL    HW222833   4.601   3.635  15.514  0.2397  1.0375 -2.3055
 3733SOL     OW22834   3.662   4.125   4.187  0.4293  0.1407 -0.0677
 3733SOL    HW122835   3.635   4.215   4.200 -1.1015  0.0759 -2.6964
 3733SOL    HW222836   3.589   4.081   4.142  0.0710  0.1147  0.5280
 3734SOL     OW22837   0.283   1.659   2.704  0.4839  0.7166 -0.5352
 3734SOL    HW122838   0.351   1.618   2.650  0.8694  2.3710 -1.3166
 3734SOL    HW222839   0.208   1.604   2.683 -0.4732  1.3587  1.2267
 3735SOL     OW22840   1.585   2.028   8.849  0.0790 -0.3015  0.0490
 3735SOL    HW122841   1.627   1.998   8.769  0.4594  0.9071 -0.2010
 3735SOL    HW222842   1.623   2.115   8.862 -2.0207  0.5313  0.6252
 3736SOL     OW22843   3.492   1.419  16.689  0.6225 -0.4385  0.9795
 3736SOL    HW122844   3.458   1.374  16.612 -1.1409  2.3370  0.1536
 3736SOL    HW222845   3.584   1.437  16.671  0.1973  1.7205  1.0376
 3737SOL     OW22846   1.307   2.868   4.323  0.2763 -0.1791 -0.2115
 3737SOL    HW122847   1.336   2.959   4.319  0.0925  0.0113  2.6290
 3737SOL    HW222848   1.344   2.832   4.404  1.2128 -0.3106 -0.6913
 3738SOL     OW22849   0.922   1.799   9.866 -0.0315  0.2883  0.1797
 3738SOL    HW122850   0.901   1.878   9.915 -1.2727  0.9045 -1.3275
 3738SOL    HW222851   0.835   1.786   9.829 -0.3925  0.2325  1.0645
 3739SOL     OW22852   0.442   1.001   9.039  0.3628 -0.0617  0.0934
 3739SOL    HW122853   0.489   1.016   9.121  1.2095  0.8555 -0.5696
 3739SOL    HW222854   0.516   0.963   8.992 -0.8719 -0.9394 -1.1453
 3740SOL     OW22855   3.427   2.128  12.291 -0.0732 -0.0745  0.3460
 3740SOL    HW122856   3.399   2.175  12.213 -1.4688 -0.2507  0.7334
 3740SOL    HW222857   3.467   2.203  12.336  0.7396  0.2606 -0.9610
 3741SOL     OW22858   1.061   0.722  13.602  0.2256 -0.3885 -0.3102
 3741SOL    HW122859   1.005   0.679  13.538  1.1989 -1.4625 -0.4354
 3741SOL    HW222860   0.997   0.723  13.673  0.6107  0.8328  0.0247
 3742SOL     OW22861   0.561   4.275  14.113  0.3351  0.0969  0.0240
 3742SOL    HW122862   0.634   4.246  14.167 -1.0706 -0.6502  1.5130
 3742SOL    HW222863   0.537   4.188  14.081 -1.6199  0.1518  1.3202
 3743SOL     OW22864   3.872   1.484   4.981  0.4134  0.1919 -0.3126
 3743SOL    HW122865   3.849   1.538   4.905  2.0704  0.8117 -0.3695
 3743SOL    HW222866   3.853   1.533   5.061 -0.0247  1.2696 -1.0682
 3744SOL     OW22867   4.027   2.032   9.535 -0.2808  0.1571 -0.1716
 3744SOL    HW122868   4.010   2.107   9.478  2.0125  0.7314 -0.0968
 3744SOL    HW222869   4.113   2.063   9.563  0.2992  0.3425 -2.1987
 3745SOL     OW22870   0.417   0.647  11.160  0.0410  0.9293  0.0956
 3745SOL    HW122871   0.471   0.622  11.235  1.0865 -1.4542 -1.4572
 3745SOL    HW222872   0.334   0.610  11.193  1.6709 -2.2764  0.5917
 3746SOL     OW22873   3.127   0.219   9.182  0.1000  0.1899 -0.0808
 3746SOL    HW122874   3.097   0.295   9.232  0.9366  0.1054  0.5557
 3746SOL    HW222875   3.135   0.157   9.255  0.3811  0.1182 -0.1732
 3747SOL     OW22876   3.109   3.989   8.849  0.2024  0.1424  0.3398
 3747SOL    HW122877   3.024   4.029   8.829  0.3551  0.8272  1.0349
 3747SOL    HW222878   3.097   3.918   8.911 -2.3177  3.2980  3.4962
 3748SOL     OW22879   3.615   2.091  14.834  0.0251 -0.1392  0.2380
 3748SOL    HW122880   3.619   2.123  14.924 -2.4860  0.0031  0.2771
 3748SOL    HW222881   3.649   2.158  14.775  2.5435 -0.8641  0.8292
 3749SOL     OW22882   0.395   2.659   6.582  0.7632 -0.3206  0.0340
 3749SOL    HW122883   0.387   2.732   6.644  0.6667  0.3652 -0.7861
 3749SOL    HW222884   0.367   2.712   6.508  1.4506 -0.3496 -0.2507
 3750SOL     OW22885   2.120   4.047   2.817  0.3538  0.0997  0.0847
 3750SOL    HW122886   2.038   4.076   2.776  0.7415  0.8453 -0.1673
 3750SOL    HW222887   2.089   3.957   2.829  0.7873  0.2744  2.6504
 3751SOL     OW22888   1.452   1.128   9.271 -0.3928  0.1849 -0.0895
 3751SOL    HW122889   1.402   1.132   9.352  0.8544  0.8128  0.6440
 3751SOL    HW222890   1.543   1.118   9.301 -0.9468  2.7035  2.3930
 3752SOL     OW22891   1.994   4.013  10.557  0.3002  0.0454 -0.2900
 3752SOL    HW122892   2.074   4.002  10.505 -0.0129  2.8069 -1.3627
 3752SOL    HW222893   2.025   3.991  10.645 -0.8949  0.0310  0.1273
 3753SOL     OW22894   0.170   0.111   7.083 -0.6687  0.1619 -0.5051
 3753SOL    HW122895   0.153   0.052   7.156  2.1481 -1.3913 -1.1164
 3753SOL    HW222896   0.172   0.037   7.023 -2.3428 -0.5760  0.3493
 3754SOL     OW22897   2.831   0.473   9.175  0.0160  0.0155 -0.0963
 3754SOL    HW122898   2.897   0.433   9.231 -0.0146 -0.2699 -0.2643
 3754SOL    HW222899   2.770   0.401   9.159 -1.6004  1.8144 -1.9765
 3755SOL     OW22900   4.439   0.996   4.582 -0.1679 -0.4203  0.7169
 3755SOL    HW122901   4.404   0.989   4.671 -1.5729  1.1406  0.2905
 3755SOL    HW222902   4.534   1.007   4.587 -0.3072  1.9368 -1.8096
 3756SOL     OW22903   0.408   3.583  11.189  0.0037 -0.1370  0.3337
 3756SOL    HW122904   0.386   3.652  11.127 -0.8060 -0.3174  0.4205
 3756SOL    HW222905   0.331   3.580  11.245  0.4091  0.4393  0.9381
 3757SOL     OW22906   1.879   3.771   4.779 -0.0821  0.6042 -0.3807
 3757SOL    HW122907   1.799   3.731   4.814 -0.9638  2.0801 -0.7115
 3757SOL    HW222908   1.937   3.695   4.779 -1.2711 -0.2783 -4.1671
 3758SOL     OW22909   0.788   0.077   3.990 -0.0238  0.4343 -0.0111
 3758SOL    HW122910   0.764   4.724   4.003  2.0125  0.1368  1.6347
 3758SOL    HW222911   0.773   0.114   4.077 -0.6538 -1.9344  0.9042
 3759SOL     OW22912   2.016   3.410   7.646  0.2996 -0.2013  0.0042
 3759SOL    HW122913   1.979   3.497   7.625  1.3201  0.2753  0.1982
 3759SOL    HW222914   2.105   3.434   7.671  1.1561 -2.3353 -1.0808
 3760SOL     OW22915   1.234   2.149  17.072  0.3075  0.1186  0.3353
 3760SOL    HW122916   1.195   2.185  17.152  0.1856  0.9465 -0.0912
 3760SOL    HW222917   1.315   2.200  17.073  1.2871 -1.4298 -0.6874
 3761SOL     OW22918   3.414   1.374   2.710  0.6574  0.3752 -0.5003
 3761SOL    HW122919   3.472   1.448   2.689  0.1329  1.3759  1.5371
 3761SOL    HW222920   3.400   1.327   2.629 -0.3244 -1.0375  0.4891
 3762SOL     OW22921   2.834   3.884  10.670 -0.5406 -0.0817 -0.4376
 3762SOL    HW122922   2.784   3.966  10.669 -0.3578  0.0167 -1.8754
 3762SOL    HW222923   2.919   3.924  10.685 -0.8614  0.6092 -0.4421
 3763SOL     OW22924   2.402   3.684   7.746 -0.0104 -0.0558 -0.3820
 3763SOL    HW122925   2.369   3.685   7.656 -0.7688 -0.4356 -0.1045
 3763SOL    HW222926   2.379   3.773   7.774 -2.3324 -0.7882  0.0442
 3764SOL     OW22927   1.163   0.748   5.227  0.6510  0.3095 -0.2821
 3764SOL    HW122928   1.185   0.669   5.179 -1.5210 -0.4712 -0.0329
 3764SOL    HW222929   1.096   0.794   5.176 -0.3830  0.3336  1.0597
 3765SOL     OW22930   1.238   0.126   7.840 -0.1938 -0.1575  0.3102
 3765SOL    HW122931   1.188   0.206   7.856  0.3502 -0.1336  1.9431
 3765SOL    HW222932   1.164   0.074   7.870 -0.3980 -0.0054  0.0642
 3766SOL     OW22933   4.006   2.519   0.048 -0.0959 -0.0483  0.4229
 3766SOL    HW122934   3.930   2.510  17.744 -0.2912 -1.3431  0.8854
 3766SOL    HW222935   3.968   2.537   0.135  0.5661  0.7557  0.5490
 3767SOL     OW22936   3.031   0.960   4.176 -0.4019  0.0098  0.5624
 3767SOL    HW122937   2.944   0.986   4.145 -1.6692 -1.9049  2.5524
 3767SOL    HW222938   3.038   1.008   4.259 -0.4091  1.1949 -0.1105
 3768SOL     OW22939   3.560   3.840   2.570 -0.2598 -0.3886  0.3156
 3768SOL    HW122940   3.605   3.756   2.558  1.8836  1.0621 -1.9459
 3768SOL    HW222941   3.524   3.842   2.481 -1.1689  0.7529  0.7218
 3769SOL     OW22942   1.679   4.448   7.258  0.5941 -0.0919 -0.1806
 3769SOL    HW122943   1.675   4.531   7.305  0.7181  0.6899 -1.5511
 3769SOL    HW222944   1.606   4.398   7.293 -1.6987  2.3352 -1.5546
 3770SOL     OW22945   0.516   4.555   7.556  0.2731 -0.4544  0.4651
 3770SOL    HW122946   0.491   4.477   7.506 -0.1264 -1.2256  1.8739
 3770SOL    HW222947   0.581   4.521   7.616  2.6761  0.7996 -1.4253
 3771SOL     OW22948   2.681   3.516   3.448 -0.0677 -0.5150 -0.1446
 3771SOL    HW122949   2.691   3.438   3.503  1.6458 -0.0795  0.1690
 3771SOL    HW222950   2.748   3.582   3.467  0.7099 -1.1349 -0.7361
 3772SOL     OW22951   1.284   3.707   5.991 -0.0845  0.1026  0.4944
 3772SOL    HW122952   1.316   3.790   6.026  2.2493 -1.7563  2.8047
 3772SOL    HW222953   1.190   3.723   5.988 -0.3639 -1.4134  1.2786
 3773SOL     OW22954   2.228   0.491   1.049 -0.1006  0.0609 -0.4055
 3773SOL    HW122955   2.289   0.474   0.977  1.3851 -0.5022  0.9904
 3773SOL    HW222956   2.190   0.574   1.021  0.7896 -0.2847 -2.6165
 3774SOL     OW22957   1.282   3.630   6.401  0.0592 -0.3171 -0.6048
 3774SOL    HW122958   1.234   3.552   6.375 -0.7218 -0.1383  0.2819
 3774SOL    HW222959   1.299   3.608   6.493  0.8364  2.6059 -0.0266
 3775SOL     OW22960   3.505   1.715  16.987  0.2026 -0.1233  0.0515
 3775SOL    HW122961   3.569   1.786  16.989  2.1471 -1.9097  2.3452
 3775SOL    HW222962   3.489   1.713  16.893 -0.0595  2.7726  0.0537
 3776SOL     OW22963   3.212   2.272   6.455 -0.0424 -0.0333 -0.2874
 3776SOL    HW122964   3.131   2.260   6.505  0.1183  0.8639  0.1899
 3776SOL    HW222965   3.196   2.358   6.415  1.6644  0.4528  0.0707
 3777SOL     OW22966   3.572   1.585  13.628  0.2030 -0.1257  0.3733
 3777SOL    HW122967   3.607   1.663  13.585  0.8876  1.1912  3.3295
 3777SOL    HW222968   3.490   1.610  13.671 -0.3733  0.4580 -1.0853
 3778SOL     OW22969   3.234   4.587   1.979  0.3567 -0.1722 -0.0762
 3778SOL    HW122970   3.179   4.549   1.910 -0.3954 -0.1936  0.5374
 3778SOL    HW222971   3.234   4.681   1.961  3.0523 -0.5682 -2.2168
 3779SOL     OW22972   3.358   1.221   5.059 -0.2203 -0.0110 -0.3779
 3779SOL    HW122973   3.309   1.303   5.067 -1.4214 -1.0418  2.5599
 3779SOL    HW222974   3.306   1.157   5.106 -2.2337  0.6665 -1.6564
 3780SOL     OW22975   3.735   2.066   9.262  0.0719  1.1165  0.1672
 3780SOL    HW122976   3.670   2.069   9.192 -0.9739 -0.1018  1.0737
 3780SOL    HW222977   3.781   2.146   9.238  1.4610  1.2183  3.1712
 3781SOL     OW22978   1.908   4.397  17.308  0.2233 -0.6873 -0.2932
 3781SOL    HW122979   1.902   4.419  17.215 -2.9309 -0.9686 -0.1294
 3781SOL    HW222980   1.926   4.304  17.293 -0.4436 -0.7317 -0.8092
 3782SOL     OW22981   0.626   1.858   8.559 -0.3172  0.2922 -0.1235
 3782SOL    HW122982   0.542   1.883   8.597  0.6073 -0.5004  2.4906
 3782SOL    HW222983   0.593   1.833   8.473 -0.8291 -3.4112  1.1767
 3783SOL     OW22984   4.721   2.561   7.026 -0.1049 -0.3502 -0.1603
 3783SOL    HW122985   4.672   2.617   7.085  0.6068 -0.1865  0.2804
 3783SOL    HW222986   4.730   2.614   6.948  2.1254 -1.4369 -0.6500
 3784SOL     OW22987   1.884   2.549   5.966  0.1550  0.0308  0.1007
 3784SOL    HW122988   1.838   2.629   5.940 -3.8236 -2.2343  0.2778
 3784SOL    HW222989   1.974   2.583   5.960  0.6449 -1.2408  0.1296
 3785SOL     OW22990   2.707   3.499  13.555 -0.0867  0.3414  0.6932
 3785SOL    HW122991   2.734   3.494  13.647  2.0400  0.6722  0.0902
 3785SOL    HW222992   2.688   3.408  13.531 -0.2319  0.3440  0.8010
 3786SOL     OW22993   0.460   3.415  14.391 -0.2201  0.0388 -0.1483
 3786SOL    HW122994   0.493   3.428  14.480  1.2268  2.1146 -1.0008
 3786SOL    HW222995   0.421   3.329  14.407 -0.7019 -0.0519 -1.8292
 3787SOL     OW22996   2.883   3.738  10.955 -0.4760  0.0509  0.4931
 3787SOL    HW122997   2.925   3.762  11.038  0.1463  1.2155 -0.1647
 3787SOL    HW222998   2.931   3.797  10.897 -0.4891  0.0279  0.4589
 3788SOL     OW22999   4.372   1.612   3.012 -0.2722  0.1679  0.2009
 3788SOL    HW123000   4.306   1.650   2.955  0.6310 -0.4698 -1.2750
 3788SOL    HW223001   4.380   1.524   2.975  1.7846  0.7560 -0.7798
 3789SOL     OW23002   2.722   2.655   3.156 -0.1772 -0.5777  0.1383
 3789SOL    HW123003   2.732   2.560   3.150 -0.4033 -0.6007  0.1431
 3789SOL    HW223004   2.714   2.672   3.062  0.0198  1.3197  0.4597
 3790SOL     OW23005   2.539   0.832   8.598  0.0952 -0.1326  0.5479
 3790SOL    HW123006   2.599   0.772   8.554 -1.9515 -1.6129 -0.2117
 3790SOL    HW223007   2.483   0.763   8.635 -2.3214  1.6704  0.2170
 3791SOL     OW23008   1.274   1.716   8.964 -0.1373  0.3766  0.0168
 3791SOL    HW123009   1.192   1.669   8.952  0.8621 -1.8679  1.8166
 3791SOL    HW223010   1.234   1.776   9.027  0.1710 -0.1559  0.7275
 3792SOL     OW23011   3.798   0.618   4.415 -0.4308 -0.0233 -0.1205
 3792SOL    HW123012   3.761   0.566   4.487  3.1669 -0.9478  1.0461
 3792SOL    HW223013   3.811   0.699   4.465  2.0384 -0.8092  0.4925
 3793SOL     OW23014   2.551   4.421  15.495  0.3236  0.0725 -0.3439
 3793SOL    HW123015   2.509   4.467  15.422  0.1973 -0.2718 -0.4864
 3793SOL    HW223016   2.567   4.332  15.465  0.4245  0.4131 -1.3044
 3794SOL     OW23017   2.586   2.741  12.638 -0.4344  0.4219 -0.3718
 3794SOL    HW123018   2.664   2.771  12.591 -0.4267  2.7834  1.1812
 3794SOL    HW223019   2.534   2.715  12.562  2.9407 -2.8186 -1.5897
 3795SOL     OW23020   2.092   4.120   3.071 -0.6727 -0.1191  0.2235
 3795SOL    HW123021   2.102   4.108   2.976  0.8025  2.1472  0.0705
 3795SOL    HW223022   2.112   4.033   3.105 -0.3536 -0.6104 -1.2095
 3796SOL     OW23023   1.564   0.764   0.140  0.6572 -0.7144  0.9828
 3796SOL    HW123024   1.650   0.771   0.098 -0.0920 -0.9906 -0.5562
 3796SOL    HW223025   1.568   0.834   0.206 -1.3688 -1.7545  2.1958
 3797SOL     OW23026   1.967   2.216   2.315  0.1574 -0.0669 -0.4056
 3797SOL    HW123027   1.935   2.152   2.378  0.0687  1.1162  0.7589
 3797SOL    HW223028   1.905   2.285   2.338  1.0960  1.1660 -1.5276
 3798SOL     OW23029   4.205   4.274   7.863  0.7025  0.3489  0.8129
 3798SOL    HW123030   4.243   4.197   7.822 -0.1942 -0.9419  2.4348
 3798SOL    HW223031   4.280   4.299   7.918  2.1171  1.3536 -1.5591
 3799SOL     OW23032   4.646   3.067  17.117  0.3577  0.0244 -1.1958
 3799SOL    HW123033   4.661   2.998  17.181 -0.7964  0.6155 -0.2867
 3799SOL    HW223034   4.586   3.017  17.061 -1.2093  0.2980  0.2387
 3800SOL     OW23035   0.590   0.591   4.464  0.1362  0.2156 -0.0903
 3800SOL    HW123036   0.659   0.654   4.443 -2.2236  1.6516 -3.6168
 3800SOL    HW223037   0.589   0.612   4.557 -0.6291 -1.1352  0.1953
 3801SOL     OW23038   0.550   0.818   1.870  0.5568 -0.1811  0.3530
 3801SOL    HW123039   0.568   0.741   1.924 -0.4967 -0.6690 -0.0153
 3801SOL    HW223040   0.629   0.837   1.818 -1.0499 -0.2050 -2.0821
 3802SOL     OW23041   4.271   1.436   1.261  0.3662 -0.1775 -0.7337
 3802SOL    HW123042   4.252   1.489   1.184 -0.9780  0.5567  0.1025
 3802SOL    HW223043   4.184   1.451   1.297 -0.3854 -2.5759 -1.4946
 3803SOL     OW23044   3.282   1.635  15.816 -0.6786 -0.3370 -0.0327
 3803SOL    HW123045   3.291   1.671  15.904 -0.6808  1.8535 -0.9259
 3803SOL    HW223046   3.188   1.649  15.804 -0.7425  0.9462  1.9582
 3804SOL     OW23047   1.791   2.593   4.937  0.1344  0.1724 -0.0181
 3804SOL    HW123048   1.723   2.640   4.984  0.0899  0.7921 -0.6951
 3804SOL    HW223049   1.866   2.604   4.996 -1.1573 -2.3568  2.0339
 3805SOL     OW23050   4.131   1.196   0.962 -0.2773  0.0003  0.4792
 3805SOL    HW123051   4.204   1.213   1.021 -1.6003  1.5422  1.6576
 3805SOL    HW223052   4.152   1.105   0.940  2.1718  0.9335 -1.1050
 3806SOL     OW23053   2.963   2.567   4.031 -0.1497  0.0683 -0.4812
 3806SOL    HW123054   3.019   2.583   3.954 -0.7827 -1.9158 -1.3523
 3806SOL    HW223055   2.888   2.531   3.984  0.3273  0.4408 -1.5355
 3807SOL     OW23056   0.199   2.843   7.386 -0.3457  0.4725  0.4909
 3807SOL    HW123057   0.134   2.779   7.415  1.5225 -1.5599  0.1876
 3807SOL    HW223058   0.188   2.842   7.291  1.2181  0.5941  0.3070
 3808SOL     OW23059   3.245   1.727   3.270  0.1627  0.5929  0.8887
 3808SOL    HW123060   3.329   1.742   3.226 -0.4639 -0.2624 -0.6131
 3808SOL    HW223061   3.245   1.639   3.307 -0.5638  0.7145  1.1647
 3809SOL     OW23062   2.402   2.095   9.467  0.1607  0.1973 -0.9273
 3809SOL    HW123063   2.485   2.077   9.512 -2.6010 -2.3246  3.1562
 3809SOL    HW223064   2.432   2.056   9.385  0.4164 -3.1322  0.7540
 3810SOL     OW23065   2.745   0.263   7.738  0.1112  0.1047 -0.4518
 3810SOL    HW123066   2.653   0.268   7.762  0.2794  0.3955  0.1351
 3810SOL    HW223067   2.781   0.345   7.772 -2.5445  0.7159  0.8232
 3811SOL     OW23068   2.352   1.114   4.391 -0.2614 -0.2454  0.0573
 3811SOL    HW123069   2.317   1.052   4.326  0.5647 -0.2039 -0.4333
 3811SOL    HW223070   2.437   1.131   4.350 -0.6567  1.2683 -0.1319
 3812SOL     OW23071   4.449   1.126   0.805 -0.1519  0.1317 -0.1849
 3812SOL    HW123072   4.515   1.162   0.865  0.1026  1.0191 -0.9822
 3812SOL    HW223073   4.377   1.104   0.865  0.2258  0.1158  0.2629
 3813SOL     OW23074   0.957   2.776  16.282 -0.4408  0.0603  0.3958
 3813SOL    HW123075   0.936   2.832  16.357 -1.1121 -1.4592  1.3374
 3813SOL    HW223076   1.047   2.756  16.306 -1.0142 -2.9299 -0.0110
 3814SOL     OW23077   0.602   4.109   6.056  0.6582  0.0763 -0.0366
 3814SOL    HW123078   0.621   4.174   6.123  1.1012 -0.0233 -0.0693
 3814SOL    HW223079   0.668   4.041   6.068 -1.0651 -1.4035  1.0741
 3815SOL     OW23080   0.348   2.584  17.067  0.1202 -0.0535  0.9469
 3815SOL    HW123081   0.439   2.608  17.081  0.0940 -1.2673  3.2075
 3815SOL    HW223082   0.356   2.523  16.994 -1.2647 -0.4177  1.1025
 3816SOL     OW23083   2.515   1.830   5.426 -0.1373 -0.3934  0.1175
 3816SOL    HW123084   2.558   1.754   5.386  0.5464  0.4972 -0.8475
 3816SOL    HW223085   2.539   1.807   5.516  1.0518 -1.4096 -0.4523
 3817SOL     OW23086   1.031   2.756  17.298 -0.1084 -0.3820 -0.1510
 3817SOL    HW123087   1.093   2.691  17.266  1.4526  1.3902 -0.7343
 3817SOL    HW223088   1.055   2.754  17.391  0.6875 -0.7729 -0.3673
 3818SOL     OW23089   0.172   3.028   1.624  0.4123  0.2200  0.6273
 3818SOL    HW123090   0.243   3.023   1.687 -1.1926  0.4105  2.4470
 3818SOL    HW223091   0.118   2.952   1.649 -0.8001  1.0546  0.5665
 3819SOL     OW23092   1.088   3.140   7.795 -0.0762 -0.4034  0.3365
 3819SOL    HW123093   1.033   3.087   7.738 -0.9926  0.2396  0.6348
 3819SOL    HW223094   1.132   3.185   7.723  1.5703 -2.7509 -0.1340
 3820SOL     OW23095   1.736   1.930   2.225  0.1361 -0.1017 -0.1211
 3820SOL    HW123096   1.692   2.011   2.198 -1.0658 -0.6294  0.2567
 3820SOL    HW223097   1.680   1.866   2.182 -1.1097  1.2864 -0.5691
 3821SOL     OW23098   3.312   1.265   9.547  0.0996  0.1819 -0.1382
 3821SOL    HW123099   3.267   1.192   9.504  0.0345 -0.0838  0.3909
 3821SOL    HW223100   3.387   1.256   9.488 -1.0746 -2.1306 -1.2974
 3822SOL     OW23101   0.961   2.386   1.016 -0.0735 -0.3364 -0.3593
 3822SOL    HW123102   1.026   2.454   1.006 -0.7128  0.2230 -0.7022
 3822SOL    HW223103   0.884   2.436   0.991  0.0263 -0.6589 -1.2910
 3823SOL     OW23104   1.805   0.621  17.716  0.1337  0.4076  0.1941
 3823SOL    HW123105   1.848   0.538  17.737  0.2324  0.6121  0.7859
 3823SOL    HW223106   1.840   0.625  17.627  0.0006  1.2050  0.1835
 3824SOL     OW23107   3.199   1.005   5.193  0.5526  0.5067 -0.0631
 3824SOL    HW123108   3.205   1.001   5.288 -0.1033  2.4817  0.0593
 3824SOL    HW223109   3.117   0.958   5.179  1.4001  0.0275 -3.4262
 3825SOL     OW23110   3.844   0.376  17.631 -0.4816  0.4199 -0.1829
 3825SOL    HW123111   3.903   0.302  17.642 -1.1024  0.2896  2.2060
 3825SOL    HW223112   3.759   0.342  17.660 -0.1051 -0.0966  0.3327
 3826SOL     OW23113   1.024   1.416   6.581 -0.0320  0.0549 -0.0255
 3826SOL    HW123114   1.112   1.398   6.549  0.3631  1.4314  0.2883
 3826SOL    HW223115   1.040   1.432   6.674 -1.2744 -1.5117  0.4612
 3827SOL     OW23116   0.298   3.329   9.471  0.2165  0.7012  0.1659
 3827SOL    HW123117   0.349   3.409   9.487 -0.6434  1.4244 -0.6597
 3827SOL    HW223118   0.329   3.322   9.381  1.7992 -0.7756  0.8407
 3828SOL     OW23119   3.065   3.984   9.740 -0.8001  0.0818  0.0249
 3828SOL    HW123120   2.988   3.977   9.795  0.8801 -1.5779  2.1955
 3828SOL    HW223121   3.139   3.936   9.778 -1.5235 -1.0975 -0.0469
 3829SOL     OW23122   4.572   4.141  13.419 -0.0436  0.5369 -0.0433
 3829SOL    HW123123   4.558   4.172  13.508 -0.2604  0.0638  0.0888
 3829SOL    HW223124   4.649   4.087  13.436  0.0410  0.3395 -1.0457
 3830SOL     OW23125   1.646   2.201   5.456  0.2173  0.7277 -0.1326
 3830SOL    HW123126   1.702   2.127   5.481 -0.8588 -0.4892 -1.3558
 3830SOL    HW223127   1.697   2.239   5.384  2.4072  0.3477  1.1968
 3831SOL     OW23128   1.006   0.881   8.591 -0.2524 -0.1836  0.2545
 3831SOL    HW123129   1.100   0.881   8.611 -0.4545  1.5056  1.1975
 3831SOL    HW223130   0.975   0.932   8.666 -1.7941 -2.1994  0.9794
 3832SOL     OW23131   4.680   1.166   0.983 -0.0335  0.1635  0.1607
 3832SOL    HW123132   0.000   1.161   1.058 -1.9245 -1.1230  1.5491
 3832SOL    HW223133   0.008   1.175   0.915 -0.4713  0.2551 -0.2598
 3833SOL     OW23134   1.401   4.348  17.608  0.2841  0.3104  0.5501
 3833SOL    HW123135   1.439   4.435  17.614 -1.0192  0.6913  2.8709
 3833SOL    HW223136   1.449   4.314  17.532  0.5596  1.3603  0.2627
 3834SOL     OW23137   0.470   0.232   6.611 -0.0235  0.7379  0.0014
 3834SOL    HW123138   0.540   0.187   6.659 -0.8512 -0.0408  0.4676
 3834SOL    HW223139   0.456   0.311   6.663  0.6874  0.4615  0.6253
 3835SOL     OW23140   4.566   2.292  12.183 -0.1237  0.5352  0.2710
 3835SOL    HW123141   4.594   2.208  12.218  1.3953  1.0623  0.3117
 3835SOL    HW223142   4.472   2.274  12.176  0.1060 -0.3861 -0.4879
 3836SOL     OW23143   2.764   0.415   1.750  0.4671 -0.2260 -0.9960
 3836SOL    HW123144   2.772   0.344   1.687  0.4324 -0.5355 -0.6506
 3836SOL    HW223145   2.850   0.405   1.791 -0.7246 -0.1914  1.5086
 3837SOL     OW23146   3.354   1.778   5.831  0.4632  0.4884 -0.1948
 3837SOL    HW123147   3.423   1.830   5.871 -1.0173  3.4481 -1.5050
 3837SOL    HW223148   3.336   1.845   5.765 -1.6445 -0.7926 -0.9170
 3838SOL     OW23149   1.527   2.278   4.873 -0.0192  0.4534  0.7533
 3838SOL    HW123150   1.461   2.339   4.839 -1.1990 -1.1617  0.1405
 3838SOL    HW223151   1.611   2.315   4.846 -0.4010 -0.5096 -1.7790
 3839SOL     OW23152   0.607   1.136  14.063  0.0104 -0.1381  0.2769
 3839SOL    HW123153   0.656   1.209  14.026  0.8729 -0.4136  0.8817
 3839SOL    HW223154   0.515   1.161  14.053  0.3857 -0.0080 -2.8961
 3840SOL     OW23155   3.527   4.088   4.675 -0.2140 -0.2191 -0.1416
 3840SOL    HW123156   3.607   4.040   4.655  0.0174  1.7277 -3.9828
 3840SOL    HW223157   3.557   4.122   4.759  1.0524  0.0452 -0.7008
 3841SOL     OW23158   2.504   1.619   1.813 -0.4106 -0.5066 -0.7306
 3841SOL    HW123159   2.590   1.646   1.844 -0.9137 -2.3083  2.2578
 3841SOL    HW223160   2.464   1.703   1.791 -2.3070 -1.7764 -2.1060
 3842SOL     OW23161   1.338   1.124   5.071 -0.2226 -0.9088 -0.1426
 3842SOL    HW123162   1.308   1.045   5.027 -0.9537 -0.8946  0.3309
 3842SOL    HW223163   1.261   1.176   5.049 -1.1610 -3.1608 -2.1482
 3843SOL     OW23164   0.804   0.909   7.251 -0.5167  0.3891  0.2408
 3843SOL    HW123165   0.726   0.930   7.302 -0.8887 -0.4252  0.0218
 3843SOL    HW223166   0.772   0.831   7.205  0.0010  1.1478 -1.4014
 3844SOL     OW23167   3.174   1.599  14.095 -0.1514  0.0234  0.3800
 3844SOL    HW123168   3.086   1.632  14.112  0.6201  1.2711  1.9556
 3844SOL    HW223169   3.160   1.505  14.087  0.2959 -0.0301  0.1955
 3845SOL     OW23170   3.501   0.557   3.002 -0.4160 -0.1120 -0.5197
 3845SOL    HW123171   3.413   0.521   2.988 -0.7633 -0.1021  1.6668
 3845SOL    HW223172   3.481   0.637   3.051 -0.7749 -0.2574 -0.4307
 3846SOL     OW23173   1.020   3.760   8.954  0.5140 -0.0411  0.4944
 3846SOL    HW123174   0.955   3.763   9.024 -1.2413 -0.3049 -1.1103
 3846SOL    HW223175   1.004   3.680   8.904  0.3147  1.4372 -1.8216
 3847SOL     OW23176   1.768   2.597   9.103 -0.6586  0.5291 -0.2175
 3847SOL    HW123177   1.721   2.664   9.053 -0.1480  0.5760 -0.6356
 3847SOL    HW223178   1.696   2.535   9.097  0.7361 -0.9368 -1.8162
 3848SOL     OW23179   0.225   0.453   5.543  0.3066  0.2951 -0.0428
 3848SOL    HW123180   0.185   0.529   5.587 -0.0609 -0.3301  0.7063
 3848SOL    HW223181   0.313   0.488   5.534  0.2653 -0.0155 -1.5945
 3849SOL     OW23182   3.728   1.382   6.301 -0.7978 -0.7545  0.0930
 3849SOL    HW123183   3.663   1.324   6.261  1.2868 -1.6962 -1.8942
 3849SOL    HW223184   3.800   1.325   6.327 -0.0865 -0.1342 -0.5530
 3850SOL     OW23185   1.563   1.566   3.071 -0.2673  0.1455 -0.7510
 3850SOL    HW123186   1.577   1.568   2.976 -0.6542 -0.2475 -0.8187
 3850SOL    HW223187   1.580   1.474   3.091  2.5309  0.7462 -0.3651
 3851SOL     OW23188   2.116   4.059  14.691 -0.2013 -0.3404 -0.2233
 3851SOL    HW123189   2.137   4.030  14.602  1.1314  0.0248 -0.0212
 3851SOL    HW223190   2.020   4.055  14.689 -0.2038 -0.7606  0.8621
 3852SOL     OW23191   1.359   4.703   3.389 -0.0328 -0.0944  0.0524
 3852SOL    HW123192   1.414   4.657   3.326  1.0437  1.0079  0.2018
 3852SOL    HW223193   1.307   4.635   3.434  0.3811 -0.1249  0.4874
 3853SOL     OW23194   1.371   2.044   7.310 -0.3252  0.0567 -0.3605
 3853SOL    HW123195   1.452   2.021   7.356 -0.5551 -1.2227 -0.5876
 3853SOL    HW223196   1.329   2.103   7.372 -2.0306 -0.7517 -0.7432
 3854SOL     OW23197   4.148   0.826   8.496  0.0697  0.5788 -0.2572
 3854SOL    HW123198   4.207   0.828   8.572  0.9914  1.0832 -0.9835
 3854SOL    HW223199   4.124   0.734   8.491 -0.6787  0.6950  1.0294
 3855SOL     OW23200   4.165   3.504   3.890 -0.1299  0.5305  0.0781
 3855SOL    HW123201   4.149   3.434   3.826 -1.0571  0.4900  0.3517
 3855SOL    HW223202   4.208   3.453   3.958 -0.0826  0.1474 -0.2401
 3856SOL     OW23203   1.799   0.480   9.230  0.0757  0.1362  0.1698
 3856SOL    HW123204   1.717   0.475   9.280  0.6631  1.4023  1.2474
 3856SOL    HW223205   1.837   0.553   9.278  3.1771 -1.5899  0.3184
 3857SOL     OW23206   3.400   0.522   6.410  0.3044 -0.5034 -0.1849
 3857SOL    HW123207   3.323   0.466   6.424  0.7052 -1.1377 -0.5283
 3857SOL    HW223208   3.364   0.596   6.458  2.6467  1.8365 -2.0236
 3858SOL     OW23209   0.557   0.516   3.880  0.0527 -0.1142 -0.2347
 3858SOL    HW123210   0.513   0.466   3.811 -0.0496 -1.0756  0.5243
 3858SOL    HW223211   0.518   0.475   3.957 -0.7691  1.5059  0.2016
 3859SOL     OW23212   2.344   3.697   7.447  0.4532 -0.5424  0.8896
 3859SOL    HW123213   2.300   3.733   7.370  1.7217  2.4216  1.5697
 3859SOL    HW223214   2.406   3.633   7.412  0.3237 -1.7481  2.8650
 3860SOL     OW23215   2.072   1.447   6.487 -0.1570  0.2236 -0.1819
 3860SOL    HW123216   2.050   1.536   6.514  1.2311  0.5298 -0.0619
 3860SOL    HW223217   2.060   1.453   6.393 -2.2477  1.4719  0.1763
 3861SOL     OW23218   4.094   2.639   3.252 -0.0403 -0.3259  0.1464
 3861SOL    HW123219   4.011   2.667   3.213  0.1416 -2.3045 -1.6930
 3861SOL    HW223220   4.073   2.655   3.344 -0.2992 -1.1781  0.2426
 3862SOL     OW23221   3.530   4.684   2.227  0.3653 -0.0513  0.0090
 3862SOL    HW123222   3.571   0.010   2.170  0.7513 -0.2889  0.0108
 3862SOL    HW223223   3.512   4.729   2.309 -1.3911  1.0539 -1.0034
 3863SOL     OW23224   1.019   4.167   6.601 -0.2276  0.2530 -0.3046
 3863SOL    HW123225   1.107   4.136   6.620 -0.7201 -1.7134 -1.1764
 3863SOL    HW223226   0.981   4.088   6.562 -0.9888 -0.3493  1.6768
 3864SOL     OW23227   0.912   1.252   3.369  0.1338  0.3291  0.1055
 3864SOL    HW123228   0.847   1.267   3.437 -1.7073 -0.3435 -1.5154
 3864SOL    HW223229   0.903   1.330   3.315  0.3744 -1.3762 -2.4521
 3865SOL     OW23230   2.106   2.240   7.631  0.4896  0.2195 -0.1956
 3865SOL    HW123231   2.092   2.205   7.543 -0.1887  1.7064 -0.6752
 3865SOL    HW223232   2.067   2.181   7.695 -0.9923 -0.0330 -1.3268
 3866SOL     OW23233   2.019   1.793  10.820  0.4769 -0.1981  0.2018
 3866SOL    HW123234   2.016   1.865  10.883  3.1014 -1.3657  1.6858
 3866SOL    HW223235   2.073   1.830  10.750 -1.6059  1.4384 -0.5397
 3867SOL     OW23236   1.060   0.662   6.326 -0.1105  0.0327  0.4373
 3867SOL    HW123237   1.090   0.583   6.281 -1.9784  0.7021 -2.0593
 3867SOL    HW223238   0.980   0.630   6.368 -0.1802  2.5384  2.2263
 3868SOL     OW23239   0.390   4.188   4.509 -0.6819  0.1248  0.5806
 3868SOL    HW123240   0.341   4.189   4.592 -0.3217  0.8277  0.7905
 3868SOL    HW223241   0.456   4.123   4.534  0.6549  1.7024  1.1571
 3869SOL     OW23242   1.613   0.790   2.138 -0.3256 -0.1071  0.0076
 3869SOL    HW123243   1.688   0.846   2.159  0.0796 -0.3500 -0.7418
 3869SOL    HW223244   1.549   0.819   2.202 -0.4957 -1.3619  0.4170
 3870SOL     OW23245   2.464   2.547   9.328 -0.4915 -0.4632  0.0935
 3870SOL    HW123246   2.377   2.537   9.367 -0.0088 -1.2022  0.9806
 3870SOL    HW223247   2.432   2.527   9.240  1.8180  0.9673 -1.0539
 3871SOL     OW23248   4.281   2.942   5.963 -0.2519 -0.0246  0.3987
 3871SOL    HW123249   4.202   2.915   6.010 -0.0565 -0.7179  0.3273
 3871SOL    HW223250   4.347   2.962   6.029 -0.2650  2.1288 -0.2517
 3872SOL     OW23251   3.525   4.098  17.235 -0.3111  0.5053 -0.2177
 3872SOL    HW123252   3.538   4.126  17.325 -0.5682  1.5703 -0.5037
 3872SOL    HW223253   3.586   4.161  17.195 -0.8404  0.8553 -0.4687
 3873SOL     OW23254   1.588   3.140   7.691 -0.1580  0.0694 -0.7688
 3873SOL    HW123255   1.674   3.169   7.719 -0.0087 -1.0382 -0.1007
 3873SOL    HW223256   1.538   3.174   7.765 -1.0811  1.5229 -2.0531
 3874SOL     OW23257   1.899   0.184   5.210 -0.1918  0.2540  0.3027
 3874SOL    HW123258   1.914   0.121   5.281 -0.1712 -0.5676 -0.4333
 3874SOL    HW223259   1.900   0.264   5.263  0.4029 -0.1818  0.9553
 3875SOL     OW23260   1.988   3.485   4.740  0.2537  0.0930  0.0030
 3875SOL    HW123261   2.031   3.421   4.684 -1.0836 -1.3566  0.6193
 3875SOL    HW223262   2.057   3.492   4.806  1.2848 -0.3588 -1.0256
 3876SOL     OW23263   3.858   0.022   2.369  0.5762  0.7364  0.1203
 3876SOL    HW123264   3.809   4.713   2.302 -0.7598  1.4963  0.5545
 3876SOL    HW223265   3.872   4.683   2.423  1.6491  1.6623  1.1642
 3877SOL     OW23266   3.774   1.616   8.533 -0.8564 -0.2210 -0.4274
 3877SOL    HW123267   3.723   1.610   8.613  1.9613  0.1953  1.4252
 3877SOL    HW223268   3.705   1.657   8.481 -1.1267 -0.6135 -0.3748
 3878SOL     OW23269   2.392   2.242   3.154 -0.4435 -0.0234  0.1087
 3878SOL    HW123270   2.321   2.178   3.148 -0.0582 -0.4554  0.2244
 3878SOL    HW223271   2.445   2.204   3.084  0.1504  2.0006 -0.5355
 3879SOL     OW23272   3.704   0.533   8.188  0.1476 -0.3917 -0.1414
 3879SOL    HW123273   3.798   0.550   8.189 -0.0651  0.6484  1.4710
 3879SOL    HW223274   3.669   0.606   8.136  0.7350  0.5400  0.7833
 3880SOL     OW23275   4.327   3.938   8.211 -0.1155 -0.0232 -0.0615
 3880SOL    HW123276   4.251   3.904   8.258 -0.5433  1.4476  0.3122
 3880SOL    HW223277   4.313   4.030   8.235 -1.6854 -0.5384  0.9515
 3881SOL     OW23278   1.153   4.241   3.584 -0.1352 -0.2955 -0.5665
 3881SOL    HW123279   1.163   4.271   3.675  0.0103 -0.1088 -0.6441
 3881SOL    HW223280   1.094   4.165   3.579  1.3691 -1.4586 -0.5641
 3882SOL     OW23281   3.993   2.155  15.556 -0.0982 -0.1363 -0.4950
 3882SOL    HW123282   3.915   2.193  15.595 -0.2638  0.3578 -1.3086
 3882SOL    HW223283   4.034   2.122  15.636 -1.7201  1.5122  1.0339
 3883SOL     OW23284   1.354   3.594   0.245 -0.4599 -0.5722  0.3156
 3883SOL    HW123285   1.297   3.625   0.315 -1.2822 -0.4662 -0.3911
 3883SOL    HW223286   1.292   3.555   0.182 -1.8326  0.4233  1.0590
 3884SOL     OW23287   3.825   3.282   7.427 -0.2324  0.1049 -0.1265
 3884SOL    HW123288   3.801   3.355   7.370 -1.2456 -0.2560 -0.1501
 3884SOL    HW223289   3.769   3.301   7.503 -0.1030  0.3173 -0.0845
 3885SOL     OW23290   0.812   2.267   2.780 -0.0139  0.7594  0.3816
 3885SOL    HW123291   0.817   2.312   2.864 -0.5461 -0.1153  0.8814
 3885SOL    HW223292   0.856   2.338   2.733  1.7703  1.5760  3.3211
 3886SOL     OW23293   2.489   0.707   1.995 -0.1358 -0.4015  0.5685
 3886SOL    HW123294   2.580   0.694   2.020 -0.2351 -1.3904  0.4196
 3886SOL    HW223295   2.448   0.742   2.074 -2.1559 -1.5774  0.0358
 3887SOL     OW23296   3.440   2.655   0.630  0.0666  0.1409 -0.0604
 3887SOL    HW123297   3.463   2.674   0.721  0.7667  1.7576 -0.5795
 3887SOL    HW223298   3.367   2.715   0.620 -1.7248 -2.0516 -0.1269
 3888SOL     OW23299   3.289   1.043   8.948  0.2507  0.4153 -0.1899
 3888SOL    HW123300   3.343   1.026   9.026  0.1667  0.6927 -0.0684
 3888SOL    HW223301   3.222   0.976   8.952  0.8468 -0.1909 -0.4522
 3889SOL     OW23302   4.071   1.351   3.883 -0.1715 -0.4549  0.4555
 3889SOL    HW123303   4.003   1.283   3.881  0.9377 -1.5805  1.0562
 3889SOL    HW223304   4.132   1.304   3.939 -0.7942  0.7449  2.1577
 3890SOL     OW23305   1.766   2.166   7.672  0.2769 -0.6404 -0.1252
 3890SOL    HW123306   1.741   2.150   7.763 -0.3823 -2.0052 -0.5477
 3890SOL    HW223307   1.754   2.260   7.658  0.2449 -0.5180  0.7348
 3891SOL     OW23308   3.938   3.090   8.008 -0.1465 -0.4292 -0.5405
 3891SOL    HW123309   3.942   3.029   8.082  1.4585  1.7487  1.1790
 3891SOL    HW223310   3.927   3.025   7.939  0.7560 -1.9386  0.7516
 3892SOL     OW23311   0.963   3.218   9.314  0.4563 -0.3992 -0.1120
 3892SOL    HW123312   0.929   3.295   9.362  2.9229 -0.3916  1.6114
 3892SOL    HW223313   1.032   3.258   9.262  0.6306  1.4617  1.5349
 3893SOL     OW23314   3.667   1.020   1.732  0.2282  0.3656 -0.7251
 3893SOL    HW123315   3.643   0.931   1.756  0.1186  0.4007 -0.7017
 3893SOL    HW223316   3.594   1.047   1.676 -2.2584 -0.9805  1.8542
 3894SOL     OW23317   3.160   0.246   0.211  0.0837  0.5394 -0.7254
 3894SOL    HW123318   3.092   0.226   0.276  0.1813 -1.1755 -1.1534
 3894SOL    HW223319   3.122   0.327   0.176  0.6303  0.5974 -1.1842
 3895SOL     OW23320   2.053   3.774   2.848  0.2824  0.3475 -0.3066
 3895SOL    HW123321   2.131   3.769   2.793 -0.2882 -2.0443 -0.8800
 3895SOL    HW223322   2.030   3.683   2.864 -1.7491  0.8878 -0.1061
 3896SOL     OW23323   3.471   2.748   8.860 -0.6560 -0.0852 -0.4687
 3896SOL    HW123324   3.485   2.676   8.922 -0.3562 -0.0950 -0.5486
 3896SOL    HW223325   3.382   2.776   8.882 -0.8021 -0.4308 -0.6292
 3897SOL     OW23326   0.942   4.670   3.050 -0.4456  0.3135 -0.5198
 3897SOL    HW123327   0.928   4.582   3.084 -0.1494  1.0693  1.5104
 3897SOL    HW223328   0.986   4.716   3.122 -1.2730  0.1820  0.0617
 3898SOL     OW23329   4.092   1.893   0.057  0.2697 -0.4987  0.4038
 3898SOL    HW123330   4.124   1.956  17.746  0.5232  0.7030  1.7184
 3898SOL    HW223331   4.014   1.851   0.021  0.2255  0.1626 -0.2641
 3899SOL     OW23332   1.505   0.124   7.508  0.0584  0.0051 -0.4521
 3899SOL    HW123333   1.415   0.144   7.485  1.0101  0.6786 -3.6280
 3899SOL    HW223334   1.535   0.209   7.542  1.1334  0.1370 -1.6816
 3900SOL     OW23335   3.464   2.435   6.866  0.1392  0.0509  0.1472
 3900SOL    HW123336   3.444   2.381   6.789 -0.5488 -0.2042  0.4986
 3900SOL    HW223337   3.376   2.471   6.869  0.2730  0.1439  2.7873
 3901SOL     OW23338   4.242   0.765   7.998 -0.1603 -0.3682  0.2917
 3901SOL    HW123339   4.299   0.842   7.995 -0.3517 -0.1489  2.1274
 3901SOL    HW223340   4.258   0.711   7.921  0.3251  0.7722 -0.4081
 3902SOL     OW23341   4.328   2.989   4.916  0.3361  0.4174  0.0957
 3902SOL    HW123342   4.409   2.952   4.881 -1.1370 -3.3440  0.6980
 3902SOL    HW223343   4.285   3.027   4.839  1.0296 -0.6613 -0.8335
 3903SOL     OW23344   2.963   2.701  11.052 -0.0878 -0.0930 -0.4687
 3903SOL    HW123345   2.968   2.748  10.969  1.4185 -0.8489 -0.8028
 3903SOL    HW223346   3.047   2.732  11.086  0.6464 -2.4892 -0.0771
 3904SOL     OW23347   0.137   2.631  16.824 -0.1219  0.2453  0.3038
 3904SOL    HW123348   0.221   2.601  16.861  0.8354  1.4163 -0.9218
 3904SOL    HW223349   0.169   2.695  16.761 -2.2644  1.1816  0.1804
 3905SOL     OW23350   1.204   3.657   8.612 -0.1346 -0.3076  0.0350
 3905SOL    HW123351   1.264   3.722   8.650 -1.6063  0.6901  0.6342
 3905SOL    HW223352   1.266   3.613   8.553 -0.2566  1.6769 -1.5902
 3906SOL     OW23353   3.325   1.852  14.506 -0.2315  0.7042 -0.1988
 3906SOL    HW123354   3.393   1.856  14.573 -0.5990 -1.2139  0.3043
 3906SOL    HW223355   3.370   1.836  14.424 -2.2456 -2.4627 -0.7205
 3907SOL     OW23356   1.231   1.638   0.913  0.0144  0.4248 -0.0031
 3907SOL    HW123357   1.298   1.698   0.945 -0.7235 -0.1812  2.6599
 3907SOL    HW223358   1.175   1.703   0.871 -1.1370  0.4067  1.5114
 3908SOL     OW23359   1.189   1.584  11.020  0.0712  0.2049  0.2358
 3908SOL    HW123360   1.261   1.646  11.009 -1.2819  1.4307 -1.6446
 3908SOL    HW223361   1.237   1.502  11.008 -1.4120 -0.5667 -0.3461
 3909SOL     OW23362   0.603   1.341   6.379 -0.5858 -0.7759  0.3342
 3909SOL    HW123363   0.659   1.351   6.456  0.1581  0.5477 -0.3707
 3909SOL    HW223364   0.526   1.390   6.405  0.6406  2.0735 -1.4051
 3910SOL     OW23365   3.952   2.848   0.277 -0.0247 -0.3982 -0.5873
 3910SOL    HW123366   3.914   2.835   0.191 -2.6222 -0.2599  0.5415
 3910SOL    HW223367   4.035   2.890   0.254  0.4397 -0.6272  0.6768
 3911SOL     OW23368   3.508   0.353  12.266  0.0661 -0.4052  0.1595
 3911SOL    HW123369   3.507   0.306  12.349 -2.9763 -0.2211  0.2177
 3911SOL    HW223370   3.421   0.326  12.238 -0.6891  1.8279  0.3273
 3912SOL     OW23371   0.363   0.462   5.093 -0.0882 -0.1266 -0.2954
 3912SOL    HW123372   0.313   0.445   5.172 -0.1617  3.9636  0.5478
 3912SOL    HW223373   0.345   0.381   5.045  0.5365 -0.3437 -0.1629
 3913SOL     OW23374   3.237   1.412  11.099 -0.1025 -0.4321  0.0409
 3913SOL    HW123375   3.196   1.409  11.186  0.2774  0.3095  0.2427
 3913SOL    HW223376   3.207   1.497  11.069  0.4437 -0.1292  0.3469
 3914SOL     OW23377   3.120   2.925  11.731 -0.0903 -0.5361 -0.1312
 3914SOL    HW123378   3.088   2.872  11.803 -0.6452 -0.0522 -0.0184
 3914SOL    HW223379   3.188   2.972  11.778  0.2037 -1.1412  0.0438
 3915SOL     OW23380   0.664   1.904   2.418 -0.1667  0.2223 -0.0025
 3915SOL    HW123381   0.740   1.848   2.437 -0.2031 -0.1079 -0.8523
 3915SOL    HW223382   0.688   1.901   2.326 -2.5204  1.4865 -0.6400
 3916SOL     OW23383   3.959   4.517   4.635 -0.1796 -0.5654 -0.2816
 3916SOL    HW123384   3.897   4.452   4.668 -0.1612 -0.3785  0.1207
 3916SOL    HW223385   3.988   4.567   4.711  1.0284 -1.0908 -0.3955
 3917SOL     OW23386   3.205   1.448   4.620  0.0153  0.2468 -0.4663
 3917SOL    HW123387   3.133   1.449   4.683 -0.7147  0.2877 -1.3072
 3917SOL    HW223388   3.215   1.542   4.606  0.0715  0.4265  0.8519
 3918SOL     OW23389   1.982   2.056  11.493 -0.2889  0.3058  0.1143
 3918SOL    HW123390   1.975   1.960  11.491 -0.1296  0.2320  4.5769
 3918SOL    HW223391   2.008   2.081  11.404  0.0185  1.2965  0.4843
 3919SOL     OW23392   2.213   2.434   7.967  0.0485 -0.4489  0.0660
 3919SOL    HW123393   2.195   2.456   7.875 -0.0384 -2.9346 -0.5205
 3919SOL    HW223394   2.173   2.508   8.012  1.5155  0.4235 -0.0793
 3920SOL     OW23395   1.531   1.919  14.947  0.0003 -0.0343  0.6609
 3920SOL    HW123396   1.588   1.871  15.008  0.4819 -0.1653  0.1173
 3920SOL    HW223397   1.534   2.007  14.984 -1.0288  0.1467  0.3127
 3921SOL     OW23398   0.997   0.083   2.818  0.0174  0.2106 -0.1594
 3921SOL    HW123399   1.016   0.168   2.857  2.2089 -0.1714 -0.4163
 3921SOL    HW223400   0.974   0.039   2.900  1.1399  0.4411  0.2783
 3922SOL     OW23401   1.821   1.143   3.032 -0.7214 -0.0923  0.4463
 3922SOL    HW123402   1.816   1.238   3.025 -0.4368 -0.2408 -1.8351
 3922SOL    HW223403   1.912   1.121   3.012 -0.4353  0.2807  1.3470
 3923SOL     OW23404   3.302   3.903   3.038 -0.0783  0.4590  0.1572
 3923SOL    HW123405   3.366   3.849   3.085  0.1755 -1.0195 -1.9308
 3923SOL    HW223406   3.344   3.908   2.952 -1.0296  0.0354 -0.3264
 3924SOL     OW23407   0.008   3.267   6.466 -0.0579 -0.0442 -0.0038
 3924SOL    HW123408   4.663   3.240   6.504  0.6313 -0.6873  1.0518
 3924SOL    HW223409   0.035   3.346   6.514  0.6933 -1.8878  2.5921
 3925SOL     OW23410   0.913   2.474   8.291  0.2916 -0.6458 -0.3685
 3925SOL    HW123411   0.882   2.562   8.268  2.2406  0.3759  0.9679
 3925SOL    HW223412   0.980   2.488   8.357 -0.3930  1.0683 -0.0185
 3926SOL     OW23413   4.254   0.066   5.572 -0.5604  0.7182 -0.3053
 3926SOL    HW123414   4.222   4.716   5.589  0.4521  0.4145  0.0188
 3926SOL    HW223415   4.197   0.116   5.631  0.0359 -0.1821  1.0371
 3927SOL     OW23416   2.545   2.760   4.894 -0.0757 -0.0272 -0.6496
 3927SOL    HW123417   2.609   2.692   4.873  1.9828  1.5786  0.4236
 3927SOL    HW223418   2.538   2.745   4.989 -2.5069 -0.2577 -0.8530
 3928SOL     OW23419   2.971   3.051   2.708  0.3854 -0.0130 -0.0678
 3928SOL    HW123420   2.901   3.112   2.732  0.9312  1.1149 -1.3399
 3928SOL    HW223421   2.963   2.983   2.774  0.5698  0.9673  0.9512
 3929SOL     OW23422   0.332   2.800  14.785 -0.1359 -0.2792 -0.4559
 3929SOL    HW123423   0.301   2.733  14.845 -0.2805 -0.3945 -0.6588
 3929SOL    HW223424   0.373   2.750  14.714 -0.2573  1.1800 -1.5731
 3930SOL     OW23425   0.365   2.817  10.201 -0.2385 -0.5192 -0.1744
 3930SOL    HW123426   0.433   2.799  10.136 -0.1663  0.3147 -0.3302
 3930SOL    HW223427   0.292   2.782  10.149 -0.0527  1.6066 -1.8856
 3931SOL     OW23428   3.697   2.274  14.655  0.2008  0.1908 -0.5753
 3931SOL    HW123429   3.650   2.283  14.572  1.5475 -1.7939 -1.5479
 3931SOL    HW223430   3.781   2.316  14.635  0.9141 -1.1832 -0.3986
 3932SOL     OW23431   4.014   2.748  11.581  0.4703 -0.0522 -0.0776
 3932SOL    HW123432   4.008   2.709  11.668 -1.5160  0.7836  0.1496
 3932SOL    HW223433   3.925   2.782  11.582  0.4520 -0.1068  0.0564
 3933SOL     OW23434   4.375   0.783   4.417 -0.0194  0.1447  0.4446
 3933SOL    HW123435   4.308   0.817   4.358 -1.5300 -0.2686  1.9417
 3933SOL    HW223436   4.399   0.862   4.466  1.1649  1.6353 -2.4902
 3934SOL     OW23437   0.433   3.066   1.190 -0.1242 -0.4786 -0.2399
 3934SOL    HW123438   0.385   3.109   1.260 -1.5099  1.5700 -2.4443
 3934SOL    HW223439   0.429   3.139   1.128  4.3381 -0.4421 -0.4780
 3935SOL     OW23440   2.228   1.593   6.974 -0.0980  0.1359  0.4967
 3935SOL    HW123441   2.262   1.665   7.026 -2.2383  0.9783  0.7412
 3935SOL    HW223442   2.168   1.643   6.918  1.0162 -0.4724 -1.2371
 3936SOL     OW23443   4.447   2.239   7.649 -0.0947 -0.1643  0.9031
 3936SOL    HW123444   4.507   2.220   7.577 -0.4058  2.3078 -0.0362
 3936SOL    HW223445   4.367   2.255   7.599 -0.0156  1.3717  1.2591
 3937SOL     OW23446   3.320   4.273   5.764 -0.0955  0.0615  0.2900
 3937SOL    HW123447   3.290   4.236   5.847  1.7150 -0.2993  0.7751
 3937SOL    HW223448   3.406   4.304   5.792 -1.5685  4.8760 -0.5545
 3938SOL     OW23449   2.625   0.025   2.755 -0.2888  0.2234  0.0020
 3938SOL    HW123450   2.579   4.690   2.714  0.8135 -0.6899  0.4053
 3938SOL    HW223451   2.594   0.101   2.706  0.1236 -0.0890 -0.7319
 3939SOL     OW23452   0.730   3.844   6.929  0.0624 -0.7899  0.1975
 3939SOL    HW123453   0.762   3.918   6.981 -0.4769 -0.3876 -0.0376
 3939SOL    HW223454   0.666   3.810   6.992  1.3438  0.4261  2.1546
 3940SOL     OW23455   3.124   1.702   8.460 -0.1124  0.0462  0.1435
 3940SOL    HW123456   3.158   1.751   8.535  1.0964  1.3720 -1.2695
 3940SOL    HW223457   3.039   1.743   8.446 -0.3135 -0.5465 -0.3493
 3941SOL     OW23458   1.188   1.116  14.632 -0.5354  0.2300  0.1712
 3941SOL    HW123459   1.177   1.033  14.586  4.0351 -0.3257  0.0445
 3941SOL    HW223460   1.104   1.159  14.648 -0.6528  1.1546 -2.9885
 3942SOL     OW23461   1.976   1.807   1.522 -0.5094  0.3197 -0.2031
 3942SOL    HW123462   2.007   1.851   1.443 -3.6523 -1.2903 -2.3568
 3942SOL    HW223463   1.904   1.754   1.487 -0.4233  0.0924 -0.0371
 3943SOL     OW23464   2.584   3.559   8.088  0.5055 -0.0048 -0.3708
 3943SOL    HW123465   2.648   3.578   8.157  0.3789 -1.3016  0.0946
 3943SOL    HW223466   2.503   3.530   8.131 -0.5256  1.6959 -1.1633
 3944SOL     OW23467   1.820   2.101  12.655  0.1855 -0.3117  0.0138
 3944SOL    HW123468   1.863   2.024  12.617 -0.1027 -1.3208  1.7183
 3944SOL    HW223469   1.737   2.072  12.693  0.5387 -0.1186  0.9370
 3945SOL     OW23470   1.951   4.479   7.392 -0.2527 -0.0589 -0.2238
 3945SOL    HW123471   1.885   4.548   7.384 -2.6016 -2.2529  0.0320
 3945SOL    HW223472   2.014   4.532   7.441  1.0142 -0.8071 -1.0520
 3946SOL     OW23473   0.027   3.802   2.796 -0.7236 -0.3983 -0.4408
 3946SOL    HW123474   0.063   3.713   2.802 -1.0948 -0.5579 -0.5671
 3946SOL    HW223475   4.733   3.811   2.885  0.4987  0.2786 -0.0608
 3947SOL     OW23476   1.082   4.148   5.998 -0.4596 -0.1855  0.2179
 3947SOL    HW123477   1.112   4.153   6.088 -0.6068  0.7680  0.2221
 3947SOL    HW223478   1.039   4.234   5.991  2.3740  1.3419  1.5320
 3948SOL     OW23479   3.592   0.980  14.488  0.2217  0.3245 -0.6076
 3948SOL    HW123480   3.621   0.918  14.556 -0.1596  1.6154  0.7379
 3948SOL    HW223481   3.551   1.042  14.548  0.9017  0.6383 -0.4757
 3949SOL     OW23482   3.252   0.923   0.638 -0.2370 -0.5000  0.2152
 3949SOL    HW123483   3.269   0.926   0.544  1.3771  0.1045  0.5230
 3949SOL    HW223484   3.299   1.004   0.659 -1.8732  0.4771  0.1455
 3950SOL     OW23485   3.243   0.132   0.728  0.3026  0.0371  0.2849
 3950SOL    HW123486   3.265   0.047   0.766 -0.4967 -0.7509 -0.9899
 3950SOL    HW223487   3.258   0.116   0.635  1.6183  1.1239  0.2942
 3951SOL     OW23488   2.514   0.475   5.795  0.5026  0.4375  0.3181
 3951SOL    HW123489   2.513   0.406   5.861 -2.3486  1.5267  1.3956
 3951SOL    HW223490   2.424   0.500   5.774  0.4064 -0.0068  0.2061
 3952SOL     OW23491   2.952   4.408  16.905  0.6786 -0.3460 -0.0569
 3952SOL    HW123492   3.031   4.380  16.857  1.1988 -1.3681  1.4194
 3952SOL    HW223493   2.999   4.455  16.974  0.6738  0.6035 -0.6933
 3953SOL     OW23494   4.449   2.765   9.468 -0.2788  0.5307  0.1588
 3953SOL    HW123495   4.518   2.831   9.457  0.6620 -0.6344 -0.9711
 3953SOL    HW223496   4.377   2.828   9.467 -1.3219 -0.6413  1.1814
 3954SOL     OW23497   2.858   1.762   0.613 -0.1977 -0.0338  0.1394
 3954SOL    HW123498   2.924   1.747   0.546  1.7852 -0.7980  2.2861
 3954SOL    HW223499   2.783   1.775   0.555  0.2703 -0.5645 -0.5770
 3955SOL     OW23500   3.950   0.711  14.171 -0.0693 -0.1634  0.5326
 3955SOL    HW123501   4.000   0.636  14.203  0.3856  0.0223  0.2548
 3955SOL    HW223502   4.000   0.753  14.101 -2.5585  2.0713  0.0911
 3956SOL     OW23503   2.283   0.386   6.223  0.2941  0.2255 -0.0172
 3956SOL    HW123504   2.241   0.383   6.309  0.2803 -0.6667 -0.0545
 3956SOL    HW223505   2.374   0.401   6.250 -0.0663  1.2489  0.6042
 3957SOL     OW23506   3.401   0.412   4.855 -0.0247 -0.3447 -0.9017
 3957SOL    HW123507   3.403   0.376   4.767 -0.5240 -1.0946 -0.6025
 3957SOL    HW223508   3.335   0.355   4.895 -0.0343  0.4111  0.1756
 3958SOL     OW23509   2.836   1.844   2.715  0.4590 -0.4836 -0.0133
 3958SOL    HW123510   2.810   1.752   2.722 -1.1594 -0.0631 -0.5499
 3958SOL    HW223511   2.902   1.829   2.648  1.0382  1.8499  0.0402
 3959SOL     OW23512   2.694   3.276   4.349 -0.1258  0.1402  0.4869
 3959SOL    HW123513   2.722   3.351   4.401  1.6683 -0.0871 -0.1348
 3959SOL    HW223514   2.757   3.275   4.276  1.8924  0.6005  2.2418
 3960SOL     OW23515   1.700   1.840   7.201  0.0001  0.4950 -0.0764
 3960SOL    HW123516   1.771   1.830   7.265  2.4288  0.4720 -2.7791
 3960SOL    HW223517   1.670   1.749   7.198  2.4131 -0.2903  0.1287
 3961SOL     OW23518   2.456   2.113   4.700  0.2760  0.1811 -0.2867
 3961SOL    HW123519   2.524   2.057   4.663  1.2959  1.6582 -0.6698
 3961SOL    HW223520   2.486   2.139   4.787  0.5798 -1.2813  0.0432
 3962SOL     OW23521   4.429   0.553  16.251 -0.4940 -0.1398  0.1464
 3962SOL    HW123522   4.386   0.468  16.238 -0.5997 -0.4107  2.3203
 3962SOL    HW223523   4.503   0.534  16.309  0.1229  1.7954 -0.0052
 3963SOL     OW23524   4.588   4.251   6.475 -0.6660 -0.3242 -0.1609
 3963SOL    HW123525   4.537   4.328   6.448 -0.1775  0.2849  0.6511
 3963SOL    HW223526   4.563   4.242   6.566  1.8725 -1.6411  0.4111
 3964SOL     OW23527   3.299   0.045   5.824  0.2419  0.1517  0.3723
 3964SOL    HW123528   3.223   0.058   5.881  1.5669  1.2051  1.9216
 3964SOL    HW223529   3.305   0.133   5.787  0.3504  0.2605  0.6426
 3965SOL     OW23530   2.097   3.824   3.105 -0.2852 -0.3863  0.3308
 3965SOL    HW123531   2.072   3.818   3.013 -0.6543 -2.4358  0.5697
 3965SOL    HW223532   2.049   3.752   3.146  1.3316 -2.9242 -2.3046
 3966SOL     OW23533   1.515   1.886   7.549 -0.4092 -0.1754 -0.2316
 3966SOL    HW123534   1.444   1.931   7.593 -0.1682 -0.7277  0.7282
 3966SOL    HW223535   1.485   1.796   7.564  1.2718 -0.6438  0.4287
 3967SOL     OW23536   3.318   0.684   1.882 -0.5232  0.1517  0.1078
 3967SOL    HW123537   3.265   0.610   1.851 -1.1907  1.1525 -1.1449
 3967SOL    HW223538   3.303   0.664   1.974  0.7644 -0.3000  0.2214
 3968SOL     OW23539   1.967   3.526   4.051  0.5102 -0.5013  0.0025
 3968SOL    HW123540   1.901   3.595   4.050  1.3196  0.2609 -1.4431
 3968SOL    HW223541   2.041   3.584   4.035  0.6848 -0.3679  1.3225
 3969SOL     OW23542   4.333   0.139  16.914 -0.2324  0.1447  0.2073
 3969SOL    HW123543   4.245   0.150  16.877  0.2399 -1.7983 -1.4190
 3969SOL    HW223544   4.377   0.187  16.844 -0.4638  1.5929  1.0432
 3970SOL     OW23545   3.781   0.051  12.860 -0.0111  0.3646  0.0203
 3970SOL    HW123546   3.874   0.072  12.859 -0.8393  4.0035  0.0556
 3970SOL    HW223547   3.739   0.137  12.851  1.3889  1.0013 -0.2923
 3971SOL     OW23548   2.313   2.200   5.663 -0.1175 -0.0718  0.6390
 3971SOL    HW123549   2.287   2.108   5.656 -1.2044  0.4430 -1.9545
 3971SOL    HW223550   2.227   2.242   5.658 -0.2880 -0.4817  0.2113
 3972SOL     OW23551   0.750   3.869   7.627  0.2724 -0.4834  0.4863
 3972SOL    HW123552   0.689   3.795   7.620 -0.8274  0.3519  1.2714
 3972SOL    HW223553   0.805   3.848   7.703  0.4029  1.9350  1.0545
 3973SOL     OW23554   1.236   3.815  15.365  0.1393  0.2033 -0.3084
 3973SOL    HW123555   1.283   3.845  15.443 -0.1701  0.6802 -0.3035
 3973SOL    HW223556   1.186   3.897  15.362 -0.9856 -0.5231 -1.4524
 3974SOL     OW23557   0.978   2.631   7.741  0.8790 -0.4136  0.5279
 3974SOL    HW123558   1.057   2.631   7.687 -0.1877 -1.4458 -1.0225
 3974SOL    HW223559   0.912   2.642   7.672 -0.4564 -1.3631  1.6596
 3975SOL     OW23560   1.134   1.346   3.980 -0.1853 -0.2839 -0.3211
 3975SOL    HW123561   1.124   1.345   4.075  2.7254  0.1173 -0.0116
 3975SOL    HW223562   1.075   1.275   3.954 -0.0524 -0.3096 -0.5578
 3976SOL     OW23563   0.334   1.911  10.842 -0.4489  0.2245  0.4324
 3976SOL    HW123564   0.387   1.896  10.920 -1.5199 -0.4437  1.0245
 3976SOL    HW223565   0.299   1.994  10.876  1.4815  1.0409  0.4322
 3977SOL     OW23566   3.426   0.847   2.250 -0.9951 -0.2149 -0.2578
 3977SOL    HW123567   3.336   0.866   2.226 -1.3931  0.9870  2.1851
 3977SOL    HW223568   3.474   0.893   2.180 -0.8116  3.1129  2.0429
 3978SOL     OW23569   3.834   2.848   6.841 -0.5277  0.4034  0.3928
 3978SOL    HW123570   3.850   2.857   6.935 -1.8421 -0.1762  0.6859
 3978SOL    HW223571   3.857   2.936   6.811  0.0193  0.0328 -0.2652
 3979SOL     OW23572   0.314   1.653  15.126  0.2925  0.3880  0.4124
 3979SOL    HW123573   0.392   1.658  15.180  1.2367 -0.0611 -0.9201
 3979SOL    HW223574   0.272   1.569  15.146  0.1718  0.5684  0.9278
 3980SOL     OW23575   2.036   2.421   9.590  0.3710  0.4743 -0.6682
 3980SOL    HW123576   2.056   2.431   9.683  1.2029 -1.1687 -0.6706
 3980SOL    HW223577   2.117   2.382   9.557  0.1261 -1.1276  0.6395
 3981SOL     OW23578   2.544   3.681   6.727  0.0660  0.2384 -0.2758
 3981SOL    HW123579   2.453   3.703   6.706 -0.4412  1.1787  2.9005
 3981SOL    HW223580   2.565   3.728   6.807 -2.5978  1.1024 -0.0791
 3982SOL     OW23581   2.321   0.599   6.636 -0.0825 -0.3372  0.6237
 3982SOL    HW123582   2.369   0.665   6.587  0.6894 -0.5559  1.0874
 3982SOL    HW223583   2.331   0.522   6.579  0.0954  1.5808 -1.9415
 3983SOL     OW23584   1.288   1.476   6.469  0.3271  0.5707 -0.2409
 3983SOL    HW123585   1.384   1.465   6.464  0.3680  0.8362 -0.0008
 3983SOL    HW223586   1.277   1.554   6.522 -1.8551 -0.3931  0.6980
 3984SOL     OW23587   2.157   2.451   3.678 -0.0341 -0.3892 -0.0466
 3984SOL    HW123588   2.152   2.547   3.673  0.2869 -0.5263 -2.5817
 3984SOL    HW223589   2.065   2.430   3.694 -0.1062 -1.4009 -1.8083
 3985SOL     OW23590   2.874   4.310   3.352  0.5655 -0.4389  0.2159
 3985SOL    HW123591   2.834   4.346   3.273  0.9781  0.3349  0.3656
 3985SOL    HW223592   2.903   4.224   3.322  0.4474 -1.0414  1.8296
 3986SOL     OW23593   4.348   3.303  10.979 -0.0648  0.1064 -0.1821
 3986SOL    HW123594   4.311   3.239  11.040 -0.7632 -0.3166 -1.0565
 3986SOL    HW223595   4.421   3.264  10.931  0.3315  0.8256 -0.1654
 3987SOL     OW23596   3.841   0.440   5.837  0.1380  0.1184 -0.0440
 3987SOL    HW123597   3.885   0.424   5.754 -0.3815  0.4078 -0.3765
 3987SOL    HW223598   3.825   0.355   5.877  0.3494 -0.5894 -1.4769
 3988SOL     OW23599   4.684   3.679   4.540 -0.5132 -0.2109  0.3836
 3988SOL    HW123600   4.633   3.742   4.488 -2.1572 -1.3253  0.6360
 3988SOL    HW223601   4.672   3.718   4.627  0.5913  2.2666 -0.5705
 3989SOL     OW23602   3.574   3.183   9.145 -0.0024  0.0357  0.5852
 3989SOL    HW123603   3.493   3.219   9.108  0.0894  1.0672  1.3879
 3989SOL    HW223604   3.632   3.257   9.126 -1.0873  0.9269  0.7699
 3990SOL     OW23605   1.319   3.887   3.590 -0.0717  0.3780  0.8512
 3990SOL    HW123606   1.382   3.820   3.617  1.1293  1.6077  1.1111
 3990SOL    HW223607   1.360   3.961   3.636 -0.5534  0.3750  1.2776
 3991SOL     OW23608   2.045   2.390  17.685 -0.0608  0.5299 -0.3485
 3991SOL    HW123609   2.089   2.475  17.675 -0.6998  0.8466 -0.4532
 3991SOL    HW223610   2.042   2.371  17.592  2.7286 -2.3410  0.1351
 3992SOL     OW23611   2.674   3.873  11.984  0.1521 -0.1208 -0.2951
 3992SOL    HW123612   2.583   3.848  11.998 -0.1803  0.0433 -2.1605
 3992SOL    HW223613   2.707   3.898  12.070 -0.2010  0.7948 -0.4228
 3993SOL     OW23614   3.231   3.610  15.350 -0.5886  0.0794 -0.5402
 3993SOL    HW123615   3.286   3.683  15.323 -2.1185  0.4745 -2.5791
 3993SOL    HW223616   3.173   3.615  15.274 -3.1191 -0.0837  1.3718
 3994SOL     OW23617   1.755   3.166   4.042 -0.2886  0.5521  0.3320
 3994SOL    HW123618   1.732   3.253   4.076  1.6746  2.2261 -2.6871
 3994SOL    HW223619   1.705   3.113   4.104  0.4749 -1.4034 -0.7232
 3995SOL     OW23620   0.737   1.481   2.818  0.1630 -0.5486 -0.2568
 3995SOL    HW123621   0.661   1.476   2.760 -0.4637 -0.4324  0.5621
 3995SOL    HW223622   0.749   1.388   2.836  0.4439 -0.4303  0.1553
 3996SOL     OW23623   2.861   0.235   2.933 -0.0257 -0.2169  0.3471
 3996SOL    HW123624   2.779   0.199   2.968  0.1444  3.2058  4.3428
 3996SOL    HW223625   2.881   0.166   2.870 -0.5759 -1.0925  1.1319
 3997SOL     OW23626   1.156   3.484  16.727  0.3056 -0.3182  0.0890
 3997SOL    HW123627   1.131   3.403  16.773  0.8188  0.9466  2.5830
 3997SOL    HW223628   1.245   3.463  16.700  0.6318 -0.4284  1.2772
 3998SOL     OW23629   2.446   2.605   3.826 -0.1429 -0.6313 -0.0833
 3998SOL    HW123630   2.469   2.619   3.918 -1.5101 -1.8887  0.4303
 3998SOL    HW223631   2.500   2.527   3.817  0.7047  0.0040 -0.5802
 3999SOL     OW23632   0.391   2.564   6.201 -0.3054  0.8050  0.1395
 3999SOL    HW123633   0.353   2.504   6.265 -1.2314  0.8164 -0.4085
 3999SOL    HW223634   0.378   2.513   6.122 -1.2884 -0.6879  1.2748
 4000SOL     OW23635   1.956   1.396  16.928  0.4195  0.0496  0.0105
 4000SOL    HW123636   1.972   1.454  16.853 -0.8614  0.1965 -0.1481
 4000SOL    HW223637   2.002   1.432  17.004  1.2157  0.3248 -0.6035
 4001SOL     OW23638   3.110   2.591   7.007 -0.0263  0.7795  0.7943
 4001SOL    HW123639   3.022   2.617   7.034  0.0843  0.3849  1.5504
 4001SOL    HW223640   3.152   2.572   7.091  0.6005  0.6495  0.4548
 4002SOL     OW23641   1.622   2.530   7.603  0.3797 -0.4994  0.3873
 4002SOL    HW123642   1.589   2.455   7.554 -1.4665  0.3652  0.3178
 4002SOL    HW223643   1.594   2.510   7.693  0.9022 -1.8369  0.2510
 4003SOL     OW23644   2.408   0.204  16.657 -0.1127  0.5880 -0.2386
 4003SOL    HW123645   2.467   0.221  16.583 -0.2166  1.8471 -0.0342
 4003SOL    HW223646   2.318   0.223  16.631 -0.1015  1.3175  0.2523
 4004SOL     OW23647   4.468   3.083   3.651 -0.2041 -0.3556 -0.4026
 4004SOL    HW123648   4.477   3.058   3.559 -0.1975  2.5807 -1.2156
 4004SOL    HW223649   4.542   3.030   3.682 -1.2419 -2.4645 -1.5251
 4005SOL     OW23650   3.515   0.284   6.440  0.2295  0.1779  0.2367
 4005SOL    HW123651   3.436   0.230   6.445 -0.2230  0.9771  1.9113
 4005SOL    HW223652   3.476   0.371   6.429  0.4518  0.0970 -1.1119
 4006SOL     OW23653   2.647   3.144  10.765  0.1793  0.7863  0.2625
 4006SOL    HW123654   2.589   3.156  10.689  0.6967  1.8704  0.0308
 4006SOL    HW223655   2.588   3.147  10.840 -0.0655  0.1197  0.0905
 4007SOL     OW23656   0.038   3.186   1.343 -0.4323 -0.2788 -0.5430
 4007SOL    HW123657   4.733   3.270   1.361 -0.6189 -0.6083  0.5416
 4007SOL    HW223658   4.710   3.119   1.354 -1.7152  1.3056  1.3169
 4008SOL     OW23659   0.771   1.374   7.715 -0.3179  0.1753  0.5085
 4008SOL    HW123660   0.828   1.450   7.729 -1.8639  1.0807  1.8694
 4008SOL    HW223661   0.686   1.401   7.750 -0.4454 -0.6433  0.8344
 4009SOL     OW23662   3.234   0.960  11.129 -0.3710  0.1152 -0.0556
 4009SOL    HW123663   3.240   0.990  11.220 -2.8136  0.6298 -0.0561
 4009SOL    HW223664   3.146   0.989  11.106  0.8622  2.6840 -1.5316
 4010SOL     OW23665   0.124   0.869   4.367 -0.3156 -0.2269 -0.0704
 4010SOL    HW123666   0.212   0.833   4.363  0.1867  1.0712 -0.4768
 4010SOL    HW223667   0.134   0.964   4.370 -0.7494 -0.1725 -0.3336
 4011SOL     OW23668   1.017   3.707   9.281 -0.0864  0.0264 -0.0816
 4011SOL    HW123669   1.087   3.646   9.308 -1.1983 -0.4983  1.6183
 4011SOL    HW223670   1.060   3.792   9.288 -0.0224  0.0156 -0.3639
 4012SOL     OW23671   0.663   4.615  11.601  0.5099  0.0211 -0.5496
 4012SOL    HW123672   0.662   4.704  11.565  1.1734  0.9258  1.6092
 4012SOL    HW223673   0.697   4.566  11.526 -1.0832 -2.6435  0.4669
 4013SOL     OW23674   4.225   2.889   8.259 -0.5642 -0.1458  1.1836
 4013SOL    HW123675   4.320   2.887   8.274  0.0941 -2.0552 -3.2125
 4013SOL    HW223676   4.206   2.963   8.202  0.7729 -0.2296  0.6176
 4014SOL     OW23677   2.524   2.554   6.413  0.3262 -0.1013 -0.0220
 4014SOL    HW123678   2.557   2.490   6.476  0.3735 -1.6202 -1.5834
 4014SOL    HW223679   2.554   2.516   6.331 -0.2373  1.5130 -0.9504
 4015SOL     OW23680   0.726   4.012  13.191  0.3193  0.0302 -0.7314
 4015SOL    HW123681   0.722   3.964  13.274 -1.2105  1.9675  0.3212
 4015SOL    HW223682   0.773   4.087  13.229  0.3225  0.8252 -2.3188
 4016SOL     OW23683   0.637   2.317   1.312  0.0824 -0.6029  0.1632
 4016SOL    HW123684   0.616   2.408   1.289  0.3084 -0.2125  1.5079
 4016SOL    HW223685   0.732   2.318   1.326 -0.0634  1.5730  1.0169
 4017SOL     OW23686   1.243   0.728   6.814 -0.6588  0.0454 -0.6913
 4017SOL    HW123687   1.240   0.734   6.719 -1.3337  1.8864 -0.5561
 4017SOL    HW223688   1.250   0.633   6.827  1.7114  0.0296 -2.1297
 4018SOL     OW23689   3.549   4.294  11.821  0.5808  0.1520  0.4647
 4018SOL    HW123690   3.506   4.209  11.806  0.8186  0.3955 -1.6672
 4018SOL    HW223691   3.536   4.308  11.914 -0.4124 -0.8495  0.4752
 4019SOL     OW23692   2.871   3.960   9.914  0.0406 -0.2946 -0.5023
 4019SOL    HW123693   2.799   3.898   9.917  0.3703 -0.7067 -1.0704
 4019SOL    HW223694   2.822   4.033   9.875 -1.1669 -0.5575  0.5341
 4020SOL     OW23695   2.280   1.056   6.356 -0.2130 -0.5726  0.2213
 4020SOL    HW123696   2.324   1.108   6.423 -0.4612  1.6994 -1.3948
 4020SOL    HW223697   2.244   0.982   6.404 -0.0256  0.1639  1.5054
 4021SOL     OW23698   0.232   4.444   8.714  0.4010  0.2469 -0.3363
 4021SOL    HW123699   0.264   4.525   8.673  0.1875  1.6660  2.3208
 4021SOL    HW223700   0.155   4.481   8.758  0.5076 -0.2464  0.2613
 4022SOL     OW23701   2.179   4.373   8.248  0.6144  0.2592 -0.2796
 4022SOL    HW123702   2.250   4.437   8.258  1.2995 -0.7159  1.0360
 4022SOL    HW223703   2.220   4.309   8.190 -0.0760  0.2940 -0.8173
 4023SOL     OW23704   2.338   1.832  16.101  0.1467 -0.3406 -0.3076
 4023SOL    HW123705   2.392   1.891  16.154 -1.2114  0.1844  0.4968
 4023SOL    HW223706   2.350   1.856  16.010  0.1666  0.7927 -0.0040
 4024SOL     OW23707   0.219   0.324   7.288 -0.0007  0.7005  0.1481
 4024SOL    HW123708   0.255   0.290   7.370 -1.0486 -1.7065 -0.4019
 4024SOL    HW223709   0.250   0.268   7.216 -0.4363  0.7258 -0.0569
 4025SOL     OW23710   0.312   1.027   6.493  0.2620  0.1141 -0.1653
 4025SOL    HW123711   0.324   1.056   6.403 -2.8951 -0.2970 -0.7301
 4025SOL    HW223712   0.227   0.983   6.491  0.2514  0.0583  1.3915
 4026SOL     OW23713   1.947   4.462   3.763 -0.1812 -0.4622  0.2938
 4026SOL    HW123714   2.014   4.452   3.695 -0.8661  0.5682 -0.5379
 4026SOL    HW223715   1.882   4.506   3.708  1.3121  0.6447 -0.5963
 4027SOL     OW23716   1.005   1.207  16.497  0.0638 -0.1357  0.1234
 4027SOL    HW123717   0.985   1.288  16.544 -0.6161 -1.1732  1.6446
 4027SOL    HW223718   0.919   1.164  16.494  0.5563 -1.3707  2.8335
 4028SOL     OW23719   3.242   3.463   4.871 -0.0194 -0.0320 -0.0048
 4028SOL    HW123720   3.266   3.385   4.821 -0.2202 -0.4909  0.6098
 4028SOL    HW223721   3.322   3.470   4.923  0.5322 -0.9605 -0.7335
 4029SOL     OW23722   0.179   2.061   4.184  0.4201 -0.1075 -0.3630
 4029SOL    HW123723   0.243   1.997   4.151  0.9997  1.0333 -1.4466
 4029SOL    HW223724   0.127   2.015   4.250  0.0282 -1.8461 -1.8713
 4030SOL     OW23725   2.628   1.103   9.021  0.1505 -0.5814  0.4819
 4030SOL    HW123726   2.677   1.046   9.080 -1.4445 -3.3397 -0.8556
 4030SOL    HW223727   2.573   1.033   8.985 -0.1017 -0.1769  0.0854
 4031SOL     OW23728   0.705   0.148   5.995  0.1085  0.3203 -0.0466
 4031SOL    HW123729   0.744   0.156   6.082 -0.8298 -2.6289  0.6452
 4031SOL    HW223730   0.739   0.063   5.966 -0.1416  0.2959 -0.2764
 4032SOL     OW23731   0.937   1.053  12.859 -0.3612  0.2918 -0.0034
 4032SOL    HW123732   0.905   1.143  12.861  0.1698  0.4663  0.4464
 4032SOL    HW223733   1.009   1.056  12.796 -0.6210 -0.1960 -0.3274
 4033SOL     OW23734   3.281   3.572   3.443 -0.0548 -0.3982  0.2566
 4033SOL    HW123735   3.270   3.519   3.364  1.6729 -1.3551  0.6612
 4033SOL    HW223736   3.357   3.525   3.477  0.0106 -1.0819 -0.8153
 4034SOL     OW23737   1.421   2.548   5.936  0.2351 -0.6235  0.8172
 4034SOL    HW123738   1.498   2.583   5.891 -0.4328 -1.6156 -1.1006
 4034SOL    HW223739   1.360   2.621   5.945 -0.5196 -0.9279 -1.6937
 4035SOL     OW23740   1.450   2.978  16.075  0.4188 -0.2943 -0.7878
 4035SOL    HW123741   1.406   2.948  15.995  0.5574 -1.2448 -0.5079
 4035SOL    HW223742   1.535   3.007  16.042  0.9683  0.5273  1.3353
 4036SOL     OW23743   0.218   0.713  14.717  0.0953 -0.2844  0.4164
 4036SOL    HW123744   0.233   0.623  14.744 -0.2227 -0.8936 -1.4335
 4036SOL    HW223745   0.309   0.737  14.731  0.1808 -0.4643  0.1546
 4037SOL     OW23746   1.517   4.147   8.246  0.0037 -0.7680  0.4172
 4037SOL    HW123747   1.435   4.113   8.209  0.2025 -0.0980 -0.6492
 4037SOL    HW223748   1.493   4.176   8.334  1.2449 -0.4902  0.6633
 4038SOL     OW23749   3.674   1.650  14.805  0.5562  0.7155 -0.4029
 4038SOL    HW123750   3.698   1.563  14.773 -2.3196 -0.0258 -0.5211
 4038SOL    HW223751   3.763   1.673  14.832  1.5822 -1.8673 -1.6174
 4039SOL     OW23752   2.038   0.752  10.994  0.0261 -0.2556 -0.0083
 4039SOL    HW123753   2.097   0.790  10.929  2.5516 -1.8287  1.3364
 4039SOL    HW223754   1.967   0.815  11.002 -0.0923 -0.5176  1.1186
 4040SOL     OW23755   1.512   1.335  12.369 -0.3737 -0.1119 -0.0292
 4040SOL    HW123756   1.596   1.382  12.365 -0.5087  0.3267  2.1424
 4040SOL    HW223757   1.475   1.378  12.446 -0.1495 -0.6765  0.3954
 4041SOL     OW23758   3.601   2.736  16.417 -0.0987 -0.4727 -0.2985
 4041SOL    HW123759   3.611   2.641  16.422  0.9337 -0.2827  1.1963
 4041SOL    HW223760   3.567   2.745  16.328  0.6385  0.5745 -0.4735
 4042SOL     OW23761   2.744   2.645   9.097  0.1337  0.3337  0.0372
 4042SOL    HW123762   2.802   2.677   9.029  3.5986 -1.0408  2.3597
 4042SOL    HW223763   2.719   2.731   9.130  0.1736  0.3511  0.0213
 4043SOL     OW23764   0.803   1.621  10.134  0.2908 -0.2090  0.5809
 4043SOL    HW123765   0.721   1.572  10.135 -0.4536  1.0331  0.4282
 4043SOL    HW223766   0.771   1.700  10.089  2.5383  0.7184  0.6006
 4044SOL     OW23767   2.999   2.713   1.543  0.0520  0.4353  0.1680
 4044SOL    HW123768   2.911   2.696   1.574  0.5878  1.8399  2.4465
 4044SOL    HW223769   3.049   2.712   1.625 -1.1823  2.2277  0.9398
 4045SOL     OW23770   4.320   3.903  12.052 -0.4219 -0.6871 -0.7121
 4045SOL    HW123771   4.231   3.868  12.059 -0.4283 -0.1101  2.4618
 4045SOL    HW223772   4.363   3.837  11.999  3.7481  2.1625 -0.9263
 4046SOL     OW23773   3.200   0.741   3.338 -0.0333 -0.3453 -0.2995
 4046SOL    HW123774   3.129   0.678   3.329  1.1300 -1.8370  1.1998
 4046SOL    HW223775   3.150   0.811   3.380 -0.5588 -0.7769 -0.2128
 4047SOL     OW23776   0.559   1.468   7.883 -0.4544  0.1248  0.0242
 4047SOL    HW123777   0.499   1.540   7.904  0.9971  1.2424  0.3266
 4047SOL    HW223778   0.494   1.399   7.897 -0.3081 -0.6554 -3.2362
 4048SOL     OW23779   1.225   2.645   2.132 -0.0907 -0.8225  0.3356
 4048SOL    HW123780   1.139   2.623   2.167 -1.0508 -0.7730 -1.9722
 4048SOL    HW223781   1.256   2.688   2.211  1.0464  0.8321 -0.9982
 4049SOL     OW23782   1.554   0.498   5.053  0.4305  0.3173 -0.1307
 4049SOL    HW123783   1.514   0.515   5.138 -2.1052  0.0455 -1.2787
 4049SOL    HW223784   1.545   0.403   5.051  2.5836  0.1422 -1.6016
 4050SOL     OW23785   3.762   2.834   1.898  0.3623  0.4330  0.6237
 4050SOL    HW123786   3.839   2.778   1.900  0.7541  0.8889 -1.7050
 4050SOL    HW223787   3.787   2.916   1.856 -1.3227  0.8156  0.3559
 4051SOL     OW23788   2.746   4.199  10.374 -0.0938 -0.5572  0.0625
 4051SOL    HW123789   2.802   4.204  10.451 -0.4761  1.1465  0.2247
 4051SOL    HW223790   2.665   4.242  10.399  1.0246  1.8326 -0.4033
 4052SOL     OW23791   3.901   0.755   8.235 -0.4368 -0.3897 -0.2792
 4052SOL    HW123792   3.951   0.725   8.311  0.8373 -1.5763 -1.5665
 4052SOL    HW223793   3.910   0.849   8.249 -1.6430 -0.4778  1.0314
 4053SOL     OW23794   2.493   3.788  13.047  0.1169 -0.0280 -0.0770
 4053SOL    HW123795   2.479   3.844  13.124 -1.4526 -0.0263 -0.3717
 4053SOL    HW223796   2.583   3.757  13.056  0.0087 -0.6344 -1.2541
 4054SOL     OW23797   1.582   4.246   1.863  0.0203 -0.2500  0.1981
 4054SOL    HW123798   1.530   4.320   1.894  0.1838 -0.7641  1.6902
 4054SOL    HW223799   1.654   4.290   1.817 -1.8086  0.6257 -1.8678
 4055SOL     OW23800   2.354   4.012   8.421 -0.1096 -0.6414  0.8048
 4055SOL    HW123801   2.371   4.022   8.515 -0.0792 -1.0982  0.8483
 4055SOL    HW223802   2.398   4.093   8.396  1.9835 -2.6264 -1.9233
 4056SOL     OW23803   2.575   4.584   5.350 -0.2170  0.3868 -0.1927
 4056SOL    HW123804   2.669   4.569   5.353  0.0564  2.0819 -0.2656
 4056SOL    HW223805   2.579   4.647   5.422 -2.4680  0.8683 -0.4903
 4057SOL     OW23806   4.676   0.027   0.083  0.3434  0.1729 -0.4161
 4057SOL    HW123807   4.651   0.003   0.172 -0.2587 -0.6889 -0.8173
 4057SOL    HW223808   4.672   0.121   0.100  2.1804  0.1987 -0.1739
 4058SOL     OW23809   0.321   4.380  14.976 -0.1099 -0.3988 -0.2622
 4058SOL    HW123810   0.401   4.431  14.985 -0.6607  0.4572 -0.2275
 4058SOL    HW223811   0.325   4.324  15.053  1.1921  2.0938  1.4911
 4059SOL     OW23812   0.755   1.192   7.899 -0.2849 -0.3170 -0.2475
 4059SOL    HW123813   0.765   1.253   7.825  2.8266  1.5294  1.6998
 4059SOL    HW223814   0.703   1.246   7.958 -0.3160 -0.5133 -0.0950
 4060SOL     OW23815   2.667   1.431   9.669 -0.0830  0.1469 -0.7199
 4060SOL    HW123816   2.586   1.400   9.630  0.1728 -1.3254 -0.0837
 4060SOL    HW223817   2.671   1.373   9.745 -0.5817 -1.0826 -1.6463
 4061SOL     OW23818   3.073   2.441   4.739 -0.4540  0.0366 -0.3635
 4061SOL    HW123819   3.039   2.371   4.683 -1.0409 -0.0308  0.0614
 4061SOL    HW223820   3.075   2.519   4.685  1.6081 -1.3330 -2.2377
 4062SOL     OW23821   0.960   3.680   9.638  0.5354  0.0480  0.5692
 4062SOL    HW123822   0.919   3.695   9.723 -0.8199  0.3732 -0.1397
 4062SOL    HW223823   1.055   3.680   9.655  0.5459 -0.7183  0.5112
 4063SOL     OW23824   2.377   0.250  11.845 -0.9154  0.0395 -0.5825
 4063SOL    HW123825   2.301   0.194  11.828 -1.7326  0.6300  1.1698
 4063SOL    HW223826   2.441   0.180  11.846  0.1710  1.0486  0.3733
 4064SOL     OW23827   4.022   0.237   8.121 -0.5476 -0.0112  0.5486
 4064SOL    HW123828   4.032   0.300   8.192  0.3232  0.9693 -0.4416
 4064SOL    HW223829   4.004   0.303   8.054  0.0933 -0.5138 -0.1180
 4065SOL     OW23830   4.370   0.316   3.493  0.0679  0.0717  0.2224
 4065SOL    HW123831   4.437   0.271   3.442  0.2300 -0.4461  0.8927
 4065SOL    HW223832   4.422   0.392   3.519  1.6006 -0.4633 -1.2914
 4066SOL     OW23833   3.786   3.812   6.537  0.5883  0.3736  0.3002
 4066SOL    HW123834   3.811   3.843   6.624 -2.0975  0.4661  1.0271
 4066SOL    HW223835   3.723   3.746   6.564  1.3146 -1.0270 -1.3613
 4067SOL     OW23836   2.781   1.616   1.087 -0.1001  0.3611  0.2922
 4067SOL    HW123837   2.758   1.709   1.086 -0.7812  0.1938 -0.6837
 4067SOL    HW223838   2.736   1.580   1.163 -0.1469  1.7267  0.9096
 4068SOL     OW23839   0.584   4.349   7.076  0.5821  0.0851 -0.6941
 4068SOL    HW123840   0.526   4.273   7.078  1.5983 -0.6645  0.5769
 4068SOL    HW223841   0.523   4.409   7.033 -0.8430 -1.3810 -0.7178
 4069SOL     OW23842   2.303   4.588  11.165  0.9184 -0.0938  0.1570
 4069SOL    HW123843   2.326   4.609  11.256  0.1026 -1.4335  0.6760
 4069SOL    HW223844   2.303   4.675  11.125 -0.6815  0.9560  2.4098
 4070SOL     OW23845   3.273   3.985   4.924  0.6014 -0.3355 -0.2578
 4070SOL    HW123846   3.204   4.030   4.876 -1.5581 -0.4394  2.7707
 4070SOL    HW223847   3.317   3.947   4.848  1.9957  1.1495 -0.1887
 4071SOL     OW23848   4.536   1.968   8.630 -0.6499  0.8701 -0.5096
 4071SOL    HW123849   4.627   1.938   8.630  0.2239  3.5787  2.3131
 4071SOL    HW223850   4.492   1.883   8.628  0.4436  0.2786  1.1030
 4072SOL     OW23851   4.325   3.102   5.709  0.0555  0.1320  0.3959
 4072SOL    HW123852   4.231   3.089   5.697 -0.0368  2.5252 -1.6057
 4072SOL    HW223853   4.338   3.053   5.790  0.8749  1.8692  1.3151
 4073SOL     OW23854   4.343   0.275   2.270 -0.0358  0.3832 -0.3054
 4073SOL    HW123855   4.437   0.276   2.285 -0.1492 -2.5175  0.6155
 4073SOL    HW223856   4.329   0.304   2.180 -1.9128 -1.5899 -0.6712
 4074SOL     OW23857   1.957   0.261  10.062  0.1474 -0.6895  0.4153
 4074SOL    HW123858   2.009   0.190  10.024  1.1048  0.7896 -1.0407
 4074SOL    HW223859   2.008   0.301  10.133  0.7532 -1.0468  0.1787
 4075SOL     OW23860   3.609   1.109   5.956  0.7921 -0.4800  0.3390
 4075SOL    HW123861   3.612   1.166   5.879 -2.1507 -0.5460  0.1637
 4075SOL    HW223862   3.648   1.168   6.021 -0.7087  2.3652 -1.3368
 4076SOL     OW23863   3.217   2.107  14.441 -0.4109  0.6845  0.8137
 4076SOL    HW123864   3.166   2.078  14.366  0.8985  0.9586 -0.1772
 4076SOL    HW223865   3.247   2.027  14.485 -1.1643  1.0738  2.0345
 4077SOL     OW23866   4.272   1.559   0.786 -0.7170 -0.1819  0.1877
 4077SOL    HW123867   4.320   1.479   0.766 -0.6895 -0.6433  2.0506
 4077SOL    HW223868   4.185   1.521   0.776 -0.5302 -0.6997  0.5643
 4078SOL     OW23869   2.885   3.822   1.892  0.5036 -0.2904 -0.6003
 4078SOL    HW123870   2.811   3.764   1.871  0.2045 -0.1124 -0.0530
 4078SOL    HW223871   2.925   3.768   1.960  0.0670  1.7872  1.2973
 4079SOL     OW23872   2.685   0.675   9.475  0.0972 -0.1309  0.7261
 4079SOL    HW123873   2.619   0.719   9.528  0.7590 -1.2389  2.4837
 4079SOL    HW223874   2.767   0.723   9.491  1.5744 -2.0949 -0.8653
 4080SOL     OW23875   3.104   4.708   8.141  0.0833  0.1169 -0.5988
 4080SOL    HW123876   3.053   4.673   8.214 -0.8665  3.0129  0.1123
 4080SOL    HW223877   3.133   4.638   8.083  3.2821  0.0243  1.1049
 4081SOL     OW23878   2.804   1.975   3.952  0.2616  0.2594 -0.7061
 4081SOL    HW123879   2.714   1.985   3.920 -0.8881 -0.7842  2.2129
 4081SOL    HW223880   2.854   2.022   3.885  1.9557 -0.8371 -0.1964
 4082SOL     OW23881   0.024   1.146   6.909  0.8872  0.0368 -0.3120
 4082SOL    HW123882   4.736   1.120   6.997  2.4152 -0.6920 -0.0511
 4082SOL    HW223883   4.687   1.127   6.853 -1.6399  1.9579  2.4624
 4083SOL     OW23884   3.386   0.340   3.600 -0.3675 -0.0588 -0.0829
 4083SOL    HW123885   3.393   0.353   3.694 -1.4624 -0.0143 -0.0157
 4083SOL    HW223886   3.337   0.258   3.594 -0.4581 -0.0381  0.4203
 4084SOL     OW23887   0.630   1.174   4.339  0.1482 -0.4013 -0.5583
 4084SOL    HW123888   0.565   1.129   4.393  0.4865 -0.4462 -0.1895
 4084SOL    HW223889   0.569   1.240   4.305 -1.6488 -2.1543 -0.7553
 4085SOL     OW23890   4.417   0.687   5.564 -0.7257  0.0628 -0.4152
 4085SOL    HW123891   4.355   0.665   5.494 -1.3284  0.9596 -0.1681
 4085SOL    HW223892   4.504   0.673   5.526 -0.1668  0.4696  0.7248
 4086SOL     OW23893   1.522   3.942   8.474 -0.0304 -0.2420 -0.2029
 4086SOL    HW123894   1.604   3.904   8.506  0.8378  1.3645 -0.5501
 4086SOL    HW223895   1.527   4.031   8.509 -0.6536 -0.5928  0.7796
 4087SOL     OW23896   3.805   1.564   4.060 -0.1630  0.8269 -0.0996
 4087SOL    HW123897   3.812   1.657   4.035 -1.6410  1.3716  1.5054
 4087SOL    HW223898   3.745   1.527   3.995 -0.0695 -0.3768  0.5201
 4088SOL     OW23899   2.004   3.097   6.170 -0.2625 -0.0431  0.7232
 4088SOL    HW123900   1.979   3.151   6.245  1.2237  2.3909 -0.5473
 4088SOL    HW223901   1.916   3.088   6.134  0.2219  0.6150 -0.6006
 4089SOL     OW23902   2.366   0.118   0.155  0.0475 -0.5539  0.0971
 4089SOL    HW123903   2.457   0.087   0.159  0.0787 -0.4188  0.4731
 4089SOL    HW223904   2.346   0.107   0.248  0.9384 -1.7584  0.1540
 4090SOL     OW23905   3.674   3.657   2.231  0.0626  0.3160 -0.0734
 4090SOL    HW123906   3.691   3.751   2.240  0.9725  0.2937 -1.4692
 4090SOL    HW223907   3.710   3.611   2.307  0.2205  0.6407  0.0456
 4091SOL     OW23908   2.410   1.270   1.422 -0.1173  0.4808 -0.0629
 4091SOL    HW123909   2.446   1.198   1.474 -0.8803  0.6377  0.6834
 4091SOL    HW223910   2.448   1.343   1.472  0.0763 -0.1309  0.6837
 4092SOL     OW23911   1.117   3.329   2.362 -0.0856 -0.3770  0.2948
 4092SOL    HW123912   1.138   3.275   2.286 -1.1460 -1.1243  0.5363
 4092SOL    HW223913   1.186   3.395   2.369  0.3142 -0.8833  1.1555
 4093SOL     OW23914   4.548   2.214   9.985 -0.1736  0.6700  0.2369
 4093SOL    HW123915   4.528   2.133   9.938  0.8504  1.2178 -1.1362
 4093SOL    HW223916   4.529   2.281   9.919  0.5785 -0.0815 -0.7446
 4094SOL     OW23917   3.178   2.361   8.793 -0.6172 -0.4691  0.5691
 4094SOL    HW123918   3.208   2.290   8.850  1.2332  0.0643  0.2668
 4094SOL    HW223919   3.120   2.408   8.853  0.3476  0.1933  0.9755
 4095SOL     OW23920   1.680   3.736   1.940  0.2335  0.8279 -0.3613
 4095SOL    HW123921   1.767   3.733   1.980  0.6141 -1.3767 -1.3649
 4095SOL    HW223922   1.635   3.787   2.007 -2.5238 -2.8127  0.5360
 4096SOL     OW23923   4.512   1.982   1.388 -0.1177  0.1768 -0.1764
 4096SOL    HW123924   4.575   1.911   1.386 -0.0273  0.2267  0.9482
 4096SOL    HW223925   4.541   2.043   1.320 -0.2845 -0.6955 -1.0279
 4097SOL     OW23926   2.170   2.742   7.409  0.1268  0.2320  0.1532
 4097SOL    HW123927   2.096   2.709   7.358 -0.2635 -0.3979  1.1354
 4097SOL    HW223928   2.126   2.751   7.494  1.1061  0.1105  0.6735
 4098SOL     OW23929   4.396   4.048   6.807 -0.0306  0.3151 -0.4613
 4098SOL    HW123930   4.359   3.982   6.748  1.8118 -2.0138  1.0078
 4098SOL    HW223931   4.485   4.018   6.823 -0.1420  0.1995 -0.0322
 4099SOL     OW23932   2.268   2.322   9.506 -0.0128  0.3221 -0.5574
 4099SOL    HW123933   2.318   2.324   9.588 -2.0093  1.2575  0.6463
 4099SOL    HW223934   2.292   2.243   9.457 -1.6097  1.2818 -2.8935
 4100SOL     OW23935   4.465   1.693   2.320  0.0332  0.0290  0.3503
 4100SOL    HW123936   4.425   1.779   2.305 -2.5552 -1.5290 -1.5842
 4100SOL    HW223937   4.460   1.651   2.234  2.6776  1.1818 -0.3540
 4101SOL     OW23938   1.813   0.052  17.454  0.3694 -0.2365  0.3968
 4101SOL    HW123939   1.787   0.143  17.470  0.5461 -0.3254  1.2157
 4101SOL    HW223940   1.725   0.018  17.435 -0.0597  0.4677  1.1104
 4102SOL     OW23941   2.467   4.391   4.935 -0.3406  0.4990 -0.1028
 4102SOL    HW123942   2.466   4.301   4.903 -0.7157  0.4029  0.1870
 4102SOL    HW223943   2.523   4.394   5.012 -0.0629  0.7944 -0.3150
 4103SOL     OW23944   0.698   2.847   7.249 -0.5151 -0.3699 -0.0299
 4103SOL    HW123945   0.629   2.796   7.206  0.9289  0.2475 -3.0818
 4103SOL    HW223946   0.660   2.854   7.337  1.5199 -2.1244  0.9870
 4104SOL     OW23947   1.046   4.629   5.278 -0.2144  0.0111 -0.2838
 4104SOL    HW123948   0.984   4.672   5.220  2.0885  1.5802 -1.5626
 4104SOL    HW223949   0.998   4.606   5.358  0.8143  0.3949  0.4524
 4105SOL     OW23950   1.853   0.919  12.428  0.1026 -0.0353  0.5454
 4105SOL    HW123951   1.780   0.922  12.490 -1.5194  0.5303 -1.4016
 4105SOL    HW223952   1.808   0.896  12.347 -0.1379 -1.4926  1.0765
 4106SOL     OW23953   2.332   2.431   3.408 -0.2564 -0.4119  0.7873
 4106SOL    HW123954   2.331   2.380   3.327 -2.4652 -1.1768  1.2937
 4106SOL    HW223955   2.425   2.450   3.406 -0.8590  2.2966 -1.5624
 4107SOL     OW23956   0.428   4.075   1.212  0.0040  0.3777 -0.0173
 4107SOL    HW123957   0.342   4.081   1.171  0.4680  0.2031 -0.9972
 4107SOL    HW223958   0.423   3.992   1.259 -0.6095  1.1190  1.2641
 4108SOL     OW23959   4.532   0.060  14.969  0.7810 -0.0788  0.5172
 4108SOL    HW123960   4.617   0.102  14.982 -0.1338  1.8101  0.4635
 4108SOL    HW223961   4.564   0.009  14.895  1.9956  0.0982  0.9264
 4109SOL     OW23962   1.163   1.048   6.587  0.3430  0.3825  0.0004
 4109SOL    HW123963   1.113   1.000   6.522  1.9438 -1.2546 -0.0299
 4109SOL    HW223964   1.124   1.003   6.662  0.2649 -1.1700 -0.9682
 4110SOL     OW23965   1.121   0.581   7.770  0.2416 -0.0903  0.1380
 4110SOL    HW123966   1.101   0.649   7.834 -0.4838  2.9714 -3.3769
 4110SOL    HW223967   1.216   0.590   7.771  0.1807  0.6443 -0.5792
 4111SOL     OW23968   2.479   1.293   6.185 -0.1302  0.1729 -0.1383
 4111SOL    HW123969   2.436   1.320   6.266  1.1823  0.1978  0.5401
 4111SOL    HW223970   2.405   1.284   6.124  0.6991  0.1956 -1.1368
 4112SOL     OW23971   3.878   2.182  13.163 -0.1603  0.2190  0.1006
 4112SOL    HW123972   3.834   2.102  13.193  0.0409  0.1641  0.2454
 4112SOL    HW223973   3.965   2.143  13.164 -0.4422 -0.4845 -1.9647
 4113SOL     OW23974   1.193   2.698   5.074  0.2647  0.5846 -0.3349
 4113SOL    HW123975   1.265   2.655   5.119  0.4556  0.7811 -0.4548
 4113SOL    HW223976   1.124   2.666   5.132  1.3387 -1.9486 -0.4660
 4114SOL     OW23977   1.271   1.783   0.033  0.2190 -0.2956 -0.3883
 4114SOL    HW123978   1.204   1.796   0.100  2.2356 -0.7269  1.7239
 4114SOL    HW223979   1.249   1.702  17.739 -1.2526  1.1480 -2.1423
 4115SOL     OW23980   4.250   3.214   0.915  0.5262  0.0698  0.4707
 4115SOL    HW123981   4.244   3.308   0.897  1.1985  0.4098  2.0711
 4115SOL    HW223982   4.249   3.225   1.010  0.4361  1.4021  0.3252
 4116SOL     OW23983   1.305   1.435   7.410  0.5588  0.5501 -0.4063
 4116SOL    HW123984   1.361   1.499   7.366  1.2809  3.0198  4.0916
 4116SOL    HW223985   1.368   1.379   7.454 -0.5609  0.0395  0.5510
 4117SOL     OW23986   2.082   0.271  11.059  0.4443 -0.1758  0.1674
 4117SOL    HW123987   2.047   0.347  11.106  0.9409 -0.4609  1.0014
 4117SOL    HW223988   2.006   0.228  11.020 -0.2770  3.0095 -1.9610
 4118SOL     OW23989   2.039   4.267  12.933 -0.3752 -0.2459 -1.3214
 4118SOL    HW123990   2.087   4.314  13.002 -2.1850  0.1369 -0.3170
 4118SOL    HW223991   1.988   4.201  12.980  0.2588  0.4380  0.3539
 4119SOL     OW23992   0.741   4.545   4.755  0.5221  0.1765  0.2662
 4119SOL    HW123993   0.681   4.471   4.758  1.4020 -0.4163  3.3235
 4119SOL    HW223994   0.688   4.621   4.781  0.1294  0.2991 -0.8718
 4120SOL     OW23995   4.371   3.371   4.062  0.1659  0.1961  0.4354
 4120SOL    HW123996   4.427   3.306   4.105 -0.6778 -1.1138 -0.4828
 4120SOL    HW223997   4.355   3.327   3.978  0.7542 -0.7548  0.8234
 4121SOL     OW23998   0.549   4.156   7.699 -0.0318 -0.2185 -0.4042
 4121SOL    HW123999   0.618   4.222   7.710  0.7486 -1.0004 -0.6669
 4121SOL    HW224000   0.584   4.093   7.637 -0.4244 -0.9656  0.1230
 4122SOL     OW24001   0.142   0.476  17.049  0.1248 -0.2009  0.2922
 4122SOL    HW124002   0.148   0.440  16.961  0.5062  2.3683 -0.7507
 4122SOL    HW224003   0.079   0.546  17.029  0.8965 -0.2465 -2.2015
 4123SOL     OW24004   3.339   1.750   7.547  0.4418  0.6410  0.3985
 4123SOL    HW124005   3.375   1.764   7.459 -1.7289  0.1094 -0.5755
 4123SOL    HW224006   3.401   1.689   7.587 -0.3409 -1.2069 -1.2106
 4124SOL     OW24007   1.379   1.770  10.995 -0.0718  0.6329  0.1051
 4124SOL    HW124008   1.468   1.765  11.031 -0.6219 -3.1516  0.9334
 4124SOL    HW224009   1.374   1.853  10.948 -2.1864 -0.4237 -1.5296
 4125SOL     OW24010   3.293   0.062   1.259  0.3219 -0.0289 -0.7184
 4125SOL    HW124011   3.380   0.023   1.262  0.3453  0.0699 -0.0426
 4125SOL    HW224012   3.270   0.060   1.352 -1.9109 -0.7596 -1.2999
 4126SOL     OW24013   0.202   0.128   8.426  0.1964  0.5730  0.3049
 4126SOL    HW124014   0.215   0.091   8.339 -0.9154  2.0520 -0.4974
 4126SOL    HW224015   0.265   0.200   8.438 -2.4861  3.0817 -0.7221
 4127SOL     OW24016   0.595   2.564   1.803  0.4454 -0.4662 -0.1228
 4127SOL    HW124017   0.564   2.495   1.862 -0.0139 -0.3586 -0.2358
 4127SOL    HW224018   0.530   2.557   1.733 -0.2852 -1.1228  0.6155
 4128SOL     OW24019   3.324   3.900   8.683  0.1177 -0.5448 -0.5099
 4128SOL    HW124020   3.288   3.969   8.627 -2.3998 -1.7039 -0.2721
 4128SOL    HW224021   3.257   3.834   8.701  0.0212  0.0371  1.2582
 4129SOL     OW24022   1.449   1.932   2.460  0.0469 -0.4107  0.1093
 4129SOL    HW124023   1.505   1.999   2.498  0.5924 -1.1028  0.5230
 4129SOL    HW224024   1.399   1.908   2.538  0.3928 -0.3057  0.3625
 4130SOL     OW24025   4.670   2.955   0.843  0.2126 -0.0667 -0.1795
 4130SOL    HW124026   0.007   2.959   0.901  0.6689 -1.4339 -0.6952
 4130SOL    HW224027   4.597   2.957   0.905 -0.3477  1.2906 -0.8768
 4131SOL     OW24028   3.332   3.158   0.499 -0.3870  0.3209  0.6106
 4131SOL    HW124029   3.274   3.203   0.437 -1.8233 -0.4549  1.4030
 4131SOL    HW224030   3.312   3.213   0.575  0.7386  1.3305  0.1853
 4132SOL     OW24031   3.332   1.388   5.902  0.0649 -0.1207 -0.4237
 4132SOL    HW124032   3.378   1.425   5.826  1.4057  1.1879  1.0074
 4132SOL    HW224033   3.380   1.422   5.978  1.7192  0.6730 -1.8083
 4133SOL     OW24034   2.181   2.992  14.027 -0.3404  0.3983  0.4512
 4133SOL    HW124035   2.227   3.025  13.950 -0.6446  2.4783  1.1313
 4133SOL    HW224036   2.089   2.997  14.001 -0.1208  1.2777 -0.1790
 4134SOL     OW24037   2.338   1.398   9.283  0.4041  0.1195  0.2793
 4134SOL    HW124038   2.405   1.439   9.337  1.2311  0.1245 -0.7634
 4134SOL    HW224039   2.389   1.358   9.212 -0.1201 -1.7303  0.9416
 4135SOL     OW24040   2.049   1.399   6.969 -0.4376  0.3909 -0.1527
 4135SOL    HW124041   2.114   1.468   6.986 -2.2873  1.1325  3.9132
 4135SOL    HW224042   1.971   1.447   6.995  0.2838  1.5955 -0.1924
 4136SOL     OW24043   4.572   3.654   5.168  0.3380  0.3648 -0.6014
 4136SOL    HW124044   4.628   3.670   5.091 -1.4599  1.7280 -1.6150
 4136SOL    HW224045   4.632   3.630   5.239  1.1791  0.5808 -1.2353
 4137SOL     OW24046   3.687   4.048   3.812 -0.1257 -0.7450 -0.4237
 4137SOL    HW124047   3.735   4.045   3.895 -1.5880  1.1626  0.4874
 4137SOL    HW224048   3.611   4.099   3.839  0.3342 -1.6159  2.4811
 4138SOL     OW24049   3.645   1.673  11.190 -0.0589 -0.2232  0.3458
 4138SOL    HW124050   3.676   1.584  11.172  1.1549  0.5940 -1.6320
 4138SOL    HW224051   3.679   1.684  11.279 -1.4442  1.9004  0.5871
 4139SOL     OW24052   0.413   4.125   7.072  0.0566 -0.2596  0.0167
 4139SOL    HW124053   0.450   4.045   7.109  1.3544 -0.0564 -0.8339
 4139SOL    HW224054   0.328   4.094   7.041 -0.0306 -2.3033  2.3279
 4140SOL     OW24055   3.899   0.876   1.602  0.3960 -0.1400 -0.6374
 4140SOL    HW124056   3.826   0.929   1.634 -0.1406 -1.7910  0.8401
 4140SOL    HW224057   3.862   0.789   1.594  0.2419 -0.1762  0.4773
 4141SOL     OW24058   0.066   3.071   1.920 -0.7931  0.1324  0.0450
 4141SOL    HW124059   0.038   2.998   1.864  0.6845  1.4210 -2.3743
 4141SOL    HW224060   0.156   3.043   1.938 -0.2042  0.9549 -1.6129
 4142SOL     OW24061   2.844   2.533   7.323  0.5385  0.0373 -0.4284
 4142SOL    HW124062   2.760   2.577   7.314  0.6397  0.1959 -0.6130
 4142SOL    HW224063   2.828   2.475   7.397 -0.1380  1.1325  0.2801
 4143SOL     OW24064   4.110   1.188  16.753 -0.6190  0.3746  0.4882
 4143SOL    HW124065   4.161   1.144  16.685 -3.1677 -3.7423  1.2822
 4143SOL    HW224066   4.181   1.178  16.817  0.6988  1.4610 -0.7821
 4144SOL     OW24067   3.461   2.811   5.530  0.1968  0.6984  0.7434
 4144SOL    HW124068   3.438   2.745   5.465 -1.6122  2.4437 -0.3452
 4144SOL    HW224069   3.386   2.870   5.528 -0.7999 -0.5916 -0.2302
 4145SOL     OW24070   3.462   0.597   1.481  0.1044  0.8362 -0.7677
 4145SOL    HW124071   3.470   0.502   1.486  1.0450  1.0550  1.8497
 4145SOL    HW224072   3.552   0.630   1.477  0.5377 -0.1298  1.0110
 4146SOL     OW24073   3.372   4.157   8.791  0.3036 -0.4234  0.6618
 4146SOL    HW124074   3.293   4.200   8.823 -0.5283  0.4459 -2.5669
 4146SOL    HW224075   3.339   4.073   8.759 -0.8992  0.5618 -0.6396
 4147SOL     OW24076   2.718   4.467   2.527  0.3698  0.4822 -0.2267
 4147SOL    HW124077   2.714   4.373   2.509  3.6657 -0.1195  2.1660
 4147SOL    HW224078   2.779   4.473   2.601 -0.1000  0.3998  0.1628
 4148SOL     OW24079   2.567   3.871   2.106  0.8985  0.0685  0.2550
 4148SOL    HW124080   2.545   3.964   2.109  0.8058  0.0560 -0.0131
 4148SOL    HW224081   2.593   3.857   2.197  2.8104 -0.3795 -0.3699
 4149SOL     OW24082   3.993   3.414   2.281 -0.0812  0.0235 -0.4892
 4149SOL    HW124083   3.902   3.394   2.260 -0.2548  0.6031 -0.2973
 4149SOL    HW224084   4.044   3.337   2.257  0.1138  0.1263 -0.4094
 4150SOL     OW24085   3.015   2.444   9.062 -0.6446  0.0330  0.2189
 4150SOL    HW124086   3.007   2.453   9.157  2.5390  0.4353  0.4502
 4150SOL    HW224087   3.025   2.534   9.029 -1.2454 -0.7708 -2.1266
 4151SOL     OW24088   1.667   4.366  17.446  0.5668 -0.0260  0.1119
 4151SOL    HW124089   1.703   4.418  17.518  0.7903  0.9428 -0.7059
 4151SOL    HW224090   1.736   4.375  17.381  1.4830  2.1582  1.4060
 4152SOL     OW24091   3.120   0.610  15.762  0.5558 -0.8095 -0.3238
 4152SOL    HW124092   3.090   0.599  15.852 -1.2596  0.7309 -0.7288
 4152SOL    HW224093   3.096   0.535  15.707 -1.1479 -1.1692  0.9142
 4153SOL     OW24094   4.725   3.654   5.646  0.0709  0.1397  0.2165
 4153SOL    HW124095   4.722   3.734   5.594 -0.8846 -0.4079 -0.5661
 4153SOL    HW224096   4.658   3.603   5.601  0.0875  0.6859 -0.4136
 4154SOL     OW24097   1.872   3.183   2.075 -1.0363 -0.1349 -0.0282
 4154SOL    HW124098   1.877   3.119   2.146  1.4100  1.2185  1.0037
 4154SOL    HW224099   1.816   3.146   2.006  0.1999 -0.0820 -1.0477
 4155SOL     OW24100   4.654   4.165   7.804 -0.4489 -0.2257 -0.4853
 4155SOL    HW124101   4.578   4.117   7.836 -0.7213  0.1529 -0.5706
 4155SOL    HW224102   4.711   4.141   7.876 -0.9020 -2.8700 -1.0251
 4156SOL     OW24103   0.269   1.561   4.422 -0.3741 -0.0056 -0.0708
 4156SOL    HW124104   0.226   1.571   4.337  1.7975 -0.6780 -1.2340
 4156SOL    HW224105   0.295   1.652   4.438 -2.6451  0.9069 -1.4768
 4157SOL     OW24106   1.717   4.531   8.898  0.2594 -0.2125  0.2239
 4157SOL    HW124107   1.635   4.520   8.849 -1.4596  1.9107  2.6532
 4157SOL    HW224108   1.761   4.447   8.884 -0.7045 -0.9965  1.9147
 4158SOL     OW24109   3.285   0.977   0.384 -0.1542 -0.1482  0.6260
 4158SOL    HW124110   3.353   1.043   0.397  1.1121 -1.1513 -1.0403
 4158SOL    HW224111   3.219   1.016   0.327 -0.0018 -0.8201  0.0023
 4159SOL     OW24112   1.184   2.787   6.572 -0.3920 -0.2604 -0.5923
 4159SOL    HW124113   1.205   2.694   6.584 -1.5766 -0.3108  1.0489
 4159SOL    HW224114   1.093   2.792   6.543 -0.4730 -3.0292 -0.8559
 4160SOL     OW24115   0.510   0.713   5.161 -0.0535  0.4405  0.4295
 4160SOL    HW124116   0.469   0.764   5.091  0.8267 -0.2337 -0.5779
 4160SOL    HW224117   0.462   0.630   5.151  2.2228 -0.8500  0.1338
 4161SOL     OW24118   1.855   2.624   8.117 -0.1151  0.0001  0.3087
 4161SOL    HW124119   1.820   2.693   8.173 -0.5220 -0.8992  1.1774
 4161SOL    HW224120   1.842   2.546   8.172 -2.4413  1.2932  1.6057
 4162SOL     OW24121   4.166   2.303  12.463 -0.4459 -0.2258  0.2149
 4162SOL    HW124122   4.115   2.313  12.382  1.4419 -1.1431 -1.1008
 4162SOL    HW224123   4.151   2.212  12.487  0.5732 -0.1899  0.9859
 4163SOL     OW24124   1.123   0.557  11.871 -0.2100 -0.1265 -0.3784
 4163SOL    HW124125   1.155   0.567  11.782 -1.4515 -2.6699 -1.1023
 4163SOL    HW224126   1.059   0.489  11.853  1.0951 -1.9973  2.0234
 4164SOL     OW24127   3.387   4.039  16.974  0.0273 -0.2792  0.0849
 4164SOL    HW124128   3.294   4.059  16.988  0.6415  0.6489  2.7709
 4164SOL    HW224129   3.426   4.053  17.061  0.8648  1.6890 -0.6243
 4165SOL     OW24130   0.785   2.268   8.038  0.2312  0.4281  0.2068
 4165SOL    HW124131   0.698   2.229   8.051  1.0706 -0.9721  1.5643
 4165SOL    HW224132   0.823   2.202   7.981 -0.4518  0.0819  0.1535
 4166SOL     OW24133   1.800   4.607   6.724  0.6110 -0.4407  0.5150
 4166SOL    HW124134   1.783   4.679   6.664  1.9575 -0.2352  0.3800
 4166SOL    HW224135   1.808   4.649   6.810  1.0312 -0.4217  0.4646
 4167SOL     OW24136   2.934   1.531   1.320  0.1150  0.0345 -0.6296
 4167SOL    HW124137   2.902   1.494   1.238  1.0340 -2.5801  0.2176
 4167SOL    HW224138   3.016   1.562   1.282 -0.4192  1.9157 -0.2852
 4168SOL     OW24139   0.464   1.672  17.258  0.2386  0.2883 -0.0377
 4168SOL    HW124140   0.403   1.633  17.321  0.0194 -0.7323 -0.8764
 4168SOL    HW224141   0.520   1.718  17.319  1.0806 -0.1079 -0.5134
 4169SOL     OW24142   2.948   1.458   9.554  0.2921  0.3695 -0.1103
 4169SOL    HW124143   2.860   1.429   9.577 -0.0221  1.5607  0.1697
 4169SOL    HW224144   2.994   1.379   9.583 -0.6909  0.0237  0.4884
 4170SOL     OW24145   0.502   3.070  16.613 -0.2521  0.4161 -0.5268
 4170SOL    HW124146   0.527   3.157  16.582  0.1593 -0.1302 -1.7252
 4170SOL    HW224147   0.567   3.014  16.572  0.6348  1.6604 -0.8221
 4171SOL     OW24148   0.563   1.596   4.651  0.3885 -0.1249 -0.6476
 4171SOL    HW124149   0.500   1.530   4.623  0.6729 -0.0337 -1.5085
 4171SOL    HW224150   0.517   1.679   4.667 -0.8705 -0.9892  0.2201
 4172SOL     OW24151   4.074   4.424   4.126  0.4966 -0.5868 -0.1368
 4172SOL    HW124152   4.062   4.461   4.213 -1.8000 -1.5570 -0.0553
 4172SOL    HW224153   4.166   4.444   4.109 -0.5329  2.5832 -2.0535
 4173SOL     OW24154   0.424   4.020   4.128  0.7927 -0.0776  0.2300
 4173SOL    HW124155   0.401   3.962   4.056 -0.7199  1.5960 -0.6460
 4173SOL    HW224156   0.396   4.105   4.094 -2.3689 -2.3573 -2.8549
 4174SOL     OW24157   3.296   4.585   0.721 -0.1596  0.1262 -0.2620
 4174SOL    HW124158   3.348   4.529   0.664  1.8286  0.6877  1.0073
 4174SOL    HW224159   3.225   4.612   0.663 -1.2953 -0.0302  1.0690
 4175SOL     OW24160   4.290   3.041   9.721 -0.4403  0.5436  0.1665
 4175SOL    HW124161   4.379   3.042   9.755 -0.0717  1.2415 -0.8002
 4175SOL    HW224162   4.239   3.014   9.797 -1.2843  0.4620 -0.4289
 4176SOL     OW24163   1.430   2.588  16.422 -0.5569  0.1856  0.2246
 4176SOL    HW124164   1.467   2.584  16.510  0.7154 -3.0201 -0.4617
 4176SOL    HW224165   1.504   2.590  16.362 -1.1246  2.3000 -0.4259
 4177SOL     OW24166   0.056   4.436   2.554  0.5859 -0.3005 -0.0027
 4177SOL    HW124167   0.117   4.497   2.595  0.4944 -0.6159  0.5929
 4177SOL    HW224168   0.029   4.387   2.631 -0.8199 -0.8014 -0.8039
 4178SOL     OW24169   0.873   0.728   2.883  0.0138 -0.6638 -0.0112
 4178SOL    HW124170   0.960   0.739   2.845  0.1188 -0.3649  0.3098
 4178SOL    HW224171   0.882   0.780   2.963 -0.4046 -1.7527  0.7329
 4179SOL     OW24172   4.585   4.162   3.232  0.7340  0.9275 -0.1579
 4179SOL    HW124173   4.622   4.242   3.268 -1.1392  1.8319 -0.2723
 4179SOL    HW224174   4.516   4.194   3.174  0.8516 -0.0359 -0.8304
 4180SOL     OW24175   4.270   4.182   2.824  0.3707  0.1779 -0.2173
 4180SOL    HW124176   4.349   4.127   2.818  0.3000  0.2052 -1.3606
 4180SOL    HW224177   4.204   4.122   2.861  1.4578 -1.8791 -1.6020
 4181SOL     OW24178   1.744   4.103   4.188 -0.1518  0.2362 -0.3049
 4181SOL    HW124179   1.736   4.084   4.281 -1.3724  0.8866 -0.2781
 4181SOL    HW224180   1.827   4.152   4.187  1.4203 -2.3914  0.9154
 4182SOL     OW24181   3.912   1.170   6.345 -0.0100  0.1557 -0.4607
 4182SOL    HW124182   3.971   1.169   6.421  1.0784  1.1305 -1.2806
 4182SOL    HW224183   3.865   1.089   6.366  2.7538 -1.6398 -1.1554
 4183SOL     OW24184   1.769   3.754   5.502 -0.3502  0.0871 -0.3047
 4183SOL    HW124185   1.701   3.728   5.563 -1.8300 -1.3121 -2.5317
 4183SOL    HW224186   1.812   3.823   5.553  0.8494  1.4765 -3.1896
 4184SOL     OW24187   0.249   3.335   2.390 -0.0450 -0.3348  0.4346
 4184SOL    HW124188   0.191   3.339   2.314 -0.2033 -1.8633  0.4851
 4184SOL    HW224189   0.284   3.247   2.377  1.1938  0.4257 -1.3693
 4185SOL     OW24190   0.891   0.695   1.579  0.1667 -0.1968 -0.1536
 4185SOL    HW124191   0.867   0.746   1.656 -3.0233 -0.3584 -1.0473
 4185SOL    HW224192   0.985   0.712   1.574  0.5071 -1.8244  0.8086
 4186SOL     OW24193   3.777   4.460   0.984  0.6592 -0.3678  0.0356
 4186SOL    HW124194   3.697   4.502   0.952  0.6304  0.0021  0.5895
 4186SOL    HW224195   3.752   4.370   0.963  0.1463 -0.1575 -0.2534
 4187SOL     OW24196   2.907   1.095  16.085 -0.1722 -0.2656 -0.5284
 4187SOL    HW124197   2.921   1.063  15.996 -2.5846 -0.8112 -0.7136
 4187SOL    HW224198   2.822   1.050  16.090 -0.7340  0.7311 -1.2120
 4188SOL     OW24199   0.798   2.292  11.370  0.1353 -0.1325  0.0466
 4188SOL    HW124200   0.892   2.277  11.360  0.4233  1.5165  0.3081
 4188SOL    HW224201   0.789   2.348  11.293 -0.7191  0.3395  0.4845
 4189SOL     OW24202   1.027   2.003  12.260  0.2858  0.2009 -0.0388
 4189SOL    HW124203   1.093   2.034  12.322  2.2934 -0.8762 -1.6621
 4189SOL    HW224204   0.974   2.083  12.254 -0.8816 -0.5648  0.1714
 4190SOL     OW24205   2.750   2.980   5.867  0.1481 -0.3055  0.3159
 4190SOL    HW124206   2.765   2.947   5.956  0.4007 -0.3131  0.2707
 4190SOL    HW224207   2.818   2.927   5.824 -2.1105 -1.5668 -1.7401
 4191SOL     OW24208   4.601   3.921   3.353 -0.3776 -0.3275 -0.1147
 4191SOL    HW124209   4.514   3.935   3.390 -1.1578 -1.0208 -1.7276
 4191SOL    HW224210   4.620   4.007   3.318 -1.5674 -1.0039 -2.3713
 4192SOL     OW24211   3.787   2.370   0.663  0.1735 -0.0642 -0.1505
 4192SOL    HW124212   3.748   2.456   0.679  0.0230 -0.5019  1.8223
 4192SOL    HW224213   3.712   2.316   0.637  0.3897 -0.6174  0.3862
 4193SOL     OW24214   3.605   2.453   5.050  0.2534 -0.6328 -0.2797
 4193SOL    HW124215   3.685   2.479   5.096  1.1476 -1.4707 -1.3571
 4193SOL    HW224216   3.631   2.366   5.020 -1.2687 -1.3174  0.3580
 4194SOL     OW24217   4.024   0.146   7.450  0.0479  0.2699 -0.0885
 4194SOL    HW124218   4.120   0.147   7.446 -0.0960  0.2520 -3.3670
 4194SOL    HW224219   4.007   0.234   7.484 -2.1943 -0.7973  1.5635
 4195SOL     OW24220   0.274   2.737   8.494  0.2953  0.0961 -0.3085
 4195SOL    HW124221   0.274   2.792   8.572  0.4141  1.4628 -1.2657
 4195SOL    HW224222   0.227   2.793   8.433 -0.2429  0.0908  0.1050
 4196SOL     OW24223   1.215   2.333   8.328  0.1950 -0.1804 -0.4243
 4196SOL    HW124224   1.177   2.399   8.269  0.8785  1.7532  1.3102
 4196SOL    HW224225   1.151   2.333   8.399  2.6247  0.3478  1.7345
 4197SOL     OW24226   1.878   1.526   3.600 -0.5668 -0.2259  0.2218
 4197SOL    HW124227   1.823   1.518   3.523 -1.2527 -2.3968  0.9475
 4197SOL    HW224228   1.898   1.433   3.612  0.1658 -0.2887 -1.5284
 4198SOL     OW24229   1.808   0.007  13.895 -0.0834 -0.4979 -0.3591
 4198SOL    HW124230   1.739   4.690  13.933  1.7280 -2.6766 -0.2458
 4198SOL    HW224231   1.856   0.034  13.973 -0.2997 -0.7738 -0.1250
 4199SOL     OW24232   4.071   3.748   6.743  0.0681 -0.6597 -0.0782
 4199SOL    HW124233   4.074   3.842   6.724  1.8633 -0.8715 -0.8211
 4199SOL    HW224234   4.058   3.698   6.662  0.9770  0.2258 -0.7654
 4200SOL     OW24235   3.326   3.631   7.787 -0.0395  0.3515  0.1834
 4200SOL    HW124236   3.395   3.652   7.851 -1.2091  2.2869  0.8015
 4200SOL    HW224237   3.321   3.536   7.791 -1.2468  0.4373  0.7910
 4201SOL     OW24238   2.127   4.303   1.526  0.0920  0.6403 -0.1633
 4201SOL    HW124239   2.212   4.294   1.483  0.3329 -1.8032  0.7785
 4201SOL    HW224240   2.115   4.216   1.564  2.9792 -0.7444 -2.4030
 4202SOL     OW24241   3.708   4.214   0.805  0.8427 -0.3854  0.1412
 4202SOL    HW124242   3.746   4.147   0.863  0.1489 -1.4845 -0.6934
 4202SOL    HW224243   3.769   4.204   0.732 -2.1754  0.1378 -2.3849
 4203SOL     OW24244   4.233   1.553   6.085 -0.0283 -0.2150  0.1943
 4203SOL    HW124245   4.184   1.475   6.109 -1.0494  1.4723  3.6517
 4203SOL    HW224246   4.166   1.619   6.100  1.2616  1.4209 -1.2117
 4204SOL     OW24247   2.254   3.880  17.404 -1.0045 -0.3484 -0.0824
 4204SOL    HW124248   2.219   3.841  17.484  2.5141 -1.8316  0.6987
 4204SOL    HW224249   2.344   3.885  17.434 -0.4959 -0.5011 -1.5575
 4205SOL     OW24250   4.085   0.284   3.248  0.5537  0.8290  0.6383
 4205SOL    HW124251   4.138   0.205   3.248 -0.8007 -0.1073  2.9170
 4205SOL    HW224252   4.041   0.280   3.163 -0.4660 -2.2086  1.3099
 4206SOL     OW24253   0.798   2.686   6.678  0.8635 -0.1925  0.3147
 4206SOL    HW124254   0.776   2.731   6.597 -0.7085 -0.4743  0.5683
 4206SOL    HW224255   0.717   2.679   6.729  0.6454 -1.5112 -0.2089
 4207SOL     OW24256   2.404   3.311  17.363  0.3589  0.2425  0.3138
 4207SOL    HW124257   2.455   3.383  17.400 -0.6550  0.1532  1.8735
 4207SOL    HW224258   2.315   3.343  17.345  0.9791  2.4303  1.2627
 4208SOL     OW24259   4.605   0.945   6.232 -0.0469  0.2922 -0.2497
 4208SOL    HW124260   4.607   1.012   6.163  3.8963  1.5543  1.0567
 4208SOL    HW224261   4.511   0.932   6.241 -0.1646  1.0060 -0.4449
 4209SOL     OW24262   2.370   2.806   0.839  0.5873  0.3390 -0.2928
 4209SOL    HW124263   2.373   2.726   0.892 -0.9957  0.4776  0.0117
 4209SOL    HW224264   2.316   2.783   0.763  0.1629 -1.4022  0.5229
 4210SOL     OW24265   2.822   2.274  13.009  0.6913 -0.2592 -0.2453
 4210SOL    HW124266   2.816   2.317  13.094  0.4670 -1.9076  0.5570
 4210SOL    HW224267   2.839   2.188  13.046 -1.3814 -1.3244 -1.7467
 4211SOL     OW24268   0.101   2.946   0.194 -0.2180 -0.1935  0.0224
 4211SOL    HW124269   0.009   2.971   0.194  0.1685  1.2674  1.1156
 4211SOL    HW224270   0.131   2.956   0.103  1.4963 -2.2639  0.3705
 4212SOL     OW24271   0.878   2.529   6.228 -0.6550 -0.0797  0.0498
 4212SOL    HW124272   0.803   2.583   6.252 -0.8605  0.3762 -1.5870
 4212SOL    HW224273   0.897   2.563   6.141 -1.6667  0.3128 -0.0129
 4213SOL     OW24274   0.455   2.542   4.877 -0.0885  0.2443  0.7099
 4213SOL    HW124275   0.548   2.562   4.882 -0.3270  1.4401  0.4943
 4213SOL    HW224276   0.412   2.611   4.929  1.8699 -0.3164  3.0904
 4214SOL     OW24277   1.694   1.725   4.963  0.2203 -0.0925 -0.4941
 4214SOL    HW124278   1.746   1.647   4.946 -1.8550 -0.6329 -4.5231
 4214SOL    HW224279   1.742   1.804   4.937 -1.3137  0.6703 -1.0432
 4215SOL     OW24280   2.085   3.961   1.185  0.3614  0.1229 -0.1654
 4215SOL    HW124281   1.993   3.982   1.200  0.5834 -0.5908  2.1139
 4215SOL    HW224282   2.138   3.997   1.255  1.2485 -2.8592  0.6998
 4216SOL     OW24283   0.663   2.623   0.371 -0.4294  0.7825  0.2119
 4216SOL    HW124284   0.570   2.647   0.361 -0.5477 -1.1491 -3.2255
 4216SOL    HW224285   0.664   2.538   0.326 -0.9303  1.9866 -2.1152
 4217SOL     OW24286   0.710   4.052   3.568 -0.5029  0.2345  0.7603
 4217SOL    HW124287   0.655   4.099   3.506 -1.2501 -2.0143 -0.2581
 4217SOL    HW224288   0.673   3.964   3.569  0.4393 -0.1637 -0.1493
 4218SOL     OW24289   1.084   3.738   3.468  0.3143 -0.4307 -0.2720
 4218SOL    HW124290   1.082   3.667   3.532 -0.3425 -1.1242 -1.0673
 4218SOL    HW224291   1.159   3.786   3.503  0.1050  1.1155 -1.9012
 4219SOL     OW24292   1.560   1.058   7.946  0.0157  0.0667  0.5750
 4219SOL    HW124293   1.623   1.126   7.972 -0.0128  0.0996  0.5581
 4219SOL    HW224294   1.502   1.057   8.022  0.5749 -0.6819  0.9915
 4220SOL     OW24295   0.717   3.655   5.132  0.0348  0.6807 -0.5360
 4220SOL    HW124296   0.800   3.609   5.139  0.3740  1.3066 -0.4909
 4220SOL    HW224297   0.735   3.731   5.077  1.3473  0.0338 -0.9796
 4221SOL     OW24298   0.098   1.615  10.845 -0.5986 -0.3507 -0.1900
 4221SOL    HW124299   0.105   1.682  10.777  3.3235 -2.0142 -1.4491
 4221SOL    HW224300   0.158   1.547  10.814  0.1172  0.6009 -0.8666
 4222SOL     OW24301   4.207   0.320   5.844 -0.4729 -0.4331  0.0960
 4222SOL    HW124302   4.189   0.327   5.938  1.1608 -0.7863  0.4289
 4222SOL    HW224303   4.281   0.380   5.834  3.0509 -4.6793  1.2006
 4223SOL     OW24304   1.792   3.449   7.478 -0.4645  0.0955 -0.3815
 4223SOL    HW124305   1.738   3.503   7.420 -1.0706  0.2974  0.3730
 4223SOL    HW224306   1.820   3.376   7.423 -0.1340 -0.0306 -0.0477
 4224SOL     OW24307   4.570   3.911   9.619  0.1861 -0.3683 -0.3599
 4224SOL    HW124308   4.649   3.895   9.672 -0.7539 -0.6880  0.9439
 4224SOL    HW224309   4.535   3.985   9.668 -1.7178  0.4330 -2.9269
 4225SOL     OW24310   0.093   2.929   6.827  0.6239  0.5346 -0.2437
 4225SOL    HW124311   0.163   2.920   6.892 -1.3370 -0.2449  1.7387
 4225SOL    HW224312   0.157   2.917   6.757  0.8913 -1.5007  0.3511
 4226SOL     OW24313   0.892   3.672   4.545 -0.5933 -0.0964  0.3659
 4226SOL    HW124314   0.866   3.580   4.553 -0.0055 -0.1956  1.1578
 4226SOL    HW224315   0.982   3.656   4.515  0.0622  0.4727  2.0040
 4227SOL     OW24316   3.440   1.474  11.316 -0.0346 -0.2328  0.0018
 4227SOL    HW124317   3.408   1.436  11.234 -1.5640 -0.5879  0.7646
 4227SOL    HW224318   3.530   1.440  11.316  0.9431  2.3691 -2.5209
 4228SOL     OW24319   0.613   0.757  12.237 -0.2612 -0.0833 -0.4271
 4228SOL    HW124320   0.520   0.733  12.228  0.2619 -2.2025 -0.1452
 4228SOL    HW224321   0.607   0.837  12.184  1.6862  0.1366 -0.3015
 4229SOL     OW24322   0.135   1.929   3.942 -0.2609  0.1252  0.3577
 4229SOL    HW124323   0.209   1.922   4.003 -2.2458 -2.7207  2.3874
 4229SOL    HW224324   0.182   1.919   3.859 -0.2806  0.0068  0.3621
 4230SOL     OW24325   4.567   4.193  16.810  0.1455  0.3236 -0.7484
 4230SOL    HW124326   4.500   4.132  16.779  0.2560  0.5830 -1.5100
 4230SOL    HW224327   4.635   4.136  16.845 -1.5112  0.2325  2.3328
 4231SOL     OW24328   4.235   0.021   3.199 -0.4756 -0.4392  0.1013
 4231SOL    HW124329   4.199   0.018   3.110  0.2755  1.4671 -0.2716
 4231SOL    HW224330   4.251   4.666   3.212 -3.0193 -0.6316  1.8328
 4232SOL     OW24331   3.199   2.430   5.494 -0.1559  0.5591 -0.0898
 4232SOL    HW124332   3.248   2.394   5.568  2.2018  0.3661 -1.7836
 4232SOL    HW224333   3.269   2.481   5.454  0.3643  0.1060  0.2414
 4233SOL     OW24334   4.704   3.159   8.964  0.1672  0.2620  0.4709
 4233SOL    HW124335   0.002   3.214   9.033 -0.3637 -1.3540  2.0493
 4233SOL    HW224336   4.714   3.207   8.882 -0.1297 -1.2369 -0.4528
 4234SOL     OW24337   4.166   4.641   6.943  0.3370 -0.8766 -0.2159
 4234SOL    HW124338   4.173   4.728   6.982 -0.8243 -0.9376  0.1257
 4234SOL    HW224339   4.200   4.587   7.014 -0.9514 -1.5501 -0.1001
 4235SOL     OW24340   3.559   1.999   8.659 -0.1461 -0.0972  0.3444
 4235SOL    HW124341   3.595   1.914   8.685 -0.1649  0.1949  1.3018
 4235SOL    HW224342   3.624   2.039   8.602  0.7350  0.6437  1.8688
 4236SOL     OW24343   1.612   2.079   8.059 -0.0433 -0.4849 -0.0499
 4236SOL    HW124344   1.546   2.138   8.097  0.5381  0.3174 -0.2797
 4236SOL    HW224345   1.583   2.001   8.106 -0.1204  0.8577  2.1497
 4237SOL     OW24346   0.915   1.315  14.035 -0.2276 -0.2094 -0.2534
 4237SOL    HW124347   0.946   1.231  14.070  0.1371 -0.8931 -2.2468
 4237SOL    HW224348   0.966   1.381  14.083  0.6694 -1.6860  0.8279
 4238SOL     OW24349   3.118   0.301   5.497 -0.1344  0.2870 -0.4476
 4238SOL    HW124350   3.120   0.333   5.588 -0.0208  1.0734 -0.7221
 4238SOL    HW224351   3.026   0.276   5.494 -0.3084  0.9159 -0.3653
 4239SOL     OW24352   0.438   2.668   1.293  0.5232  0.0109  0.1991
 4239SOL    HW124353   0.433   2.628   1.206 -0.4183  0.7820 -0.1055
 4239SOL    HW224354   0.497   2.742   1.276 -0.5376  0.7765 -0.1214
 4240SOL     OW24355   0.728   2.920   8.787 -0.4601  0.7106 -0.3344
 4240SOL    HW124356   0.757   2.852   8.727  0.6787  0.1168  0.8933
 4240SOL    HW224357   0.639   2.930   8.751 -0.5127  0.5436 -0.2494
 4241SOL     OW24358   0.820   4.713   1.998 -0.2438 -0.3636  0.6667
 4241SOL    HW124359   0.832   4.669   1.914  3.3769 -2.5884  2.3748
 4241SOL    HW224360   0.846   4.643   2.058  2.6200  0.9661  0.9627
 4242SOL     OW24361   3.765   1.696   0.930 -0.1518  0.1793 -0.1723
 4242SOL    HW124362   3.688   1.740   0.966 -0.6453 -1.8135  1.2037
 4242SOL    HW224363   3.761   1.735   0.842 -1.4615  1.2712  0.3687
 4243SOL     OW24364   4.393   2.897   5.176  0.5213  0.0876 -0.0611
 4243SOL    HW124365   4.388   2.988   5.205 -2.8268 -0.5261  1.2687
 4243SOL    HW224366   4.353   2.909   5.090  0.1788  0.9658  0.2183
 4244SOL     OW24367   4.532   2.855   4.082 -0.2269 -0.7181 -0.4316
 4244SOL    HW124368   4.496   2.845   3.994 -0.3690  1.6205 -0.6444
 4244SOL    HW224369   4.455   2.832   4.133  0.1526 -1.0524 -0.0057
 4245SOL     OW24370   4.112   4.618  15.982  0.2450  0.0928 -0.1118
 4245SOL    HW124371   4.034   4.597  15.930 -1.1793  0.5117  1.8783
 4245SOL    HW224372   4.064   4.679  16.038  0.5898 -0.5010  0.8130
 4246SOL     OW24373   0.630   4.010   6.741 -0.5172 -0.0328  0.2316
 4246SOL    HW124374   0.689   3.964   6.801 -0.4412 -0.0030  0.1795
 4246SOL    HW224375   0.548   3.998   6.789  1.1640 -0.8931  2.8974
 4247SOL     OW24376   4.657   4.474   7.108  0.4574  0.3692 -0.2136
 4247SOL    HW124377   4.634   4.409   7.174  0.2998  0.7519  0.1096
 4247SOL    HW224378   0.014   4.462   7.111  0.5350  0.7495 -1.1006
 4248SOL     OW24379   3.539   2.350   9.273 -0.1380  0.3748 -0.0568
 4248SOL    HW124380   3.475   2.345   9.202 -1.3349  0.6055  0.9959
 4248SOL    HW224381   3.607   2.292   9.238 -0.2647  0.2044 -0.0229
 4249SOL     OW24382   2.500   0.994   9.595  0.5247 -0.6518  0.4945
 4249SOL    HW124383   2.492   1.089   9.582  0.5113 -0.4854  1.7050
 4249SOL    HW224384   2.410   0.973   9.620  0.9070 -1.8684  0.8139
 4250SOL     OW24385   4.146   2.132   1.647  0.0823 -0.4371  0.2899
 4250SOL    HW124386   4.166   2.203   1.707 -1.4660 -1.4058  1.9200
 4250SOL    HW224387   4.236   2.113   1.619 -0.2541  0.7051 -1.5600
 4251SOL     OW24388   3.567   1.011   8.425 -0.2735 -0.0191  0.2866
 4251SOL    HW124389   3.496   0.950   8.442  0.2051 -0.8978 -0.8619
 4251SOL    HW224390   3.585   0.984   8.335 -0.5189 -3.1845  1.2008
 4252SOL     OW24391   0.306   0.550   6.075 -0.5291  0.1438  0.0791
 4252SOL    HW124392   0.262   0.480   6.027 -2.6456  1.9031 -0.5714
 4252SOL    HW224393   0.329   0.606   6.000  1.6164  0.4342  0.9501
 4253SOL     OW24394   0.243   2.371   1.577 -0.1614 -0.3321 -0.2441
 4253SOL    HW124395   0.265   2.303   1.641  0.3144  0.8957  0.8864
 4253SOL    HW224396   0.322   2.424   1.576  0.5629 -1.4154 -0.9303
 4254SOL     OW24397   3.204   1.069   9.416 -0.2483 -0.4253 -0.2452
 4254SOL    HW124398   3.261   0.994   9.434 -0.8447 -0.8053  0.0733
 4254SOL    HW224399   3.166   1.041   9.333 -0.8938 -1.7677  0.4961
 4255SOL     OW24400   0.820   2.701   2.895 -0.1161 -0.0222  0.5479
 4255SOL    HW124401   0.751   2.714   2.960 -0.2452  0.3106  0.3437
 4255SOL    HW224402   0.891   2.658   2.943  0.3537  0.8481  0.6464
 4256SOL     OW24403   1.946   2.076   9.001 -0.0905  0.4213 -0.5887
 4256SOL    HW124404   1.947   2.068   9.096  0.2260 -0.2679 -0.6448
 4256SOL    HW224405   1.899   1.997   8.974 -2.4530  1.1028  1.6504
 4257SOL     OW24406   0.751   3.028   0.076  0.1553 -0.4077  0.0586
 4257SOL    HW124407   0.692   2.993   0.143 -1.0591  2.1692  0.3446
 4257SOL    HW224408   0.716   3.114   0.052 -1.8353 -1.4668 -0.7910
 4258SOL     OW24409   1.358   1.565   7.151  0.1896  0.0425  0.9426
 4258SOL    HW124410   1.296   1.635   7.134  0.3967  0.1026  0.4341
 4258SOL    HW224411   1.341   1.511   7.073  1.5896 -1.5741  1.7393
 4259SOL     OW24412   0.554   3.865   4.851  0.7942 -0.1427  0.3380
 4259SOL    HW124413   0.539   3.890   4.760 -1.0011  0.7025  0.8524
 4259SOL    HW224414   0.477   3.810   4.868 -0.0623  0.9497 -0.0198
 4260SOL     OW24415   0.559   2.561   8.748 -0.3530  0.4469 -0.2092
 4260SOL    HW124416   0.475   2.521   8.769  0.7578 -1.5203  0.4182
 4260SOL    HW224417   0.614   2.483   8.739 -0.2050  0.5332 -0.0555
 4261SOL     OW24418   3.621   2.414  15.143  0.5940  0.3586  0.2066
 4261SOL    HW124419   3.679   2.440  15.215  0.0048 -1.6549  1.3984
 4261SOL    HW224420   3.607   2.498  15.098  2.9840  0.4265 -0.4467
 4262SOL     OW24421   4.702   4.496   8.745  0.0623  0.2440  0.6050
 4262SOL    HW124422   4.656   4.503   8.829 -1.5380 -0.6319 -0.2259
 4262SOL    HW224423   4.702   4.583   8.706 -0.2978  0.2047  0.5180
 4263SOL     OW24424   4.599   2.676   5.158 -0.2223 -0.2210  0.0414
 4263SOL    HW124425   4.551   2.755   5.135  1.0188  0.4371 -0.3074
 4263SOL    HW224426   4.557   2.655   5.242  1.0134 -0.2646  0.6610
 4264SOL     OW24427   3.230   0.432   3.343  0.1183 -0.2858 -0.1197
 4264SOL    HW124428   3.174   0.414   3.267  0.0048  2.8532 -0.7738
 4264SOL    HW224429   3.172   0.414   3.417 -0.8556 -1.7575 -1.2491
 4265SOL     OW24430   3.675   3.221   3.418  0.5275  0.6396 -0.0174
 4265SOL    HW124431   3.699   3.213   3.326  3.6153  1.1026  0.7458
 4265SOL    HW224432   3.758   3.198   3.459  0.2227 -0.8236 -0.2131
 4266SOL     OW24433   3.751   0.713   7.616 -0.3408 -0.5636  0.3309
 4266SOL    HW124434   3.829   0.732   7.667 -0.2701 -1.8331  0.7056
 4266SOL    HW224435   3.744   0.617   7.621  1.3413 -0.6551  0.7100
 4267SOL     OW24436   3.014   3.678   2.936 -0.1244  0.6584  0.1966
 4267SOL    HW124437   2.987   3.597   2.892  2.2183 -0.9239  1.6256
 4267SOL    HW224438   3.040   3.721   2.855  1.4543  2.1912  1.5357
 4268SOL     OW24439   2.498   2.374  16.183 -0.2651  0.4853  0.3557
 4268SOL    HW124440   2.490   2.290  16.137  2.5927  1.5134 -1.9993
 4268SOL    HW224441   2.480   2.355  16.275 -1.1207 -1.4896 -0.2244
 4269SOL     OW24442   4.008   1.030  10.808 -0.3957  0.8725  0.3355
 4269SOL    HW124443   4.054   1.087  10.869  1.4640 -1.3655  1.0488
 4269SOL    HW224444   3.948   1.092  10.767  1.4798  2.2529 -0.2918
 4270SOL     OW24445   1.528   4.601   3.199  0.5989  0.2094 -0.3462
 4270SOL    HW124446   1.457   4.544   3.171 -1.2811  2.4955 -0.1977
 4270SOL    HW224447   1.585   4.588   3.123 -1.5381  3.2061 -2.4425
 4271SOL     OW24448   0.476   3.697   5.271 -0.4781  0.6324 -0.1326
 4271SOL    HW124449   0.524   3.729   5.348 -0.0987 -2.4363  0.9113
 4271SOL    HW224450   0.545   3.685   5.206  0.8364  1.5408  1.0710
 4272SOL     OW24451   1.996   4.465   9.317 -0.2404 -0.5936 -0.1695
 4272SOL    HW124452   2.006   4.528   9.245  3.1496 -0.0619  0.7470
 4272SOL    HW224453   2.008   4.384   9.267  1.2893  1.0980 -2.5908
 4273SOL     OW24454   4.309   1.651   9.472 -0.1032 -0.2777 -0.0748
 4273SOL    HW124455   4.219   1.679   9.453 -0.6808 -1.2700  1.1993
 4273SOL    HW224456   4.295   1.584   9.539  1.0407 -2.1312 -1.7012
 4274SOL     OW24457   1.272   4.675   5.095 -0.1698  0.0283  0.3063
 4274SOL    HW124458   1.207   4.694   5.027 -0.3052  3.0484  1.2422
 4274SOL    HW224459   1.218   4.649   5.169 -0.5441 -0.3440 -0.1043
 4275SOL     OW24460   0.432   1.583   5.827  0.4478  0.3803  0.0184
 4275SOL    HW124461   0.506   1.625   5.783 -0.5732  1.0870 -1.0216
 4275SOL    HW224462   0.373   1.560   5.756 -1.5882  0.0338  1.8456
 4276SOL     OW24463   3.400   1.059   3.834  0.0634 -0.6760  0.2502
 4276SOL    HW124464   3.424   0.966   3.836 -3.0063 -1.4758 -0.4802
 4276SOL    HW224465   3.400   1.074   3.929  0.4461  0.0631  0.1321
 4277SOL     OW24466   2.215   4.384   9.605 -0.1828  0.3116 -0.5042
 4277SOL    HW124467   2.165   4.405   9.527 -0.4458  1.6632  0.0253
 4277SOL    HW224468   2.263   4.307   9.574 -2.5322 -1.6281  0.6934
 4278SOL     OW24469   1.489   2.568   8.749 -0.2109  0.0745 -0.9228
 4278SOL    HW124470   1.581   2.595   8.749 -0.4275  0.6579  4.0209
 4278SOL    HW224471   1.472   2.587   8.841  2.6747 -0.6566 -0.2425
 4279SOL     OW24472   4.585   4.368   5.367  0.5204  0.2411 -0.7023
 4279SOL    HW124473   4.617   4.442   5.417  1.1026 -0.0791 -0.6070
 4279SOL    HW224474   4.556   4.302   5.430  1.0115  0.8159  0.1139
 4280SOL     OW24475   1.817   2.473   0.367  0.1212  0.6056  0.2577
 4280SOL    HW124476   1.806   2.526   0.445 -0.4184  1.1753 -0.2077
 4280SOL    HW224477   1.748   2.407   0.376 -1.1343  1.8430 -0.3831
 4281SOL     OW24478   4.148   2.077  12.611  0.2107  0.1566  0.0119
 4281SOL    HW124479   4.113   2.021  12.680 -0.4627 -1.2136 -1.4527
 4281SOL    HW224480   4.085   2.052  12.544  0.0924 -0.8252  0.4995
 4282SOL     OW24481   3.805   3.956   3.371 -0.3314  0.4680 -0.5200
 4282SOL    HW124482   3.732   3.894   3.367  0.5761 -0.8060  2.6958
 4282SOL    HW224483   3.877   3.892   3.371 -2.5295 -2.0258 -2.3554
 4283SOL     OW24484   2.493   1.190   8.239  0.3706 -0.0871 -0.7262
 4283SOL    HW124485   2.532   1.120   8.187 -0.2709 -1.1616  0.2572
 4283SOL    HW224486   2.575   1.234   8.264  0.1224  0.3241 -0.6393
 4284SOL     OW24487   3.865   3.468   5.215 -0.1608  0.0212 -0.1799
 4284SOL    HW124488   3.830   3.523   5.145  2.8181  1.8812 -0.1968
 4284SOL    HW224489   3.856   3.523   5.293  0.4126  2.0422 -1.5410
 4285SOL     OW24490   3.566   2.292   2.141  0.2831 -0.4656 -0.0960
 4285SOL    HW124491   3.486   2.315   2.092  1.4865  1.5528 -1.1226
 4285SOL    HW224492   3.601   2.379   2.157  1.5563 -1.3932  2.1487
 4286SOL     OW24493   3.568   3.035   5.392  0.0425 -0.3823  0.1675
 4286SOL    HW124494   3.486   3.073   5.361  0.2923 -0.2878 -0.3792
 4286SOL    HW224495   3.543   2.956   5.440  1.9211 -1.8434 -1.2484
 4287SOL     OW24496   3.078   1.674  15.339  0.2413 -0.0715  0.1707
 4287SOL    HW124497   3.124   1.758  15.340  2.3995 -1.2652  0.6842
 4287SOL    HW224498   3.153   1.617  15.324  0.6625  0.8935 -1.4342
 4288SOL     OW24499   2.913   4.040  15.421  0.2079  0.1528 -0.2327
 4288SOL    HW124500   2.943   4.129  15.439 -0.1242  0.8382 -3.2203
 4288SOL    HW224501   2.886   4.040  15.330 -1.2532 -0.5802  0.1979
 4289SOL     OW24502   2.454   0.271   5.955 -0.6271  0.2225 -0.0324
 4289SOL    HW124503   2.425   0.329   6.026  1.2034  0.3569  0.5893
 4289SOL    HW224504   2.443   0.188   6.001  0.4202  0.6127  0.9136
 4290SOL     OW24505   2.674   4.556   9.850 -0.0082  0.5947 -0.2302
 4290SOL    HW124506   2.630   4.612   9.914  0.6328 -2.3273  2.7769
 4290SOL    HW224507   2.609   4.535   9.783 -0.7837 -0.6371  0.9180
 4291SOL     OW24508   3.568   2.446  13.059 -0.3733  0.1163 -0.0140
 4291SOL    HW124509   3.524   2.378  13.109 -0.3239 -0.3447 -0.6019
 4291SOL    HW224510   3.644   2.397  13.029 -0.0262  1.4254 -1.3159
 4292SOL     OW24511   2.445   3.873   4.237 -0.3303  0.2912 -0.2895
 4292SOL    HW124512   2.365   3.904   4.280  0.1221  0.8252  0.1680
 4292SOL    HW224513   2.512   3.890   4.303  0.1863  1.0076 -0.9885
 4293SOL     OW24514   4.422   3.441  14.480 -0.2300 -0.3374  0.2516
 4293SOL    HW124515   4.332   3.471  14.480  0.2735  1.1884 -2.5781
 4293SOL    HW224516   4.434   3.422  14.387  0.1793 -0.0180  0.2358
 4294SOL     OW24517   0.440   4.375   9.748 -0.1054  0.1830 -0.5374
 4294SOL    HW124518   0.516   4.432   9.732  1.1605 -1.4817 -0.4849
 4294SOL    HW224519   0.367   4.435   9.736 -3.1403 -2.9355  2.2063
 4295SOL     OW24520   3.273   1.694   4.516  0.2631  0.3291  0.5694
 4295SOL    HW124521   3.363   1.697   4.483  0.7977  0.7744  2.0505
 4295SOL    HW224522   3.230   1.708   4.431  1.3454 -0.7422 -0.1464
 4296SOL     OW24523   4.682   3.993  16.185  0.3467  0.8407  0.3471
 4296SOL    HW124524   4.736   3.984  16.264  2.0506 -0.4964 -0.9858
 4296SOL    HW224525   4.693   3.912  16.136 -0.0411  0.9021  0.1570
 4297SOL     OW24526   4.051   2.703   8.089  0.4872  0.4960  0.1464
 4297SOL    HW124527   4.110   2.753   8.033  0.6952 -0.8207 -0.8121
 4297SOL    HW224528   4.039   2.757   8.168  0.6052  0.0379  0.4800
 4298SOL     OW24529   4.225   3.918   1.811  0.1677  0.5056 -0.3387
 4298SOL    HW124530   4.309   3.872   1.822 -0.3424 -0.3533 -0.0746
 4298SOL    HW224531   4.166   3.848   1.838 -0.3987  1.3955  0.7111
 4299SOL     OW24532   0.938   4.429   8.638  0.0002  0.7635 -0.1341
 4299SOL    HW124533   1.028   4.453   8.620 -0.3043  0.4009 -2.1345
 4299SOL    HW224534   0.944   4.337   8.611  2.3696  0.6476  0.8060
 4300SOL     OW24535   4.638   2.280  15.211  0.2921 -0.0911 -0.6074
 4300SOL    HW124536   4.569   2.310  15.270 -2.3914 -0.9405 -3.3543
 4300SOL    HW224537   4.575   2.224  15.165  1.7648 -1.9221 -0.4229
 4301SOL     OW24538   1.896   0.736   5.278 -0.3624  0.2766  0.5875
 4301SOL    HW124539   1.934   0.669   5.334  3.2800  2.8369  1.2416
 4301SOL    HW224540   1.861   0.684   5.206  1.8603  0.1282 -0.4045
 4302SOL     OW24541   1.245   1.194  17.296  0.1923 -0.1519 -0.1472
 4302SOL    HW124542   1.149   1.197  17.292  0.2719 -1.4900 -2.8058
 4302SOL    HW224543   1.270   1.164  17.209 -1.5208  0.6068 -0.8989
 4303SOL     OW24544   4.278   3.077  13.950  0.0341 -0.7216  0.3915
 4303SOL    HW124545   4.318   3.097  13.866 -0.5504 -1.0036  0.0463
 4303SOL    HW224546   4.314   3.142  14.010 -1.5515 -1.8706  2.6010
 4304SOL     OW24547   0.383   1.741  14.700 -0.3305  0.5141 -0.0922
 4304SOL    HW124548   0.386   1.677  14.771  0.9773 -0.7174 -1.2370
 4304SOL    HW224549   0.293   1.728  14.671 -0.5704  2.1443 -0.0519
 4305SOL     OW24550   0.656   3.479   9.315 -0.2175 -0.0738 -1.0212
 4305SOL    HW124551   0.701   3.528   9.246 -1.7810  0.8836 -1.3630
 4305SOL    HW224552   0.726   3.459   9.377 -1.3742  0.9702  0.6263
 4306SOL     OW24553   4.362   3.148   0.363 -0.3931  0.0780  0.4105
 4306SOL    HW124554   4.336   3.057   0.347 -1.7899  0.8622 -1.7057
 4306SOL    HW224555   4.385   3.162   0.271  0.2790 -0.2512  0.5305
 4307SOL     OW24556   2.416   4.526   8.249 -0.1048 -0.4760  0.3939
 4307SOL    HW124557   2.476   4.522   8.323 -0.6283  0.1855  0.8521
 4307SOL    HW224558   2.473   4.568   8.184 -2.5959  2.4577  0.0932
 4308SOL     OW24559   3.284   1.808   6.416 -0.4466  0.7483  0.3353
 4308SOL    HW124560   3.250   1.831   6.502 -0.8994  1.1671  0.0471
 4308SOL    HW224561   3.199   1.778   6.382  0.0673 -0.3370  0.0242
 4309SOL     OW24562   1.193   3.898   6.775 -0.0783 -0.5232  0.4883
 4309SOL    HW124563   1.269   3.852   6.809 -0.1722 -1.7536 -1.0144
 4309SOL    HW224564   1.155   3.920   6.861  1.4431 -0.2079  1.0773
 4310SOL     OW24565   1.543   4.150   3.117 -0.6410 -0.6960 -0.4265
 4310SOL    HW124566   1.475   4.084   3.129 -1.0423 -0.0554  0.8082
 4310SOL    HW224567   1.494   4.219   3.073  0.6785 -0.1933 -1.1004
 4311SOL     OW24568   1.152   2.334   0.628 -0.2423  0.2700  0.7577
 4311SOL    HW124569   1.198   2.338   0.544 -0.8134 -0.2073  0.4219
 4311SOL    HW224570   1.064   2.366   0.610 -0.1188  0.5416  0.6520
 4312SOL     OW24571   4.688   1.796   4.092 -0.6177  0.2373 -0.4342
 4312SOL    HW124572   4.642   1.732   4.038  1.9489  0.7412 -3.2322
 4312SOL    HW224573   0.006   1.832   4.024  0.7425  0.1059  0.6408
 4313SOL     OW24574   3.727   0.589   3.409 -0.1515  0.0629  0.9113
 4313SOL    HW124575   3.655   0.571   3.349 -0.1971 -0.3540  1.0918
 4313SOL    HW224576   3.787   0.525   3.370 -0.4646 -0.2781  0.9870
 4314SOL     OW24577   0.814   4.651   5.103  0.0587 -0.2856  0.1998
 4314SOL    HW124578   0.779   4.565   5.079 -1.9428  1.1816 -2.0976
 4314SOL    HW224579   0.732   4.701   5.108 -1.5805 -2.9672  0.4976
 4315SOL     OW24580   3.000   1.374   5.374  0.8655  0.4226 -0.1647
 4315SOL    HW124581   3.045   1.421   5.443 -1.4735  1.2777  0.7757
 4315SOL    HW224582   3.004   1.283   5.405  0.1680  0.6352  0.5471
 4316SOL     OW24583   1.433   1.923   0.789 -0.1947  0.0120  0.7038
 4316SOL    HW124584   1.358   1.933   0.848 -0.3395 -0.3053  0.5714
 4316SOL    HW224585   1.485   1.853   0.828 -0.5235  0.0597  1.2194
 4317SOL     OW24586   2.906   3.806   8.672  0.5230 -0.2825 -0.1555
 4317SOL    HW124587   2.830   3.778   8.723 -0.0329 -1.7500 -1.7666
 4317SOL    HW224588   2.882   3.789   8.581 -1.3555  1.8627 -0.0545
 4318SOL     OW24589   0.045   1.371   3.051  0.0216 -0.1186 -0.6265
 4318SOL    HW124590   0.128   1.400   3.090  0.8479 -1.6262 -1.2500
 4318SOL    HW224591   0.071   1.348   2.962 -0.5339  0.0643 -0.8305
 4319SOL     OW24592   1.604   2.441   5.175  0.1210  0.7677  0.0940
 4319SOL    HW124593   1.637   2.468   5.261  2.4148  0.7022 -0.7831
 4319SOL    HW224594   1.656   2.361   5.165  1.3960  1.7187 -0.8602
 4320SOL     OW24595   1.103   3.870   3.881  0.1848 -0.3119  0.1484
 4320SOL    HW124596   1.125   3.781   3.853  2.1292 -0.1327  1.0872
 4320SOL    HW224597   1.085   3.908   3.796  0.6742  0.5057  0.4051
 4321SOL     OW24598   4.192   1.982   7.340 -0.0280 -0.2457  0.9276
 4321SOL    HW124599   4.185   1.888   7.357 -1.0843 -0.2652  0.4041
 4321SOL    HW224600   4.101   1.999   7.314  0.7020 -0.1086 -1.5358
 4322SOL     OW24601   4.693   2.998  15.890  0.0724 -0.0141 -0.3276
 4322SOL    HW124602   4.700   3.023  15.797  1.3812 -3.0297 -1.0131
 4322SOL    HW224603   4.647   3.077  15.920 -0.1500 -0.0671 -0.5311
 4323SOL     OW24604   0.353   1.475   6.861  0.0847 -0.0217  0.2633
 4323SOL    HW124605   0.271   1.524   6.868 -0.8875 -1.4571 -0.9755
 4323SOL    HW224606   0.421   1.541   6.849 -0.1442  0.0372 -0.7194
 4324SOL     OW24607   3.752   2.709   1.590  0.4694 -0.4762 -0.0938
 4324SOL    HW124608   3.758   2.783   1.650  0.9484  0.3542 -1.1574
 4324SOL    HW224609   3.754   2.634   1.649 -1.9145 -0.2478  0.2936
 4325SOL     OW24610   0.926   0.972   6.459  0.4571 -0.1979  0.8329
 4325SOL    HW124611   0.847   0.931   6.425  0.7011 -0.6875  0.8641
 4325SOL    HW224612   0.959   1.019   6.382 -0.1237 -1.1277  0.0196
 4326SOL     OW24613   3.267   3.609  10.115  0.2929  0.0397  0.5103
 4326SOL    HW124614   3.270   3.578  10.206 -0.0518  0.1263  0.5542
 4326SOL    HW224615   3.356   3.629  10.089 -0.0252  1.0802  0.2331
 4327SOL     OW24616   2.252   1.632  12.756 -0.0418  0.1993  0.1813
 4327SOL    HW124617   2.263   1.622  12.662  0.0246  2.0569 -0.0053
 4327SOL    HW224618   2.323   1.579  12.792  0.1163 -0.2698 -0.8248
 4328SOL     OW24619   2.124   0.426   2.846  0.2533 -0.0229  0.6163
 4328SOL    HW124620   2.069   0.469   2.779  0.2283  1.2357  1.4420
 4328SOL    HW224621   2.088   0.479   2.917  1.4544  2.2741 -0.4642
 4329SOL     OW24622   0.240   0.660  15.594  0.3925  0.1353  0.4198
 4329SOL    HW124623   0.303   0.590  15.611  1.4488  0.7108 -1.1748
 4329SOL    HW224624   0.239   0.656  15.499 -0.7472  0.6003  0.4085
 4330SOL     OW24625   3.698   3.859   6.914 -0.2897 -0.4043  0.7529
 4330SOL    HW124626   3.685   3.949   6.886 -0.0652 -0.9229 -1.0858
 4330SOL    HW224627   3.724   3.874   7.004 -1.9204  0.1289  1.1217
 4331SOL     OW24628   1.615   3.645  15.384 -0.2078  0.5972 -0.3209
 4331SOL    HW124629   1.663   3.610  15.309  0.3997  2.2236 -0.6811
 4331SOL    HW224630   1.651   3.584  15.449 -0.8940  1.0058  0.4476
 4332SOL     OW24631   3.909   0.487   2.095 -0.2279 -0.1266 -0.0950
 4332SOL    HW124632   3.854   0.446   2.029  0.9240  2.4597 -2.6342
 4332SOL    HW224633   3.885   0.443   2.177 -0.5118  1.0049  0.4351
 4333SOL     OW24634   3.629   0.613   9.024 -0.5680 -0.6637  0.3102
 4333SOL    HW124635   3.644   0.610   9.118 -0.3789 -1.1551  0.2671
 4333SOL    HW224636   3.649   0.702   8.996 -1.2973 -0.0042  1.9585
 4334SOL     OW24637   0.378   0.714   5.856 -0.0357  0.2026  0.1665
 4334SOL    HW124638   0.465   0.745   5.832  0.8097 -0.8764  1.8616
 4334SOL    HW224639   0.337   0.753   5.779 -2.1532  0.2375  1.2902
 4335SOL     OW24640   4.142   2.755   7.012  0.1975  0.5098 -0.5809
 4335SOL    HW124641   4.221   2.762   7.065  0.5946  1.2551 -1.2629
 4335SOL    HW224642   4.177   2.796   6.933  0.1663  1.3722 -0.1449
 4336SOL     OW24643   0.173   0.900  15.709 -0.3915  0.3252  0.0305
 4336SOL    HW124644   0.262   0.932  15.727 -1.0855  1.5654  1.2783
 4336SOL    HW224645   0.205   0.840  15.642  0.6827 -1.1827  1.9006
 4337SOL     OW24646   3.005   4.283   6.110  0.0377  0.0232  0.4290
 4337SOL    HW124647   3.063   4.258   6.037  1.0044 -2.7852  2.1938
 4337SOL    HW224648   2.928   4.227   6.107 -3.3352  4.8207 -1.7545
 4338SOL     OW24649   0.249   4.126  11.620 -0.7458  0.5331  0.7085
 4338SOL    HW124650   0.241   4.193  11.552  1.0149  0.1231  0.0951
 4338SOL    HW224651   0.330   4.079  11.602 -1.3263 -0.6054  1.0362
 4339SOL     OW24652   3.014   1.084  12.339  0.0467 -0.0716 -0.2710
 4339SOL    HW124653   2.945   1.150  12.338 -0.9520 -1.1529 -1.8792
 4339SOL    HW224654   2.995   1.040  12.422 -0.4776  1.0522  0.2104
 4340SOL     OW24655   1.749   0.757  10.881  0.1239 -0.2134 -0.1067
 4340SOL    HW124656   1.772   0.732  10.791  0.7313 -2.8646  0.7766
 4340SOL    HW224657   1.702   0.675  10.898 -0.4591 -0.0255 -0.8249
 4341SOL     OW24658   3.989   0.971  11.387 -0.2425  0.6171 -0.8735
 4341SOL    HW124659   4.043   0.983  11.466 -1.4980 -1.1272  0.2509
 4341SOL    HW224660   4.040   0.965  11.306  0.6697  0.2668 -0.2773
 4342SOL     OW24661   0.057   2.907   7.827 -0.1010  0.0589 -0.4726
 4342SOL    HW124662   0.080   3.000   7.825  0.5042 -0.1246 -1.6301
 4342SOL    HW224663   0.131   2.864   7.784 -0.8535 -1.4698 -0.2371
 4343SOL     OW24664   0.988   2.902  15.807  0.0069  0.9197 -0.2709
 4343SOL    HW124665   0.984   2.821  15.755  1.2558  0.2238  0.6991
 4343SOL    HW224666   0.954   2.966  15.745 -1.2775  1.6369  1.1701
 4344SOL     OW24667   1.560   0.668  14.088  0.0236  0.3229  0.2646
 4344SOL    HW124668   1.624   0.698  14.153  0.1766  0.9373 -0.1725
 4344SOL    HW224669   1.481   0.708  14.125  0.7326  1.0509  1.0101
 4345SOL     OW24670   4.372   1.132   6.430 -0.1346  0.2493  0.1318
 4345SOL    HW124671   4.439   1.200   6.440 -0.2451  0.5552 -1.2584
 4345SOL    HW224672   4.338   1.155   6.344  0.5841 -0.7861 -0.4300
 4346SOL     OW24673   4.159   4.222   6.000 -0.1972 -0.7943  0.3391
 4346SOL    HW124674   4.198   4.287   6.058 -2.4385  0.2271  0.6937
 4346SOL    HW224675   4.237   4.181   5.963  0.1753  1.2155 -1.1056
 4347SOL     OW24676   0.355   1.833  13.626  0.5836  0.4893  0.1071
 4347SOL    HW124677   0.439   1.877  13.637  0.7817 -0.6162  3.1665
 4347SOL    HW224678   0.311   1.886  13.693  0.6229  1.1884 -0.4136
 4348SOL     OW24679   0.138   3.867   7.977 -0.4569  0.3502 -0.0583
 4348SOL    HW124680   0.076   3.885   8.047 -0.3078  0.9330 -0.0734
 4348SOL    HW224681   0.130   3.949   7.928 -2.2523 -0.4491 -1.1016
 4349SOL     OW24682   2.637   2.078   0.584  0.9440  0.0741  0.2360
 4349SOL    HW124683   2.726   2.084   0.619 -0.0825  1.3583  2.6376
 4349SOL    HW224684   2.593   2.115   0.661  1.2639 -3.4578  2.0902
 4350SOL     OW24685   4.356   3.641   8.213 -0.4260  0.1211 -0.1898
 4350SOL    HW124686   4.356   3.724   8.165  1.2779 -0.4271 -1.1282
 4350SOL    HW224687   4.422   3.589   8.167 -1.2190 -1.1934  0.1728
 4351SOL     OW24688   0.797   2.977   2.965  0.5042 -0.1132 -0.0094
 4351SOL    HW124689   0.812   2.932   3.047 -3.1147 -1.5709 -0.1659
 4351SOL    HW224690   0.843   2.920   2.903  1.0682 -2.2521  2.4086
 4352SOL     OW24691   4.652   2.297   0.490  0.3149  1.1444 -0.7479
 4352SOL    HW124692   4.579   2.353   0.517 -2.0560 -2.2544 -0.1574
 4352SOL    HW224693   4.659   2.307   0.395 -0.6870  1.4223 -0.7852
 4353SOL     OW24694   4.496   4.532   2.709  0.0946  0.4699  0.1200
 4353SOL    HW124695   4.422   4.591   2.696 -0.8892 -0.0239  3.5014
 4353SOL    HW224696   4.531   4.565   2.792  0.6903  0.1529 -0.0074
 4354SOL     OW24697   3.006   1.854   1.054 -0.4198  0.4056 -0.5942
 4354SOL    HW124698   2.911   1.850   1.052 -0.4160  0.0985 -0.1678
 4354SOL    HW224699   3.018   1.937   1.008 -0.8404  1.1054  0.5683
 4355SOL     OW24700   0.925   0.531   4.824 -0.0219  0.1763  0.2755
 4355SOL    HW124701   0.984   0.493   4.759 -0.0755  2.0453 -0.8501
 4355SOL    HW224702   0.863   0.569   4.762  1.6107  0.0737 -1.4169
 4356SOL     OW24703   2.791   4.598  12.056 -0.2280  0.2938 -0.0095
 4356SOL    HW124704   2.859   4.569  11.995 -0.4785 -3.4542  1.4806
 4356SOL    HW224705   2.744   4.520  12.086  1.1033 -0.2954  0.5555
 4357SOL     OW24706   3.558   0.146  14.654 -0.1811  0.2146 -0.1794
 4357SOL    HW124707   3.606   0.107  14.727  0.6374 -0.0085 -0.8459
 4357SOL    HW224708   3.469   0.129  14.685  0.0743  0.9717  0.9903
 4358SOL     OW24709   1.026   3.554   8.797 -0.0443 -0.1154  0.2327
 4358SOL    HW124710   1.084   3.577   8.725 -1.9784 -1.2501 -1.6998
 4358SOL    HW224711   0.955   3.511   8.748  0.2281 -0.0087 -0.2546
 4359SOL     OW24712   3.087   0.666   5.073 -0.1784  0.1658 -0.1624
 4359SOL    HW124713   3.122   0.726   5.006  0.9007  0.4944  0.7089
 4359SOL    HW224714   3.059   0.726   5.142  1.4371  1.1906 -0.3930
 4360SOL     OW24715   0.488   4.504   5.130 -0.8934  0.6882 -0.9390
 4360SOL    HW124716   0.500   4.517   5.224  0.9071 -2.6479 -0.7158
 4360SOL    HW224717   0.560   4.444   5.116 -0.9397  0.0536  1.5761
 4361SOL     OW24718   1.690   1.322  13.623 -0.2678 -0.1103  0.0545
 4361SOL    HW124719   1.669   1.268  13.699 -0.9103 -1.0600 -0.7914
 4361SOL    HW224720   1.739   1.394  13.661 -0.3206 -0.0019 -0.0814
 4362SOL     OW24721   4.039   3.940   9.527 -0.5035  0.3717 -0.6416
 4362SOL    HW124722   4.078   3.856   9.504 -1.4435 -0.3416  0.4054
 4362SOL    HW224723   4.099   3.961   9.598 -0.4537 -0.1322 -0.5355
 4363SOL     OW24724   0.930   0.872  12.490 -0.0618  0.2204 -0.8272
 4363SOL    HW124725   1.006   0.852  12.544 -0.9512  1.2964  0.8033
 4363SOL    HW224726   0.855   0.854  12.545 -0.0583 -2.9994 -1.9014
 4364SOL     OW24727   3.123   2.432  17.326  0.2621  0.2801  0.4692
 4364SOL    HW124728   3.083   2.518  17.318  0.9868  0.7240  1.5304
 4364SOL    HW224729   3.061   2.364  17.299  1.0592 -0.7352  1.1767
 4365SOL     OW24730   0.586   1.507   4.935 -0.7676 -0.1208  0.3637
 4365SOL    HW124731   0.504   1.544   4.967  0.1951  1.0422  1.4752
 4365SOL    HW224732   0.590   1.537   4.844  0.5739  1.5767  0.9993
 4366SOL     OW24733   1.035   1.863   3.831 -0.2140  0.3374 -0.0870
 4366SOL    HW124734   0.994   1.798   3.889  0.8386  0.0968  0.3969
 4366SOL    HW224735   0.963   1.925   3.832 -1.1033 -0.6716 -1.4858
 4367SOL     OW24736   2.000   3.172   5.205  0.0112 -0.1545  0.2774
 4367SOL    HW124737   2.049   3.152   5.126  0.3311  2.8438 -0.3000
 4367SOL    HW224738   2.033   3.101   5.260  1.9684 -0.3710 -1.1740
 4368SOL     OW24739   3.949   1.174   2.387  0.0395 -0.0324  0.0695
 4368SOL    HW124740   3.856   1.190   2.372  0.5689  2.1224 -0.8496
 4368SOL    HW224741   3.962   1.097   2.330 -1.5867 -1.0438  1.0730
 4369SOL     OW24742   4.666   2.835   7.519 -0.1173  0.2381 -0.0005
 4369SOL    HW124743   4.670   2.795   7.606  1.5530  1.2928  0.4052
 4369SOL    HW224744   4.578   2.809   7.494 -0.3681  1.5859 -0.5190
 4370SOL     OW24745   1.646   3.680   3.639 -0.3976  0.3899 -0.2715
 4370SOL    HW124746   1.628   3.609   3.578  1.4464  1.3687 -1.9356
 4370SOL    HW224747   1.719   3.727   3.599 -1.6925 -0.2836 -3.3865
 4371SOL     OW24748   2.230   2.069   6.608  0.1719 -0.0093 -0.4490
 4371SOL    HW124749   2.189   2.004   6.551 -2.0131  0.4638  0.5826
 4371SOL    HW224750   2.155   2.121   6.637 -1.6237 -1.8364 -1.8613
 4372SOL     OW24751   2.815   4.562   1.549  0.3197 -0.4821 -0.0436
 4372SOL    HW124752   2.766   4.534   1.626 -0.1106  1.4245  0.3640
 4372SOL    HW224753   2.748   4.595   1.489  0.1602 -1.5779 -0.4711
 4373SOL     OW24754   1.355   2.055  16.740 -0.3118 -0.4357 -0.0740
 4373SOL    HW124755   1.377   1.976  16.790  1.2411  0.0611 -0.0045
 4373SOL    HW224756   1.290   2.012  16.684 -1.2820  1.1858 -0.1870
 4374SOL     OW24757   3.776   0.340  11.845 -0.4338 -0.0720 -0.2844
 4374SOL    HW124758   3.858   0.290  11.851 -0.4671  0.0435  1.0530
 4374SOL    HW224759   3.724   0.279  11.791 -0.7970  0.0032 -0.0157
 4375SOL     OW24760   3.112   3.596   0.045 -0.5125  0.3036  0.5965
 4375SOL    HW124761   3.087   3.602   0.137  0.3816 -0.3435  0.8863
 4375SOL    HW224762   3.065   3.518   0.018  0.1785  0.3993 -0.8496
 4376SOL     OW24763   2.122   2.018  14.041  0.1146 -0.2054 -0.3941
 4376SOL    HW124764   2.039   1.987  14.080  0.5139 -0.4936  0.2255
 4376SOL    HW224765   2.097   2.083  13.975  0.7781 -0.4148 -0.8514
 4377SOL     OW24766   0.207   0.481  16.750  0.4774 -0.4868 -0.0029
 4377SOL    HW124767   0.115   0.487  16.774  0.1453  0.6772 -1.5926
 4377SOL    HW224768   0.194   0.430  16.670 -0.6428  1.9621 -1.3608
 4378SOL     OW24769   4.373   3.301   3.795  0.0168  0.4356  0.4334
 4378SOL    HW124770   4.449   3.352   3.769  0.0247 -0.0166 -0.4396
 4378SOL    HW224771   4.391   3.223   3.742 -0.7892  0.0574  0.7152
 4379SOL     OW24772   1.437   2.047   1.699  0.1936  0.1361 -0.1412
 4379SOL    HW124773   1.348   2.046   1.735 -0.5577  0.6414 -1.9583
 4379SOL    HW224774   1.458   2.140   1.705  3.1002 -0.7454  3.1262
 4380SOL     OW24775   3.140   1.817   7.112  0.0186 -0.6216  0.0983
 4380SOL    HW124776   3.091   1.833   7.031 -1.4317  2.3067  1.5713
 4380SOL    HW224777   3.091   1.749   7.157  0.3533  0.9316  2.7896
 4381SOL     OW24778   4.444   0.035   3.372  0.3227  0.0589  0.5450
 4381SOL    HW124779   4.526   0.020   3.325  0.3616  2.7727 -0.2128
 4381SOL    HW224780   4.381   0.035   3.300  0.0083 -2.1389  0.8186
 4382SOL     OW24781   1.938   4.429   2.004 -0.6375  0.0387  0.4246
 4382SOL    HW124782   1.848   4.441   2.035  0.4132 -0.9099  3.7883
 4382SOL    HW224783   1.983   4.501   2.049  2.5481 -1.3596 -0.5524
 4383SOL     OW24784   0.594   1.112   8.500 -0.0109  0.0637  0.1399
 4383SOL    HW124785   0.652   1.187   8.512 -1.2401  1.1448 -0.5830
 4383SOL    HW224786   0.643   1.061   8.435  0.5675 -1.5069  1.8166
 4384SOL     OW24787   3.999   0.174  11.900  0.5182 -0.0984  0.8050
 4384SOL    HW124788   4.080   0.160  11.948 -0.4936 -0.2838  2.4471
 4384SOL    HW224789   4.024   0.134  11.816  0.2241 -0.4440  0.8823
 4385SOL     OW24790   1.442   0.550   2.335  0.1258  0.3686 -0.2653
 4385SOL    HW124791   1.369   0.610   2.353  0.4240  1.4408 -2.7066
 4385SOL    HW224792   1.393   0.468   2.342 -3.0291  2.5510  3.1680
 4386SOL     OW24793   4.484   0.063   2.037 -0.7043  0.2756 -0.1436
 4386SOL    HW124794   4.421   0.134   2.046  1.2102  1.7520  1.7376
 4386SOL    HW224795   4.550   0.123   2.001 -1.2711  1.4336  0.7401
 4387SOL     OW24796   0.114   4.026   8.327  0.2087  0.4377  0.1578
 4387SOL    HW124797   0.126   3.980   8.410 -2.5746 -2.2469 -0.9539
 4387SOL    HW224798   0.033   4.061   8.364 -0.3931 -0.4698 -0.3011
 4388SOL     OW24799   3.293   2.445   1.448  0.2537  0.1511  0.3135
 4388SOL    HW124800   3.229   2.390   1.494 -1.2494  1.4745 -0.1749
 4388SOL    HW224801   3.353   2.466   1.519  2.0269  0.6688 -1.3347
 4389SOL     OW24802   4.586   1.219   8.452 -0.1906 -0.5562  0.3344
 4389SOL    HW124803   4.510   1.226   8.394  0.9751  1.2797 -0.9620
 4389SOL    HW224804   4.544   1.185   8.531  1.2483  0.3156  1.4643
 4390SOL     OW24805   3.603   1.080   3.537  0.3715 -0.0159 -0.0452
 4390SOL    HW124806   3.520   1.101   3.494  0.1070 -1.2725 -0.1401
 4390SOL    HW224807   3.591   0.985   3.533  3.1366 -0.4044  0.6170
 4391SOL     OW24808   4.484   1.344   9.322  0.0358 -0.3605 -0.5706
 4391SOL    HW124809   4.494   1.337   9.227  0.1934 -0.5463 -0.5403
 4391SOL    HW224810   4.394   1.376   9.333  0.8417  1.4354  0.9447
 4392SOL     OW24811   2.517   2.058  15.138 -1.0241  0.2510  0.6232
 4392SOL    HW124812   2.462   2.090  15.067  0.1671  0.2699 -0.2961
 4392SOL    HW224813   2.598   2.105  15.117 -0.9968 -0.0779 -0.0169
 4393SOL     OW24814   2.762   2.902   7.618 -0.2906 -0.1615 -0.2399
 4393SOL    HW124815   2.842   2.931   7.574 -0.6745 -0.7790 -1.3588
 4393SOL    HW224816   2.720   2.891   7.532  0.3600  1.1399 -0.7137
 4394SOL     OW24817   0.515   3.772   5.952  0.5012  0.1671 -0.9067
 4394SOL    HW124818   0.487   3.841   5.893  1.1169  1.2627  0.0719
 4394SOL    HW224819   0.602   3.796   5.984  0.7369 -0.0775 -1.3755
 4395SOL     OW24820   4.468   3.912  15.906  0.1076 -0.0227  0.0688
 4395SOL    HW124821   4.490   3.820  15.892 -4.6479 -0.9203 -1.5129
 4395SOL    HW224822   4.457   3.937  15.814  0.9139 -1.1888 -0.3497
 4396SOL     OW24823   0.541   1.197   6.659 -0.1916  0.6453 -0.2735
 4396SOL    HW124824   0.629   1.163   6.673  0.0026  0.7294 -1.3116
 4396SOL    HW224825   0.479   1.130   6.689  1.6193 -0.9594 -0.1041
 4397SOL     OW24826   0.724   0.277  10.718  0.0894 -0.3397  0.0910
 4397SOL    HW124827   0.643   0.235  10.688 -0.3509  0.6506 -0.0953
 4397SOL    HW224828   0.690   0.361  10.748 -0.4727 -0.5801  0.1247
 4398SOL     OW24829   0.094   4.728   8.641 -0.7256 -0.5117  0.2978
 4398SOL    HW124830   0.132   0.050   8.705  0.9021  1.7608 -2.8011
 4398SOL    HW224831   0.130   0.013   8.555  0.2476 -1.1649  0.5218
 4399SOL     OW24832   4.264   2.172  14.820  0.8177  0.2779 -0.4568
 4399SOL    HW124833   4.292   2.228  14.893 -0.4026 -0.0065  0.2411
 4399SOL    HW224834   4.188   2.132  14.862  0.2887  3.1355  1.3610
 4400SOL     OW24835   1.455   4.213   7.861  0.2177 -0.5307  0.3989
 4400SOL    HW124836   1.437   4.207   7.767 -1.1935 -0.2013  0.6373
 4400SOL    HW224837   1.492   4.302   7.860 -1.6818  0.2977  1.8209
 4401SOL     OW24838   3.931   3.993   3.647 -0.0898  0.0728 -0.0391
 4401SOL    HW124839   3.841   4.022   3.662 -0.0663 -0.8115  1.8292
 4401SOL    HW224840   3.936   3.991   3.551 -1.5496  0.0948 -0.1195
 4402SOL     OW24841   1.048   3.098   5.179 -0.3263  0.2757  0.0189
 4402SOL    HW124842   1.062   3.178   5.129 -2.3735  0.8605  0.3834
 4402SOL    HW224843   1.105   3.038   5.132  0.3875  0.8368  0.1679
 4403SOL     OW24844   4.360   0.976   4.836  0.0282  0.2259 -0.3017
 4403SOL    HW124845   4.384   1.058   4.879  0.1689 -0.0393  0.1225
 4403SOL    HW224846   4.269   0.963   4.864  0.7934  1.3907  2.6933
 4404SOL     OW24847   2.674   2.226   9.141  0.5332 -0.5726  0.5213
 4404SOL    HW124848   2.585   2.206   9.169  0.1827  0.8310  0.4500
 4404SOL    HW224849   2.650   2.314   9.111  0.2966 -0.3897  1.2680
 4405SOL     OW24850   0.715   0.518   2.476  0.0395 -0.2263  0.3979
 4405SOL    HW124851   0.808   0.503   2.488 -0.0835  0.3980  2.1891
 4405SOL    HW224852   0.706   0.460   2.401 -0.2573  0.3496 -0.0128
 4406SOL     OW24853   3.369   3.022   3.377 -0.3959 -0.2059 -0.2233
 4406SOL    HW124854   3.379   2.992   3.467 -2.3066 -1.5007 -0.4323
 4406SOL    HW224855   3.450   2.992   3.335  0.3440  1.5975 -0.0629
 4407SOL     OW24856   0.143   3.551   8.896 -0.2142  0.4800  0.0497
 4407SOL    HW124857   0.185   3.499   8.965  0.6216  0.8949 -0.1417
 4407SOL    HW224858   0.207   3.547   8.825 -0.2219  2.3259 -0.0624
 4408SOL     OW24859   1.678   4.592  14.096 -0.9840  0.7324  0.1531
 4408SOL    HW124860   1.665   4.501  14.121 -0.7125  0.6122 -0.1450
 4408SOL    HW224861   1.761   4.594  14.144 -0.0681 -1.1195 -1.3472
 4409SOL     OW24862   0.214   2.101  14.636 -0.3673  0.3557  0.5780
 4409SOL    HW124863   0.282   2.077  14.573  0.4135  2.6225  0.5700
 4409SOL    HW224864   0.136   2.113  14.583  1.0199  1.3313 -1.2336
 4410SOL     OW24865   2.541   2.374   0.434  0.1761 -0.2866 -0.1755
 4410SOL    HW124866   2.555   2.410   0.346  0.0529 -3.0190 -1.3068
 4410SOL    HW224867   2.524   2.452   0.487 -2.3934 -0.5653 -0.6262
 4411SOL     OW24868   2.500   4.320  10.775  0.0755 -0.2399 -0.3597
 4411SOL    HW124869   2.591   4.351  10.767  0.3575 -0.7374  0.9482
 4411SOL    HW224870   2.455   4.379  10.835  0.5006 -1.0603  0.7695
 4412SOL     OW24871   4.731   0.860   2.354  0.1319  0.7113 -0.2121
 4412SOL    HW124872   0.056   0.875   2.284  1.2337 -1.9817  0.2374
 4412SOL    HW224873   4.671   0.806   2.303 -1.2772  0.9659  1.1995
 4413SOL     OW24874   1.247   2.847   1.941 -0.5211  0.3196  0.1258
 4413SOL    HW124875   1.237   2.781   2.011 -0.7122 -0.8185 -0.9654
 4413SOL    HW224876   1.316   2.897   1.985 -0.1554  0.6772 -0.8749
 4414SOL     OW24877   0.356   1.666   2.291 -0.0772  0.1158 -0.1154
 4414SOL    HW124878   0.396   1.680   2.205 -0.4040  1.8365  0.0273
 4414SOL    HW224879   0.276   1.621   2.263 -0.3184 -0.9467  2.2706
 4415SOL     OW24880   1.053   1.739   2.604 -0.3486  0.0422  0.3191
 4415SOL    HW124881   0.974   1.743   2.551  1.1031  1.9078 -1.6894
 4415SOL    HW224882   1.040   1.818   2.656  0.4216 -0.6436  1.5497
 4416SOL     OW24883   3.317   3.839   3.488 -0.1764  0.2702  0.4998
 4416SOL    HW124884   3.242   3.872   3.438 -1.1838 -1.3240  0.9284
 4416SOL    HW224885   3.300   3.745   3.484 -1.7885  0.6749 -2.0408
 4417SOL     OW24886   2.691   3.448   2.872 -0.6392  0.0946 -0.0019
 4417SOL    HW124887   2.659   3.493   2.950  1.7425  1.1564  0.3649
 4417SOL    HW224888   2.778   3.482   2.851 -1.2652  1.4365 -0.4161
 4418SOL     OW24889   0.959   4.710   6.878  0.2316  0.3602  0.2279
 4418SOL    HW124890   0.985   4.694   6.788  0.5210 -0.3737  0.4391
 4418SOL    HW224891   0.991   4.627   6.914  0.5989  0.8428  1.0248
 4419SOL     OW24892   1.482   0.895   3.225  0.3408 -0.0024 -0.2302
 4419SOL    HW124893   1.392   0.915   3.251 -0.2246 -1.6006 -0.9257
 4419SOL    HW224894   1.502   0.976   3.179 -0.0272 -1.1204 -2.3410
 4420SOL     OW24895   3.592   1.005   6.599  0.5826 -0.2369  0.4950
 4420SOL    HW124896   3.654   1.009   6.527 -1.2456  0.5860 -1.0114
 4420SOL    HW224897   3.516   1.046   6.559  0.3521 -0.2792  0.8869
 4421SOL     OW24898   2.416   0.146   6.461 -0.2998  0.1025  0.0680
 4421SOL    HW124899   2.494   0.091   6.466 -0.8730 -0.6852  0.2838
 4421SOL    HW224900   2.386   0.136   6.552 -1.3155  0.4189 -0.2352
 4422SOL     OW24901   3.585   0.929  11.977  0.3834  0.0868  0.2215
 4422SOL    HW124902   3.531   0.857  12.009 -0.7276  1.1985  0.8588
 4422SOL    HW224903   3.600   0.978  12.058  0.4461 -0.6326  0.6490
 4423SOL     OW24904   0.776   4.331   7.239 -0.1134 -0.3734  0.1589
 4423SOL    HW124905   0.797   4.424   7.233 -2.8693  0.2936  0.7078
 4423SOL    HW224906   0.700   4.328   7.181 -0.1312 -1.4396  0.2309
 4424SOL     OW24907   3.722   0.864  17.379  0.5985  0.2100  0.6968
 4424SOL    HW124908   3.645   0.921  17.385  0.8955  0.4157  2.5836
 4424SOL    HW224909   3.772   0.892  17.302 -0.2370  1.4331  0.5917
 4425SOL     OW24910   2.858   0.504  13.101 -0.1926 -0.6300 -0.9996
 4425SOL    HW124911   2.937   0.472  13.144 -0.8169 -0.2136  0.4578
 4425SOL    HW224912   2.808   0.424  13.083 -1.6606 -0.0063  0.2846
 4426SOL     OW24913   2.154   0.868  16.865 -0.0434  0.8179 -0.1116
 4426SOL    HW124914   2.129   0.953  16.829 -1.0655  0.2291 -0.7746
 4426SOL    HW224915   2.129   0.886  16.955  0.6804  0.0881  0.2345
 4427SOL     OW24916   4.432   1.971   3.795 -0.6860  0.3631  0.1572
 4427SOL    HW124917   4.362   2.036   3.804  0.1398  1.2171  0.3303
 4427SOL    HW224918   4.502   2.023   3.756 -1.0613  0.1140 -0.8664
 4428SOL     OW24919   1.244   2.292   1.459 -0.7748  0.1898 -0.3586
 4428SOL    HW124920   1.183   2.253   1.521 -1.1617 -0.0626 -0.9011
 4428SOL    HW224921   1.180   2.309   1.390 -0.1175  2.1337 -0.4944
 4429SOL     OW24922   3.289   3.018   5.511 -0.5909  0.0466 -0.2277
 4429SOL    HW124923   3.280   3.085   5.443 -1.2128 -0.2782 -0.4688
 4429SOL    HW224924   3.342   3.066   5.574 -0.0932 -2.4712  1.2733
 4430SOL     OW24925   3.309   3.000   7.832  0.1256  0.2839  0.5811
 4430SOL    HW124926   3.241   3.024   7.895 -0.3735 -0.2156  0.2378
 4430SOL    HW224927   3.273   2.921   7.792 -1.0196  0.6896  0.8219
 4431SOL     OW24928   2.867   2.945  13.359 -0.3245  1.0760  0.3249
 4431SOL    HW124929   2.908   2.996  13.290 -0.9343  1.0421 -0.0571
 4431SOL    HW224930   2.938   2.916  13.418  0.9012  0.9983 -1.1914
 4432SOL     OW24931   0.456   0.006  11.808  0.3513 -0.8961 -0.1464
 4432SOL    HW124932   0.434   0.079  11.750 -2.4615  0.2030  2.2794
 4432SOL    HW224933   0.541   4.721  11.771  0.4006 -0.7744 -0.1119
 4433SOL     OW24934   4.206   4.559   5.632  0.0306  0.2224 -0.0484
 4433SOL    HW124935   4.287   4.533   5.675  0.3740  1.2815 -0.0638
 4433SOL    HW224936   4.187   4.481   5.579  0.2773 -0.5505  0.9950
 4434SOL     OW24937   1.388   0.875   2.285  0.2829  0.0956 -0.2955
 4434SOL    HW124938   1.390   0.858   2.379 -1.9066  0.0407 -0.2602
 4434SOL    HW224939   1.356   0.965   2.276 -3.0247 -0.7181  3.3974
 4435SOL     OW24940   3.312   0.725   5.931  0.2347  0.0252  0.2294
 4435SOL    HW124941   3.336   0.668   6.004 -0.4732 -2.4977 -1.5160
 4435SOL    HW224942   3.222   0.698   5.910 -0.5865  1.0662  2.3744
 4436SOL     OW24943   0.976   0.275  10.549 -0.0101 -0.4395 -0.1321
 4436SOL    HW124944   1.031   0.319  10.484  0.1630 -0.4124  0.0305
 4436SOL    HW224945   0.900   0.330  10.531  1.0460  1.2620  0.5612
 4437SOL     OW24946   2.179   1.923   0.533 -0.2476 -0.1254 -0.1281
 4437SOL    HW124947   2.147   1.999   0.483  1.2592  0.2610 -0.5017
 4437SOL    HW224948   2.107   1.912   0.595 -0.9739  1.1003 -0.7321
 4438SOL     OW24949   2.347   3.350   7.988 -0.3265  0.2423 -0.3401
 4438SOL    HW124950   2.319   3.428   8.037  0.4439 -0.8606  1.8404
 4438SOL    HW224951   2.440   3.336   8.007 -0.6492  2.2498  2.7097
 4439SOL     OW24952   1.502   4.011   9.006 -0.3154 -0.2833 -0.2446
 4439SOL    HW124953   1.444   4.031   9.080 -0.2003  0.4685 -0.3583
 4439SOL    HW224954   1.454   3.957   8.944 -0.7512  0.5756 -0.6586
 4440SOL     OW24955   2.659   3.498   2.418 -0.2667 -0.1626 -0.1928
 4440SOL    HW124956   2.592   3.567   2.420  1.0974  1.1891 -0.7564
 4440SOL    HW224957   2.608   3.426   2.383  0.1641 -0.5269 -0.0782
 4441SOL     OW24958   2.899   1.544   5.184 -0.1209  0.3398  0.3723
 4441SOL    HW124959   2.957   1.484   5.231  0.1951 -1.0405 -1.7681
 4441SOL    HW224960   2.957   1.617   5.165 -0.3347  0.9937  2.1831
 4442SOL     OW24961   2.747   4.552   3.486  0.2023  0.0226 -0.8806
 4442SOL    HW124962   2.667   4.574   3.438 -1.0525  1.3490  1.8156
 4442SOL    HW224963   2.788   4.491   3.425 -2.7027 -0.8220 -1.9965
 4443SOL     OW24964   3.264   4.607   8.716 -0.2498 -0.5224 -0.5695
 4443SOL    HW124965   3.313   4.529   8.687 -0.3023 -0.0967 -1.8012
 4443SOL    HW224966   3.176   4.570   8.713  0.6691 -2.7010 -0.5752
 4444SOL     OW24967   1.688   3.423   4.187  0.0873 -1.1038 -0.0260
 4444SOL    HW124968   1.779   3.423   4.218 -0.6243 -2.2642  1.9670
 4444SOL    HW224969   1.681   3.518   4.177  1.6185 -1.1592 -1.8198
 4445SOL     OW24970   2.140   4.709   2.397  0.5861 -0.1800  0.1038
 4445SOL    HW124971   2.110   4.679   2.483 -1.7962  0.1797 -0.5926
 4445SOL    HW224972   2.236   4.714   2.403  0.6079  0.5590 -0.8265
 4446SOL     OW24973   0.675   2.824   4.418  0.2959 -0.3925  0.7660
 4446SOL    HW124974   0.616   2.894   4.390  0.6111  0.4609  2.2062
 4446SOL    HW224975   0.687   2.777   4.336 -0.4187 -0.1975  0.5493
 4447SOL     OW24976   3.970   1.889   3.362  0.8107  0.4931  0.1103
 4447SOL    HW124977   3.995   1.831   3.290  2.9313 -0.0990  1.3343
 4447SOL    HW224978   4.019   1.862   3.440 -1.7443 -0.4188  1.3980
 4448SOL     OW24979   0.696   2.063   1.707  0.0537  0.0378 -0.5107
 4448SOL    HW124980   0.635   2.010   1.758  0.1841  1.3138  0.9828
 4448SOL    HW224981   0.649   2.091   1.629 -2.8909 -4.5810 -0.3628
 4449SOL     OW24982   1.015   2.980   6.408 -0.1473  0.3821  0.4243
 4449SOL    HW124983   0.948   3.048   6.417 -1.9555 -1.4528  1.0251
 4449SOL    HW224984   0.959   2.935   6.344  0.2782  0.1782  0.1928
 4450SOL     OW24985   3.445   3.881   3.749  0.8155 -0.1110 -0.2835
 4450SOL    HW124986   3.421   3.881   3.657 -0.3040  0.0274  0.0101
 4450SOL    HW224987   3.523   3.936   3.747 -0.2616  1.4101 -0.4980
 4451SOL     OW24988   2.583   4.038   1.183  0.3552  0.2833  0.0408
 4451SOL    HW124989   2.616   4.109   1.239  0.4702  0.1691  0.1161
 4451SOL    HW224990   2.660   3.982   1.186 -0.4828 -0.7138  2.8215
 4452SOL     OW24991   4.049   0.734   6.806  0.1881 -0.0459  0.3884
 4452SOL    HW124992   4.008   0.775   6.730 -0.3055  1.5637  1.5271
 4452SOL    HW224993   4.077   0.648   6.773 -0.1518 -0.4943  1.2547
 4453SOL     OW24994   4.449   0.387   3.909 -0.0065 -0.3827 -0.6040
 4453SOL    HW124995   4.402   0.319   3.861 -0.1326 -0.7574  0.0435
 4453SOL    HW224996   4.392   0.463   3.902 -0.0338 -0.3623 -0.1407
 4454SOL     OW24997   1.870   4.187   5.801 -0.7105  0.0700  0.4721
 4454SOL    HW124998   1.943   4.200   5.741 -0.2430  1.1620  1.2732
 4454SOL    HW224999   1.808   4.245   5.757 -1.2978  0.1279  1.3789
 4455SOL     OW25000   1.082   3.238   4.599 -0.1938  0.5564 -0.1859
 4455SOL    HW125001   1.130   3.211   4.521 -2.0362  0.1849 -1.2000
 4455SOL    HW225002   1.107   3.328   4.617 -0.5571  0.5680  0.2708
 4456SOL     OW25003   4.675   2.085   7.090 -0.3512  0.0453  0.0128
 4456SOL    HW125004   4.694   2.004   7.042 -1.3945 -0.3843  0.3232
 4456SOL    HW225005   4.590   2.057   7.125 -0.2954 -0.3724 -0.1864
 4457SOL     OW25006   0.008   2.321  10.616  0.4992  0.2665 -0.0674
 4457SOL    HW125007   4.678   2.329  10.549  1.1227 -1.5507 -0.9231
 4457SOL    HW225008   0.041   2.410  10.626  1.7442 -0.3305  1.0813
 4458SOL     OW25009   0.788   3.318   0.925 -0.3909 -0.5139 -0.1584
 4458SOL    HW125010   0.824   3.403   0.900 -1.2292 -0.2158 -0.3546
 4458SOL    HW225011   0.814   3.310   1.017 -0.8589  0.8163  0.0881
 4459SOL     OW25012   1.818   3.779   6.525 -0.4211  0.0824  0.1909
 4459SOL    HW125013   1.883   3.801   6.592  0.8957 -4.8480  0.5479
 4459SOL    HW225014   1.762   3.723   6.579 -1.0335  1.1194  0.6287
 4460SOL     OW25015   1.828   3.004   6.689  0.6001  0.2326  0.0014
 4460SOL    HW125016   1.794   3.083   6.648  1.7096  1.2438  1.0166
 4460SOL    HW225017   1.758   2.993   6.753 -2.7098  2.0269 -3.3342
 4461SOL     OW25018   2.147   3.367   7.250 -0.4857  0.0744 -0.3165
 4461SOL    HW125019   2.230   3.354   7.297  0.3731  2.8373 -1.0883
 4461SOL    HW225020   2.180   3.376   7.160  1.2421  0.0778  0.3064
 4462SOL     OW25021   2.910   0.502   4.960 -0.3487 -0.6482 -0.0095
 4462SOL    HW125022   2.980   0.554   5.001 -0.6361 -1.0173  0.9549
 4462SOL    HW225023   2.893   0.572   4.897 -0.4211 -1.0169 -0.3984
 4463SOL     OW25024   1.617   2.014   3.871 -0.2703  0.5026  0.5637
 4463SOL    HW125025   1.613   2.064   3.789  0.1386 -1.7323 -0.8400
 4463SOL    HW225026   1.544   1.954   3.856 -0.2489  0.8953 -1.1590
 4464SOL     OW25027   1.422   4.464   5.181  0.0762 -0.1324  0.3774
 4464SOL    HW125028   1.358   4.411   5.134 -1.4824 -1.2751  3.8104
 4464SOL    HW225029   1.398   4.551   5.149  0.1795  0.4853  1.9696
 4465SOL     OW25030   3.044   4.028   6.945 -1.1995 -0.5212 -0.6907
 4465SOL    HW125031   3.038   3.958   6.881 -1.6135 -0.6391 -0.5205
 4465SOL    HW225032   3.009   3.994   7.028  1.6317  0.8864  1.0985
 4466SOL     OW25033   2.959   0.655   6.162  0.5982  0.3673 -0.4314
 4466SOL    HW125034   2.918   0.741   6.152  1.6167  1.1284  1.7935
 4466SOL    HW225035   2.982   0.672   6.254 -0.1172 -1.8089  0.1500
 4467SOL     OW25036   1.094   3.305  16.418  0.2050 -0.4273  0.4445
 4467SOL    HW125037   1.156   3.283  16.349  1.7529 -0.4459  1.8408
 4467SOL    HW225038   1.013   3.304  16.368 -0.5984  1.0822  1.7064
 4468SOL     OW25039   1.275   2.465   0.873 -0.1289 -0.3859 -0.0756
 4468SOL    HW125040   1.346   2.502   0.821  0.5137 -0.3817  0.8036
 4468SOL    HW225041   1.238   2.401   0.812 -2.4820  0.2216  0.7164
 4469SOL     OW25042   3.661   1.861   7.250 -0.2362  0.2397  0.1123
 4469SOL    HW125043   3.664   1.914   7.330  0.1559 -0.3172  0.4683
 4469SOL    HW225044   3.582   1.810   7.270 -1.1904  1.3763 -0.7521
 4470SOL     OW25045   2.749   3.607   7.328  0.2876 -0.7015  0.3292
 4470SOL    HW125046   2.805   3.606   7.406 -0.8070 -0.3898  1.1188
 4470SOL    HW225047   2.660   3.592   7.360 -0.2081  1.3173 -0.1499
 4471SOL     OW25048   4.425   4.301   4.719  0.0045 -0.8992  0.8764
 4471SOL    HW125049   4.346   4.301   4.665  0.5251 -0.4048  0.1011
 4471SOL    HW225050   4.414   4.375   4.779 -0.9443 -1.7954  1.7937
 4472SOL     OW25051   1.150   3.647   1.821  0.4140  0.0739  0.4241
 4472SOL    HW125052   1.139   3.584   1.893  3.3412  1.0718  1.7416
 4472SOL    HW225053   1.231   3.613   1.785  0.9657  2.3179 -0.4290
 4473SOL     OW25054   0.079   4.538  12.321 -1.0036 -0.1632  0.0416
 4473SOL    HW125055   0.008   4.474  12.324  0.7517 -2.1346 -1.0280
 4473SOL    HW225056   0.028   4.619  12.309  0.1022  0.3237 -1.3224
 4474SOL     OW25057   3.825   3.929   6.314  0.2688  0.3423  0.2617
 4474SOL    HW125058   3.813   3.889   6.400  1.0811 -1.4211 -0.4534
 4474SOL    HW225059   3.767   4.003   6.333 -1.4218 -0.6596 -1.0200
 4475SOL     OW25060   0.850   4.362   6.841  0.3168  0.5360  0.1456
 4475SOL    HW125061   0.760   4.365   6.807  0.1703  0.8100  0.5551
 4475SOL    HW225062   0.884   4.302   6.775 -0.9723  0.7570 -0.7274
 4476SOL     OW25063   1.159   0.785   9.050 -0.1997  0.2495  0.2908
 4476SOL    HW125064   1.175   0.874   9.079  1.5472  0.2280 -0.5654
 4476SOL    HW225065   1.247   0.749   9.066  0.8471  2.5618 -0.3416
 4477SOL     OW25066   4.002   4.735   4.873  0.3594  0.2103  0.3815
 4477SOL    HW125067   4.061   4.678   4.924  0.6692  0.9008  0.7932
 4477SOL    HW225068   4.063   0.056   4.830  1.1322 -1.2428 -0.5542
 4478SOL     OW25069   3.348   1.476   7.781 -0.1143  0.0931  0.6183
 4478SOL    HW125070   3.288   1.435   7.719  0.5156  1.3601 -0.8106
 4478SOL    HW225071   3.410   1.517   7.721 -2.6752  1.2164 -1.2081
 4479SOL     OW25072   2.826   0.372   7.293  0.0056 -0.4753 -0.3876
 4479SOL    HW125073   2.756   0.343   7.235 -0.1857 -0.1063 -0.3401
 4479SOL    HW225074   2.880   0.411   7.225  0.7441  1.3553  1.2457
 4480SOL     OW25075   2.843   0.513   7.830 -0.3766  0.2836 -0.1581
 4480SOL    HW125076   2.854   0.606   7.811  0.3357  0.5886  1.7333
 4480SOL    HW225077   2.932   0.477   7.833 -0.0075  1.2482  0.5260
 4481SOL     OW25078   4.537   1.141  14.224 -0.4081 -0.2197 -0.2897
 4481SOL    HW125079   4.475   1.168  14.292  0.4144 -0.2139  0.4716
 4481SOL    HW225080   4.480   1.149  14.148 -0.7459 -1.1844 -0.1278
 4482SOL     OW25081   2.708   0.759   3.359 -0.1440  0.2941 -0.0198
 4482SOL    HW125082   2.707   0.853   3.342  1.1843  0.6954  2.1704
 4482SOL    HW225083   2.642   0.745   3.427 -0.5819  1.0370 -0.2990
 4483SOL     OW25084   4.053   1.769   9.571 -0.0086 -0.0058 -0.1729
 4483SOL    HW125085   4.035   1.856   9.535 -0.2164  0.2694  0.5908
 4483SOL    HW225086   4.107   1.782   9.650  0.3246 -1.0190 -0.2367
 4484SOL     OW25087   3.100   1.031   3.434  0.1964  0.0459  0.5328
 4484SOL    HW125088   3.070   1.044   3.524  1.9046  3.3459  0.6444
 4484SOL    HW225089   3.069   1.114   3.398  1.7547 -0.8300 -2.8212
 4485SOL     OW25090   3.378   1.192   6.803 -0.0548 -0.4877  0.0056
 4485SOL    HW125091   3.417   1.262   6.750 -0.5296  0.3618  0.7736
 4485SOL    HW225092   3.288   1.201   6.769 -0.2385 -2.1760  0.0585
 4486SOL     OW25093   2.727   2.534  17.256 -0.3125  0.2366 -0.2702
 4486SOL    HW125094   2.777   2.462  17.219 -3.0496 -1.1845 -1.2230
 4486SOL    HW225095   2.637   2.503  17.243  0.2948 -1.6927  0.0866
 4487SOL     OW25096   3.273   2.170   6.228 -0.1727  0.2473  0.6330
 4487SOL    HW125097   3.240   2.179   6.317 -0.5617 -1.8772  0.7090
 4487SOL    HW225098   3.321   2.087   6.230  1.2529  1.0508 -0.2157
 4488SOL     OW25099   4.221   4.529   0.654  0.2013  0.1902  0.0041
 4488SOL    HW125100   4.304   4.560   0.616  0.9936  0.4520  1.9642
 4488SOL    HW225101   4.231   4.548   0.747  1.1109  0.0554 -0.0624
 4489SOL     OW25102   0.485   3.613  17.667 -0.2339 -0.0161 -0.2081
 4489SOL    HW125103   0.446   3.526  17.679 -1.2042  0.7585  2.2311
 4489SOL    HW225104   0.552   3.616  17.735  0.0069 -0.9339 -0.4043
 4490SOL     OW25105   1.354   3.871   8.678 -0.3601 -0.3855  0.4611
 4490SOL    HW125106   1.378   3.936   8.612  1.2467  0.1615  1.5846
 4490SOL    HW225107   1.437   3.824   8.683 -1.0255 -1.4085  1.7259
 4491SOL     OW25108   1.243   0.008  13.136  0.4493 -0.5711 -0.2305
 4491SOL    HW125109   1.200   4.672  13.176 -0.3080  0.2969  0.5902
 4491SOL    HW225110   1.178   0.075  13.117  1.2857  0.8992  2.0037
 4492SOL     OW25111   3.665   1.499   4.278  0.6548  0.0293  0.3736
 4492SOL    HW125112   3.614   1.423   4.249  2.3107 -0.1048 -2.1245
 4492SOL    HW225113   3.720   1.513   4.202 -0.3973 -2.4705 -0.8512
 4493SOL     OW25114   2.555   4.560   1.445  0.0036  0.4951  0.2070
 4493SOL    HW125115   2.508   4.525   1.370  1.5685 -0.6647 -0.2319
 4493SOL    HW225116   2.497   4.521   1.510  0.7207 -0.6792  0.1429
 4494SOL     OW25117   0.276   2.564   3.353  0.0704 -0.2182 -0.3372
 4494SOL    HW125118   0.346   2.592   3.412 -0.1168 -0.0484 -0.1936
 4494SOL    HW225119   0.301   2.482   3.311 -0.5242 -0.1494 -0.8149
 4495SOL     OW25120   3.801   2.108   7.028  0.2389 -0.4660 -0.0394
 4495SOL    HW125121   3.785   2.202   7.039  0.9429 -0.4905  1.2393
 4495SOL    HW225122   3.717   2.064   7.044  1.1650 -3.0246 -2.3877
 4496SOL     OW25123   1.361   0.403   4.708 -0.1586 -0.0743  0.1419
 4496SOL    HW125124   1.372   0.364   4.795 -1.9652 -1.8957 -0.4511
 4496SOL    HW225125   1.408   0.347   4.646 -1.7829 -0.3984 -0.7992
 4497SOL     OW25126   3.169   0.672   5.415 -0.2170 -0.1057  0.2419
 4497SOL    HW125127   3.098   0.611   5.429 -1.2483  0.4718 -2.3902
 4497SOL    HW225128   3.242   0.634   5.464  2.6750  1.5668 -2.6879
 4498SOL     OW25129   1.633   4.709   3.923  0.4128 -0.1066  0.2343
 4498SOL    HW125130   1.633   0.041   3.987  1.4823  0.5876 -0.5215
 4498SOL    HW225131   1.543   4.706   3.892  0.2694 -1.5808  0.8166
 4499SOL     OW25132   4.090   2.788   4.174 -0.3554 -0.0945 -0.8742
 4499SOL    HW125133   4.057   2.707   4.135 -2.3268  1.6116 -2.7644
 4499SOL    HW225134   4.010   2.840   4.185 -0.7110 -0.8000 -0.1759
 4500SOL     OW25135   2.952   4.594   5.639 -0.0575  0.3623  0.4598
 4500SOL    HW125136   2.859   4.602   5.622 -0.0003  2.3369  1.1062
 4500SOL    HW225137   2.973   4.500   5.640  0.5322  0.4961  0.6820
 4501SOL     OW25138   4.277   2.509   3.520  0.5073  0.1363 -0.1289
 4501SOL    HW125139   4.326   2.480   3.443  0.2838 -1.3001  0.2782
 4501SOL    HW225140   4.339   2.498   3.592  0.2445  0.5782  0.1681
 4502SOL     OW25141   0.293   4.191  12.175 -0.2085  0.0642 -0.0415
 4502SOL    HW125142   0.343   4.146  12.107  2.0264 -0.1458  1.7926
 4502SOL    HW225143   0.348   4.266  12.196  1.9449 -1.3087 -0.8765
 4503SOL     OW25144   2.521   1.777   4.085  0.4452 -0.3759 -0.2898
 4503SOL    HW125145   2.502   1.684   4.097 -1.6217 -0.0251 -0.8721
 4503SOL    HW225146   2.584   1.782   4.158  0.9339  1.2655 -0.8083
 4504SOL     OW25147   3.656   1.934  17.020  0.3481  0.5573 -0.4541
 4504SOL    HW125148   3.653   2.028  17.037  1.5153  0.4389  0.4100
 4504SOL    HW225149   3.748   1.921  16.996  0.3060 -0.7383  0.0543
 4505SOL     OW25150   1.829   1.076  12.087  0.2195  0.6203  0.5252
 4505SOL    HW125151   1.770   1.135  12.040 -1.7380 -0.6183  1.4129
 4505SOL    HW225152   1.885   1.137  12.134  1.5091 -0.0486 -0.1333
 4506SOL     OW25153   2.396   4.364   6.799  0.1828 -0.4970  0.3785
 4506SOL    HW125154   2.344   4.423   6.855  0.8692 -0.4056  0.9113
 4506SOL    HW225155   2.442   4.431   6.749 -0.1738 -0.8496 -0.4303
 4507SOL     OW25156   3.331   3.962   9.077  0.1548 -0.1199 -0.2513
 4507SOL    HW125157   3.303   4.012   9.001  1.8717  2.4179  0.7736
 4507SOL    HW225158   3.276   3.885   9.065 -1.2671  0.8180  0.2678
 4508SOL     OW25159   3.292   1.927   4.189 -0.1125 -0.0187 -0.1686
 4508SOL    HW125160   3.263   1.963   4.105 -0.7023 -1.3054 -0.5249
 4508SOL    HW225161   3.384   1.922   4.165 -0.1488 -0.7803 -0.1679
 4509SOL     OW25162   1.528   4.442   8.419  0.2725  0.4872  0.2206
 4509SOL    HW125163   1.599   4.500   8.392 -1.0896  2.1325  0.1533
 4509SOL    HW225164   1.477   4.436   8.339  0.7671  2.1532 -0.2246
 4510SOL     OW25165   2.451   1.310   1.962  0.3861  0.0477  0.0354
 4510SOL    HW125166   2.404   1.387   1.995 -1.7551 -0.7981 -1.0839
 4510SOL    HW225167   2.409   1.301   1.877  1.5109 -1.2319 -0.3892
 4511SOL     OW25168   2.978   2.371   3.203  0.4300 -0.5264 -0.3884
 4511SOL    HW125169   2.903   2.330   3.161  0.3887 -0.4037 -0.4359
 4511SOL    HW225170   2.947   2.420   3.279  2.5578  0.1259  0.0698
 4512SOL     OW25171   2.140   4.600   0.087 -0.5507 -0.0018  0.5967
 4512SOL    HW125172   2.176   4.620   0.173  0.7603  0.4228 -0.0635
 4512SOL    HW225173   2.191   4.523   0.061 -2.8055 -1.1282 -0.5531
 4513SOL     OW25174   0.285   2.195   7.135  0.3707  0.0918  0.3076
 4513SOL    HW125175   0.204   2.233   7.168  0.9917  0.6863  1.1367
 4513SOL    HW225176   0.263   2.185   7.042  0.7712  2.3027 -0.0126
 4514SOL     OW25177   3.016   2.686   5.510 -0.4822  0.4584  0.4970
 4514SOL    HW125178   3.047   2.610   5.460 -1.3288  0.3668  0.1255
 4514SOL    HW225179   2.983   2.743   5.440  0.1511 -0.7811 -0.8167
 4515SOL     OW25180   3.840   2.974   0.700 -0.2327  0.3977 -0.6985
 4515SOL    HW125181   3.878   2.953   0.786  0.0236  0.5354 -0.7781
 4515SOL    HW225182   3.761   3.025   0.717 -0.0042  0.1121  1.1637
 4516SOL     OW25183   2.600   0.349   0.310  0.4148  0.1390  0.3765
 4516SOL    HW125184   2.684   0.392   0.293 -1.2237  3.3293  0.3471
 4516SOL    HW225185   2.627   0.267   0.270  1.2619  1.2812 -1.4354
 4517SOL     OW25186   3.280   3.794   6.842  0.5409  0.2668 -0.2837
 4517SOL    HW125187   3.314   3.711   6.877  0.5006  0.6864  0.7531
 4517SOL    HW225188   3.186   3.777   6.833  0.4202  0.7560  0.0305
 4518SOL     OW25189   0.694   1.574   3.661  0.3950  0.0521 -0.0416
 4518SOL    HW125190   0.726   1.626   3.587  1.3194  0.4154  0.6066
 4518SOL    HW225191   0.749   1.610   3.730  1.7783 -1.3441 -0.4103
 4519SOL     OW25192   2.636   1.045   6.192 -0.3498  0.3873 -0.0195
 4519SOL    HW125193   2.614   1.125   6.144  1.0898  0.0135 -1.2821
 4519SOL    HW225194   2.567   0.983   6.167 -0.1656  0.5260 -0.8658
 4520SOL     OW25195   1.899   3.710  12.612  0.4332  0.3730 -0.0918
 4520SOL    HW125196   1.948   3.679  12.689 -1.3091 -1.4090  0.2799
 4520SOL    HW225197   1.843   3.633  12.605  0.5858  0.2333  0.2079
 4521SOL     OW25198   1.299   1.337  10.865  0.0242 -0.5776 -0.4032
 4521SOL    HW125199   1.212   1.338  10.825  0.0643  0.6819 -0.4667
 4521SOL    HW225200   1.352   1.276  10.814  0.7118  2.4152 -3.2712
 4522SOL     OW25201   1.804   0.016   3.691 -0.1053 -0.1242  0.0019
 4522SOL    HW125202   1.772   0.010   3.781  2.0897  0.3489  0.8213
 4522SOL    HW225203   1.782   4.668   3.656  1.5053  0.2296 -1.9003
 4523SOL     OW25204   0.835   3.393   2.073 -0.1188 -0.2551  0.2317
 4523SOL    HW125205   0.926   3.369   2.055 -0.3544 -0.7296 -0.3200
 4523SOL    HW225206   0.845   3.488   2.071 -2.8299  0.0545  0.9150
 4524SOL     OW25207   4.291   4.458   7.659 -0.0758 -0.3772 -0.2929
 4524SOL    HW125208   4.225   4.395   7.686 -0.2168  0.7371  1.9675
 4524SOL    HW225209   4.367   4.402   7.641 -0.9414 -0.8898 -2.3582
 4525SOL     OW25210   4.481   1.712   3.677  0.1639  1.0089  0.2925
 4525SOL    HW125211   4.440   1.786   3.722 -2.9591 -1.9743  2.2810
 4525SOL    HW225212   4.411   1.669   3.627  0.5203 -0.0380  0.6960
 4526SOL     OW25213   0.374   2.678   0.870  0.0142 -0.2029 -0.0348
 4526SOL    HW125214   0.324   2.683   0.788  0.7718  0.3792 -0.4622
 4526SOL    HW225215   0.396   2.770   0.884  0.9533 -0.4788  0.2647
 4527SOL     OW25216   4.455   3.138   7.532  0.5350  0.2619 -0.2079
 4527SOL    HW125217   4.406   3.209   7.574 -0.7942  0.2373 -1.7208
 4527SOL    HW225218   4.394   3.125   7.459  0.0895  0.9214  0.0477
 4528SOL     OW25219   1.945   1.854  11.291  0.2413  0.6050 -0.1223
 4528SOL    HW125220   2.038   1.879  11.292  0.2359  0.5385  1.9029
 4528SOL    HW225221   1.913   1.903  11.215 -1.3982  1.8880  1.3838
 4529SOL     OW25222   3.950   1.798   8.457  0.0698 -0.6437  0.3922
 4529SOL    HW125223   3.905   1.721   8.491 -0.8134 -1.0044 -1.5995
 4529SOL    HW225224   3.949   1.855   8.534 -1.4045  0.6366 -0.5831
 4530SOL     OW25225   0.167   2.184   6.871 -0.5599  0.3059  0.2395
 4530SOL    HW125226   0.143   2.217   6.784 -1.3435  2.5066  1.2775
 4530SOL    HW225227   0.082   2.171   6.913 -2.3540  1.3648 -2.9752
 4531SOL     OW25228   2.839   3.899   4.765  0.3778 -0.1589 -0.3450
 4531SOL    HW125229   2.908   3.922   4.703  1.0283  0.8434  0.7535
 4531SOL    HW225230   2.764   3.925   4.713  0.5878  1.0809 -0.0169
 4532SOL     OW25231   2.207   1.818   5.301 -0.2001  0.1943  0.1075
 4532SOL    HW125232   2.283   1.817   5.359  0.5970 -1.7042 -0.9500
 4532SOL    HW225233   2.246   1.841   5.217 -2.4725  2.0910 -0.4075
 4533SOL     OW25234   3.617   3.294   7.607 -0.8816  0.1384  0.1839
 4533SOL    HW125235   3.521   3.287   7.610 -0.6837 -3.0828 -1.2992
 4533SOL    HW225236   3.621   3.387   7.633  1.6399  0.0690  0.0360
 4534SOL     OW25237   1.284   2.221   2.088  0.3159 -0.6124 -0.1324
 4534SOL    HW125238   1.193   2.218   2.118  0.4652  0.3717  0.3976
 4534SOL    HW225239   1.292   2.128   2.066  1.9674 -0.7582  1.1303
 4535SOL     OW25240   1.331   3.450   6.050 -0.6343  0.5004  0.2753
 4535SOL    HW125241   1.242   3.432   6.081  0.5299 -2.3018  1.9258
 4535SOL    HW225242   1.323   3.545   6.034  1.7576  0.3423 -1.8144
 4536SOL     OW25243   1.344   4.700  10.270 -0.2187  0.1040  0.0612
 4536SOL    HW125244   1.425   4.702  10.320  0.0104  0.7904 -0.3441
 4536SOL    HW225245   1.366   4.711  10.178  1.1932  1.0607  0.5256
 4537SOL     OW25246   3.182   3.407   3.208  0.2933 -0.1142 -0.1497
 4537SOL    HW125247   3.128   3.345   3.158 -1.0085 -0.5837  1.8178
 4537SOL    HW225248   3.261   3.354   3.208  0.7592  0.5928 -0.6234
 4538SOL     OW25249   3.869   2.076   1.921  0.3355 -0.4867  0.0072
 4538SOL    HW125250   3.964   2.061   1.923  0.7791  2.3117  0.6915
 4538SOL    HW225251   3.871   2.157   1.869 -0.5607 -0.7009 -0.3693
 4539SOL     OW25252   0.587   2.510  16.887 -0.1609  0.0589 -0.8986
 4539SOL    HW125253   0.654   2.508  16.955 -0.4655  0.4375 -0.5831
 4539SOL    HW225254   0.638   2.567  16.829  1.5286 -0.2526  0.2900
 4540SOL     OW25255   4.456   2.255   1.914  0.4708  0.3811  0.0263
 4540SOL    HW125256   4.386   2.257   1.848  0.0606  0.6855  0.4731
 4540SOL    HW225257   4.465   2.348   1.933 -1.5928  0.4300  0.8072
 4541SOL     OW25258   0.599   0.466   7.302 -0.0942 -0.1211  0.3507
 4541SOL    HW125259   0.691   0.468   7.278 -0.5480 -1.6650 -1.5370
 4541SOL    HW225260   0.611   0.437   7.393 -1.1969  0.8813  0.8168
 4542SOL     OW25261   3.521   2.659   0.092 -0.9885  0.3882 -0.1672
 4542SOL    HW125262   3.430   2.637   0.109 -0.7130 -1.7628 -1.5828
 4542SOL    HW225263   3.533   2.726   0.160  2.0144 -2.1921  1.8473
 4543SOL     OW25264   3.255   4.431   6.388 -0.0414 -0.5668  0.3666
 4543SOL    HW125265   3.253   4.488   6.465 -1.3310 -1.3482  0.9067
 4543SOL    HW225266   3.169   4.390   6.396 -1.9192  3.3402 -0.0017
 4544SOL     OW25267   3.368   0.617   3.574  0.4655  0.0577 -0.3675
 4544SOL    HW125268   3.305   0.612   3.502  0.8114  3.7504 -0.9053
 4544SOL    HW225269   3.385   0.523   3.580  1.0241  0.1266 -0.8119
 4545SOL     OW25270   3.186   4.637   2.312 -0.2311  0.3312  0.3395
 4545SOL    HW125271   3.267   4.594   2.286 -1.1192  0.0610 -1.9958
 4545SOL    HW225272   3.126   4.573   2.272  0.2990 -0.7808  1.3452
 4546SOL     OW25273   1.496   2.699   1.669  0.1114 -0.4331 -0.0071
 4546SOL    HW125274   1.540   2.761   1.610 -1.1444  0.2988 -0.1685
 4546SOL    HW225275   1.501   2.627   1.607 -0.3378  0.4330 -1.0528
 4547SOL     OW25276   2.182   0.376   2.225  0.1621  0.0637  0.1465
 4547SOL    HW125277   2.228   0.301   2.185  0.0138 -0.0583  0.2057
 4547SOL    HW225278   2.104   0.334   2.259 -0.3416  2.3960  1.8236
 4548SOL     OW25279   3.650   1.946  14.447  0.3545  0.1566  0.6242
 4548SOL    HW125280   3.602   1.919  14.526 -2.1896 -1.2310 -1.3807
 4548SOL    HW225281   3.616   1.896  14.373  0.1758  0.5149  0.4661
 4549SOL     OW25282   1.436   3.241   2.405 -0.2599  0.2781 -0.3077
 4549SOL    HW125283   1.471   3.324   2.437  0.4454 -1.5808  3.7090
 4549SOL    HW225284   1.501   3.186   2.449 -0.3251  0.5839  0.1629
 4550SOL     OW25285   1.397   1.616  17.074 -0.3071  0.7392  0.0973
 4550SOL    HW125286   1.397   1.522  17.059  0.4627  0.7182  0.2548
 4550SOL    HW225287   1.445   1.621  17.157 -0.2014 -0.6136  0.1098
 4551SOL     OW25288   1.907   1.439   8.639 -0.1301 -0.1327 -0.4170
 4551SOL    HW125289   1.824   1.485   8.651  0.6728  0.7508  1.7324
 4551SOL    HW225290   1.948   1.449   8.725  2.8291 -0.2418 -1.8087
 4552SOL     OW25291   0.740   3.902   9.251 -0.0199 -0.7549  0.4526
 4552SOL    HW125292   0.680   3.969   9.217  0.4139 -0.5428  0.1054
 4552SOL    HW225293   0.813   3.954   9.285  0.8911 -1.6253 -0.1597
 4553SOL     OW25294   0.319   3.709  15.507  0.4303 -0.6790 -0.3425
 4553SOL    HW125295   0.388   3.659  15.463  0.7593  0.4784 -1.1443
 4553SOL    HW225296   0.295   3.779  15.446  0.4669 -0.8772 -0.5834
 4554SOL     OW25297   3.473   1.672   1.992  0.2489  0.0791  0.4761
 4554SOL    HW125298   3.486   1.647   1.900 -0.8702  3.0685 -0.5117
 4554SOL    HW225299   3.506   1.593   2.035  0.0995 -0.0745  0.3062
 4555SOL     OW25300   1.125   3.604  10.417  0.7609 -0.2513  0.5465
 4555SOL    HW125301   1.040   3.579  10.453 -0.9470  1.9089 -1.9587
 4555SOL    HW225302   1.162   3.644  10.496  0.5777  1.7355 -0.3868
 4556SOL     OW25303   2.907   4.225   5.056  0.1213 -0.7454 -0.5770
 4556SOL    HW125304   2.897   4.129   5.056  0.0396 -0.7404  0.9299
 4556SOL    HW225305   2.958   4.236   5.136  0.7561  0.9716 -1.2098
 4557SOL     OW25306   0.389   0.756   2.582  0.3156  0.4729 -0.2783
 4557SOL    HW125307   0.474   0.729   2.618  0.1526  0.6846  0.2626
 4557SOL    HW225308   0.318   0.704   2.620 -0.8908  1.1097 -1.6798
 4558SOL     OW25309   4.017   1.648   2.065 -0.4438 -0.4762  0.2466
 4558SOL    HW125310   4.106   1.624   2.040  0.4601  1.7136  1.3077
 4558SOL    HW225311   3.984   1.562   2.090  0.3521 -0.3272  1.8206
 4559SOL     OW25312   1.238   4.287  17.381  0.0340  0.3868  0.1593
 4559SOL    HW125313   1.299   4.359  17.361 -0.9614  0.7118 -1.7025
 4559SOL    HW225314   1.221   4.257  17.292  0.9425 -0.5909  0.3141
 4560SOL     OW25315   0.926   2.850  12.635  0.1133 -0.2387  0.1246
 4560SOL    HW125316   0.924   2.788  12.707 -2.1182 -1.2934 -0.8507
 4560SOL    HW225317   0.871   2.808  12.569  0.6648 -0.5974 -0.1008
 4561SOL     OW25318   1.062   3.642   7.620 -0.2530  0.1575 -0.1850
 4561SOL    HW125319   1.086   3.716   7.676 -0.2139 -0.8500  1.1310
 4561SOL    HW225320   1.134   3.633   7.557 -1.0974  0.5505 -1.2077
 4562SOL     OW25321   2.754   1.277   8.287 -0.0361 -0.5580  0.1824
 4562SOL    HW125322   2.847   1.298   8.277 -0.3253  0.0948 -1.1964
 4562SOL    HW225323   2.761   1.254   8.379  0.3404  1.3825  0.6486
 4563SOL     OW25324   3.214   3.179   8.770  0.0363  0.6117 -0.5104
 4563SOL    HW125325   3.169   3.097   8.751  1.5372 -0.4675  0.6674
 4563SOL    HW225326   3.276   3.151   8.837 -2.0086  4.6792  3.1049
 4564SOL     OW25327   3.739   1.766   6.027 -0.6345 -0.6166 -0.0309
 4564SOL    HW125328   3.722   1.725   5.943  2.0665 -3.4306  0.8017
 4564SOL    HW225329   3.772   1.692   6.078  0.8194  0.3932  0.5086
 4565SOL     OW25330   0.875   0.659   3.515 -0.2306  0.6184 -0.1922
 4565SOL    HW125331   0.886   0.644   3.421  0.4965 -0.1243  0.0170
 4565SOL    HW225332   0.806   0.596   3.535 -1.4045  1.3966 -1.7958
 4566SOL     OW25333   2.772   4.075   1.985 -0.0926  0.9262  0.4620
 4566SOL    HW125334   2.740   4.120   1.907 -0.6522  0.1641  0.2571
 4566SOL    HW225335   2.791   3.986   1.955  0.7176  0.8717  1.1261
 4567SOL     OW25336   4.196   0.649   5.896 -0.0519 -0.0965  0.0043
 4567SOL    HW125337   4.144   0.685   5.824  0.9400  1.0492 -0.1451
 4567SOL    HW225338   4.118   0.634   5.949  1.1705 -1.3262  1.4686
 4568SOL     OW25339   4.472   0.209  11.148 -1.0812 -0.8726  0.1709
 4568SOL    HW125340   4.494   0.192  11.239  0.7692 -3.0440 -0.6637
 4568SOL    HW225341   4.378   0.193  11.144 -1.1635  0.0712 -2.0584
 4569SOL     OW25342   2.616   3.033   2.608  0.0480 -0.4636 -0.1295
 4569SOL    HW125343   2.679   2.998   2.544 -2.1158  1.6692 -3.4575
 4569SOL    HW225344   2.675   3.075   2.671 -0.3118 -0.5806  0.2798
 4570SOL     OW25345   1.922   1.825   8.857  0.0118 -0.2457 -0.3291
 4570SOL    HW125346   2.002   1.796   8.813  0.6633  1.2374 -0.1358
 4570SOL    HW225347   1.905   1.743   8.903 -0.7279 -0.2017 -0.5261
 4571SOL     OW25348   3.172   4.116   5.959 -0.9348  0.4528  0.4403
 4571SOL    HW125349   3.151   4.076   6.044 -0.1642 -2.0295 -0.5434
 4571SOL    HW225350   3.157   4.046   5.896  0.6127  0.5347 -0.0267
 4572SOL     OW25351   1.130   3.038   3.353 -0.0508  0.0166  0.2127
 4572SOL    HW125352   1.053   3.092   3.337 -0.7288 -0.7113  1.0598
 4572SOL    HW225353   1.175   3.087   3.422 -0.8728  1.0313  0.0237
 4573SOL     OW25354   1.363   0.335   2.656  0.4407 -0.1069 -0.1712
 4573SOL    HW125355   1.374   0.275   2.730  0.4309 -0.6698 -0.6219
 4573SOL    HW225356   1.451   0.324   2.620  0.2388  1.1959 -1.0560
 4574SOL     OW25357   4.350   3.319   6.437 -0.3192  0.3804 -0.9669
 4574SOL    HW125358   4.400   3.306   6.356  2.1825  1.2298  0.4787
 4574SOL    HW225359   4.408   3.273   6.498 -2.0795 -1.3920 -0.6109
 4575SOL     OW25360   4.111   3.670   5.223 -0.2375  0.4106  0.1531
 4575SOL    HW125361   4.031   3.685   5.273 -0.2137  1.7273 -0.1915
 4575SOL    HW225362   4.095   3.584   5.185 -1.0468 -0.1969  1.8850
 4576SOL     OW25363   3.745   0.615   1.588  0.1912 -0.0084 -0.2569
 4576SOL    HW125364   3.696   0.657   1.658  0.9305 -1.1251  0.9203
 4576SOL    HW225365   3.741   0.521   1.600 -3.1120  0.4036  1.7751
 4577SOL     OW25366   2.019   0.492   4.381 -0.1477 -0.1205 -0.1595
 4577SOL    HW125367   2.061   0.419   4.336 -1.0344 -0.4346 -0.4925
 4577SOL    HW225368   2.047   0.475   4.470 -3.1488 -2.5198  0.3529
 4578SOL     OW25369   0.353   2.086   1.974 -0.0614  0.1890 -0.0214
 4578SOL    HW125370   0.394   2.071   2.059  1.0891 -1.9968 -0.9626
 4578SOL    HW225371   0.379   2.009   1.923 -2.1447 -0.1718 -0.5303
 4579SOL     OW25372   0.971   3.225   5.825 -0.1053 -0.0323 -0.8133
 4579SOL    HW125373   0.938   3.234   5.735 -0.3092 -2.0629 -0.9361
 4579SOL    HW225374   1.065   3.211   5.809  0.6843  1.0330  3.0408
 4580SOL     OW25375   3.491   0.342  16.278  0.7292  0.1825  0.2326
 4580SOL    HW125376   3.473   0.291  16.357 -1.0564  1.9165  0.9516
 4580SOL    HW225377   3.401   0.362  16.250  1.0420  0.6021 -0.4922
 4581SOL     OW25378   0.500   3.566   0.979  0.4058  0.0669  0.2881
 4581SOL    HW125379   0.504   3.481   0.936 -1.9360 -0.7212  1.6675
 4581SOL    HW225380   0.529   3.537   1.065  0.5919 -1.1402 -0.1930
 4582SOL     OW25381   1.818   1.170  15.463 -0.3410  0.9459  0.2528
 4582SOL    HW125382   1.772   1.086  15.464  1.1315  0.1412  0.2913
 4582SOL    HW225383   1.766   1.225  15.404 -0.4978  0.8293  0.2822
 4583SOL     OW25384   4.110   1.320   1.821  0.7155 -0.4730 -0.0681
 4583SOL    HW125385   4.032   1.268   1.801  0.7325 -0.3120 -0.5544
 4583SOL    HW225386   4.094   1.396   1.766 -2.4955 -1.3461 -0.3287
 4584SOL     OW25387   1.385   3.008   3.988 -0.5495  0.0303 -0.3151
 4584SOL    HW125388   1.379   3.055   4.071 -2.4865  0.4976 -0.7162
 4584SOL    HW225389   1.335   2.928   4.006 -0.0357 -0.7428 -2.2376
 4585SOL     OW25390   3.396   4.069   4.427  0.2703 -0.0230  0.1169
 4585SOL    HW125391   3.450   3.993   4.404 -1.3243 -0.6301 -1.6616
 4585SOL    HW225392   3.420   4.079   4.519  1.5355  1.1270 -0.3359
 4586SOL     OW25393   2.277   3.944   5.319 -0.2970  0.6969  0.9099
 4586SOL    HW125394   2.232   3.916   5.399 -1.2430 -1.2290 -0.2995
 4586SOL    HW225395   2.366   3.910   5.324 -0.4075  0.1181 -1.1994
 4587SOL     OW25396   3.675   3.503   7.274 -0.0530  0.0613 -0.1712
 4587SOL    HW125397   3.635   3.539   7.195 -1.6521 -1.2492  0.0491
 4587SOL    HW225398   3.595   3.473   7.317 -1.2004 -1.1221 -3.1404
 4588SOL     OW25399   1.556   0.484  15.132 -0.1655 -0.6917 -0.0876
 4588SOL    HW125400   1.583   0.435  15.054  1.7819  0.3585 -0.0563
 4588SOL    HW225401   1.490   0.430  15.176 -2.0068  0.9115 -0.8655
 4589SOL     OW25402   2.561   0.561   7.091  0.2675  0.1025  0.0220
 4589SOL    HW125403   2.610   0.549   7.010  2.8380 -0.7624  1.7133
 4589SOL    HW225404   2.477   0.550   7.046 -0.0648  0.1958  0.6220
 4590SOL     OW25405   3.405   4.294  14.956  0.0995  0.3668  0.2869
 4590SOL    HW125406   3.375   4.210  14.991  4.1324 -1.6909 -1.2359
 4590SOL    HW225407   3.336   4.360  14.963 -0.2966 -0.2119  1.9372
 4591SOL     OW25408   0.599   2.867   1.815 -0.4244  0.5856  0.1671
 4591SOL    HW125409   0.669   2.837   1.873 -0.9142  1.0400  0.9905
 4591SOL    HW225410   0.567   2.787   1.773  3.1045 -0.5841 -0.2658
 4592SOL     OW25411   3.602   2.759  11.975  0.2120  0.4949 -0.8294
 4592SOL    HW125412   3.664   2.826  11.948  1.2187 -0.4311 -0.8365
 4592SOL    HW225413   3.636   2.708  12.048  0.4788  1.2464 -0.4307
 4593SOL     OW25414   0.034   0.684   3.113  0.0693 -0.2630 -0.1104
 4593SOL    HW125415   4.737   0.772   3.125  0.9927  0.2544 -1.1105
 4593SOL    HW225416   4.726   0.632   3.178 -1.6712  1.8755  0.3684
 4594SOL     OW25417   3.599   1.149   7.641 -0.7698 -0.0771  0.2138
 4594SOL    HW125418   3.505   1.152   7.620 -0.2567 -3.6870 -2.5727
 4594SOL    HW225419   3.616   1.055   7.635  1.4273  0.2434  1.5959
 4595SOL     OW25420   0.479   0.612   8.308 -0.3573  0.0331  0.5388
 4595SOL    HW125421   0.400   0.624   8.361 -0.6891  0.2429  0.0104
 4595SOL    HW225422   0.515   0.701   8.309 -1.9605  0.7156 -0.3407
 4596SOL     OW25423   0.230   4.360   5.125 -0.0100 -0.1098  0.2050
 4596SOL    HW125424   0.306   4.413   5.101 -0.2317 -0.0936 -0.4466
 4596SOL    HW225425   0.230   4.382   5.218 -1.7258  1.4886 -0.1926
 4597SOL     OW25426   3.353   3.559  17.233  0.6387 -0.2046  0.5945
 4597SOL    HW125427   3.373   3.644  17.193 -0.4835  0.4577  1.4357
 4597SOL    HW225428   3.438   3.540  17.273  0.7204 -0.6174  0.2183
 4598SOL     OW25429   1.060   3.716   1.545 -0.5520 -0.1006  0.3717
 4598SOL    HW125430   0.986   3.657   1.562 -0.9065  0.4647  0.8144
 4598SOL    HW225431   1.102   3.709   1.631  0.3567 -1.3376 -0.1719
 4599SOL     OW25432   2.571   2.562   3.432 -0.0029 -0.0972 -0.1155
 4599SOL    HW125433   2.606   2.546   3.520 -0.6447  0.4232  0.2285
 4599SOL    HW225434   2.606   2.649   3.414 -1.3503  0.2832 -0.9024
 4600SOL     OW25435   2.493   0.073   7.247  0.0395 -0.1671 -0.1135
 4600SOL    HW125436   2.549   0.031   7.181  0.1278  2.1157 -1.4940
 4600SOL    HW225437   2.436   0.130   7.195 -0.3373 -1.6274 -1.3045
 4601SOL     OW25438   0.431   1.943   6.610 -0.8119  0.2544  0.5343
 4601SOL    HW125439   0.345   1.903   6.623  0.3540 -1.3709  3.3837
 4601SOL    HW225440   0.399   2.032   6.600 -0.4284  0.1445 -1.6764
 4602SOL     OW25441   4.676   3.882  11.677  0.1964  0.1135 -0.7758
 4602SOL    HW125442   4.693   3.814  11.742 -0.5465  0.2247 -0.4741
 4602SOL    HW225443   4.599   3.854  11.628  0.1451 -1.3323  0.1390
 4603SOL     OW25444   1.707   0.694   3.215  0.0038 -0.2382 -0.0592
 4603SOL    HW125445   1.661   0.770   3.251  0.0291  0.5649 -1.6943
 4603SOL    HW225446   1.776   0.746   3.172 -0.8334  1.4416  0.6271
 4604SOL     OW25447   3.758   2.243   0.061  0.5727  0.3843 -0.1960
 4604SOL    HW125448   3.704   2.198   0.126 -1.6014  1.6786 -1.0925
 4604SOL    HW225449   3.774   2.320   0.117  0.5883  0.1301  0.1510
 4605SOL     OW25450   2.662   1.865   7.947 -0.1524  0.3165  0.5988
 4605SOL    HW125451   2.732   1.911   7.899  0.3576 -0.4914  0.5740
 4605SOL    HW225452   2.711   1.789   7.978  2.4505  2.5703  2.0812
 4606SOL     OW25453   1.420   4.585   4.175  0.1674  0.4710  0.3447
 4606SOL    HW125454   1.326   4.602   4.178  0.3234  1.2422  0.7790
 4606SOL    HW225455   1.443   4.664   4.127  0.6348 -0.6168 -1.2374
 4607SOL     OW25456   4.461   1.362   3.352  0.6661 -0.0534  0.3706
 4607SOL    HW125457   4.477   1.347   3.259 -1.7413 -0.3641  0.0077
 4607SOL    HW225458   4.401   1.289   3.366  1.2649 -0.7155 -0.4762
 4608SOL     OW25459   0.089   0.806   6.165 -0.1644 -0.4760 -0.1758
 4608SOL    HW125460   0.006   0.840   6.198  0.3255  1.2295 -0.7147
 4608SOL    HW225461   0.085   0.719   6.206  1.8598 -1.3551 -1.8190
 4609SOL     OW25462   3.851   1.870   2.117 -0.5231 -0.9141 -0.0188
 4609SOL    HW125463   3.904   1.791   2.115 -1.8383 -1.8164  0.5549
 4609SOL    HW225464   3.897   1.911   2.043  1.1879 -1.1426  0.9286
 4610SOL     OW25465   0.817   1.391   5.038 -0.1841  0.1205 -0.5542
 4610SOL    HW125466   0.736   1.442   5.032  0.1934  0.7554 -0.2071
 4610SOL    HW225467   0.861   1.440   4.968  3.4139  0.8631  2.2597
 4611SOL     OW25468   2.692   3.518   8.638 -0.1710  0.0797  0.5666
 4611SOL    HW125469   2.633   3.453   8.601 -0.0890  0.3842 -0.1065
 4611SOL    HW225470   2.744   3.481   8.709  2.3376  0.7089 -0.9311
 4612SOL     OW25471   4.540   3.206   4.248  0.6115  0.4407  0.2493
 4612SOL    HW125472   4.473   3.185   4.313 -0.4975 -0.4036 -1.1673
 4612SOL    HW225473   4.580   3.284   4.287 -2.0614  2.1895 -0.5180
 4613SOL     OW25474   1.388   3.051   5.573  0.3042  0.5168 -0.5834
 4613SOL    HW125475   1.341   3.004   5.505 -1.7532  1.1590  0.3891
 4613SOL    HW225476   1.471   3.057   5.525  0.9144  1.2350  0.5464
 4614SOL     OW25477   4.198   2.389   1.250  0.4488 -0.2122  0.4355
 4614SOL    HW125478   4.171   2.301   1.224  1.3564 -0.1958 -0.5554
 4614SOL    HW225479   4.139   2.430   1.188  0.3320 -1.7567 -0.4669
 4615SOL     OW25480   0.797   1.094  15.140  0.0415  0.0221  0.0725
 4615SOL    HW125481   0.747   1.111  15.220  0.0081  2.2117 -0.4128
 4615SOL    HW225482   0.871   1.153  15.152  0.4527 -0.4180 -0.3248
 4616SOL     OW25483   4.419   1.142   1.416  0.1770 -0.3276 -0.2379
 4616SOL    HW125484   4.382   1.222   1.453 -1.2041 -0.8639 -0.4545
 4616SOL    HW225485   4.365   1.078   1.461  0.0104  0.3003  0.4566
 4617SOL     OW25486   1.903   3.230   3.680 -0.5365 -0.1083 -0.2778
 4617SOL    HW125487   1.878   3.227   3.588 -1.8153 -0.6365  0.0866
 4617SOL    HW225488   1.814   3.225   3.715 -0.2756  0.6596  0.5067
 4618SOL     OW25489   4.579   1.501  15.952 -0.0508  0.2139 -0.3277
 4618SOL    HW125490   4.618   1.447  15.883 -1.0932 -2.4578  1.1905
 4618SOL    HW225491   4.496   1.519  15.907 -0.9756 -3.8668 -0.2134
 4619SOL     OW25492   2.477   2.480  13.033  0.5204  0.1442 -0.6439
 4619SOL    HW125493   2.433   2.397  13.017 -2.1297  1.0504  1.8057
 4619SOL    HW225494   2.532   2.488  12.955  0.1433 -1.2598 -1.0552
 4620SOL     OW25495   0.652   0.409   7.548 -0.1783 -0.2088 -0.2830
 4620SOL    HW125496   0.635   0.442   7.636 -1.5582 -0.4453 -0.4624
 4620SOL    HW225497   0.703   0.331   7.572 -0.3584  0.1391  1.2033
 4621SOL     OW25498   4.101   3.912   5.144  0.0037  0.0959 -0.2559
 4621SOL    HW125499   4.022   3.894   5.094  0.3927 -0.6965 -0.5840
 4621SOL    HW225500   4.117   3.827   5.186 -0.4778 -0.0686 -0.4072
 4622SOL     OW25501   4.719   1.542   0.324 -0.4461  0.4557  0.1696
 4622SOL    HW125502   4.729   1.471   0.261  0.2642  0.8128 -0.1133
 4622SOL    HW225503   4.705   1.618   0.267  2.3528  1.4918  0.8653
 4623SOL     OW25504   2.110   1.381  15.721  0.6604  0.2370 -0.2399
 4623SOL    HW125505   2.161   1.444  15.671  2.3990 -0.7017  0.3413
 4623SOL    HW225506   2.117   1.307  15.660  0.6180  0.6351 -0.7268
 4624SOL     OW25507   2.313   0.543   7.997  0.2751  0.5689 -0.0424
 4624SOL    HW125508   2.349   0.631   8.012  0.2932  0.7352 -1.0717
 4624SOL    HW225509   2.391   0.501   7.959  1.0286  1.0408  0.9841
 4625SOL     OW25510   2.168   2.610  15.661  0.2491  0.6168 -0.3189
 4625SOL    HW125511   2.197   2.582  15.574  0.5479 -1.6097  0.4983
 4625SOL    HW225512   2.168   2.531  15.715  2.0818  0.7000 -0.1940
 4626SOL     OW25513   1.951   3.222   0.455 -0.2782 -0.8149 -0.1511
 4626SOL    HW125514   1.872   3.261   0.492  0.4312  0.7435 -0.2753
 4626SOL    HW225515   1.960   3.270   0.373 -1.5388 -0.8002 -0.2716
 4627SOL     OW25516   3.390   3.881   7.130 -0.4260 -0.0686  0.3972
 4627SOL    HW125517   3.304   3.922   7.128  0.5837  1.9730 -1.3842
 4627SOL    HW225518   3.380   3.814   7.063 -1.5727  0.8663 -0.3627
 4628SOL     OW25519   1.521   3.612  13.952 -0.4262  0.4015 -0.4298
 4628SOL    HW125520   1.529   3.666  14.031  0.9319  0.1928 -0.4245
 4628SOL    HW225521   1.474   3.538  13.991 -2.1287  1.3580 -0.6789
 4629SOL     OW25522   1.197   1.066   8.861 -0.0092 -0.1829  0.2260
 4629SOL    HW125523   1.217   0.999   8.796  0.3280 -0.8249  0.9888
 4629SOL    HW225524   1.279   1.116   8.858 -0.6611  0.7477 -1.7596
 4630SOL     OW25525   1.116   2.015  15.181 -0.7681 -0.3097  0.1096
 4630SOL    HW125526   1.028   2.011  15.143 -1.4350 -0.6904  1.6978
 4630SOL    HW225527   1.106   1.956  15.256  1.3975 -2.7317 -1.5226
 4631SOL     OW25528   0.086   0.751   4.090 -0.6323  0.9945  0.3917
 4631SOL    HW125529   0.026   0.677   4.095 -0.6099  0.9908  0.5896
 4631SOL    HW225530   0.083   0.790   4.177 -0.3378  0.9131  0.4408
 4632SOL     OW25531   3.948   1.312   8.000 -0.0194 -0.4898 -0.4664
 4632SOL    HW125532   3.893   1.347   7.930  0.9434  0.3242 -0.8168
 4632SOL    HW225533   3.921   1.372   8.068  0.5230  1.2962 -1.8381
 4633SOL     OW25534   2.275   3.675   6.081 -0.1182 -0.3802 -0.3071
 4633SOL    HW125535   2.333   3.634   6.145  0.5569  2.0493  0.6078
 4633SOL    HW225536   2.225   3.729   6.142  1.6980  1.7641 -0.7104
 4634SOL     OW25537   1.034   0.595   5.427 -0.1631  0.4565 -0.2750
 4634SOL    HW125538   0.961   0.537   5.403 -0.8351  1.8166 -1.5151
 4634SOL    HW225539   1.051   0.643   5.346 -0.9014 -0.5667 -1.0292
 4635SOL     OW25540   3.732   0.882   3.831 -0.6271  0.1118  0.5441
 4635SOL    HW125541   3.648   0.839   3.816 -0.3688  0.8599 -3.1022
 4635SOL    HW225542   3.745   0.945   3.759  1.5821 -1.8286 -0.7396
 4636SOL     OW25543   2.359   2.794   7.184  0.4599 -0.4959 -0.4741
 4636SOL    HW125544   2.266   2.810   7.171 -0.0764 -0.8240  2.9475
 4636SOL    HW225545   2.367   2.852   7.260 -0.4629 -1.0062  0.0133
 4637SOL     OW25546   1.855   1.991   4.624  0.0587 -0.2038  0.1327
 4637SOL    HW125547   1.811   1.948   4.550 -0.4935  2.1493 -0.9241
 4637SOL    HW225548   1.877   2.070   4.575 -0.0048  0.1048  0.5950
 4638SOL     OW25549   1.329   1.414   4.924  0.3750  0.2175 -0.0107
 4638SOL    HW125550   1.403   1.452   4.970  1.0742 -0.3766 -0.6420
 4638SOL    HW225551   1.365   1.336   4.881  0.0248 -1.0680  2.0468
 4639SOL     OW25552   4.561   3.331  12.481  0.0994 -0.5497  0.3103
 4639SOL    HW125553   4.613   3.275  12.539  1.3266 -0.3862 -0.6351
 4639SOL    HW225554   4.473   3.320  12.518 -0.2066 -2.0239 -0.8644
 4640SOL     OW25555   1.998   2.256   6.316  0.7776  0.0383 -0.4880
 4640SOL    HW125556   2.073   2.312   6.337  1.9398 -1.8211  0.3143
 4640SOL    HW225557   1.933   2.324   6.299  0.3093 -0.0080  1.1068
 4641SOL     OW25558   0.234   2.869   8.986  0.1234  0.0949  0.1752
 4641SOL    HW125559   0.253   2.787   9.033  2.0001 -0.7047 -1.9820
 4641SOL    HW225560   0.263   2.938   9.046  0.9678 -1.0509  1.0875
 4642SOL     OW25561   0.378   1.291   2.529  0.0874 -0.3930  0.2841
 4642SOL    HW125562   0.405   1.199   2.532  0.7383 -0.1849  1.1062
 4642SOL    HW225563   0.284   1.302   2.515  0.2911  0.0437 -0.7322
 4643SOL     OW25564   2.947   3.824   5.635  0.6051 -0.3768 -0.6801
 4643SOL    HW125565   3.009   3.797   5.568 -0.7658 -1.2098 -1.6240
 4643SOL    HW225566   2.896   3.885   5.582  1.1772  1.0416  0.4118
 4644SOL     OW25567   1.981   1.274   3.585  0.2240 -0.4415  0.0144
 4644SOL    HW125568   2.032   1.315   3.515 -0.2009  1.8388  1.0260
 4644SOL    HW225569   2.043   1.208   3.615  0.2508 -0.0715  0.7878
 4645SOL     OW25570   0.411   3.767   0.514 -0.1438 -0.5211  0.2113
 4645SOL    HW125571   0.408   3.724   0.600  0.6184 -0.5898  0.2016
 4645SOL    HW225572   0.317   3.766   0.499  0.3113 -3.3405 -2.3998
 4646SOL     OW25573   3.367   1.526   3.414 -0.6747  0.2248 -0.2482
 4646SOL    HW125574   3.450   1.489   3.443 -0.1252 -0.6357 -2.9685
 4646SOL    HW225575   3.312   1.456   3.449 -0.1554  0.2617  0.6384
 4647SOL     OW25576   4.653   0.834   3.602  0.0013  0.1086 -0.0660
 4647SOL    HW125577   0.004   0.808   3.581 -0.0408  0.6744 -0.8968
 4647SOL    HW225578   4.661   0.925   3.575  2.4034 -0.1241 -0.0935
 4648SOL     OW25579   2.794   4.184   6.638  0.2180 -0.2495  0.0943
 4648SOL    HW125580   2.841   4.256   6.596 -0.0105  0.2260  0.6578
 4648SOL    HW225581   2.797   4.193   6.733  0.2827  0.4366  0.0292
 4649SOL     OW25582   2.643   2.607   4.435 -0.3679  0.2391 -0.6360
 4649SOL    HW125583   2.664   2.529   4.486 -0.1067  0.9312  0.3242
 4649SOL    HW225584   2.717   2.606   4.375 -0.0207 -2.0711 -0.1580
 4650SOL     OW25585   1.506   2.511   3.985 -0.0467 -0.1584 -0.2055
 4650SOL    HW125586   1.413   2.520   3.965  0.3101  1.9256 -0.9969
 4650SOL    HW225587   1.507   2.554   4.071  0.1521 -0.7429  0.0845
 4651SOL     OW25588   3.696   2.824   8.004  0.4037 -0.5347 -0.4753
 4651SOL    HW125589   3.720   2.849   8.093  0.6863 -1.8769 -0.1671
 4651SOL    HW225590   3.666   2.910   7.976  1.0534 -0.1021  0.1810
 4652SOL     OW25591   0.745   0.703   7.084 -0.6295  0.5106  0.1949
 4652SOL    HW125592   0.770   0.612   7.100 -0.5972  0.7121  1.2891
 4652SOL    HW225593   0.754   0.699   6.989 -0.7011 -1.2605  0.2660
 4653SOL     OW25594   3.632   1.908   7.525 -0.7435 -0.4119 -0.2460
 4653SOL    HW125595   3.655   1.980   7.584 -0.6482 -2.1890  1.8941
 4653SOL    HW225596   3.664   1.828   7.567 -1.0475 -0.8841 -0.9187
 4654SOL     OW25597   2.647   4.586   0.626 -0.2155  0.2386 -0.0939
 4654SOL    HW125598   2.562   4.542   0.627  0.7581 -1.6467  0.9044
 4654SOL    HW225599   2.706   4.534   0.681 -0.9260 -0.3085  0.1507
 4655SOL     OW25600   3.458   3.018   8.934 -0.0278  0.3381  0.4493
 4655SOL    HW125601   3.543   3.062   8.940  0.0380  0.0152  1.8244
 4655SOL    HW225602   3.478   2.941   8.882 -0.5121  1.6949 -1.7702
 4656SOL     OW25603   4.537   1.909   9.394  0.2854  0.3918  0.2306
 4656SOL    HW125604   4.512   1.821   9.364  0.6644  0.1881  0.5137
 4656SOL    HW225605   4.621   1.927   9.353  0.8675  2.1246  2.2214
 4657SOL     OW25606   3.954   2.753   4.557  0.1849  0.3012 -0.2301
 4657SOL    HW125607   3.901   2.825   4.590 -1.4843 -0.6667 -0.7934
 4657SOL    HW225608   4.042   2.789   4.558  0.1015  0.5193 -0.7362
 4658SOL     OW25609   1.162   1.535   3.000  0.4243 -0.2905  0.0639
 4658SOL    HW125610   1.130   1.523   3.089 -1.1193  2.5363 -0.1024
 4658SOL    HW225611   1.240   1.480   2.993  0.9811  0.6656 -1.2443
 4659SOL     OW25612   3.735   0.917   6.375  0.1618 -0.4639  0.0645
 4659SOL    HW125613   3.702   0.827   6.378 -2.1379  0.3867  0.4219
 4659SOL    HW225614   3.733   0.938   6.281  1.5165  2.8453  0.7877
 4660SOL     OW25615   4.290   1.381  17.142  0.1785 -0.1653 -0.8114
 4660SOL    HW125616   4.338   1.356  17.062 -0.8670  0.5083 -1.6513
 4660SOL    HW225617   4.202   1.362  17.111 -0.3407  0.9783 -0.0347
 4661SOL     OW25618   0.359   0.436  15.675  0.7335  0.1169 -0.0707
 4661SOL    HW125619   0.404   0.360  15.713  2.1366  0.4978 -0.9327
 4661SOL    HW225620   0.431   0.496  15.652 -0.2635  0.8230 -1.3310
 4662SOL     OW25621   2.195   1.317   7.777  0.5618 -0.5592 -0.1071
 4662SOL    HW125622   2.204   1.263   7.698 -0.5972 -0.1941 -0.4903
 4662SOL    HW225623   2.136   1.264   7.830  0.1260  0.0922  0.0604
 4663SOL     OW25624   1.762   4.385   3.971  0.6552  0.8145  0.0377
 4663SOL    HW125625   1.722   4.472   3.973 -0.6184  0.2602 -1.3786
 4663SOL    HW225626   1.825   4.388   3.899  0.3721  0.6095 -0.2248
 4664SOL     OW25627   2.846   2.605  17.524 -0.1978  0.8531  0.3586
 4664SOL    HW125628   2.846   2.594  17.429 -0.9385  0.2366  0.4252
 4664SOL    HW225629   2.821   2.518  17.556 -3.7046  1.9105  0.5028
 4665SOL     OW25630   2.398   1.894   6.413 -0.3386  0.4434  1.0272
 4665SOL    HW125631   2.411   1.855   6.499  0.0866  0.7194  1.0915
 4665SOL    HW225632   2.303   1.900   6.406 -0.3591 -0.5675  0.3859
 4666SOL     OW25633   2.781   0.233   3.258  0.2330 -0.2157 -0.4788
 4666SOL    HW125634   2.819   0.145   3.257 -0.2305 -0.4405  1.2731
 4666SOL    HW225635   2.701   0.215   3.208  0.2857 -0.4922 -0.4628
 4667SOL     OW25636   1.017   2.366   7.842  0.1279  0.1457  0.2578
 4667SOL    HW125637   0.981   2.451   7.815  1.0611 -0.3518 -2.5244
 4667SOL    HW225638   1.028   2.386   7.935 -1.3357 -0.2135  0.5018
 4668SOL     OW25639   4.514   2.524   6.350 -0.2764  0.1761 -0.3587
 4668SOL    HW125640   4.594   2.485   6.315  0.8750  0.2339  2.2104
 4668SOL    HW225641   4.455   2.508   6.276 -1.1135 -2.0821  0.7872
 4669SOL     OW25642   1.000   0.420  16.016 -0.1230 -0.0292  0.3647
 4669SOL    HW125643   1.047   0.459  16.090 -1.1702  2.3996 -0.2315
 4669SOL    HW225644   1.049   0.464  15.946  2.1154  0.2995  2.1256
 4670SOL     OW25645   1.047   0.701  11.305 -0.0551  0.2825  0.4728
 4670SOL    HW125646   1.086   0.757  11.372  1.5860  0.5766 -0.7383
 4670SOL    HW225647   1.053   0.613  11.341  1.7001  0.2470  0.1175
 4671SOL     OW25648   2.987   1.384   3.567 -0.2010  0.3080  0.2848
 4671SOL    HW125649   2.949   1.340   3.643 -0.3278  1.3612  0.8306
 4671SOL    HW225650   2.918   1.374   3.502 -0.1378  1.2997  0.0626
 4672SOL     OW25651   2.708   4.569   1.812  0.1107 -0.0013  0.3808
 4672SOL    HW125652   2.668   4.656   1.809  0.8931  0.3056 -1.1874
 4672SOL    HW225653   2.764   4.579   1.889  1.2755 -0.5181 -0.4019
 4673SOL     OW25654   1.590   4.249   6.834 -0.5308 -0.4935 -0.0798
 4673SOL    HW125655   1.582   4.341   6.855 -1.7102 -1.2213  2.5689
 4673SOL    HW225656   1.685   4.243   6.837 -0.7056 -0.8497  3.9642
 4674SOL     OW25657   0.277   1.765   3.383  0.1363  0.2797  0.0778
 4674SOL    HW125658   0.280   1.731   3.472 -0.6133 -0.2480 -0.1007
 4674SOL    HW225659   0.206   1.709   3.351  1.7926 -0.8248 -1.6757
 4675SOL     OW25660   3.165   1.171  16.851  0.6186 -0.2088  0.6731
 4675SOL    HW125661   3.111   1.241  16.888  0.6741 -0.2648  0.8588
 4675SOL    HW225662   3.144   1.098  16.909  0.7050 -0.4134  0.4444
 4676SOL     OW25663   3.933   3.718   0.102 -0.6294 -0.3253  0.0598
 4676SOL    HW125664   3.930   3.623   0.113 -1.2163 -0.4978 -1.5770
 4676SOL    HW225665   3.983   3.725   0.021 -1.9457 -1.6498 -0.8702
 4677SOL     OW25666   3.126   2.002  11.576 -0.0625 -0.4293 -0.0211
 4677SOL    HW125667   3.105   1.996  11.483  2.6339  1.7178 -0.7441
 4677SOL    HW225668   3.048   1.955  11.607 -1.0393  0.9890 -0.3549
 4678SOL     OW25669   1.438   2.605   5.603  0.2843  0.1288  0.3308
 4678SOL    HW125670   1.488   2.607   5.685  0.5251 -2.0126  0.2374
 4678SOL    HW225671   1.351   2.612   5.643  0.4696 -1.9470  1.1327
 4679SOL     OW25672   0.963   1.181  14.887  0.1308  0.3555  0.1550
 4679SOL    HW125673   0.960   1.166  14.792  0.9297  0.3678  0.1265
 4679SOL    HW225674   0.877   1.215  14.910  0.6422  0.9579  1.1933
 4680SOL     OW25675   0.122   0.971   8.058  0.6147 -0.9170  0.6475
 4680SOL    HW125676   0.028   0.970   8.079  0.0886  0.8732 -1.6561
 4680SOL    HW225677   0.116   1.020   7.976 -0.7415  0.0883  1.3339
 4681SOL     OW25678   3.905   0.605   8.758 -0.1689 -0.4249  0.5653
 4681SOL    HW125679   3.930   0.646   8.675 -0.3626  0.4739  0.9504
 4681SOL    HW225680   3.924   0.675   8.821  0.9817 -0.8213  0.6577
 4682SOL     OW25681   2.522   2.715   6.979 -0.8726  0.1253  0.0157
 4682SOL    HW125682   2.465   2.751   7.047 -1.0492 -1.4112  0.6763
 4682SOL    HW225683   2.460   2.723   6.907 -2.5486  0.8729  1.5351
 4683SOL     OW25684   1.270   3.590   8.930  0.2689 -0.1481  0.1565
 4683SOL    HW125685   1.204   3.550   8.874  1.2374 -1.3109 -0.1647
 4683SOL    HW225686   1.220   3.668   8.955  1.0865 -0.0478  1.4974
 4684SOL     OW25687   0.429   1.743   3.114  0.2207  0.5573  0.0565
 4684SOL    HW125688   0.458   1.691   3.189  0.1149 -0.4167 -0.5801
 4684SOL    HW225689   0.494   1.726   3.045 -1.2825  2.2379 -1.7642
 4685SOL     OW25690   0.402   0.721   8.846  0.1326  0.5523  0.0546
 4685SOL    HW125691   0.446   0.789   8.795  2.8113  1.2771  3.3853
 4685SOL    HW225692   0.420   0.744   8.937  0.4421  1.6429 -0.2825
 4686SOL     OW25693   3.164   0.119  10.276  0.1312 -0.3043  0.6308
 4686SOL    HW125694   3.221   0.182  10.319 -1.0995  3.3644 -3.0919
 4686SOL    HW225695   3.222   0.062  10.224  0.0984 -1.5971  1.9930
 4687SOL     OW25696   2.996   1.084  11.110 -0.1899 -0.3464 -0.5067
 4687SOL    HW125697   2.950   1.002  11.097 -1.7692  0.3235  0.9322
 4687SOL    HW225698   2.946   1.146  11.057 -1.3004 -1.1068 -0.3394
 4688SOL     OW25699   4.263   0.001   2.239  0.4596 -0.0472 -0.1700
 4688SOL    HW125700   4.350   4.733   2.198  0.2873  1.0510 -0.7139
 4688SOL    HW225701   4.256   0.091   2.271  0.2722  0.1419 -0.7500
 4689SOL     OW25702   0.995   2.371   8.866  0.7106 -0.0327  0.4783
 4689SOL    HW125703   1.088   2.385   8.848  1.3177  0.1748  3.8045
 4689SOL    HW225704   0.977   2.296   8.810  0.1859  1.6809 -1.6518
 4690SOL     OW25705   2.402   2.402  12.670 -0.7689  0.0636 -0.2635
 4690SOL    HW125706   2.490   2.402  12.710  0.0498 -0.6959 -2.0818
 4690SOL    HW225707   2.347   2.382  12.746  0.6551  1.3421  1.1239
 4691SOL     OW25708   1.233   1.556   2.441 -0.0256  0.3752  0.0556
 4691SOL    HW125709   1.300   1.611   2.399 -0.7158  0.1861 -1.2748
 4691SOL    HW225710   1.182   1.627   2.479  0.5181 -0.5758  2.5459
 4692SOL     OW25711   1.015   2.381   5.396 -0.7813  0.1444  0.3982
 4692SOL    HW125712   1.012   2.287   5.382 -4.0372  0.9188 -4.3860
 4692SOL    HW225713   1.097   2.386   5.445  0.2350  0.0361 -1.2625
 4693SOL     OW25714   4.370   0.858  14.112 -0.1521  0.1137 -0.0077
 4693SOL    HW125715   4.385   0.951  14.097  1.4888 -0.3672 -1.3330
 4693SOL    HW225716   4.454   0.822  14.142 -0.5107 -0.3944  0.4051
 4694SOL     OW25717   1.897   2.455  11.518 -0.0081 -0.1502 -0.7421
 4694SOL    HW125718   1.934   2.512  11.585  1.0693 -0.5404 -1.0053
 4694SOL    HW225719   1.960   2.470  11.446  0.4880 -1.1042 -0.5120
 4695SOL     OW25720   4.268   0.053  16.230  0.5043 -0.1860 -0.2834
 4695SOL    HW125721   4.310   0.110  16.165  0.8570 -0.4251 -0.2647
 4695SOL    HW225722   4.178   0.055  16.198  1.3619  1.1995 -2.6458
 4696SOL     OW25723   1.876   3.035   8.932 -0.5779  0.0921 -0.2174
 4696SOL    HW125724   1.886   2.959   8.874 -0.8560 -0.7928  0.9082
 4696SOL    HW225725   1.910   3.004   9.015 -0.1116 -0.5998 -0.6667
 4697SOL     OW25726   3.451   0.419   5.270  0.4204 -0.1837  0.0883
 4697SOL    HW125727   3.372   0.459   5.232  1.6140  2.2593  0.1897
 4697SOL    HW225728   3.433   0.327   5.285  0.8433 -0.3239 -0.2539
 4698SOL     OW25729   4.313   1.307   7.516  0.5303  0.1856 -0.5344
 4698SOL    HW125730   4.283   1.261   7.438 -0.3870 -1.1092  0.5808
 4698SOL    HW225731   4.408   1.312   7.503  0.3282  0.9780 -1.7053
 4699SOL     OW25732   1.601   2.319   7.442  0.2271 -0.5659 -0.8151
 4699SOL    HW125733   1.618   2.225   7.446  0.5993 -0.4584  0.0214
 4699SOL    HW225734   1.585   2.340   7.350 -0.4434 -0.0607 -0.5779
 4700SOL     OW25735   2.322   2.833   9.447  0.1867  0.0314  0.3754
 4700SOL    HW125736   2.351   2.847   9.356 -0.6211  0.2920  0.1539
 4700SOL    HW225737   2.283   2.747   9.434  1.3781 -0.3615 -0.5937
 4701SOL     OW25738   2.972   3.290   5.931 -0.1160  0.1548 -0.3844
 4701SOL    HW125739   3.041   3.313   5.868 -0.7953  0.3922 -1.0481
 4701SOL    HW225740   2.908   3.352   5.896 -0.7263 -0.3073 -0.0677
 4702SOL     OW25741   0.418   4.359   3.669  0.4006  0.1692 -0.4773
 4702SOL    HW125742   0.346   4.315   3.714  0.6591  2.2256  1.9653
 4702SOL    HW225743   0.366   4.435   3.643 -3.0157 -2.3681 -1.0732
 4703SOL     OW25744   2.217   1.303  11.687 -0.2621  0.2283  0.2022
 4703SOL    HW125745   2.294   1.357  11.667  0.9405 -1.4624  0.2403
 4703SOL    HW225746   2.237   1.218  11.649  0.8770  1.1529 -1.3002
 4704SOL     OW25747   4.626   1.327   3.571 -0.5252  0.2590 -0.0775
 4704SOL    HW125748   4.563   1.342   3.500  0.0819  2.0688 -0.2327
 4704SOL    HW225749   4.690   1.397   3.563  0.2987 -0.6473 -1.4286
 4705SOL     OW25750   2.896   1.661   4.786 -0.2448  0.1598  0.4375
 4705SOL    HW125751   2.851   1.627   4.708  1.5885 -2.3987  0.4911
 4705SOL    HW225752   2.850   1.610   4.852 -0.8219  2.8932  2.1282
 4706SOL     OW25753   2.926   3.576   9.219 -0.7126 -0.4433 -0.0197
 4706SOL    HW125754   2.998   3.622   9.264 -0.4776 -0.9929  0.1750
 4706SOL    HW225755   2.875   3.541   9.292 -0.6388 -0.6982 -0.0868
 4707SOL     OW25756   2.861   3.407  17.464 -0.5529  0.1547 -0.1366
 4707SOL    HW125757   2.945   3.414  17.420 -1.0336 -1.2882 -1.2968
 4707SOL    HW225758   2.895   3.391  17.552 -1.5272  1.1569  0.4246
 4708SOL     OW25759   3.498   4.659   1.156 -0.3546  0.0860  0.4099
 4708SOL    HW125760   3.437   4.603   1.108 -1.4590  1.5334  0.1547
 4708SOL    HW225761   3.556   4.694   1.088  0.8936 -2.1301  0.3413
 4709SOL     OW25762   4.118   3.121   7.736 -0.2030 -0.6659  0.1806
 4709SOL    HW125763   4.147   3.143   7.825 -0.5378 -1.2173  0.4291
 4709SOL    HW225764   4.033   3.085   7.761 -0.6921 -0.2497 -0.8801
 4710SOL     OW25765   0.709   0.383  13.614  0.0603  0.0188 -0.1040
 4710SOL    HW125766   0.656   0.461  13.623 -1.3623 -0.9307 -0.3463
 4710SOL    HW225767   0.667   0.328  13.681  1.3071 -1.0407 -0.1807
 4711SOL     OW25768   2.552   3.367   5.207  0.1461  0.3776 -0.6453
 4711SOL    HW125769   2.574   3.281   5.241 -2.4358 -0.5233 -1.2124
 4711SOL    HW225770   2.628   3.374   5.149  0.1383 -0.2012 -0.7302
 4712SOL     OW25771   3.187   2.722   5.044 -0.2675  0.3977 -0.5840
 4712SOL    HW125772   3.225   2.808   5.058  0.6582 -0.4176  1.9727
 4712SOL    HW225773   3.261   2.662   5.030 -0.9324 -0.7101  0.6077
 4713SOL     OW25774   3.134   3.727  12.079  0.4796 -0.9201 -0.5473
 4713SOL    HW125775   3.154   3.759  12.167  0.7221 -0.3154 -0.8238
 4713SOL    HW225776   3.042   3.755  12.073  0.9943  0.9481  0.6943
 4714SOL     OW25777   2.627   0.982   8.094  0.3756 -0.4548 -0.2784
 4714SOL    HW125778   2.691   0.922   8.132  2.6993  1.4536 -1.1359
 4714SOL    HW225779   2.676   1.038   8.033  1.0843  0.8575  1.4798
 4715SOL     OW25780   3.242   3.177   4.401  0.0719  0.2372  0.0678
 4715SOL    HW125781   3.174   3.199   4.464  0.7515 -0.1017  0.9186
 4715SOL    HW225782   3.213   3.235   4.331 -0.7935  0.2081  0.4006
 4716SOL     OW25783   2.097   1.170  15.540 -0.4960 -0.0915  0.3772
 4716SOL    HW125784   2.005   1.162  15.514 -0.3028  1.6283 -0.8429
 4716SOL    HW225785   2.136   1.208  15.462 -2.7323 -1.7571 -1.5272
 4717SOL     OW25786   2.698   4.594  10.215 -0.6024 -0.3041 -0.1872
 4717SOL    HW125787   2.606   4.571  10.223 -0.2865 -1.1799  0.8731
 4717SOL    HW225788   2.728   4.591  10.306  1.8958  2.1910 -0.9319
 4718SOL     OW25789   1.407   2.922   6.657  0.4735  0.9768  0.2016
 4718SOL    HW125790   1.433   2.848   6.713 -2.8273 -1.1596 -1.0531
 4718SOL    HW225791   1.344   2.886   6.595  0.8777 -0.7161  0.7579
 4719SOL     OW25792   0.538   1.043   7.786  0.0077  0.2171 -0.4317
 4719SOL    HW125793   0.589   1.074   7.860 -0.2627  0.7065 -0.4561
 4719SOL    HW225794   0.605   1.035   7.717  0.9602  1.1453  0.3877
 4720SOL     OW25795   2.607   4.283   2.985 -0.5346 -0.2933  0.2662
 4720SOL    HW125796   2.591   4.191   2.964 -0.4334 -0.3006  0.2210
 4720SOL    HW225797   2.538   4.324   2.934 -0.1380 -0.1173 -0.1312
 4721SOL     OW25798   4.452   2.747   8.503 -0.9717 -0.8758  0.0108
 4721SOL    HW125799   4.531   2.787   8.466  0.1780 -1.5423  1.7395
 4721SOL    HW225800   4.422   2.808   8.570 -0.1532 -0.7900  0.3020
 4722SOL     OW25801   3.805   0.109   6.958 -0.5048  0.0290 -0.1464
 4722SOL    HW125802   3.824   0.135   7.048 -0.7325 -0.3182  0.0040
 4722SOL    HW225803   3.857   0.031   6.939 -0.6757 -0.1336  0.0549
 4723SOL     OW25804   4.453   4.533  10.060  0.1361 -0.1229  0.4633
 4723SOL    HW125805   4.395   4.607  10.080  0.6909  0.5124 -0.3076
 4723SOL    HW225806   4.392   4.459  10.054 -1.3035  1.2410 -1.7665
 4724SOL     OW25807   0.203   2.273  17.411 -0.0050 -0.8699 -0.1741
 4724SOL    HW125808   0.137   2.213  17.376  0.1639 -2.3617  2.0724
 4724SOL    HW225809   0.175   2.360  17.381  1.5384 -0.0191  0.8129
 4725SOL     OW25810   0.291   4.631   3.746 -0.3820 -0.2030 -0.4606
 4725SOL    HW125811   0.321   4.687   3.674  0.5170  1.5688  1.3047
 4725SOL    HW225812   0.289   4.698   3.814  0.3850 -0.4722 -0.1744
 4726SOL     OW25813   1.875   0.864   7.980  0.2481 -0.4640  0.3999
 4726SOL    HW125814   1.969   0.864   7.963  0.0722 -1.7058 -0.5612
 4726SOL    HW225815   1.859   0.818   8.062  1.3635 -0.2590  0.7336
 4727SOL     OW25816   4.122   4.558   7.441  0.4363 -0.0149  0.5568
 4727SOL    HW125817   4.128   4.496   7.514  0.5431 -2.9993 -1.9647
 4727SOL    HW225818   4.202   4.610   7.442  0.2568  0.3021 -1.2493
 4728SOL     OW25819   0.648   2.037   7.340  0.1993 -0.5132 -0.0655
 4728SOL    HW125820   0.703   1.975   7.388  0.4454 -0.1621  0.0998
 4728SOL    HW225821   0.632   1.994   7.256 -1.7878 -0.2399  0.1786
 4729SOL     OW25822   4.707   1.857  12.519  0.2443  0.0179 -0.2896
 4729SOL    HW125823   4.646   1.795  12.479 -1.0382 -0.3825  2.2802
 4729SOL    HW225824   0.011   1.798  12.581 -2.6357 -1.7557  0.0219
 4730SOL     OW25825   2.738   1.863  15.415 -0.4179 -0.5172 -0.1097
 4730SOL    HW125826   2.798   1.899  15.350 -1.8224 -1.8584 -2.1422
 4730SOL    HW225827   2.805   1.874  15.482  0.0597  1.4772 -0.9261
 4731SOL     OW25828   4.411   2.255   4.104  0.6814  0.5570 -0.1163
 4731SOL    HW125829   4.434   2.272   4.196  0.2544 -0.8442  0.2658
 4731SOL    HW225830   4.418   2.159   4.100  2.4053  0.6792 -0.1321
 4732SOL     OW25831   4.702   3.391  13.495  0.4873  0.1107  0.3040
 4732SOL    HW125832   4.614   3.376  13.462  0.4228  0.7107  0.2074
 4732SOL    HW225833   0.007   3.316  13.455 -0.9585 -0.8955  0.6445
 4733SOL     OW25834   4.338   1.642   6.390  0.0946 -0.4913 -0.8392
 4733SOL    HW125835   4.340   1.643   6.294 -0.9608 -0.7564 -0.8568
 4733SOL    HW225836   4.250   1.664   6.418  1.2009  2.3352  0.4308
 4734SOL     OW25837   0.228   1.853   0.994 -0.2674 -0.4654  0.3057
 4734SOL    HW125838   0.290   1.925   0.978 -1.2742  0.3258 -0.0411
 4734SOL    HW225839   0.239   1.798   0.917  1.8857 -0.4950  0.6078
 4735SOL     OW25840   1.715   3.685   8.980  1.5133  0.3902 -0.3237
 4735SOL    HW125841   1.634   3.650   9.017  1.6218  0.8944  0.4055
 4735SOL    HW225842   1.766   3.608   9.003  0.1933 -0.6224 -0.8134
 4736SOL     OW25843   4.336   3.171   9.030 -0.3179 -0.3129 -0.1671
 4736SOL    HW125844   4.246   3.142   9.018 -0.7245  1.0426 -0.3935
 4736SOL    HW225845   4.327   3.255   9.076 -1.1606 -0.1540 -0.6188
 4737SOL     OW25846   1.967   2.010  11.020 -0.0377  0.4633  0.2624
 4737SOL    HW125847   1.997   2.087  11.068  1.4117  1.1625 -1.7589
 4737SOL    HW225848   1.889   2.044  10.976 -0.1113  1.1102  0.8975
 4738SOL     OW25849   3.549   3.049   7.927  0.2696 -0.0281 -0.3104
 4738SOL    HW125850   3.467   3.027   7.883  0.4093 -2.1274  0.4650
 4738SOL    HW225851   3.533   3.091   8.012 -2.6215 -0.0059 -0.8696
 4739SOL     OW25852   4.158   1.682   4.956 -0.4441  0.0003 -0.1403
 4739SOL    HW125853   4.117   1.729   4.883  0.4859  0.2060 -0.5312
 4739SOL    HW225854   4.107   1.601   4.956 -1.0015  0.3438 -0.2810
 4740SOL     OW25855   3.435   4.486   8.004 -0.2403  0.1841 -0.2146
 4740SOL    HW125856   3.414   4.395   7.984  0.9178 -0.4847  1.6905
 4740SOL    HW225857   3.525   4.495   8.036 -0.0474  0.5564 -0.8714
 4741SOL     OW25858   4.492   1.242  10.658 -0.4408 -0.0418 -0.2465
 4741SOL    HW125859   4.469   1.277  10.744 -0.8585  0.9986 -0.7880
 4741SOL    HW225860   4.527   1.318  10.611  1.8202 -0.5298  0.6238
 4742SOL     OW25861   2.371   2.271   7.737  0.2397 -0.0326 -0.0438
 4742SOL    HW125862   2.279   2.263   7.714  1.0208  2.3660 -3.9176
 4742SOL    HW225863   2.390   2.357   7.700  2.8897 -1.7607 -2.7048
 4743SOL     OW25864   2.891   2.270   0.561  0.4788 -0.0204  0.1063
 4743SOL    HW125865   2.857   2.359   0.575  3.2169  1.1275 -0.5288
 4743SOL    HW225866   2.967   2.293   0.508  1.8576 -1.4229  1.5232
 4744SOL     OW25867   2.457   4.367   5.693 -0.1976  0.7235 -0.8448
 4744SOL    HW125868   2.383   4.426   5.679  0.4738  1.7145 -0.2774
 4744SOL    HW225869   2.511   4.415   5.756 -2.1685  1.3546  0.3514
 4745SOL     OW25870   3.352   1.903   7.234 -0.8934 -0.6139 -0.2117
 4745SOL    HW125871   3.269   1.889   7.188 -0.2262  0.7517 -1.8145
 4745SOL    HW225872   3.385   1.813   7.232  0.3602 -0.1852  1.1158
 4746SOL     OW25873   3.344   4.034  10.853  0.1298  0.6508  0.7790
 4746SOL    HW125874   3.383   4.073  10.931 -1.4566  0.8473  1.4883
 4746SOL    HW225875   3.424   4.005  10.808 -0.0001  0.7159  0.5011
 4747SOL     OW25876   1.245   4.376   8.253 -0.0947 -0.1304 -0.1978
 4747SOL    HW125877   1.274   4.442   8.189  0.7420  2.0511  2.4218
 4747SOL    HW225878   1.208   4.307   8.198  0.0340  0.1604 -0.6548
 4748SOL     OW25879   2.903   3.359   5.555 -0.0715 -0.5563 -0.1120
 4748SOL    HW125880   2.857   3.440   5.573 -0.1827 -0.7483  0.4752
 4748SOL    HW225881   2.964   3.356   5.629 -0.5406  2.3986  0.3851
 4749SOL     OW25882   3.147   4.291  16.758  0.4424  0.5147  0.4160
 4749SOL    HW125883   3.180   4.202  16.748  0.8814  0.7315 -0.0425
 4749SOL    HW225884   3.129   4.312  16.666 -2.3026 -2.5610  0.2367
 4750SOL     OW25885   0.376   4.598   5.885  0.0892 -0.6233 -0.0467
 4750SOL    HW125886   0.436   4.531   5.918  0.5101 -0.0333  0.3989
 4750SOL    HW225887   0.381   4.667   5.951 -3.7442  0.9076 -1.3654
 4751SOL     OW25888   1.954   0.929   2.154 -0.3008 -0.4234 -0.3105
 4751SOL    HW125889   1.969   0.839   2.127  0.0452 -0.1801 -0.9422
 4751SOL    HW225890   1.991   0.924   2.242  1.8472 -2.8616 -1.3545
 4752SOL     OW25891   1.806   2.202   1.978 -0.8192 -0.1033  0.5591
 4752SOL    HW125892   1.794   2.297   1.988  1.5612  0.4044 -1.2719
 4752SOL    HW225893   1.754   2.171   2.052  0.0191  3.2108  2.5457
 4753SOL     OW25894   0.790   3.685   3.766  0.2033  0.6939  0.1029
 4753SOL    HW125895   0.762   3.650   3.850  0.5362  2.0245  0.7787
 4753SOL    HW225896   0.862   3.627   3.743 -1.2939 -1.7159  1.5669
 4754SOL     OW25897   0.871   3.799   8.670 -0.4275 -0.0633 -0.2769
 4754SOL    HW125898   0.868   3.799   8.575 -0.2645 -0.0822 -0.2819
 4754SOL    HW225899   0.801   3.736   8.687 -0.0819 -0.4826 -0.3820
 4755SOL     OW25900   1.016   1.442  16.642  0.1239  0.5928 -0.1145
 4755SOL    HW125901   0.951   1.467  16.708  3.1509 -0.4590  3.2417
 4755SOL    HW225902   1.092   1.491  16.673  0.1898 -0.8724  2.0910
 4756SOL     OW25903   3.816   2.548   5.188  0.0577  0.7162 -0.0098
 4756SOL    HW125904   3.897   2.594   5.166  0.5193 -0.0235  0.1349
 4756SOL    HW225905   3.817   2.561   5.282 -0.6231  0.4024  0.0399
 4757SOL     OW25906   2.514   1.391   2.418  0.0462 -0.2670 -0.5336
 4757SOL    HW125907   2.515   1.296   2.411  0.7797 -0.3304  0.5748
 4757SOL    HW225908   2.430   1.408   2.375 -0.0539 -0.2175 -0.3184
 4758SOL     OW25909   1.497   3.983   9.591  0.4389 -0.9035  0.7216
 4758SOL    HW125910   1.525   4.044   9.524 -1.6414 -0.3762  0.3216
 4758SOL    HW225911   1.549   4.014   9.665 -0.6783 -2.0307  1.9802
 4759SOL     OW25912   0.261   1.275   7.160 -0.3303  0.0040 -0.3193
 4759SOL    HW125913   0.241   1.253   7.069  0.9135 -0.3667 -0.5140
 4759SOL    HW225914   0.177   1.302   7.195  1.0526 -0.9965  3.7207
 4760SOL     OW25915   3.579   1.190   8.050  0.7857  0.4307  0.0829
 4760SOL    HW125916   3.580   1.216   7.958 -2.9265  1.3175  0.2971
 4760SOL    HW225917   3.648   1.243   8.088  0.2161 -0.3619  2.2070
 4761SOL     OW25918   0.254   1.281   6.610 -1.5585  0.2946 -0.7809
 4761SOL    HW125919   0.344   1.305   6.632 -0.6310 -2.8713 -1.1056
 4761SOL    HW225920   0.274   1.196   6.573  2.3041  0.3426  1.1614
 4762SOL     OW25921   2.024   3.502  15.129  0.0821 -0.1248 -0.2148
 4762SOL    HW125922   2.042   3.563  15.058  0.7725 -2.0595 -1.7105
 4762SOL    HW225923   2.101   3.523  15.183 -0.0620  0.1574 -0.1191
 4763SOL     OW25924   3.182   1.499   2.718 -0.1201 -0.2535  0.0041
 4763SOL    HW125925   3.255   1.439   2.705  2.5690  2.9970  0.1711
 4763SOL    HW225926   3.101   1.456   2.690 -0.6216  1.0725 -0.5811
 4764SOL     OW25927   2.764   2.908   2.381  0.2147 -0.0569 -0.0976
 4764SOL    HW125928   2.682   2.863   2.362  0.4881  0.4698 -2.4721
 4764SOL    HW225929   2.817   2.835   2.412 -0.7717 -0.4391  0.6965
 4765SOL     OW25930   3.645   1.506   9.244 -0.4405  0.9607 -0.1650
 4765SOL    HW125931   3.566   1.560   9.245 -0.7137  0.5513  0.3137
 4765SOL    HW225932   3.715   1.558   9.203 -0.3070 -0.6263 -1.9166
 4766SOL     OW25933   2.634   1.523   4.729  0.0881 -0.0349 -0.4093
 4766SOL    HW125934   2.543   1.530   4.756  0.0780  1.1195 -0.7591
 4766SOL    HW225935   2.646   1.428   4.733 -1.6094 -0.2016  0.5304
 4767SOL     OW25936   2.602   1.297   7.102 -0.7504  0.5607 -0.5003
 4767SOL    HW125937   2.579   1.321   7.192  1.3147  1.0010 -0.0984
 4767SOL    HW225938   2.516   1.270   7.071 -1.0624  0.3666  0.5192
 4768SOL     OW25939   0.174   0.916   7.078  0.4532 -0.1358  0.4749
 4768SOL    HW125940   0.091   0.954   7.107  0.0032 -0.0929 -0.8620
 4768SOL    HW225941   0.157   0.907   6.984  0.2387  0.7142  0.4339
 4769SOL     OW25942   3.109   2.162   1.185  0.3935  0.2940 -0.1401
 4769SOL    HW125943   3.063   2.148   1.102  0.8555 -0.3408 -0.2846
 4769SOL    HW225944   3.127   2.256   1.177  1.7855  0.2942  2.9174
 4770SOL     OW25945   1.836   2.459   8.725  0.2857 -0.5066 -0.0751
 4770SOL    HW125946   1.907   2.440   8.663  1.6645 -0.9294  1.6346
 4770SOL    HW225947   1.860   2.544   8.761 -1.9880 -0.0276  0.2464
 4771SOL     OW25948   1.305   3.469  10.184 -0.5368  0.3417  0.4256
 4771SOL    HW125949   1.280   3.467  10.276  0.0370  0.5734  0.5885
 4771SOL    HW225950   1.400   3.472  10.191 -0.2944 -2.7681 -1.2461
 4772SOL     OW25951   2.886   2.212   0.067 -0.2157  0.1190 -0.4125
 4772SOL    HW125952   2.972   2.187   0.101 -0.0341 -1.1132 -1.7985
 4772SOL    HW225953   2.824   2.182   0.133 -0.5053 -2.8466 -2.0410
 4773SOL     OW25954   1.414   2.507  16.701 -0.3812 -0.0776 -0.4218
 4773SOL    HW125955   1.420   2.451  16.779 -2.8642  1.5869  0.9543
 4773SOL    HW225956   1.321   2.512  16.676 -0.1100  1.2625 -1.1965
 4774SOL     OW25957   1.969   2.227  16.058 -0.1716 -0.5030  0.1764
 4774SOL    HW125958   1.891   2.258  16.104  0.1239  1.9547 -0.9886
 4774SOL    HW225959   2.004   2.173  16.129 -0.1334  0.4117  0.8476
 4775SOL     OW25960   0.705   1.868   5.269  0.6385  0.0274  0.1170
 4775SOL    HW125961   0.689   1.962   5.283  0.5717  0.1190 -0.5534
 4775SOL    HW225962   0.691   1.871   5.174  0.1633  3.8207  0.2916
 4776SOL     OW25963   3.020   1.002   9.232  0.2166  0.2649 -0.1988
 4776SOL    HW125964   2.928   0.980   9.218  0.5871 -2.5647  1.6538
 4776SOL    HW225965   3.056   0.936   9.173 -2.7790 -0.4590 -1.2123
 4777SOL     OW25966   0.564   0.884   6.094  0.0395  0.1551  0.3232
 4777SOL    HW125967   0.502   0.900   6.166 -0.4287 -0.8682  0.1488
 4777SOL    HW225968   0.528   0.803   6.058  0.8152 -0.3529  0.6940
 4778SOL     OW25969   3.532   2.421   2.607  0.0158 -0.0135  0.5872
 4778SOL    HW125970   3.493   2.352   2.552 -1.1182  0.6875  0.5052
 4778SOL    HW225971   3.515   2.380   2.692  1.1983  2.7686  2.1826
 4779SOL     OW25972   0.036   3.328  14.158 -0.3264  0.3009 -0.5228
 4779SOL    HW125973   0.015   3.311  14.066  1.8709  1.1359 -1.1637
 4779SOL    HW225974   0.020   3.240  14.193 -0.0790  0.4158 -0.1167
 4780SOL     OW25975   2.953   1.697  16.820  0.1714 -0.0593 -0.0816
 4780SOL    HW125976   2.860   1.690  16.842 -0.0841 -1.9893 -1.7827
 4780SOL    HW225977   2.953   1.793  16.810 -0.1358  0.0101  0.5281
 4781SOL     OW25978   2.109   1.132   2.962  0.3634 -0.0533  0.1903
 4781SOL    HW125979   2.183   1.072   2.973 -0.1811 -1.0794 -1.9585
 4781SOL    HW225980   2.137   1.189   2.890 -0.4448  1.6917  1.2412
 4782SOL     OW25981   3.033   0.844   7.578 -0.3330 -0.1794  0.5007
 4782SOL    HW125982   3.053   0.921   7.525 -0.9718  0.3552  1.0343
 4782SOL    HW225983   3.113   0.847   7.629 -0.6059  1.7534  0.7998
 4783SOL     OW25984   4.553   1.191  12.186  0.0759  0.5096 -0.0750
 4783SOL    HW125985   4.639   1.172  12.149  2.0010  4.6104  2.3041
 4783SOL    HW225986   4.536   1.103  12.219  1.1414  1.1393  2.1516
 4784SOL     OW25987   0.463   1.542   2.506 -0.1304  0.5400  0.0107
 4784SOL    HW125988   0.408   1.590   2.445 -1.1724 -0.4123  0.2003
 4784SOL    HW225989   0.429   1.453   2.519 -1.0217  1.0305  0.9764
 4785SOL     OW25990   0.997   4.370   4.657  0.1643  0.2917 -0.1081
 4785SOL    HW125991   0.949   4.449   4.634  0.5389 -0.0276 -2.0028
 4785SOL    HW225992   1.033   4.398   4.741  1.8481  1.3273 -1.1700
 4786SOL     OW25993   2.740   3.554   3.151 -0.5578  0.0901 -0.0954
 4786SOL    HW125994   2.832   3.580   3.154  0.4167 -3.3848  0.0817
 4786SOL    HW225995   2.726   3.533   3.243 -1.0709 -0.3026 -0.2643
 4787SOL     OW25996   2.234   0.627  15.092  0.2565  0.3486  0.0328
 4787SOL    HW125997   2.305   0.677  15.131  0.9305  0.2242 -1.0219
 4787SOL    HW225998   2.196   0.684  15.026 -2.0892  0.0735  1.1540
 4788SOL     OW25999   2.240   2.834   5.071  0.2846 -0.1008  0.7918
 4788SOL    HW126000   2.218   2.749   5.035  0.6402  1.0419 -2.1220
 4788SOL    HW226001   2.325   2.809   5.107  1.6488  1.2181 -1.5116
 4789SOL     OW26002   1.126   4.211  10.479 -0.2451 -0.0439  0.1765
 4789SOL    HW126003   1.136   4.223  10.385  1.1706 -1.8307  0.0865
 4789SOL    HW226004   1.069   4.278  10.515  0.9295  1.2811 -0.4563
 4790SOL     OW26005   4.366   1.921   2.319  0.1927 -0.3663 -0.4072
 4790SOL    HW126006   4.408   1.977   2.254 -0.6128  3.5863  2.5037
 4790SOL    HW226007   4.396   1.964   2.399  0.8742  1.2622 -1.5480
 4791SOL     OW26008   2.771   3.426   1.817 -0.6750 -0.4407 -0.1543
 4791SOL    HW126009   2.721   3.390   1.744  1.8915  1.2323 -2.7540
 4791SOL    HW226010   2.719   3.504   1.838 -1.1313 -1.2346  1.6547
 4792SOL     OW26011   3.215   0.268   4.970  0.0386  0.5040 -0.0010
 4792SOL    HW126012   3.182   0.181   4.994  1.7638  0.1326  1.0115
 4792SOL    HW226013   3.209   0.319   5.051  2.8832  0.6094  0.1521
 4793SOL     OW26014   3.326   0.202  13.575 -0.3494  0.1608 -0.1313
 4793SOL    HW126015   3.326   0.242  13.662  0.1974 -0.5711  0.1973
 4793SOL    HW226016   3.233   0.180  13.570 -0.3900  0.4848 -0.7938
 4794SOL     OW26017   1.480   0.223   6.966  0.6819  0.5900 -0.1461
 4794SOL    HW126018   1.527   0.169   7.031  0.3789 -0.0292 -0.4362
 4794SOL    HW226019   1.400   0.171   6.968  2.7401 -2.7311 -2.2632
 4795SOL     OW26020   2.242   1.106   2.216 -0.1800  1.0399 -0.3070
 4795SOL    HW126021   2.238   1.102   2.120  0.9452 -2.1779 -0.2308
 4795SOL    HW226022   2.180   1.177   2.228 -1.0633  0.4520 -1.3871
 4796SOL     OW26023   0.990   4.586   7.656 -0.1908  0.1181  0.0481
 4796SOL    HW126024   1.008   4.638   7.578 -0.2636  0.4039  0.2214
 4796SOL    HW226025   1.045   4.508   7.649  1.3715  1.2401  0.0008
 4797SOL     OW26026   2.318   2.021   7.479  1.0706 -0.2253 -0.2088
 4797SOL    HW126027   2.248   1.981   7.530  2.1600 -1.8277  0.0222
 4797SOL    HW226028   2.380   2.043   7.549  1.0756  1.5892 -0.7755
 4798SOL     OW26029   2.243   2.730   2.583 -0.0046  0.6278  0.3132
 4798SOL    HW126030   2.222   2.818   2.615  2.1343  1.5175 -0.7656
 4798SOL    HW226031   2.201   2.681   2.655 -0.1431 -1.0756 -0.9291
 4799SOL     OW26032   3.664   0.307  15.255 -0.2192 -0.1587  0.4055
 4799SOL    HW126033   3.736   0.284  15.312  0.2896  5.3657  1.9981
 4799SOL    HW226034   3.693   0.262  15.175  1.3502  0.2884  0.7252
 4800SOL     OW26035   3.495   2.698   3.235 -0.9811  0.2543  0.3020
 4800SOL    HW126036   3.529   2.715   3.147 -2.9332  0.3502 -0.4334
 4800SOL    HW226037   3.516   2.773   3.290 -1.6210  0.6507  0.0035
 4801SOL     OW26038   2.823   1.158   7.153  0.1394  0.2129  0.3705
 4801SOL    HW126039   2.750   1.219   7.142 -1.6837 -1.3058  3.8235
 4801SOL    HW226040   2.820   1.143   7.248  2.5030 -1.6230  0.1565
 4802SOL     OW26041   4.597   3.886   1.349 -0.0091 -0.4669  0.1246
 4802SOL    HW126042   4.609   3.910   1.257  0.3652 -0.5305  0.1569
 4802SOL    HW226043   4.549   3.964   1.378 -0.6153 -0.8495  0.1440
 4803SOL     OW26044   3.356   1.381   7.026 -0.3770 -0.0179 -0.2433
 4803SOL    HW126045   3.376   1.313   6.963 -2.0668  0.0952 -0.9134
 4803SOL    HW226046   3.322   1.445   6.963  0.7883 -0.9897 -1.8447
 4804SOL     OW26047   0.253   3.181   8.152  0.2228  0.7350 -0.5625
 4804SOL    HW126048   0.311   3.135   8.213  0.2238 -1.0930 -1.9402
 4804SOL    HW226049   0.281   3.139   8.071  1.2273  3.1292 -1.4511
 4805SOL     OW26050   2.237   1.015   7.718  0.0116 -0.3582  0.2975
 4805SOL    HW126051   2.329   1.030   7.694 -1.0346  1.6860 -2.3875
 4805SOL    HW226052   2.236   0.982   7.808 -1.4571 -0.3704  0.2802
 4806SOL     OW26053   3.694   4.296   7.483 -0.7261 -0.0135 -0.6154
 4806SOL    HW126054   3.600   4.281   7.475 -0.7002 -0.1243 -0.7048
 4806SOL    HW226055   3.688   4.356   7.558 -0.4293  0.8142 -1.2567
 4807SOL     OW26056   2.389   0.138   3.190 -0.4424 -0.4204 -0.1992
 4807SOL    HW126057   2.315   0.138   3.130 -1.3621  3.2647  0.9148
 4807SOL    HW226058   2.348   0.182   3.265  1.7294 -0.2855  0.9413
 4808SOL     OW26059   1.583   2.979  12.237 -0.3589 -0.3007 -0.0239
 4808SOL    HW126060   1.571   2.981  12.142  0.1909  0.7095 -0.0732
 4808SOL    HW226061   1.662   3.029  12.256  0.8040 -2.4457  0.7736
 4809SOL     OW26062   3.207   3.256   1.504 -0.7355  0.5928  0.2210
 4809SOL    HW126063   3.182   3.164   1.515  1.9740 -0.2826 -0.9206
 4809SOL    HW226064   3.300   3.260   1.529 -0.9676  1.1949  0.9608
 4810SOL     OW26065   3.323   2.236   3.381 -0.4106  0.4063  0.3007
 4810SOL    HW126066   3.299   2.276   3.464  1.3832 -0.5683  1.2855
 4810SOL    HW226067   3.343   2.316   3.333 -1.6826  2.2856  2.9582
 4811SOL     OW26068   2.840   1.930  14.338 -0.3749 -0.3993  0.4203
 4811SOL    HW126069   2.770   1.865  14.332 -1.0846  0.3542  0.5809
 4811SOL    HW226070   2.848   1.957  14.429 -1.2480  0.4493  0.2554
 4812SOL     OW26071   3.570   3.874   4.397 -0.0503  0.1820  0.3768
 4812SOL    HW126072   3.630   3.813   4.354 -1.4733 -0.5568 -0.5938
 4812SOL    HW226073   3.623   3.943   4.436  0.7117  0.3088 -0.8783
 4813SOL     OW26074   4.681   4.412   5.759  0.0099 -0.6019  0.2997
 4813SOL    HW126075   4.726   4.437   5.678 -2.3508 -0.7397 -1.0337
 4813SOL    HW226076   0.006   4.349   5.792  0.0585 -2.0436 -2.5258
 4814SOL     OW26077   0.984   2.701   1.297 -0.2660 -0.4070  0.3734
 4814SOL    HW126078   0.977   2.729   1.206  2.3356 -0.8794  0.0464
 4814SOL    HW226079   0.973   2.781   1.349  1.1632 -1.1452  1.8011
 4815SOL     OW26080   1.634   2.076  11.280 -0.0921  0.3506 -0.3655
 4815SOL    HW126081   1.665   2.132  11.351 -0.4673  1.6421 -1.2237
 4815SOL    HW226082   1.591   2.009  11.333  0.9877 -0.2939 -0.2929
 4816SOL     OW26083   3.521   1.935  17.688 -0.5635  0.4257 -0.3637
 4816SOL    HW126084   3.537   2.029  17.692  0.1164  0.1551  3.3406
 4816SOL    HW226085   3.601   1.907  17.642 -0.9965  1.1558 -1.5680
 4817SOL     OW26086   0.831   2.097   4.162  0.1729  0.7153 -0.1081
 4817SOL    HW126087   0.918   2.090   4.124 -0.3667 -2.1033 -0.7629
 4817SOL    HW226088   0.822   2.192   4.151 -1.2503  0.6368  0.3081
 4818SOL     OW26089   0.330   2.910   1.915  0.4634  0.2737  0.5095
 4818SOL    HW126090   0.401   2.965   1.882 -1.1461  3.1711  1.8377
 4818SOL    HW226091   0.366   2.822   1.911  1.1175  0.4037  3.1138
 4819SOL     OW26092   4.277   1.840   6.900 -0.3222 -0.0574  0.2965
 4819SOL    HW126093   4.189   1.866   6.926 -0.0113 -0.0186  1.2846
 4819SOL    HW226094   4.268   1.851   6.805  0.0156  0.6893  0.3503
 4820SOL     OW26095   3.853   2.875   5.503 -0.4062 -0.8284  0.0510
 4820SOL    HW126096   3.942   2.880   5.538 -0.0020 -0.1091 -1.1097
 4820SOL    HW226097   3.813   2.914   5.580  0.3704 -0.9958  0.5399
 4821SOL     OW26098   4.026   4.137   1.786  0.1999 -0.3917 -0.3460
 4821SOL    HW126099   4.031   4.221   1.831 -0.6233  0.9299 -2.6985
 4821SOL    HW226100   4.112   4.109   1.817  0.6924  0.7780 -0.6677
 4822SOL     OW26101   2.427   0.155   8.493 -0.2833  0.2121 -0.3441
 4822SOL    HW126102   2.519   0.181   8.496 -0.0747 -0.6830  1.0129
 4822SOL    HW226103   2.392   0.213   8.561  0.5264 -1.0721  1.1778
 4823SOL     OW26104   0.449   4.481  14.267  0.2364 -0.0583 -0.2388
 4823SOL    HW126105   0.425   4.445  14.352  0.5453 -0.6653 -0.4083
 4823SOL    HW226106   0.491   4.401  14.236  1.6683  0.7910 -0.5144
 4824SOL     OW26107   4.720   1.592   1.723  0.3109 -0.3356 -0.1130
 4824SOL    HW126108   4.713   1.521   1.787  2.7017  0.8310  1.4570
 4824SOL    HW226109   0.026   1.552   1.649  0.7313  3.3752 -1.8231
 4825SOL     OW26110   4.072   4.510   2.135  0.2773  0.8784 -0.3336
 4825SOL    HW126111   4.077   4.556   2.051 -1.5386  1.4365 -0.1338
 4825SOL    HW226112   4.129   4.569   2.185 -0.7182  1.9305 -0.4423
 4826SOL     OW26113   1.325   1.192   9.524 -0.1172  0.1138  0.0400
 4826SOL    HW126114   1.375   1.239   9.591 -1.0063  0.0422  0.7512
 4826SOL    HW226115   1.240   1.236   9.528 -0.4429 -0.5567  0.5319
 4827SOL     OW26116   4.204   2.978  17.723 -0.0866 -0.2471  0.4764
 4827SOL    HW126117   4.125   2.999  17.673  0.3055  0.3744  0.1228
 4827SOL    HW226118   4.206   2.883  17.715  1.0240 -0.1328 -0.6127
 4828SOL     OW26119   0.739   2.534   7.970 -0.5134  0.0322  0.2508
 4828SOL    HW126120   0.707   2.490   7.891 -0.4186  0.1817  0.1307
 4828SOL    HW226121   0.778   2.461   8.019  0.2993 -1.0517 -2.0054
 4829SOL     OW26122   4.102   4.159   5.265 -0.3967 -0.1117  0.1336
 4829SOL    HW126123   4.118   4.077   5.220  0.4617  0.2419 -0.2039
 4829SOL    HW226124   4.053   4.215   5.205 -0.7932 -0.8931 -0.2669
 4830SOL     OW26125   3.133   4.555  17.068  0.7194 -0.1842  0.1831
 4830SOL    HW126126   3.166   4.544  17.157  0.4368  0.6032  0.3812
 4830SOL    HW226127   3.213   4.572  17.018  0.2076 -0.2333 -0.6577
 4831SOL     OW26128   0.346   4.643   3.402 -0.3148 -0.3741  0.4504
 4831SOL    HW126129   0.422   4.596   3.369  0.0858  0.6476 -0.0877
 4831SOL    HW226130   0.384   4.707   3.463 -2.6564  1.2330  0.2492
 4832SOL     OW26131   2.738   3.185   2.337 -0.6035  0.1767 -0.1617
 4832SOL    HW126132   2.726   3.095   2.366 -0.5941  0.6507  1.2948
 4832SOL    HW226133   2.800   3.163   2.268 -0.6477 -0.3513 -0.0321
 4833SOL     OW26134   0.082   4.312  12.034 -0.4522  0.2510  0.2763
 4833SOL    HW126135   0.105   4.403  12.051  1.1550  0.1145 -1.1882
 4833SOL    HW226136   0.164   4.269  12.056 -0.5704 -0.3679 -0.4876
 4834SOL     OW26137   4.674   4.023   7.366  0.4481  0.2602  0.0857
 4834SOL    HW126138   4.649   3.999   7.277 -1.0544  2.5965 -0.1404
 4834SOL    HW226139   4.592   4.000   7.410 -0.0378  2.1304  0.2042
 4835SOL     OW26140   4.650   3.841   8.450 -0.0252 -0.0880  0.7617
 4835SOL    HW126141   4.625   3.749   8.452 -0.3876  0.0478  2.0954
 4835SOL    HW226142   4.695   3.851   8.534  0.9445 -1.1589  0.3774
 4836SOL     OW26143   4.619   1.280   8.037  0.1299  0.3013 -0.0816
 4836SOL    HW126144   4.642   1.206   8.093 -1.1760 -1.1942 -1.5659
 4836SOL    HW226145   4.628   1.255   7.946  2.3090  1.4325 -0.1898
 4837SOL     OW26146   3.988   0.237   2.312  0.0849  0.2574  0.3280
 4837SOL    HW126147   3.945   0.153   2.330  0.2507  0.3829  1.3316
 4837SOL    HW226148   4.037   0.212   2.234 -0.2734  3.8820 -1.0795
 4838SOL     OW26149   2.061   2.426   3.074 -0.2871 -0.4765  0.0901
 4838SOL    HW126150   1.969   2.430   3.048 -0.9327 -0.7510  2.3350
 4838SOL    HW226151   2.072   2.517   3.102  1.6716 -0.6996  0.0626
 4839SOL     OW26152   2.383   1.379   5.015 -0.5900  0.0238 -0.2932
 4839SOL    HW126153   2.390   1.474   5.003 -0.0960  0.1915  1.2774
 4839SOL    HW226154   2.379   1.347   4.925  0.1275  1.0691 -0.7010
 4840SOL     OW26155   0.698   4.354  13.475 -0.3117  0.2108  0.0031
 4840SOL    HW126156   0.719   4.429  13.420  1.3920 -0.8253 -0.7584
 4840SOL    HW226157   0.639   4.307  13.416  0.7177 -1.7541  0.5657
 4841SOL     OW26158   3.211   3.464   1.147  0.4218 -0.7137 -0.1978
 4841SOL    HW126159   3.173   3.405   1.082 -1.9791  0.7560 -0.0967
 4841SOL    HW226160   3.284   3.411   1.180 -0.4093  0.1739  3.0045
 4842SOL     OW26161   1.941   0.742   4.406 -0.1832 -0.3956  0.2209
 4842SOL    HW126162   1.849   0.725   4.425  0.4370 -2.1097  1.6024
 4842SOL    HW226163   1.979   0.655   4.398 -2.3364 -1.2612 -0.5063
 4843SOL     OW26164   3.612   0.954   3.215 -0.4442  0.1800  0.0016
 4843SOL    HW126165   3.539   0.892   3.213 -0.3521 -0.0045  1.9822
 4843SOL    HW226166   3.591   1.021   3.150 -1.0435  1.6527  1.7181
 4844SOL     OW26167   4.075   2.450   4.140 -0.4180  0.2300 -0.7603
 4844SOL    HW126168   4.022   2.370   4.141 -0.5972  0.3490 -1.2217
 4844SOL    HW226169   4.058   2.488   4.054 -3.1736  1.9375  0.5613
 4845SOL     OW26170   0.427   4.346   6.485  0.0894  0.1430  0.0062
 4845SOL    HW126171   0.353   4.315   6.432  1.5508 -0.6107 -1.5756
 4845SOL    HW226172   0.417   4.437   6.460  1.7938  0.6052  0.9765
 4846SOL     OW26173   4.320   3.735   2.224  0.0647 -0.5159  0.0237
 4846SOL    HW126174   4.342   3.642   2.227  1.3272 -0.1820  1.3045
 4846SOL    HW226175   4.229   3.722   2.250  0.7409 -0.4998  2.3948
 4847SOL     OW26176   4.188   1.080  12.781  0.2742 -0.2148 -0.0242
 4847SOL    HW126177   4.267   1.077  12.834  0.4550 -0.8065 -0.3221
 4847SOL    HW226178   4.158   1.171  12.780  0.0330 -0.2762  1.5084
 4848SOL     OW26179   1.274   1.305   3.589  0.0358  0.7900  0.1773
 4848SOL    HW126180   1.202   1.362   3.562  0.3741  0.6138 -1.1209
 4848SOL    HW226181   1.233   1.221   3.569 -0.2253  0.6354  1.3479
 4849SOL     OW26182   1.603   2.043  13.761  0.1252  0.0208 -0.1897
 4849SOL    HW126183   1.583   2.137  13.760 -1.2219 -0.3091 -3.0286
 4849SOL    HW226184   1.659   2.042  13.839  1.1563 -0.5134 -0.9338
 4850SOL     OW26185   3.023   1.298   8.213 -0.1806  0.1465  0.1511
 4850SOL    HW126186   3.098   1.239   8.205  0.9540  1.3701  1.7867
 4850SOL    HW226187   3.066   1.378   8.242  1.4616 -0.9198  0.6748
 4851SOL     OW26188   4.278   4.317   6.203  0.6913 -0.1589  0.5745
 4851SOL    HW126189   4.304   4.386   6.264  1.1275 -1.5250  1.9336
 4851SOL    HW226190   4.362   4.271   6.197  0.3571 -0.5057 -1.4865
 4852SOL     OW26191   2.100   2.077   5.169  0.1540 -0.3964 -0.2227
 4852SOL    HW126192   2.119   2.072   5.076 -0.7812  0.7919 -0.4829
 4852SOL    HW226193   2.073   1.990   5.200 -1.0322 -0.3929 -1.2516
 4853SOL     OW26194   0.055   3.720   1.787 -0.0931  0.2710 -0.1832
 4853SOL    HW126195   0.105   3.762   1.857 -0.8335  0.3294  0.3087
 4853SOL    HW226196   0.034   3.798   1.736 -1.1294 -1.8013 -2.9303
 4854SOL     OW26197   0.769   4.641   2.568 -0.4764 -0.1493 -0.5963
 4854SOL    HW126198   0.777   4.550   2.540  0.9773 -0.0091 -0.6161
 4854SOL    HW226199   0.721   4.616   2.647  0.8451 -1.7928 -0.3196
 4855SOL     OW26200   2.040   2.719   6.232  0.5308  0.3003  0.6713
 4855SOL    HW126201   2.026   2.781   6.161 -0.0702  0.7416  1.1681
 4855SOL    HW226202   2.124   2.679   6.210 -0.0660 -0.4769 -0.1839
 4856SOL     OW26203   0.494   3.505  15.412  0.4619 -0.2822  0.2330
 4856SOL    HW126204   0.551   3.446  15.364 -0.8047 -1.6488  0.4025
 4856SOL    HW226205   0.470   3.462  15.494 -1.6064 -1.0682 -0.7945
 4857SOL     OW26206   3.377   2.760   9.449 -0.6058 -0.1090 -0.1845
 4857SOL    HW126207   3.394   2.828   9.384  2.2885 -1.0346 -0.3759
 4857SOL    HW226208   3.440   2.692   9.426 -0.7440  0.0462 -1.0327
 4858SOL     OW26209   3.353   1.154  11.400  0.3030  0.2924 -0.2822
 4858SOL    HW126210   3.443   1.176  11.422 -0.0521  0.7745  0.6791
 4858SOL    HW226211   3.324   1.125  11.487 -0.3811 -1.5914 -1.1315
 4859SOL     OW26212   3.255   4.246   3.691  0.1847  0.3980  0.3386
 4859SOL    HW126213   3.303   4.328   3.678 -0.1527  0.0766 -2.9957
 4859SOL    HW226214   3.172   4.272   3.651  0.0883 -1.1043 -0.4369
 4860SOL     OW26215   1.110   0.598   3.800 -0.1233  0.4238 -0.0832
 4860SOL    HW126216   1.168   0.604   3.876  0.5642 -1.4574 -0.4616
 4860SOL    HW226217   1.038   0.552   3.843 -0.4827  2.9000  1.9964
 4861SOL     OW26218   0.603   4.401   3.392  0.1529 -0.1762  0.2130
 4861SOL    HW126219   0.587   4.324   3.447  1.2123 -0.5732 -0.0272
 4861SOL    HW226220   0.687   4.432   3.426  0.1039  1.3384 -1.0331
 4862SOL     OW26221   2.209   0.357   9.257  0.5118 -0.7217  0.2329
 4862SOL    HW126222   2.160   0.348   9.175  0.8201  1.0119 -0.1387
 4862SOL    HW226223   2.183   0.272   9.293 -2.6189 -0.4996 -1.5019
 4863SOL     OW26224   1.389   0.698   8.253 -0.1155 -0.8754  0.6650
 4863SOL    HW126225   1.350   0.615   8.226 -2.1417 -0.0534  1.0417
 4863SOL    HW226226   1.442   0.731   8.179  1.3448 -2.2455  1.1055
 4864SOL     OW26227   2.208   3.731   4.806  0.3576 -0.3284  1.2621
 4864SOL    HW126228   2.300   3.704   4.817  1.0459  2.0870  1.4381
 4864SOL    HW226229   2.174   3.695   4.888 -2.6175  2.0239  1.0569
 4865SOL     OW26230   0.543   4.497  16.343 -0.5151  0.4559 -0.2097
 4865SOL    HW126231   0.609   4.437  16.378 -0.2317  0.2846 -1.0427
 4865SOL    HW226232   0.489   4.450  16.279 -0.0593  0.2737 -0.4608
 4866SOL     OW26233   1.773   4.700   3.352  0.3417  0.6600 -0.3568
 4866SOL    HW126234   1.863   4.670   3.336  0.0035 -1.1203  1.0884
 4866SOL    HW226235   1.729   4.682   3.269  2.0135 -0.3161 -1.0336
 4867SOL     OW26236   4.660   3.737   3.047 -0.0417 -0.4856  0.3797
 4867SOL    HW126237   4.577   3.775   3.018  0.0329 -1.5586 -1.2252
 4867SOL    HW226238   4.649   3.643   3.031  0.9472 -0.7616  1.3924
 4868SOL     OW26239   2.238   1.301   5.224 -0.0836  0.3338 -0.6121
 4868SOL    HW126240   2.284   1.327   5.144  1.3661 -0.1893  0.0654
 4868SOL    HW226241   2.275   1.362   5.288 -1.1174  0.8047 -0.4541
 4869SOL     OW26242   2.473   3.492   4.095  0.3680 -0.2132  0.0501
 4869SOL    HW126243   2.552   3.440   4.080 -0.8620 -1.5183 -2.0202
 4869SOL    HW226244   2.449   3.532   4.011  1.3493  1.2606  0.4729
 4870SOL     OW26245   2.102   0.160   6.029 -0.0611  0.2900  0.1032
 4870SOL    HW126246   2.149   0.107   6.094  1.4101  1.1284 -0.3010
 4870SOL    HW226247   2.064   0.225   6.088 -2.1623  0.8578 -1.8804
 4871SOL     OW26248   1.797   1.959   3.340  0.2484  0.3032 -0.2163
 4871SOL    HW126249   1.875   1.922   3.300  1.0539  0.6793  1.0130
 4871SOL    HW226250   1.790   2.048   3.307 -0.8478  0.4265  0.3245
 4872SOL     OW26251   0.375   3.435   4.078 -0.1079 -0.1300  0.9444
 4872SOL    HW126252   0.342   3.361   4.027  1.6466  1.3542 -2.3281
 4872SOL    HW226253   0.304   3.450   4.140 -0.8305 -1.2323  0.3858
 4873SOL     OW26254   3.839   4.146   1.068  0.1215 -0.5330  0.3148
 4873SOL    HW126255   3.925   4.136   1.026 -0.2355 -0.1791 -0.5008
 4873SOL    HW226256   3.862   4.170   1.158 -2.4770  2.1962  0.2591
 4874SOL     OW26257   4.622   0.985   4.327 -0.2059 -0.3409  0.1496
 4874SOL    HW126258   4.585   0.935   4.254 -1.1399  1.8925 -0.9204
 4874SOL    HW226259   4.689   0.921   4.351  0.3055  0.1977  0.1680
 4875SOL     OW26260   4.491   1.365   3.937  0.0151  1.0080 -0.2219
 4875SOL    HW126261   4.474   1.305   3.865  0.0134  1.9539 -1.0208
 4875SOL    HW226262   4.429   1.323   3.996  1.1860 -0.6617 -0.1699
 4876SOL     OW26263   1.839   0.702  11.997  0.2312  0.3934 -0.1669
 4876SOL    HW126264   1.752   0.667  12.019  0.7114 -0.4343  0.4189
 4876SOL    HW226265   1.830   0.776  12.057  0.1197  0.2702 -0.0298
 4877SOL     OW26266   3.454   3.525   8.650 -0.2042  0.3690  0.1604
 4877SOL    HW126267   3.498   3.525   8.565 -1.8846  0.0330 -0.7148
 4877SOL    HW226268   3.389   3.458   8.627  0.1653 -0.0699  0.4073
 4878SOL     OW26269   1.408   1.461  17.302  0.0589  0.5047  0.4792
 4878SOL    HW126270   1.484   1.418  17.340 -0.7796 -1.7041 -0.3510
 4878SOL    HW226271   1.373   1.385  17.257 -1.9565  0.2443  2.4530
 4879SOL     OW26272   4.455   3.830   0.286 -0.7110 -0.0207 -0.0358
 4879SOL    HW126273   4.411   3.806   0.204  1.0821 -2.6154 -0.2354
 4879SOL    HW226274   4.388   3.878   0.334 -0.7709  0.3639 -0.4983
 4880SOL     OW26275   2.358   3.333   2.867  0.0950 -0.2968 -0.7464
 4880SOL    HW126276   2.453   3.348   2.865 -0.0361  0.8291  1.0760
 4880SOL    HW226277   2.366   3.269   2.938  0.1023  0.9385  0.3767
 4881SOL     OW26278   0.997   0.116   9.018  0.0356  0.9284 -0.1207
 4881SOL    HW126279   0.928   0.123   8.952 -1.0796  0.5354  1.0223
 4881SOL    HW226280   1.025   0.027   8.992 -2.4032  0.4901 -1.2573
 4882SOL     OW26281   1.457   1.151   5.995  0.2474  0.2129 -0.0478
 4882SOL    HW126282   1.398   1.098   5.941  2.6818 -3.2887  0.7024
 4882SOL    HW226283   1.504   1.084   6.045  1.0405 -1.0230 -2.4401
 4883SOL     OW26284   4.096   3.967   7.568 -0.3014  0.3884  0.1118
 4883SOL    HW126285   4.125   3.959   7.477  2.6950 -0.3431  1.1421
 4883SOL    HW226286   4.002   3.951   7.557 -0.1356  0.8251 -2.0637
 4884SOL     OW26287   4.422   0.851   1.029 -0.4394  0.1566  0.0420
 4884SOL    HW126288   4.454   0.933   1.067 -1.0942  0.5422 -0.2352
 4884SOL    HW226289   4.344   0.828   1.080 -0.7299  1.3585  0.1420
 4885SOL     OW26290   2.851   0.294   5.862 -0.0154 -0.5622 -0.1168
 4885SOL    HW126291   2.849   0.201   5.841  3.4733 -0.8525  0.8822
 4885SOL    HW226292   2.936   0.318   5.825 -0.6025 -0.9990 -1.6970
 4886SOL     OW26293   1.489   2.805   9.257 -0.3292 -0.7367  0.4851
 4886SOL    HW126294   1.577   2.840   9.272 -1.2143  1.5952  0.2405
 4886SOL    HW226295   1.449   2.887   9.227  0.5929 -0.4802 -0.0453
 4887SOL     OW26296   2.764   1.051   1.361 -0.0900 -0.8621 -0.4397
 4887SOL    HW126297   2.778   0.972   1.413  1.0700 -2.2450 -2.8586
 4887SOL    HW226298   2.853   1.055   1.325 -0.9314  0.1360 -2.4278
 4888SOL     OW26299   0.181   0.388   5.278 -0.4624  0.2156 -0.2114
 4888SOL    HW126300   0.102   0.335   5.270 -1.0952  0.7807  2.1314
 4888SOL    HW226301   0.181   0.418   5.370 -1.3168 -1.2653  0.2681
 4889SOL     OW26302   3.764   2.443   2.473  0.3331 -1.1625  0.2796
 4889SOL    HW126303   3.765   2.347   2.474 -2.0746 -1.2078 -2.3197
 4889SOL    HW226304   3.682   2.465   2.517  1.0783 -1.0998  1.6425
 4890SOL     OW26305   2.700   4.156   9.803 -0.4032  0.1523  0.0665
 4890SOL    HW126306   2.623   4.210   9.823 -0.0709  0.2483  1.0465
 4890SOL    HW226307   2.737   4.204   9.728  0.9711 -0.5126  0.3205
 4891SOL     OW26308   1.220   3.436   7.802  0.1627  0.2302  0.2230
 4891SOL    HW126309   1.159   3.503   7.771  0.2753  0.6707  0.9466
 4891SOL    HW226310   1.265   3.408   7.723 -0.6590 -2.0458  0.5613
 4892SOL     OW26311   3.150   1.678   4.246 -0.4328  0.3048 -0.6597
 4892SOL    HW126312   3.064   1.703   4.211 -0.4311  0.0070 -0.8792
 4892SOL    HW226313   3.202   1.749   4.208  0.8677  0.2056  0.9495
 4893SOL     OW26314   2.788   2.419   8.867  0.0340  0.3369  0.2883
 4893SOL    HW126315   2.784   2.514   8.854  1.4618  0.5027  1.1140
 4893SOL    HW226316   2.855   2.400   8.933 -1.1038  0.0684  1.3762
 4894SOL     OW26317   1.188   0.889   4.263  0.2950  0.2271  0.2640
 4894SOL    HW126318   1.167   0.921   4.176  3.2300  0.3329 -0.4315
 4894SOL    HW226319   1.124   0.930   4.321  1.1754  1.2429  0.5248
 4895SOL     OW26320   1.503   3.521   9.039  0.5398 -0.6609 -0.0964
 4895SOL    HW126321   1.415   3.547   9.011  0.8522 -0.1229 -0.5819
 4895SOL    HW226322   1.504   3.435   8.996 -0.7646 -1.4425  1.4290
 4896SOL     OW26323   3.883   3.705   5.381 -0.1236 -0.2197 -0.0230
 4896SOL    HW126324   3.918   3.792   5.401  0.3606 -0.1411 -1.1673
 4896SOL    HW226325   3.852   3.674   5.466 -1.8457  0.0061 -0.5603
 4897SOL     OW26326   1.515   4.129   9.354 -0.1190 -0.2421 -0.2671
 4897SOL    HW126327   1.542   4.175   9.275  0.1298 -2.8218 -1.6768
 4897SOL    HW226328   1.433   4.092   9.322  0.9857 -3.4304  0.5530
 4898SOL     OW26329   0.842   2.700   5.458 -0.6263 -0.1539  0.7302
 4898SOL    HW126330   0.856   2.634   5.527  0.3816 -1.3615 -0.6255
 4898SOL    HW226331   0.783   2.761   5.502 -0.9007 -1.2439  1.8818
 4899SOL     OW26332   3.223   0.877   2.058 -0.0736 -0.6065  0.1024
 4899SOL    HW126333   3.134   0.871   2.024  0.3833  0.1511 -1.2537
 4899SOL    HW226334   3.270   0.869   1.974  1.2429 -2.0199  0.9821
 4900SOL     OW26335   2.671   0.367   6.612 -0.1986 -0.1608  0.0040
 4900SOL    HW126336   2.722   0.448   6.620  1.6904 -1.5821  2.1097
 4900SOL    HW226337   2.624   0.374   6.529 -0.3069  2.4205  0.2573
 4901SOL     OW26338   0.222   2.908  17.664  0.0107 -0.2063 -0.6475
 4901SOL    HW126339   0.228   2.927  17.571 -1.7713  1.7029 -0.3704
 4901SOL    HW226340   0.257   2.819  17.672 -1.1512 -0.7003 -1.1400
 4902SOL     OW26341   4.210   2.906   4.596 -0.0495 -0.2578 -0.1425
 4902SOL    HW126342   4.304   2.906   4.575 -0.0750  1.2465 -0.2586
 4902SOL    HW226343   4.195   2.998   4.616  0.4355  0.2175 -1.9499
 4903SOL     OW26344   4.020   3.369   1.446 -0.0123 -0.3150  0.3514
 4903SOL    HW126345   4.037   3.300   1.510  1.9405  0.8029  1.0218
 4903SOL    HW226346   4.028   3.442   1.507  2.1681 -0.2100 -0.0752
 4904SOL     OW26347   2.557   3.057   4.423  0.6885  0.2305 -0.2645
 4904SOL    HW126348   2.597   3.136   4.387 -2.1665  1.5738 -0.4815
 4904SOL    HW226349   2.582   2.984   4.366  0.8636 -0.9557  1.3120
 4905SOL     OW26350   2.857   1.984  14.598 -0.1825 -0.0919  0.3209
 4905SOL    HW126351   2.932   1.995  14.657  0.3007  1.0202 -0.4862
 4905SOL    HW226352   2.800   1.936  14.658  1.8979 -1.2359  1.3661
 4906SOL     OW26353   1.808   3.261   0.784 -0.1176 -0.6959  0.2028
 4906SOL    HW126354   1.768   3.289   0.702  1.4221 -0.4712 -0.4755
 4906SOL    HW226355   1.898   3.286   0.765 -0.4827 -0.5401 -1.3385
 4907SOL     OW26356   2.050   1.575  16.047 -0.1937  0.1554 -0.1964
 4907SOL    HW126357   2.101   1.634  15.990 -3.6567  1.4073 -2.0187
 4907SOL    HW226358   2.016   1.640  16.109  0.5664 -1.7202  2.1621
 4908SOL     OW26359   1.127   2.543  13.508  0.5350  0.4838  0.4954
 4908SOL    HW126360   1.176   2.468  13.473 -0.4763 -0.8695  1.9605
 4908SOL    HW226361   1.109   2.595  13.429 -1.3709  1.9500  1.8985
 4909SOL     OW26362   4.507   1.355  16.659 -0.1605  0.7491 -0.1074
 4909SOL    HW126363   4.556   1.434  16.682  0.3153  0.1420  0.9270
 4909SOL    HW226364   4.563   1.324  16.588 -0.0064  1.5567 -0.3364
 4910SOL     OW26365   4.237   1.110   5.462  0.1220  0.0104  0.4040
 4910SOL    HW126366   4.152   1.139   5.427 -0.7356 -0.9690  1.6958
 4910SOL    HW226367   4.294   1.171   5.414 -0.4511 -1.2673 -1.9168
 4911SOL     OW26368   3.915   4.518   8.383  0.3210 -0.3333  0.4936
 4911SOL    HW126369   3.828   4.558   8.385 -0.1414 -1.3259  0.5700
 4911SOL    HW226370   3.947   4.546   8.469  1.4103 -1.5099  0.4682
 4912SOL     OW26371   4.101   3.728   3.002  0.8513  0.0691 -0.3877
 4912SOL    HW126372   4.091   3.633   3.010 -0.0719  0.1255 -0.8057
 4912SOL    HW226373   4.098   3.746   3.097  0.5528  1.7859 -0.7145
 4913SOL     OW26374   1.778   3.172  12.183  0.4833 -0.7328  0.2932
 4913SOL    HW126375   1.773   3.260  12.223  0.8760 -1.2656  1.5075
 4913SOL    HW226376   1.873   3.166  12.179  0.5267  0.6317 -0.7289
 4914SOL     OW26377   2.780   2.483  11.866  0.3109  0.0591 -0.3538
 4914SOL    HW126378   2.710   2.531  11.822 -1.5317  1.2491  3.8041
 4914SOL    HW226379   2.846   2.548  11.891 -0.5298  0.1857  1.5446
 4915SOL     OW26380   3.026   2.408   9.781 -0.4597 -0.1616  0.3180
 4915SOL    HW126381   3.013   2.367   9.867 -1.0991 -1.1008 -0.2288
 4915SOL    HW226382   3.113   2.379   9.754 -0.6853  0.3454 -0.9440
 4916SOL     OW26383   3.106   3.436   5.748  0.1878 -0.3128  0.3703
 4916SOL    HW126384   3.168   3.430   5.675  0.6659  1.1436  0.6696
 4916SOL    HW226385   3.131   3.518   5.789 -0.3988  0.6941 -1.3019
 4917SOL     OW26386   0.991   2.326  15.723 -0.2737  0.0032 -0.3864
 4917SOL    HW126387   1.045   2.276  15.661  0.5029  0.8614 -0.3964
 4917SOL    HW226388   0.930   2.256  15.747  2.1635 -2.1711 -0.4386
 4918SOL     OW26389   1.376   4.483   3.744 -0.5185 -0.2076  0.0969
 4918SOL    HW126390   1.425   4.414   3.789 -0.7721  1.0418  2.2646
 4918SOL    HW226391   1.401   4.559   3.797  0.8631  0.4241 -1.4354
 4919SOL     OW26392   2.127   2.989   9.717 -0.3206 -0.2259  0.2959
 4919SOL    HW126393   2.191   3.035   9.662  0.4184 -0.8010  0.6792
 4919SOL    HW226394   2.148   3.021   9.805 -0.1795 -0.5313  0.3741
 4920SOL     OW26395   0.415   2.438   9.765  0.3791  0.2027 -0.1147
 4920SOL    HW126396   0.348   2.475   9.707  0.5199  1.2117  0.3787
 4920SOL    HW226397   0.363   2.368   9.805  0.2549  1.7303  2.3372
 4921SOL     OW26398   3.073   0.629   2.397 -0.6783  0.6422  0.1381
 4921SOL    HW126399   3.079   0.636   2.492 -1.4907 -2.4392  0.4206
 4921SOL    HW226400   2.981   0.649   2.379 -0.3101  0.6475 -1.8209
 4922SOL     OW26401   4.659   1.690   8.891 -0.2723 -0.5989 -0.1121
 4922SOL    HW126402   4.575   1.679   8.935 -0.0962  0.2687  0.4313
 4922SOL    HW226403   4.723   1.695   8.962 -0.9473 -0.1761  0.4665
 4923SOL     OW26404   3.466   2.069  10.986  0.1127  0.0792  0.1849
 4923SOL    HW126405   3.538   2.104  11.039  0.0093  0.1538  0.2775
 4923SOL    HW226406   3.396   2.038  11.044 -0.3172 -0.8104 -0.8211
 4924SOL     OW26407   1.522   0.055  10.036  0.2808  0.0720  0.0579
 4924SOL    HW126408   1.561   0.068   9.950  1.4521  1.5215  0.7945
 4924SOL    HW226409   1.573   0.104  10.101  1.1490  1.1244 -1.4178
 4925SOL     OW26410   2.593   4.537  11.647 -0.3818 -0.0329  0.0290
 4925SOL    HW126411   2.667   4.533  11.586 -0.9359  0.2706 -0.6726
 4925SOL    HW226412   2.603   4.469  11.712  3.8798 -1.6122 -2.2940
 4926SOL     OW26413   0.135   2.187  11.624  0.5104 -0.1770 -0.4068
 4926SOL    HW126414   0.226   2.180  11.593  1.1857 -0.4517  1.6192
 4926SOL    HW226415   0.140   2.128  11.700  1.4732  1.2968  0.6862
 4927SOL     OW26416   2.489   1.055   7.592  0.1473 -0.3501 -0.2375
 4927SOL    HW126417   2.490   1.087   7.502  3.1659  0.6908  0.1471
 4927SOL    HW226418   2.583   1.070   7.606  0.3847 -2.2993  0.1707
 4928SOL     OW26419   0.149   0.447   8.588  0.5600  0.3877  0.1748
 4928SOL    HW126420   0.237   0.412   8.575 -0.4869 -1.7980 -0.9129
 4928SOL    HW226421   0.164   0.534   8.550  3.6996  0.3610  1.3486
 4929SOL     OW26422   4.671   3.589   8.708 -0.0928  0.3288 -0.0127
 4929SOL    HW126423   4.704   3.568   8.621 -0.3574 -0.2916  0.0417
 4929SOL    HW226424   0.013   3.591   8.759  0.4680  1.5021 -0.9431
 4930SOL     OW26425   0.510   0.586  13.297 -0.0571 -0.1257  0.5441
 4930SOL    HW126426   0.556   0.640  13.233 -1.8307 -1.1966 -1.6237
 4930SOL    HW226427   0.438   0.642  13.327  2.1797  3.2359 -0.3586
 4931SOL     OW26428   2.030   1.904   7.250 -0.6201 -0.8627 -0.0487
 4931SOL    HW126429   2.042   1.980   7.194 -2.2466 -0.3580  0.2684
 4931SOL    HW226430   2.038   1.948   7.335  0.2518 -2.1989  0.5634
 4932SOL     OW26431   3.606   3.094  17.700 -0.3406  0.2658 -0.0813
 4932SOL    HW126432   3.641   3.025   0.004  0.8342  0.8247 -0.1390
 4932SOL    HW226433   3.616   3.170   0.004  1.9700 -0.3417  0.3214
 4933SOL     OW26434   4.401   4.365   8.440  0.2904 -0.2432  0.1135
 4933SOL    HW126435   4.391   4.459   8.455  2.2164  0.1826 -1.1334
 4933SOL    HW226436   4.312   4.348   8.408  0.5718  1.3420 -1.5137
 4934SOL     OW26437   3.246   2.647   0.219 -0.5467  0.6165  0.2950
 4934SOL    HW126438   3.165   2.642   0.167 -0.5355 -3.4436  0.6859
 4934SOL    HW226439   3.203   2.639   0.304 -1.3255 -0.8324 -0.2244
 4935SOL     OW26440   3.359   3.195   7.663 -0.5414 -0.1335 -0.1766
 4935SOL    HW126441   3.339   3.123   7.723 -3.2595 -0.2533 -1.2359
 4935SOL    HW226442   3.325   3.270   7.711 -2.6683 -0.5335 -1.0576
 4936SOL     OW26443   2.249   0.835  12.907 -0.0968  0.4205 -0.2229
 4936SOL    HW126444   2.231   0.814  12.815  0.7487  1.6760 -0.6657
 4936SOL    HW226445   2.323   0.895  12.903 -0.4642  0.8863 -0.0568
 4937SOL     OW26446   4.686   2.533   9.293 -0.1104 -0.4054  0.3261
 4937SOL    HW126447   4.656   2.617   9.328  1.6955 -0.8006  2.7995
 4937SOL    HW226448   4.637   2.518   9.212  1.2714  0.8581 -0.7312
 4938SOL     OW26449   2.595   0.186   3.020  0.1574  0.7181  0.1667
 4938SOL    HW126450   2.508   0.183   3.060 -1.3807  0.8360 -3.1383
 4938SOL    HW226451   2.583   0.119   2.953 -1.3228 -0.9578  2.1501
 4939SOL     OW26452   4.435   2.202   6.350  0.7556  0.2653 -0.7535
 4939SOL    HW126453   4.453   2.256   6.273  0.9115  2.5981  0.9472
 4939SOL    HW226454   4.348   2.229   6.378  1.9224  1.7593  1.4251
 4940SOL     OW26455   2.257   3.352  14.071  0.5850 -0.3506 -0.2449
 4940SOL    HW126456   2.222   3.432  14.031 -0.7465 -0.8657 -0.1238
 4940SOL    HW226457   2.337   3.347  14.019 -0.1001  2.4759 -1.6006
 4941SOL     OW26458   3.641   1.962   2.651  0.3035  0.7143 -0.5187
 4941SOL    HW126459   3.596   2.039   2.686 -1.7329 -1.1098  0.9113
 4941SOL    HW226460   3.565   1.913   2.617 -0.4621  1.0443  0.7289
 4942SOL     OW26461   3.662   0.210   2.159 -0.3864  0.5732 -0.6546
 4942SOL    HW126462   3.667   0.293   2.207  0.3630  0.0304  0.2084
 4942SOL    HW226463   3.580   0.210   2.110 -0.1613  0.8580 -1.0321
 4943SOL     OW26464   4.017   3.150  17.560 -0.0747 -0.2395 -0.1027
 4943SOL    HW126465   3.927   3.116  17.562 -0.3293  0.3152 -2.1947
 4943SOL    HW226466   4.048   3.124  17.473 -0.0313 -2.5422  0.5889
 4944SOL     OW26467   0.303   1.329  15.898  0.0148  0.5302 -0.2897
 4944SOL    HW126468   0.331   1.397  15.836  1.1185  1.9427  1.7577
 4944SOL    HW226469   0.342   1.254  15.854  2.3067  2.5395 -1.6973
 4945SOL     OW26470   1.763   1.776  15.580  0.4001 -0.0797 -0.1612
 4945SOL    HW126471   1.824   1.728  15.637  1.2590 -0.2634 -1.2447
 4945SOL    HW226472   1.784   1.750  15.491  0.7553  0.2805 -0.1840
 4946SOL     OW26473   2.328   2.329   5.989 -0.0502 -0.3601  0.0972
 4946SOL    HW126474   2.342   2.262   5.921 -0.9800  0.3375 -0.7883
 4946SOL    HW226475   2.240   2.300   6.013 -0.6835  0.1793 -1.5287
 4947SOL     OW26476   1.485   3.993   5.731  0.0056  0.3024  0.2257
 4947SOL    HW126477   1.443   4.078   5.736  0.5586  0.4885  1.5893
 4947SOL    HW226478   1.463   3.965   5.820 -0.5786 -1.7268 -0.5626
 4948SOL     OW26479   0.779   0.176   7.892 -0.3134  0.5198  0.3211
 4948SOL    HW126480   0.701   0.231   7.888  0.3937  1.3893 -1.2439
 4948SOL    HW226481   0.794   0.177   7.987 -2.5080 -0.4195  0.6761
 4949SOL     OW26482   4.422   2.697   3.328  0.5481  0.8805 -0.3109
 4949SOL    HW126483   4.388   2.696   3.417 -1.2491  0.3143 -1.0236
 4949SOL    HW226484   4.473   2.616   3.336 -0.8365 -0.0742 -1.2724
 4950SOL     OW26485   0.415   1.134   5.600  0.4096  0.2526 -0.0997
 4950SOL    HW126486   0.443   1.160   5.687  1.1487 -0.1089 -0.2304
 4950SOL    HW226487   0.404   1.219   5.557  0.4093  1.1195  1.6052
 4951SOL     OW26488   2.719   4.128   3.505 -0.4333  0.4074  0.2804
 4951SOL    HW126489   2.646   4.170   3.460  1.9298 -0.5845 -4.4900
 4951SOL    HW226490   2.790   4.191   3.515  1.2012 -1.2471 -0.8378
 4952SOL     OW26491   0.438   1.364   0.967  0.3146  0.0014 -0.2214
 4952SOL    HW126492   0.377   1.414   1.020  1.2232  1.6101 -0.7150
 4952SOL    HW226493   0.465   1.438   0.913  0.5397  1.1389  1.4815
 4953SOL     OW26494   2.609   3.383   9.135  0.0991 -0.1623  0.5337
 4953SOL    HW126495   2.611   3.430   9.218  1.0871 -1.9420  1.5217
 4953SOL    HW226496   2.676   3.319   9.157  0.8894  0.9857  1.4187
 4954SOL     OW26497   1.788   1.831  16.038  0.1549 -0.4991 -0.0576
 4954SOL    HW126498   1.759   1.870  15.956 -0.0421 -4.6474 -1.9287
 4954SOL    HW226499   1.709   1.832  16.092  1.5100 -0.8591  1.9298
 4955SOL     OW26500   2.994   0.050  12.651  0.0890  0.4736  0.1192
 4955SOL    HW126501   3.013   4.700  12.623 -1.4024  1.1369 -3.0122
 4955SOL    HW226502   3.078   0.090  12.673  0.4043  0.4035 -0.9613
 4956SOL     OW26503   4.424   3.088  14.302  0.2351  0.0138 -0.2438
 4956SOL    HW126504   4.514   3.058  14.287  1.0485  1.9152  0.8611
 4956SOL    HW226505   4.432   3.163  14.243 -1.3400 -1.6024 -2.4992
 4957SOL     OW26506   4.470   3.653   6.843  0.3133 -0.0584 -0.4827
 4957SOL    HW126507   4.461   3.714   6.770 -0.5079  0.1473 -0.2104
 4957SOL    HW226508   4.408   3.582   6.828  0.5355 -0.4710  0.5325
 4958SOL     OW26509   2.293   3.208   9.628  0.7182  0.0817 -0.1662
 4958SOL    HW126510   2.253   3.289   9.659 -2.8174 -0.9160 -2.0637
 4958SOL    HW226511   2.386   3.219   9.647  0.2861 -0.2298  2.2093
 4959SOL     OW26512   1.811   3.346   5.279 -0.3203  0.0819 -0.2679
 4959SOL    HW126513   1.864   3.279   5.236 -1.0281 -0.7774  0.1875
 4959SOL    HW226514   1.732   3.340   5.225 -2.0894  1.5246  2.1647
 4960SOL     OW26515   3.173   0.728   0.816 -0.1050  0.0121 -0.5031
 4960SOL    HW126516   3.187   0.798   0.752  0.3343  1.2222  0.9200
 4960SOL    HW226517   3.213   0.754   0.899 -2.5788 -0.9078  0.9759
 4961SOL     OW26518   4.547   0.900  12.938  0.0862 -0.0731  0.1773
 4961SOL    HW126519   4.469   0.891  12.883  0.4133 -0.4073 -0.2272
 4961SOL    HW226520   4.586   0.982  12.909  3.1012 -2.1867 -1.6654
 4962SOL     OW26521   0.429   1.348   3.418  0.2703  0.0378  0.8461
 4962SOL    HW126522   0.420   1.261   3.457  0.9046 -0.9828 -1.2646
 4962SOL    HW226523   0.364   1.342   3.348  0.6841  0.7519  0.3967
 4963SOL     OW26524   4.420   3.443   7.164  0.6546 -0.4416 -0.2621
 4963SOL    HW126525   4.490   3.396   7.119  1.1644  1.0807 -1.0380
 4963SOL    HW226526   4.342   3.392   7.144  0.6525 -0.5810  0.1027
 4964SOL     OW26527   1.196   4.374  16.160  0.3778  0.2697  0.3159
 4964SOL    HW126528   1.282   4.397  16.123  0.7140 -2.6678 -0.7323
 4964SOL    HW226529   1.170   4.296  16.111 -0.3717 -0.1294  1.3494
 4965SOL     OW26530   0.857   0.726  13.768  0.0145  0.3248  0.0481
 4965SOL    HW126531   0.888   0.675  13.842  0.8723 -1.7371 -1.7201
 4965SOL    HW226532   0.781   0.777  13.797 -1.8335 -2.4641  0.1140
 4966SOL     OW26533   1.683   1.044  12.652  0.3132 -0.3717  0.7781
 4966SOL    HW126534   1.704   1.137  12.646 -1.7993  0.1548  1.7729
 4966SOL    HW226535   1.607   1.039  12.594  0.3914 -0.7516  0.7049
 4967SOL     OW26536   3.794   2.252  15.702  0.2233 -0.2113 -0.5983
 4967SOL    HW126537   3.822   2.331  15.749  0.8344  0.2778 -1.7954
 4967SOL    HW226538   3.717   2.278  15.652 -1.6530 -0.6324  2.0199
 4968SOL     OW26539   1.440   1.356  17.044  0.2568  0.2805 -0.0606
 4968SOL    HW126540   1.525   1.396  17.025  0.4518  0.8992  2.1687
 4968SOL    HW226541   1.453   1.275  16.994 -2.7735  0.1012 -0.5895
 4969SOL     OW26542   4.271   4.714   6.688  0.2783  0.4189  0.0563
 4969SOL    HW126543   4.230   4.718   6.774 -0.5883  2.9955 -0.5083
 4969SOL    HW226544   4.263   4.619   6.680  1.1651  0.1033  2.7802
 4970SOL     OW26545   4.733   2.323   5.510 -0.1881  0.0806 -0.3545
 4970SOL    HW126546   4.696   2.295   5.594 -2.5861  0.0932 -1.4110
 4970SOL    HW226547   4.738   2.233   5.478 -2.7921 -0.1198 -0.1522
 4971SOL     OW26548   3.063   1.371  15.195  0.0747  0.1624  0.2818
 4971SOL    HW126549   3.074   1.289  15.242 -0.1580  0.3476  0.6662
 4971SOL    HW226550   3.143   1.418  15.218 -0.3089  0.4573  1.0286
 4972SOL     OW26551   3.372   4.062  12.485 -0.1103  0.4009 -0.4597
 4972SOL    HW126552   3.374   3.991  12.420 -0.4597  0.2396 -0.2948
 4972SOL    HW226553   3.409   4.023  12.565  1.0552  2.0685 -0.1868
 4973SOL     OW26554   2.379   2.123  13.348  0.0701 -0.5744  0.3400
 4973SOL    HW126555   2.407   2.145  13.436  1.2923  2.6016 -0.8445
 4973SOL    HW226556   2.461   2.132  13.299 -0.6172 -0.7609 -0.8460
 4974SOL     OW26557   2.838   2.521   0.251 -0.0774 -0.0891  0.1359
 4974SOL    HW126558   2.831   2.496   0.343 -0.5481 -0.4353  0.0043
 4974SOL    HW226559   2.780   2.458   0.210 -0.2247 -0.1123  0.3765
 4975SOL     OW26560   3.442   2.516   1.665 -0.5309 -0.1534  0.3958
 4975SOL    HW126561   3.409   2.563   1.741  0.2712  0.0099  0.6388
 4975SOL    HW226562   3.532   2.491   1.685 -0.2101  0.3291 -0.4673
 4976SOL     OW26563   1.895   4.117   1.610 -0.2940 -0.4511 -0.7645
 4976SOL    HW126564   1.851   4.173   1.546 -1.2996 -0.4320 -0.0497
 4976SOL    HW226565   1.839   4.040   1.603 -0.2521 -0.4592 -1.0094
 4977SOL     OW26566   2.214   3.736   7.980  0.2364 -0.6045 -0.1684
 4977SOL    HW126567   2.134   3.687   7.999  1.2768 -2.1046  0.3896
 4977SOL    HW226568   2.184   3.795   7.911  1.0952  0.6969  0.5660
 4978SOL     OW26569   0.999   1.903   8.150  0.2749 -0.8253  0.5611
 4978SOL    HW126570   1.009   1.823   8.201  2.3181 -0.7899  0.2139
 4978SOL    HW226571   0.917   1.873   8.111  1.1994 -0.6998 -1.5096
 4979SOL     OW26572   2.674   4.435  12.871  0.3584  0.1915  0.2698
 4979SOL    HW126573   2.597   4.481  12.839 -0.5141 -1.5365 -0.0997
 4979SOL    HW226574   2.630   4.364  12.919  2.6576 -0.7004  1.0836
 4980SOL     OW26575   2.163   4.491   5.189  0.2975  0.9030  0.7108
 4980SOL    HW126576   2.089   4.506   5.131 -0.0301 -2.4315  0.2600
 4980SOL    HW226577   2.182   4.398   5.182  0.4481  0.9596  0.3568
 4981SOL     OW26578   1.944   0.964   3.674 -0.1135  0.2970  0.0583
 4981SOL    HW126579   2.006   1.014   3.726 -1.0814  2.3369 -0.7599
 4981SOL    HW226580   1.910   0.902   3.738 -0.4184 -1.4888 -1.8151
 4982SOL     OW26581   3.246   0.352  12.476 -0.6344 -0.3549 -0.5202
 4982SOL    HW126582   3.269   0.434  12.519 -0.3974 -1.1763  0.9410
 4982SOL    HW226583   3.209   0.310  12.554 -0.0356  0.2465  0.0862
 4983SOL     OW26584   3.231   0.095   1.567  0.7715  0.1174  0.3715
 4983SOL    HW126585   3.284   0.042   1.627 -0.9015 -0.3012  1.4712
 4983SOL    HW226586   3.138   0.094   1.592  1.0156 -2.5510  1.0945
 4984SOL     OW26587   2.143   3.207  12.448 -0.0101 -0.2873 -0.1971
 4984SOL    HW126588   2.171   3.124  12.409  1.4682  0.2805 -0.3464
 4984SOL    HW226589   2.212   3.228  12.512  1.5609 -1.4751 -1.5121
 4985SOL     OW26590   1.408   0.107   2.812  0.3382  0.5541 -1.1924
 4985SOL    HW126591   1.338   0.051   2.846  1.9636 -0.0456  1.1939
 4985SOL    HW226592   1.459   0.117   2.892 -0.3436  1.8503 -0.9140
 4986SOL     OW26593   2.643   3.525  16.392  0.1798  0.3795 -0.6129
 4986SOL    HW126594   2.578   3.484  16.335 -1.3487  0.7210  0.8701
 4986SOL    HW226595   2.616   3.487  16.476 -0.5659 -1.5799 -1.7495
 4987SOL     OW26596   1.697   1.944  15.790 -0.2659  0.2038 -0.4239
 4987SOL    HW126597   1.713   1.890  15.713  1.6200  2.2954 -1.5191
 4987SOL    HW226598   1.694   2.031  15.748  0.8226  1.6160  2.4356
 4988SOL     OW26599   1.489   0.609   7.476 -0.2757  0.1137  0.5158
 4988SOL    HW126600   1.401   0.646   7.467 -0.8488 -1.4694 -0.4250
 4988SOL    HW226601   1.532   0.650   7.400 -1.6921  2.7326  1.1379
 4989SOL     OW26602   3.583   4.448   6.656  0.0315 -0.3997  0.2030
 4989SOL    HW126603   3.547   4.361   6.674 -0.5990 -0.1082  0.3582
 4989SOL    HW226604   3.572   4.453   6.561 -0.2064  0.5012  0.2754
 4990SOL     OW26605   3.052   0.376   1.748 -0.0314 -0.4403  0.0463
 4990SOL    HW126606   3.129   0.395   1.801  0.9237  3.5448 -2.7972
 4990SOL    HW226607   3.058   0.447   1.685 -1.2931  1.0171  1.5555
 4991SOL     OW26608   2.939   0.012  16.975  0.0573 -0.0577 -0.1682
 4991SOL    HW126609   2.856   0.019  17.021  0.9606  0.8254  1.3360
 4991SOL    HW226610   2.986   4.688  17.031 -0.8990 -1.1975 -0.6419
 4992SOL     OW26611   0.655   4.701   4.302 -0.0281 -0.6312 -0.1838
 4992SOL    HW126612   0.567   4.707   4.264  1.1319  2.5666 -2.3815
 4992SOL    HW226613   0.638   4.619   4.347 -2.3267  0.7992  1.5409
 4993SOL     OW26614   2.033   1.497   8.411  0.6435  0.1706 -0.7539
 4993SOL    HW126615   1.998   1.503   8.500  0.1066 -2.8861 -0.7461
 4993SOL    HW226616   2.121   1.533   8.408  1.1604 -1.1658 -2.0642
 4994SOL     OW26617   0.100   1.559   2.244  0.4469 -0.2873 -0.8431
 4994SOL    HW126618   0.046   1.483   2.225  1.1700 -1.6843  2.7545
 4994SOL    HW226619   0.098   1.602   2.158 -0.4581  0.2981 -0.5258
 4995SOL     OW26620   0.410   2.667  17.424  0.6151 -0.2878 -0.1430
 4995SOL    HW126621   0.446   2.625  17.503  0.6210  0.1017  0.0577
 4995SOL    HW226622   0.348   2.598  17.400  0.5641  0.0325 -0.9355
 4996SOL     OW26623   2.838   2.704  17.062 -0.0399  0.0115 -0.5888
 4996SOL    HW126624   2.920   2.685  17.108 -0.4961 -0.6965 -0.0759
 4996SOL    HW226625   2.778   2.661  17.122 -1.0352  1.3521 -0.6189
 4997SOL     OW26626   4.552   2.689   7.210 -0.3135 -0.3630 -0.4616
 4997SOL    HW126627   4.478   2.644   7.251  0.6916 -2.2998 -0.7890
 4997SOL    HW226628   4.497   2.752   7.163  1.0390  0.7846 -0.5024
 4998SOL     OW26629   3.743   3.447   0.697  0.4102  0.4041 -0.2193
 4998SOL    HW126630   3.838   3.445   0.707  0.2377 -2.8870  0.7252
 4998SOL    HW226631   3.727   3.486   0.610  1.5309 -1.5869 -1.3167
 4999SOL     OW26632   2.638   0.044   3.738  0.0573  0.4636 -0.4179
 4999SOL    HW126633   2.695   0.062   3.813 -0.0836 -0.4250 -0.0926
 4999SOL    HW226634   2.647   4.687   3.731  0.5701  0.6010 -1.5786
 5000SOL     OW26635   2.911   0.311   4.369  0.1447  0.4228  0.0262
 5000SOL    HW126636   2.974   0.255   4.323 -0.1990  0.0605 -0.0096
 5000SOL    HW226637   2.964   0.358   4.433  0.4100 -1.4283  1.1603
 5001SOL     OW26638   3.233   2.638  10.871  0.1621 -0.6481 -0.0207
 5001SOL    HW126639   3.244   2.690  10.951 -0.6824  0.0380 -0.3606
 5001SOL    HW226640   3.162   2.684  10.827  0.1136 -0.0224  0.7066
 5002SOL     OW26641   1.463   4.300   0.649  0.2529 -0.1624 -0.4251
 5002SOL    HW126642   1.391   4.243   0.674  0.2619 -0.6488 -1.5253
 5002SOL    HW226643   1.454   4.312   0.554  0.3185  4.9075  0.1994
 5003SOL     OW26644   3.622   0.845   5.901 -0.2385  0.1376 -0.2845
 5003SOL    HW126645   3.654   0.927   5.939 -3.3037 -0.1001  2.8278
 5003SOL    HW226646   3.703   0.822   5.856 -1.5867 -1.2387 -2.0032
 5004SOL     OW26647   3.536   2.738   5.156 -0.5820 -0.3117  0.2545
 5004SOL    HW126648   3.542   2.649   5.122  0.3389  0.1510 -0.7821
 5004SOL    HW226649   3.628   2.760   5.167 -0.5398 -0.2284 -0.2877
 5005SOL     OW26650   4.721   1.469   1.253 -0.5560 -0.3947  0.4592
 5005SOL    HW126651   0.004   1.551   1.208 -0.1466 -0.4441  0.5707
 5005SOL    HW226652   4.638   1.469   1.301  0.8206  0.3442  2.7816
 5006SOL     OW26653   0.688   2.396   5.443 -0.0021 -0.3490  0.1651
 5006SOL    HW126654   0.781   2.414   5.428 -0.3619  0.2756 -1.2956
 5006SOL    HW226655   0.649   2.468   5.393 -0.3913 -1.6846 -1.4584
 5007SOL     OW26656   1.486   1.185   5.299 -0.1823  0.4533 -0.6842
 5007SOL    HW126657   1.398   1.198   5.334 -0.0914 -0.4894 -0.1123
 5007SOL    HW226658   1.461   1.150   5.213 -0.2293 -2.1207  0.3730
 5008SOL     OW26659   2.319   4.511   7.042  0.0411  0.9654 -0.4996
 5008SOL    HW126660   2.406   4.551   7.053 -0.1325  1.3845 -0.6487
 5008SOL    HW226661   2.273   4.571   7.101 -0.6736 -0.6043  0.5529
 5009SOL     OW26662   3.026   0.125   4.204  0.1333  0.3939 -0.4054
 5009SOL    HW126663   3.095   0.188   4.182  1.7266 -0.7890  1.1953
 5009SOL    HW226664   3.040   0.047   4.151  0.0881 -0.1039  0.3028
 5010SOL     OW26665   3.114   0.058   8.566  0.3941  0.1337 -0.4043
 5010SOL    HW126666   3.187   4.737   8.581  1.7898  2.3410  1.4940
 5010SOL    HW226667   3.063   0.061   8.647 -0.5758  0.8963 -1.0329
 5011SOL     OW26668   2.605   4.309   4.460  0.4123  0.2470  0.3225
 5011SOL    HW126669   2.573   4.371   4.525 -1.1390  0.3256 -0.5128
 5011SOL    HW226670   2.663   4.367   4.412  2.8996 -0.3814  2.5994
 5012SOL     OW26671   2.801   1.306   1.541  0.0410  0.0205 -0.4689
 5012SOL    HW126672   2.714   1.293   1.578  0.7028 -0.6991  0.8168
 5012SOL    HW226673   2.814   1.401   1.546  0.4283  0.0904 -2.4502
 5013SOL     OW26674   2.220   1.544  11.821  0.8174 -0.9651 -0.7287
 5013SOL    HW126675   2.140   1.594  11.805  1.2248  0.6623  2.3097
 5013SOL    HW226676   2.196   1.454  11.797 -0.2858 -0.8140 -0.1691
 5014SOL     OW26677   4.501   2.426   3.311 -0.6486 -0.6041  0.2529
 5014SOL    HW126678   4.504   2.394   3.221 -0.3226  1.3711 -0.4424
 5014SOL    HW226679   4.524   2.352   3.366  0.0560  0.1330  0.9607
 5015SOL     OW26680   3.396   1.179   2.151 -0.6423  0.1613  0.7520
 5015SOL    HW126681   3.329   1.137   2.205 -2.5467  1.3989 -0.6608
 5015SOL    HW226682   3.411   1.264   2.193  0.9465 -0.1304  0.7880
 5016SOL     OW26683   2.413   0.597   1.317 -0.1632 -0.0887 -0.7413
 5016SOL    HW126684   2.382   0.657   1.386  1.4140 -1.3824  1.0930
 5016SOL    HW226685   2.330   0.570   1.278 -1.6040  2.3453  0.6248
 5017SOL     OW26686   1.103   2.632  13.842 -0.0573  0.3653  0.0173
 5017SOL    HW126687   1.094   2.557  13.784 -1.7441 -1.1092  2.1804
 5017SOL    HW226688   1.191   2.665  13.823 -0.8932  2.4543 -0.1575
 5018SOL     OW26689   2.049   4.579  17.458  0.0529  0.1068  0.7921
 5018SOL    HW126690   2.141   4.557  17.442 -0.3852 -0.9050 -0.3867
 5018SOL    HW226691   2.000   4.512  17.410 -0.9946  0.9087  0.7382
 5019SOL     OW26692   3.077   2.577  12.259  0.0756  0.3304 -0.5682
 5019SOL    HW126693   3.157   2.584  12.310 -0.5897  2.1354  0.2457
 5019SOL    HW226694   3.091   2.497  12.208 -1.6095  0.3615 -1.0984
 5020SOL     OW26695   2.315   1.158   3.411 -0.4132  0.0960 -0.2514
 5020SOL    HW126696   2.327   1.102   3.488 -1.2029 -1.1177 -1.0204
 5020SOL    HW226697   2.335   1.093   3.344 -1.8441 -0.9699  0.3727
 5021SOL     OW26698   4.724   3.024  15.631 -0.9091 -0.3801  0.0456
 5021SOL    HW126699   4.725   3.107  15.583 -1.5399 -0.3404  0.0948
 5021SOL    HW226700   0.047   2.967  15.585 -0.9163  0.0643 -0.5149
 5022SOL     OW26701   0.075   1.750  10.258  0.2938  0.2322 -0.2846
 5022SOL    HW126702   0.112   1.720  10.175 -1.0191 -0.7598 -0.5167
 5022SOL    HW226703   0.155   1.767  10.307  1.2067 -1.3928 -1.2323
 5023SOL     OW26704   0.056   0.465   1.727  0.1473 -0.3426  0.0055
 5023SOL    HW126705   0.126   0.527   1.747  0.6674 -0.9541  0.0757
 5023SOL    HW226706   0.087   0.387   1.773  0.5195  0.9593  1.9447
 5024SOL     OW26707   1.329   0.974   7.585 -0.2838  0.5777 -0.2891
 5024SOL    HW126708   1.260   1.036   7.559  0.4968  1.5451 -0.0415
 5024SOL    HW226709   1.327   0.913   7.511 -0.6131 -0.5810  0.6747
 5025SOL     OW26710   0.016   4.149   2.872  0.1631  0.3191 -0.5556
 5025SOL    HW126711   4.673   4.184   2.835  1.5587  3.1275 -1.0300
 5025SOL    HW226712   0.056   4.214   2.931 -2.4318  2.1621 -0.8218
 5026SOL     OW26713   3.781   3.042  13.704 -0.0785 -0.2321 -0.0657
 5026SOL    HW126714   3.751   2.962  13.748  0.6469 -0.4238  0.0821
 5026SOL    HW226715   3.853   3.053  13.766  1.0661 -0.3724 -1.3923
 5027SOL     OW26716   4.006   4.323   7.639  0.0492 -0.1716 -0.3702
 5027SOL    HW126717   3.999   4.339   7.544  1.1733  1.5213 -0.1747
 5027SOL    HW226718   3.988   4.230   7.649  2.5341 -0.3638  2.4521
 5028SOL     OW26719   1.994   0.588   6.391 -0.0155  0.4274 -0.1491
 5028SOL    HW126720   2.025   0.592   6.300 -2.3508 -1.7250 -1.0399
 5028SOL    HW226721   1.907   0.548   6.386  0.2573 -0.0921 -0.7499
 5029SOL     OW26722   4.596   3.086  13.277  0.0280 -0.1275 -0.1396
 5029SOL    HW126723   4.676   3.118  13.318  1.9167 -2.1296 -2.3107
 5029SOL    HW226724   4.534   3.156  13.294 -0.7074 -1.1889  1.5984
 5030SOL     OW26725   1.556   2.956   4.565  0.1482 -0.3437 -0.4214
 5030SOL    HW126726   1.623   2.920   4.507  1.6720  0.8350  0.6429
 5030SOL    HW226727   1.491   2.885   4.563 -2.3367  1.8997  0.1776
 5031SOL     OW26728   4.120   1.557   9.241 -0.0378  0.0012 -0.3737
 5031SOL    HW126729   4.044   1.499   9.251 -0.3140  0.4908  0.3361
 5031SOL    HW226730   4.173   1.489   9.199  0.5272  0.7898 -0.9206
 5032SOL     OW26731   1.879   3.548   4.369 -0.0991  0.0508  0.1810
 5032SOL    HW126732   1.857   3.584   4.283  1.2964 -0.7421 -0.5102
 5032SOL    HW226733   1.950   3.609   4.391  1.7978 -2.8315  2.0037
 5033SOL     OW26734   0.013   1.623   6.725  0.0288 -0.7356 -0.2479
 5033SOL    HW126735   4.669   1.652   6.688  0.7316  0.3370 -0.9623
 5033SOL    HW226736   0.019   1.535   6.689  2.5346 -0.8260  0.3464
 5034SOL     OW26737   3.547   1.578  11.600  0.2785 -0.1109 -0.4462
 5034SOL    HW126738   3.591   1.658  11.571 -0.4148  0.5347  0.2921
 5034SOL    HW226739   3.475   1.577  11.536  1.2373 -0.0175 -1.5251
 5035SOL     OW26740   3.090   2.885   1.176  0.3151 -0.0376 -0.2084
 5035SOL    HW126741   3.031   2.906   1.104 -1.1146 -0.5672  0.8058
 5035SOL    HW226742   3.095   2.967   1.224  2.3845  1.0744 -2.3425
 5036SOL     OW26743   3.754   1.779   2.418  0.0189  0.8551 -0.6457
 5036SOL    HW126744   3.670   1.769   2.372 -0.1633 -0.8314  0.0488
 5036SOL    HW226745   3.731   1.838   2.489 -0.4421 -1.4628  1.1169
 5037SOL     OW26746   0.891   0.554  11.674  0.5363  0.2787  0.2497
 5037SOL    HW126747   0.846   0.639  11.678  3.7778  1.9858  0.7047
 5037SOL    HW226748   0.977   0.586  11.648 -0.0242  1.0118 -0.7391
 5038SOL     OW26749   0.295   1.489   4.917  0.0617  0.2540 -0.3283
 5038SOL    HW126750   0.212   1.476   4.873  0.1238  1.2679 -0.7565
 5038SOL    HW226751   0.361   1.478   4.849  0.1436  0.2505 -0.2490
 5039SOL     OW26752   0.738   1.607   6.528 -0.0137  0.2009 -0.1173
 5039SOL    HW126753   0.768   1.573   6.613  1.7578 -0.3708 -0.9777
 5039SOL    HW226754   0.713   1.696   6.550 -0.8023  0.3695 -1.7375
 5040SOL     OW26755   2.129   1.314  15.981  0.0415  0.2497 -0.1099
 5040SOL    HW126756   2.131   1.343  15.890  2.0444  0.1498 -0.0939
 5040SOL    HW226757   2.074   1.382  16.020 -3.0711 -1.1152 -2.0940
 5041SOL     OW26758   2.616   4.132   4.116  0.2453  0.4896 -0.0355
 5041SOL    HW126759   2.576   4.081   4.046 -0.4007  0.4356  0.3758
 5041SOL    HW226760   2.611   4.220   4.080 -0.2354  0.1018 -0.9002
 5042SOL     OW26761   1.462   1.147   9.952  0.6409 -0.3962 -0.2264
 5042SOL    HW126762   1.551   1.116   9.963  0.8196  0.5171  0.8724
 5042SOL    HW226763   1.440   1.214  10.017  2.8297 -1.8626  2.0373
 5043SOL     OW26764   2.287   0.898   2.828  0.1703  0.1928 -0.1316
 5043SOL    HW126765   2.270   0.823   2.886 -1.2777 -0.2999 -1.1911
 5043SOL    HW226766   2.380   0.890   2.809  0.4493  2.0078  0.4817
 5044SOL     OW26767   0.248   2.231   9.812 -0.1900  0.0563 -0.0820
 5044SOL    HW126768   0.175   2.177   9.782 -1.0592  1.7863 -1.0791
 5044SOL    HW226769   0.284   2.166   9.872 -1.4712  0.8538  1.5472
 5045SOL     OW26770   0.469   1.739   5.017  0.1399  0.1090  0.2656
 5045SOL    HW126771   0.440   1.783   5.097 -0.5415  0.6055 -0.2576
 5045SOL    HW226772   0.552   1.782   5.002  1.6273 -2.4094  1.2657
 5046SOL     OW26773   4.121   4.234   6.512  0.4410 -0.5125  0.3697
 5046SOL    HW126774   4.155   4.265   6.428 -3.0662 -0.8176 -1.1707
 5046SOL    HW226775   4.027   4.249   6.519  0.2240 -1.0870 -1.3091
 5047SOL     OW26776   2.422   2.583   9.634 -0.4155 -0.1660  0.3436
 5047SOL    HW126777   2.471   2.579   9.552 -2.2608 -0.0760 -0.7696
 5047SOL    HW226778   2.401   2.676   9.645  0.5749  0.1438 -0.4512
 5048SOL     OW26779   3.586   3.111   8.416 -0.4326 -0.1262  0.4871
 5048SOL    HW126780   3.662   3.164   8.393  0.2871 -1.0822  0.6640
 5048SOL    HW226781   3.576   3.140   8.506  1.2109 -1.0488  0.9647
 5049SOL     OW26782   3.699   4.063   9.419  0.0184  0.2830 -0.6067
 5049SOL    HW126783   3.649   4.063   9.337 -2.1784 -0.8418  0.7427
 5049SOL    HW226784   3.788   4.085   9.391 -0.1773  3.3969  1.2400
 5050SOL     OW26785   1.215   0.290   4.919 -0.1117  0.3284 -0.1272
 5050SOL    HW126786   1.138   0.248   4.880 -0.0782 -0.1521  0.3208
 5050SOL    HW226787   1.251   0.214   4.965 -0.1393 -1.4366 -3.0242
 5051SOL     OW26788   0.667   3.352   3.372  0.4026  0.0386 -0.1220
 5051SOL    HW126789   0.623   3.308   3.299  1.0057 -0.7851  0.0182
 5051SOL    HW226790   0.611   3.423   3.404  0.2604 -0.7219  1.2993
 5052SOL     OW26791   1.090   3.351   8.300 -0.3033  0.0720 -0.6843
 5052SOL    HW126792   1.055   3.362   8.212  0.2147  2.8676 -0.5453
 5052SOL    HW226793   1.032   3.289   8.344 -0.4537  0.3886 -0.4376
 5053SOL     OW26794   3.399   1.034   6.413  0.6960 -0.0325  0.5036
 5053SOL    HW126795   3.323   1.002   6.463 -0.0667  2.5145  0.9974
 5053SOL    HW226796   3.428   0.952   6.374  0.5618 -0.4194  1.2150
 5054SOL     OW26797   4.148   2.430   2.042 -0.0602 -0.2534 -0.1624
 5054SOL    HW126798   4.091   2.385   2.105  0.3280 -0.8352 -0.2365
 5054SOL    HW226799   4.234   2.421   2.083  1.2100 -1.3680 -3.1376
 5055SOL     OW26800   2.824   2.071   8.778  0.1994  0.8367 -0.2291
 5055SOL    HW126801   2.804   2.013   8.852  2.8261 -0.1663 -0.3239
 5055SOL    HW226802   2.802   2.158   8.810  0.3982  0.9865 -0.5016
 5056SOL     OW26803   1.920   3.675   9.273  0.1858 -0.1526 -0.1627
 5056SOL    HW126804   1.898   3.757   9.228 -1.7079 -0.6994 -0.2371
 5056SOL    HW226805   1.891   3.607   9.213 -0.6699 -0.1738  0.2738
 5057SOL     OW26806   0.802   2.892   6.984 -0.2981 -0.1846  0.7639
 5057SOL    HW126807   0.780   2.902   7.076 -1.7149 -0.4587  0.4498
 5057SOL    HW226808   0.834   2.981   6.970  2.8172 -1.3097  0.6827
 5058SOL     OW26809   2.719   2.048   6.113 -0.2235  0.0110  0.1204
 5058SOL    HW126810   2.673   2.076   6.192  0.3167  0.0472  0.4213
 5058SOL    HW226811   2.747   1.958   6.131  0.6410  0.1350 -0.5851
 5059SOL     OW26812   4.465   3.601   5.566  0.0459  0.3843 -0.6415
 5059SOL    HW126813   4.372   3.592   5.544  0.0856  0.2467 -0.7560
 5059SOL    HW226814   4.449   3.595   5.660 -0.2837  1.9904 -0.5994
 5060SOL     OW26815   4.396   2.296   4.759 -0.2629  0.5228 -0.3340
 5060SOL    HW126816   4.370   2.242   4.833  0.2212  1.9620  0.8759
 5060SOL    HW226817   4.341   2.254   4.693  0.2295 -2.3255  1.0946
 5061SOL     OW26818   2.262   4.599   4.914 -0.6703  0.1450  0.0064
 5061SOL    HW126819   2.334   4.537   4.902  0.0786  0.7210  1.5062
 5061SOL    HW226820   2.288   4.615   5.005  2.5575  1.6133 -1.1304
 5062SOL     OW26821   0.338   3.240  12.575 -0.0089 -0.0166 -0.0139
 5062SOL    HW126822   0.372   3.152  12.592  2.6493  1.2414  1.2906
 5062SOL    HW226823   0.347   3.244  12.480  3.2402  0.6008  0.3160
 5063SOL     OW26824   0.722   3.580   2.899  0.6298 -0.0720 -0.7024
 5063SOL    HW126825   0.692   3.494   2.928  0.8504  0.5585  1.3569
 5063SOL    HW226826   0.641   3.617   2.866  1.7084  1.8875 -1.1628
 5064SOL     OW26827   0.394   2.658   2.875 -0.1512  0.1224 -0.4300
 5064SOL    HW126828   0.474   2.688   2.833  0.6203  1.1520  1.7818
 5064SOL    HW226829   0.365   2.734   2.926  1.0345 -1.1050  2.0989
 5065SOL     OW26830   2.737   0.692   9.056 -0.7150 -0.1249 -1.1493
 5065SOL    HW126831   2.786   0.615   9.083 -0.9335 -0.3856 -1.5046
 5065SOL    HW226832   2.652   0.655   9.078 -0.2076  0.5651  1.9656
 5066SOL     OW26833   0.795   4.231   7.494 -0.4962  0.5255  0.6351
 5066SOL    HW126834   0.753   4.266   7.573 -0.7887 -2.8847  2.0062
 5066SOL    HW226835   0.776   4.302   7.433 -1.7311  1.1920  1.7830
 5067SOL     OW26836   3.867   0.582  11.818 -0.0185 -0.2606  0.4634
 5067SOL    HW126837   3.818   0.500  11.820 -2.2296  1.0842  0.5589
 5067SOL    HW226838   3.857   0.602  11.725 -1.3094  1.2887  0.9406
 5068SOL     OW26839   2.643   2.731  13.108 -0.5215  0.1952 -0.0893
 5068SOL    HW126840   2.707   2.725  13.037  0.9624 -0.3967  1.2876
 5068SOL    HW226841   2.591   2.655  13.085  2.8255 -1.9161 -0.6183
 5069SOL     OW26842   1.278   4.171   8.440 -0.3948  0.1531 -0.3326
 5069SOL    HW126843   1.262   4.258   8.403  0.9715  0.6773  0.3399
 5069SOL    HW226844   1.347   4.190   8.503 -0.1918  0.2619 -0.5897
 5070SOL     OW26845   2.972   3.456   2.809  0.9581  0.4375  0.1113
 5070SOL    HW126846   2.933   3.440   2.723 -1.1549  1.6163  0.8347
 5070SOL    HW226847   3.062   3.432   2.788  0.7673 -1.3340  1.3646
 5071SOL     OW26848   4.485   2.847   6.670 -0.3034 -0.3638 -0.1183
 5071SOL    HW126849   4.560   2.837   6.611  0.4411 -0.0326  0.7717
 5071SOL    HW226850   4.444   2.762   6.658 -0.7745  0.2420 -3.0006
 5072SOL     OW26851   0.581   2.919   3.564  0.1030 -0.7918  0.2900
 5072SOL    HW126852   0.655   2.920   3.625  0.2115 -0.2198  0.1511
 5072SOL    HW226853   0.573   3.013   3.552  2.7875 -0.5701  0.1487
 5073SOL     OW26854   1.694   1.447  17.001  0.0037  0.2713  0.7143
 5073SOL    HW126855   1.788   1.429  16.991 -0.1499  0.2857 -0.6241
 5073SOL    HW226856   1.686   1.520  16.940  0.8552  0.3754  0.7234
 5074SOL     OW26857   0.377   3.605   1.943  0.8294 -0.0381  0.1376
 5074SOL    HW126858   0.305   3.613   2.006  1.1404 -1.6570  0.7072
 5074SOL    HW226859   0.433   3.678   1.970 -0.8596  1.3859 -0.2058
 5075SOL     OW26860   4.287   3.760   0.086 -0.3804 -0.1160 -0.1980
 5075SOL    HW126861   4.304   3.683   0.141 -2.5251 -0.3338  0.1703
 5075SOL    HW226862   4.248   3.725   0.006 -2.2914  1.3760  0.0706
 5076SOL     OW26863   3.733   1.809  11.004  0.4013 -0.3991  0.4151
 5076SOL    HW126864   3.671   1.788  10.934 -0.6928  4.1892  0.0416
 5076SOL    HW226865   3.693   1.779  11.086  2.4117 -0.7308  1.2711
 5077SOL     OW26866   2.176   4.701   4.371  0.1437  0.9650  0.5329
 5077SOL    HW126867   2.227   4.650   4.309 -1.0800 -0.7671  0.9611
 5077SOL    HW226868   2.219   4.687   4.455  0.4042  1.3205  0.4607
 5078SOL     OW26869   0.569   3.138   5.653 -0.3277  0.8129 -0.1959
 5078SOL    HW126870   0.511   3.185   5.593  0.2133  0.2019 -1.2078
 5078SOL    HW226871   0.529   3.139   5.739 -1.0119 -0.0136 -0.5015
 5079SOL     OW26872   0.614   2.761   7.854  0.3822 -0.8870 -0.8152
 5079SOL    HW126873   0.565   2.724   7.781 -1.6417 -1.4209  0.8394
 5079SOL    HW226874   0.686   2.700   7.871 -0.4368 -1.5939  0.0982
 5080SOL     OW26875   3.225   1.194  12.219  0.4813 -0.2661 -0.2105
 5080SOL    HW126876   3.194   1.189  12.129  0.2283  2.0790 -0.2426
 5080SOL    HW226877   3.144   1.197  12.270  0.4686 -3.2346 -0.0614
 5081SOL     OW26878   4.157   1.821   9.247  0.1943  0.0620  0.1733
 5081SOL    HW126879   4.145   1.726   9.246 -0.9696  0.2020  0.9984
 5081SOL    HW226880   4.067   1.847   9.264 -0.2569 -0.1268 -1.9814
 5082SOL     OW26881   3.115   4.407   7.169 -0.1279 -0.6364 -0.1892
 5082SOL    HW126882   3.137   4.353   7.246  1.8662  1.0750  0.4611
 5082SOL    HW226883   3.092   4.485   7.220 -3.8909  1.3551 -5.0632
 5083SOL     OW26884   0.468   0.816  17.441  0.6790 -0.2330 -0.2158
 5083SOL    HW126885   0.536   0.823  17.374  0.7995 -0.7259 -0.1467
 5083SOL    HW226886   0.483   0.722  17.455 -3.9935 -0.7519  1.2216
 5084SOL     OW26887   4.358   3.471   2.209 -0.9992 -0.3365 -0.4172
 5084SOL    HW126888   4.317   3.417   2.277  0.9058 -1.4698 -0.1687
 5084SOL    HW226889   4.324   3.428   2.131 -0.0311 -0.2319 -0.8961
 5085SOL     OW26890   1.011   0.243  11.570  0.0778  0.1134 -0.2517
 5085SOL    HW126891   1.071   0.223  11.641  0.6335  0.4280 -0.6340
 5085SOL    HW226892   0.978   0.330  11.594 -0.4413 -0.3102  0.5629
 5086SOL     OW26893   0.234   0.943   9.959  0.3101  0.1167 -0.0321
 5086SOL    HW126894   0.260   0.873   9.899  0.0416  1.0044 -1.1908
 5086SOL    HW226895   0.171   0.987   9.902  0.8363 -0.2861 -0.9445
 5087SOL     OW26896   2.026   0.651   4.126  0.1245  1.1372  0.5393
 5087SOL    HW126897   1.942   0.611   4.104 -0.6416  2.9944  0.1020
 5087SOL    HW226898   2.058   0.605   4.203  2.6451  0.3438 -0.9465
 5088SOL     OW26899   3.133   4.075   5.498 -0.1383 -0.1743 -0.3109
 5088SOL    HW126900   3.187   4.154   5.492 -0.2092  0.0186  1.6256
 5088SOL    HW226901   3.155   4.019   5.423 -0.2920 -0.4773 -0.1293
 5089SOL     OW26902   3.120   0.646   7.363  0.3858 -0.3165  0.2501
 5089SOL    HW126903   3.057   0.633   7.433  0.1252  1.6240  0.3715
 5089SOL    HW226904   3.134   0.556   7.333  0.3000  0.3613 -1.8476
 5090SOL     OW26905   2.732   0.868  14.747 -0.3144 -0.0370  0.0931
 5090SOL    HW126906   2.820   0.836  14.768 -1.7349 -3.0654  1.4842
 5090SOL    HW226907   2.717   0.927  14.821  1.1543  1.1443 -0.5421
 5091SOL     OW26908   2.424   0.886   6.194  0.0403 -0.3463  0.2819
 5091SOL    HW126909   2.369   0.944   6.248 -1.5033 -1.4054 -0.1497
 5091SOL    HW226910   2.378   0.893   6.111  1.4368 -0.0114 -0.4544
 5092SOL     OW26911   2.353   3.909  10.839 -0.8092 -0.3459  0.5679
 5092SOL    HW126912   2.403   3.833  10.869 -0.5709 -0.6253 -0.5210
 5092SOL    HW226913   2.420   3.949  10.783  0.5136 -2.8516  0.3396
 5093SOL     OW26914   4.469   3.832   7.042  0.2878  0.0056  0.3645
 5093SOL    HW126915   4.468   3.761   6.977 -0.3366  0.5134 -0.1844
 5093SOL    HW226916   4.535   3.891   7.006 -0.4345 -0.0729 -1.0943
 5094SOL     OW26917   1.687   0.104   6.642 -0.1489  0.6182 -0.3301
 5094SOL    HW126918   1.745   0.178   6.653 -0.2916  0.5511  0.8371
 5094SOL    HW226919   1.626   0.158   6.592 -0.1549  0.7741 -0.1546
 5095SOL     OW26920   0.388   0.298   7.828  0.2271  0.0978  0.7390
 5095SOL    HW126921   0.356   0.208   7.828 -2.4694  1.0535  2.2326
 5095SOL    HW226922   0.383   0.317   7.735  2.3242  5.0279  1.6348
 5096SOL     OW26923   2.575   0.325   5.553 -0.1179 -0.1604  0.7070
 5096SOL    HW126924   2.557   0.380   5.629 -2.4160  0.5240 -0.3623
 5096SOL    HW226925   2.547   0.388   5.487  1.7456  1.2773  1.2927
 5097SOL     OW26926   0.255   3.450  14.664  0.5271 -0.6138  0.0130
 5097SOL    HW126927   0.342   3.446  14.624  0.9743 -3.2878  1.2127
 5097SOL    HW226928   0.209   3.470  14.583 -1.9336 -0.1381  1.5312
 5098SOL     OW26929   0.263   1.325  11.168  0.2171 -0.3787 -0.0400
 5098SOL    HW126930   0.314   1.404  11.186  0.1108 -0.3783  0.2643
 5098SOL    HW226931   0.326   1.254  11.159 -1.6303 -2.0466  0.0705
 5099SOL     OW26932   4.572   4.221   2.304 -0.6719  0.0853  0.1029
 5099SOL    HW126933   4.645   4.211   2.242  0.7450 -0.3974  1.8469
 5099SOL    HW226934   4.593   4.311   2.329  4.9048 -1.2159  0.2753
 5100SOL     OW26935   3.312   1.456   4.353  0.3853 -0.3078  0.6463
 5100SOL    HW126936   3.280   1.436   4.441  1.4206 -4.2699  0.1321
 5100SOL    HW226937   3.269   1.539   4.331 -0.1012 -0.3722  1.3171
 5101SOL     OW26938   2.582   1.518  14.175  0.9567  0.3145  0.3187
 5101SOL    HW126939   2.505   1.571  14.155  0.6724  0.2388  1.2132
 5101SOL    HW226940   2.605   1.471  14.095  1.8664  2.7202 -0.7977
 5102SOL     OW26941   4.637   3.396   1.113 -0.1366 -0.1071 -0.2239
 5102SOL    HW126942   4.619   3.318   1.061 -0.5022 -0.9198  1.1207
 5102SOL    HW226943   4.545   3.420   1.124 -0.7251 -1.8662 -1.3516
 5103SOL     OW26944   0.837   2.762   1.911 -0.3140 -0.1100 -0.0113
 5103SOL    HW126945   0.823   2.718   1.995 -0.4556  0.2399  0.1475
 5103SOL    HW226946   0.831   2.694   1.844 -1.2713  0.9628 -0.9900
 5104SOL     OW26947   3.262   1.980   4.885  0.5203 -0.1143  0.0111
 5104SOL    HW126948   3.181   1.977   4.833  0.7570  0.3500 -0.3916
 5104SOL    HW226949   3.225   1.975   4.973  0.2901 -1.3772 -0.1630
 5105SOL     OW26950   1.923   0.058   3.990 -0.2622 -0.1512 -0.0475
 5105SOL    HW126951   1.990   4.734   4.018 -0.6954 -1.2030 -1.3641
 5105SOL    HW226952   1.968   0.100   3.917 -0.3697  1.8342  1.0452
 5106SOL     OW26953   1.675   0.441  13.978 -0.5202 -0.5027  0.5563
 5106SOL    HW126954   1.634   0.520  14.012  0.9679 -0.5017  2.3750
 5106SOL    HW226955   1.634   0.374  14.033  0.1922 -1.7612 -0.4197
 5107SOL     OW26956   3.515   4.397  12.613  0.2171  0.0466  0.0980
 5107SOL    HW126957   3.422   4.417  12.623  0.3885  0.3609  1.0657
 5107SOL    HW226958   3.564   4.464  12.661 -0.6363  0.4985  0.3407
 5108SOL     OW26959   0.579   1.195  15.535  0.4851 -0.3366  0.6574
 5108SOL    HW126960   0.670   1.163  15.534  1.3472  2.1309  0.2427
 5108SOL    HW226961   0.539   1.126  15.481 -0.3761 -1.2657  2.4805
 5109SOL     OW26962   1.115   2.767   8.659  0.1719 -0.0047  0.5272
 5109SOL    HW126963   1.055   2.842   8.664  0.1420  0.0547 -0.8131
 5109SOL    HW226964   1.113   2.741   8.567 -1.2150  1.5489  0.1237
 5110SOL     OW26965   0.854   0.277  11.152 -0.3852 -0.0253 -0.0739
 5110SOL    HW126966   0.888   0.226  11.079 -1.3928 -1.8578  0.7635
 5110SOL    HW226967   0.864   0.214  11.222  0.7435  1.0183  0.7094
 5111SOL     OW26968   0.615   1.749   6.217  0.1223  0.1710 -0.3700
 5111SOL    HW126969   0.539   1.754   6.276  0.4627 -0.2654  0.0985
 5111SOL    HW226970   0.632   1.842   6.232 -0.2280  0.2191 -0.2716
 5112SOL     OW26971   1.991   1.940   8.509 -0.5011 -0.4674  0.5674
 5112SOL    HW126972   2.016   1.861   8.461  0.9567  0.4779 -0.2017
 5112SOL    HW226973   2.025   2.010   8.453 -1.2365 -0.7295 -0.2149
 5113SOL     OW26974   4.417   1.399   0.345 -0.0394  0.3757  0.4470
 5113SOL    HW126975   4.510   1.384   0.364  1.0688  1.9211 -3.6358
 5113SOL    HW226976   4.378   1.357   0.421 -2.4894  1.3911 -0.2572
 5114SOL     OW26977   1.575   2.729  16.617 -0.3356  0.0964 -0.1585
 5114SOL    HW126978   1.589   2.657  16.678 -1.2112  1.8664  2.1190
 5114SOL    HW226979   1.481   2.737  16.632 -0.1031  0.2491  1.2051
 5115SOL     OW26980   4.072   4.670   1.901 -0.1521 -0.2619  0.0831
 5115SOL    HW126981   4.111   4.721   1.830  0.5908  0.0918  0.7447
 5115SOL    HW226982   3.998   4.626   1.858 -0.2484 -0.4761  0.4641
 5116SOL     OW26983   2.097   4.561   3.985 -0.1255  0.4388 -0.2270
 5116SOL    HW126984   2.025   4.557   3.923 -0.4978  1.0600  0.1596
 5116SOL    HW226985   2.055   4.567   4.071 -1.1464  0.3091 -0.7165
 5117SOL     OW26986   1.362   3.470  16.222  0.1416 -0.1071  0.1249
 5117SOL    HW126987   1.353   3.384  16.264  3.5130 -1.0997 -1.2372
 5117SOL    HW226988   1.343   3.431  16.137 -1.8887  3.0578 -0.8642
 5118SOL     OW26989   3.834   1.574  13.475  0.1016 -0.2999 -0.7295
 5118SOL    HW126990   3.916   1.612  13.507 -1.0120  1.3349  0.1770
 5118SOL    HW226991   3.816   1.508  13.542 -0.9439 -1.8654 -2.5562
 5119SOL     OW26992   2.137   0.915   1.744  0.4406  0.6420  0.3780
 5119SOL    HW126993   2.181   0.943   1.664  0.2665 -0.9222 -0.2761
 5119SOL    HW226994   2.213   0.939   1.797  1.3680  0.4563 -0.8948
 5120SOL     OW26995   2.399   3.456   9.877  0.1877 -0.5097 -0.3858
 5120SOL    HW126996   2.439   3.509   9.946 -3.4795 -1.1697  2.2018
 5120SOL    HW226997   2.336   3.410   9.932 -0.3945 -3.2746 -3.3829
 5121SOL     OW26998   4.310   4.229  15.192 -0.4270 -0.2218  0.0943
 5121SOL    HW126999   4.364   4.301  15.159  1.4914 -1.0835  1.3863
 5121SOL    HW227000   4.238   4.267  15.141  0.2748  0.3015 -0.5105
 5122SOL     OW27001   0.836   3.098   5.361 -0.7531  0.5487  0.1023
 5122SOL    HW127002   0.885   3.147   5.428  1.9726 -0.4513 -1.1434
 5122SOL    HW227003   0.900   3.100   5.290  1.0618  0.6080  1.7263
 5123SOL     OW27004   0.104   4.395   7.948  0.1472 -0.2228 -0.0309
 5123SOL    HW127005   0.145   4.312   7.924  0.1684 -0.9983  2.7482
 5123SOL    HW227006   0.037   4.358   8.005  2.6193 -1.1343  2.2988
 5124SOL     OW27007   2.104   1.374   3.085  0.4885 -0.4807  0.1029
 5124SOL    HW127008   2.022   1.419   3.106 -0.0015 -1.7759  0.9637
 5124SOL    HW227009   2.077   1.290   3.048  0.9669 -1.1895  1.3812
 5125SOL     OW27010   3.936   2.891   0.940  0.0051  0.1735  0.1332
 5125SOL    HW127011   3.866   2.849   0.990 -0.5473  1.2042  0.2281
 5125SOL    HW227012   3.991   2.927   1.010 -1.6100  1.2192  0.8687
 5126SOL     OW27013   4.550   3.582  13.893 -0.2077  0.1695 -0.1802
 5126SOL    HW127014   4.622   3.558  13.834  1.1488 -0.1916  1.6220
 5126SOL    HW227015   4.582   3.662  13.934  1.3204 -0.1693 -0.7146
 5127SOL     OW27016   2.960   2.919   9.297  0.7070 -0.2002 -0.2227
 5127SOL    HW127017   2.962   2.858   9.370 -1.2622 -2.3153 -1.9239
 5127SOL    HW227018   3.041   2.967   9.311 -0.3749  0.9583  2.0343
 5128SOL     OW27019   1.726   2.544  10.213  0.0715 -0.0462 -0.3186
 5128SOL    HW127020   1.794   2.536  10.147  0.0349 -2.0051 -0.0949
 5128SOL    HW227021   1.669   2.606  10.166 -1.4786 -1.5671 -0.4185
 5129SOL     OW27022   3.235   4.038   4.170  0.3258 -0.5637  0.1701
 5129SOL    HW127023   3.179   3.972   4.211 -0.3805  0.0446  0.1882
 5129SOL    HW227024   3.258   4.088   4.249  1.4664 -0.3461 -0.2961
 5130SOL     OW27025   2.423   0.964   1.093 -1.0685 -0.6991 -0.2170
 5130SOL    HW127026   2.517   0.956   1.081 -1.0771 -1.1223 -0.0001
 5130SOL    HW227027   2.410   1.059   1.100 -2.4244 -0.9075  0.2165
 5131SOL     OW27028   0.395   0.239   6.300  0.3077  0.4437 -0.0686
 5131SOL    HW127029   0.433   0.319   6.263  0.6699 -0.1014 -0.8734
 5131SOL    HW227030   0.462   0.219   6.366 -0.1077  0.1062  0.2465
 5132SOL     OW27031   2.395   1.416  12.889  0.4029  0.3072 -0.4468
 5132SOL    HW127032   2.472   1.362  12.871  0.0084 -0.9086  1.5180
 5132SOL    HW227033   2.344   1.350  12.935 -0.7617  0.3177 -1.6995
 5133SOL     OW27034   1.807   4.383   1.759  0.3688  0.2678  0.3135
 5133SOL    HW127035   1.884   4.355   1.710 -1.6690 -0.7197 -2.3278
 5133SOL    HW227036   1.846   4.395   1.846 -1.1814  0.6878  0.9565
 5134SOL     OW27037   3.018   1.710  17.078 -0.2474 -0.3351  0.0890
 5134SOL    HW127038   3.082   1.778  17.058  1.3929 -1.8035  0.3941
 5134SOL    HW227039   2.995   1.684  16.989  1.7439 -0.5480 -0.3621
 5135SOL     OW27040   4.011   1.449   4.614 -0.0189 -0.4586 -0.2615
 5135SOL    HW127041   4.011   1.371   4.669 -3.1561 -0.1272  0.1851
 5135SOL    HW227042   3.922   1.474   4.591  0.2206  1.2758  0.6887
 5136SOL     OW27043   4.513   1.243   4.792  0.1169 -0.2957 -1.0315
 5136SOL    HW127044   4.455   1.314   4.762 -0.9075 -1.5310 -1.9739
 5136SOL    HW227045   4.500   1.177   4.724  1.4430 -2.4057  0.7689
 5137SOL     OW27046   1.146   3.140   4.343 -0.6095  0.1063 -0.4967
 5137SOL    HW127047   1.128   3.056   4.301  0.1110 -1.1097  1.5956
 5137SOL    HW227048   1.240   3.150   4.325 -0.9503  0.8885 -1.8161
 5138SOL     OW27049   3.651   1.628  11.855 -0.2164  0.2800  0.1971
 5138SOL    HW127050   3.598   1.607  11.778  1.3703 -2.7550 -0.0559
 5138SOL    HW227051   3.653   1.721  11.835 -0.3007  0.0324 -0.9810
 5139SOL     OW27052   2.717   0.961   9.833  0.1232  0.5466 -0.0564
 5139SOL    HW127053   2.679   0.942   9.747  0.2520  0.3415 -0.0685
 5139SOL    HW227054   2.648   1.003   9.884  0.4507 -2.0427  2.5239
 5140SOL     OW27055   3.239   4.445   3.393  0.1613  0.5413  0.5666
 5140SOL    HW127056   3.192   4.455   3.310 -1.8104 -0.5419  1.5529
 5140SOL    HW227057   3.316   4.393   3.370 -0.9255 -0.7350 -0.1317
 5141SOL     OW27058   2.202   3.758   6.332  0.1441  0.0173  0.1011
 5141SOL    HW127059   2.225   3.833   6.387 -0.8354 -0.3588  1.0271
 5141SOL    HW227060   2.126   3.713   6.369 -0.3786  0.9098  0.1102
 5142SOL     OW27061   2.077   0.765   1.386 -0.4157 -0.0060 -0.7185
 5142SOL    HW127062   2.034   0.850   1.389  1.6862  1.0426 -0.0207
 5142SOL    HW227063   2.027   0.724   1.315  1.3682 -1.9219 -0.8613
 5143SOL     OW27064   0.275   0.894   5.655  0.1969  0.9679 -0.0758
 5143SOL    HW127065   0.218   0.912   5.580  1.1300 -0.6939 -1.1933
 5143SOL    HW227066   0.335   0.967   5.642  0.5466  1.1133  2.4320
 5144SOL     OW27067   2.159   2.522   6.592 -0.1936  0.3506 -0.0826
 5144SOL    HW127068   2.213   2.599   6.613  2.7913 -1.6175 -0.4444
 5144SOL    HW227069   2.184   2.508   6.501 -1.0459  0.8485 -0.3911
 5145SOL     OW27070   2.418   3.532   9.489 -0.5509  0.6662 -0.7961
 5145SOL    HW127071   2.379   3.569   9.411  1.0754 -0.2004 -2.0369
 5145SOL    HW227072   2.460   3.456   9.448  1.9412  2.5316 -1.7022
 5146SOL     OW27073   4.472   3.843   6.628  0.8152  0.0350 -0.4607
 5146SOL    HW127074   4.445   3.861   6.538  0.0607  1.1828 -0.0016
 5146SOL    HW227075   4.562   3.875   6.624  1.3949 -1.3561  1.4217
 5147SOL     OW27076   0.805   1.021   5.282 -0.0428 -0.2710  0.1062
 5147SOL    HW127077   0.790   0.928   5.267  0.6279 -0.7301  2.2734
 5147SOL    HW227078   0.900   1.022   5.272  0.1889 -4.7767  1.8868
 5148SOL     OW27079   3.348   2.971   2.425  0.1922 -0.0577 -0.7140
 5148SOL    HW127080   3.332   2.930   2.510 -0.8304  1.9849  0.0944
 5148SOL    HW227081   3.265   2.947   2.382  0.2730  1.8885 -1.9404
 5149SOL     OW27082   2.311   4.115   3.267 -0.0993  0.1296  0.1979
 5149SOL    HW127083   2.315   4.078   3.179  0.9651  2.1670 -0.6075
 5149SOL    HW227084   2.321   4.037   3.321  0.3848 -1.0322 -1.5729
 5150SOL     OW27085   3.576   1.167   5.224  0.5237  0.2903  0.2085
 5150SOL    HW127086   3.522   1.088   5.223 -1.9792  2.0449 -1.3533
 5150SOL    HW227087   3.530   1.225   5.164  0.0786 -0.0329  0.2340
 5151SOL     OW27088   3.671   0.797   0.970  0.3324  0.0407  0.2250
 5151SOL    HW127089   3.589   0.839   0.998  0.0698  0.9049 -1.8784
 5151SOL    HW227090   3.706   0.872   0.923 -0.0842 -0.4511 -0.8615
 5152SOL     OW27091   2.727   3.489   6.802 -0.2716  0.2939 -0.4662
 5152SOL    HW127092   2.651   3.449   6.843  0.7855 -0.8256  0.4272
 5152SOL    HW227093   2.704   3.581   6.810 -0.1246  0.2858  0.0127
 5153SOL     OW27094   4.683   1.940  10.567 -0.2194 -0.2188 -0.1210
 5153SOL    HW127095   4.724   1.985  10.493 -0.3724  2.8763  1.6963
 5153SOL    HW227096   0.017   1.885  10.599 -0.8959 -0.8057  0.4089
 5154SOL     OW27097   3.974   3.682   3.482 -0.6844  0.1873  0.3373
 5154SOL    HW127098   3.979   3.665   3.576  0.5139  0.2705  0.2939
 5154SOL    HW227099   3.976   3.601   3.430  1.3778  0.6520 -0.2987
 5155SOL     OW27100   0.915   0.656   5.961 -0.3462  0.1551 -0.1428
 5155SOL    HW127101   0.994   0.609   5.935 -1.3784 -1.9896  0.5866
 5155SOL    HW227102   0.952   0.728   6.012  0.7042 -0.0468 -0.6120
 5156SOL     OW27103   2.221   1.705  16.352 -0.3818  0.3822  0.1459
 5156SOL    HW127104   2.195   1.740  16.267  0.5048  1.3430  0.2657
 5156SOL    HW227105   2.295   1.653  16.323 -0.6747  0.0193  0.0487
 5157SOL     OW27106   3.911   2.546  11.367 -0.2944  0.1065 -0.6617
 5157SOL    HW127107   3.911   2.621  11.426  0.2637  0.6648 -1.3809
 5157SOL    HW227108   4.002   2.515  11.366 -0.0515  0.8307 -0.8371
 5158SOL     OW27109   3.126   3.411   4.281 -0.2256  0.1436  0.1274
 5158SOL    HW127110   3.104   3.401   4.188 -0.2960  1.7822 -0.0265
 5158SOL    HW227111   3.042   3.373   4.309  0.0048 -0.1501  0.4194
 5159SOL     OW27112   1.989   4.671  15.384 -0.7514  0.2060 -0.0994
 5159SOL    HW127113   1.954   4.633  15.465 -1.6124  1.4615  0.1254
 5159SOL    HW227114   1.943   4.614  15.322  0.9906 -2.8296  1.4320
 5160SOL     OW27115   3.277   1.597  17.615 -0.1023 -0.4067  0.5350
 5160SOL    HW127116   3.276   1.662  17.685 -1.1544  0.8645 -0.6541
 5160SOL    HW227117   3.268   1.649  17.535 -0.5649 -2.5638 -0.8379
 5161SOL     OW27118   2.667   2.753   3.665  0.0683 -0.3152  0.0660
 5161SOL    HW127119   2.684   2.814   3.737 -1.3683  1.6695 -1.2655
 5161SOL    HW227120   2.644   2.669   3.705 -0.0318 -0.0516  0.5626
 5162SOL     OW27121   0.024   1.404   0.092  0.7560  0.0563  0.0336
 5162SOL    HW127122   0.067   1.319   0.090 -1.1780 -0.8815 -2.3590
 5162SOL    HW227123   0.027   1.428  17.752  0.7352  1.2983  0.3412
 5163SOL     OW27124   2.036   0.793   2.709 -0.0702  0.2396  0.0984
 5163SOL    HW127125   2.084   0.831   2.635  1.4105 -2.0483 -0.1076
 5163SOL    HW227126   2.078   0.838   2.783  3.4028 -1.4292 -0.8432
 5164SOL     OW27127   4.474   4.181  12.858  0.2565 -0.3778 -0.1694
 5164SOL    HW127128   4.484   4.276  12.862  0.5695 -0.4934  1.6777
 5164SOL    HW227129   4.529   4.158  12.933  2.1562 -1.0770 -1.8055
 5165SOL     OW27130   1.101   2.799   3.513  0.4945  0.1279  0.1291
 5165SOL    HW127131   1.191   2.787   3.543  0.4193  1.1476  0.7976
 5165SOL    HW227132   1.113   2.869   3.449 -1.0817 -0.0727 -0.3904
 5166SOL     OW27133   3.015   1.495   6.203 -0.8161  0.1889 -0.4172
 5166SOL    HW127134   2.922   1.488   6.183 -0.3922 -1.5746 -1.7681
 5166SOL    HW227135   3.053   1.436   6.138 -1.5311  0.9393 -1.4998
 5167SOL     OW27136   4.697   1.343  16.445 -0.0773  0.2591 -0.1254
 5167SOL    HW127137   4.638   1.294  16.387 -2.4461 -1.0998  3.4452
 5167SOL    HW227138   0.018   1.272  16.468  0.8886  1.5873  1.4420
 5168SOL     OW27139   1.916   0.274   5.684 -0.0896  0.1881  0.0425
 5168SOL    HW127140   1.969   0.194   5.686 -0.4430 -0.1042 -1.5703
 5168SOL    HW227141   1.838   0.238   5.727 -0.0904 -0.4015 -0.4350
 5169SOL     OW27142   4.463   4.655   4.482 -0.6128 -0.2729 -0.1894
 5169SOL    HW127143   4.416   4.648   4.565 -1.5826 -0.6006 -0.7628
 5169SOL    HW227144   4.497   4.567   4.469  0.5692  0.5348 -2.5663
 5170SOL     OW27145   2.533   2.311   7.309  0.1097  0.9635  0.2686
 5170SOL    HW127146   2.469   2.360   7.362  1.2581  1.1568  1.4814
 5170SOL    HW227147   2.515   2.351   7.224 -2.9654 -0.1155  0.3982
 5171SOL     OW27148   0.265   2.140   0.329 -0.1715  0.2238 -0.7761
 5171SOL    HW127149   0.280   2.204   0.260 -0.3305  2.3928  1.2143
 5171SOL    HW227150   0.240   2.069   0.270 -0.4279 -0.5447  0.2409
 5172SOL     OW27151   2.814   2.361  14.861  0.3750  0.7718 -0.4711
 5172SOL    HW127152   2.817   2.357  14.766  0.7422 -2.8908 -0.3035
 5172SOL    HW227153   2.786   2.452  14.868  1.0595  0.8905  0.8773
 5173SOL     OW27154   3.058   0.354   1.271  0.0209  0.2586  0.1263
 5173SOL    HW127155   3.077   0.402   1.190  0.3441 -3.2323 -1.8415
 5173SOL    HW227156   3.104   0.410   1.335 -0.7296  1.1409 -0.1010
 5174SOL     OW27157   4.069   2.083  15.807  0.3522  0.0315 -0.1189
 5174SOL    HW127158   4.067   2.173  15.840  2.0161  0.0671 -0.1385
 5174SOL    HW227159   4.118   2.035  15.873 -0.8975 -0.6288  0.3362
 5175SOL     OW27160   2.240   1.311   7.463  0.1340  0.1510  0.3263
 5175SOL    HW127161   2.214   1.396   7.498  0.0860  0.6121 -0.8131
 5175SOL    HW227162   2.179   1.304   7.390  0.4226  1.2834 -0.0379
 5176SOL     OW27163   0.915   4.735   3.525 -0.5290  0.0696  0.0025
 5176SOL    HW127164   0.945   0.023   3.439 -1.8757  0.6652 -0.2661
 5176SOL    HW227165   0.853   0.068   3.534  1.1931  1.3145  2.0078
 5177SOL     OW27166   1.680   0.875  17.592 -0.3623 -0.2172  0.2886
 5177SOL    HW127167   1.743   0.804  17.606 -0.2469  0.2559  2.2064
 5177SOL    HW227168   1.659   0.864  17.500 -1.9882 -1.2880  0.7812
 5178SOL     OW27169   3.736   2.130  12.383 -0.1246 -0.5937  0.5865
 5178SOL    HW127170   3.667   2.117  12.318  0.6764 -0.1581 -0.3387
 5178SOL    HW227171   3.680   2.159  12.455  0.1546 -0.9224  0.9418
 5179SOL     OW27172   4.381   2.803   6.227 -0.1925 -0.0412 -0.5314
 5179SOL    HW127173   4.475   2.817   6.229 -0.0895 -0.5403 -2.3026
 5179SOL    HW227174   4.376   2.730   6.165 -0.0774 -1.3483  0.9934
 5180SOL     OW27175   4.282   1.646   4.228  0.0478  0.4612  0.0391
 5180SOL    HW127176   4.224   1.656   4.152 -1.6229 -0.8592  1.1111
 5180SOL    HW227177   4.229   1.584   4.280 -0.6135  0.9445 -0.0580
 5181SOL     OW27178   2.271   3.449   7.732 -0.1661  0.4173 -0.2045
 5181SOL    HW127179   2.305   3.405   7.810 -0.3513  2.1262  0.8331
 5181SOL    HW227180   2.320   3.531   7.743  1.1177 -0.6010  1.6521
 5182SOL     OW27181   3.304   1.820  11.850 -0.7826  0.0185  0.0989
 5182SOL    HW127182   3.394   1.812  11.881 -0.2945  0.7839 -1.1090
 5182SOL    HW227183   3.290   1.911  11.826  0.1919  1.0421  3.4293
 5183SOL     OW27184   3.778   1.728   3.139 -0.1631 -0.6149 -0.3183
 5183SOL    HW127185   3.842   1.673   3.094  0.5466  0.9911 -1.2614
 5183SOL    HW227186   3.826   1.810   3.129 -1.3755  0.0167 -0.8800
 5184SOL     OW27187   0.720   0.824  15.273 -0.0512  0.4898 -0.0473
 5184SOL    HW127188   0.790   0.889  15.268  1.5292 -1.2560 -0.3901
 5184SOL    HW227189   0.739   0.787  15.360  2.1169 -1.5858 -1.4140
 5185SOL     OW27190   0.380   1.896   8.597 -0.0875  0.2330  0.0643
 5185SOL    HW127191   0.311   1.949   8.557 -0.5447 -0.9235 -0.7093
 5185SOL    HW227192   0.326   1.846   8.659 -1.9580  1.4245 -0.6201
 5186SOL     OW27193   2.505   0.952  13.798  0.0928  0.0679  0.3102
 5186SOL    HW127194   2.436   1.019  13.804  0.7749  0.5597  2.5652
 5186SOL    HW227195   2.481   0.911  13.715  0.2892  1.0245 -0.2195
 5187SOL     OW27196   4.027   1.107  15.396 -0.0045  0.3682 -0.0408
 5187SOL    HW127197   4.080   1.067  15.328  0.2612  1.6616 -0.5930
 5187SOL    HW227198   4.073   1.077  15.474  1.8570  0.6861 -1.0221
 5188SOL     OW27199   1.014   0.789  16.256 -0.0309  0.4548  0.1431
 5188SOL    HW127200   0.990   0.783  16.348  1.2768  0.3003  0.4714
 5188SOL    HW227201   0.977   0.876  16.239 -1.1875 -0.1400 -0.4236
 5189SOL     OW27202   2.802   1.128   3.610  0.3646  0.0327 -0.5197
 5189SOL    HW127203   2.822   1.082   3.691  3.0372  0.4521 -0.9334
 5189SOL    HW227204   2.714   1.165   3.620  0.7916  0.9687 -0.2161
 5190SOL     OW27205   1.933   4.378   2.535  0.0169 -0.3841 -0.0247
 5190SOL    HW127206   1.899   4.370   2.624  0.1241  1.3876  0.1808
 5190SOL    HW227207   2.024   4.360   2.559 -0.8349  0.2747  3.7921
 5191SOL     OW27208   2.679   0.898   1.058  0.0973  0.3066  0.4433
 5191SOL    HW127209   2.740   0.876   0.987  0.5544  1.0156  0.6059
 5191SOL    HW227210   2.668   0.816   1.106 -2.2949 -0.3360 -1.2315
 5192SOL     OW27211   0.985   4.433   6.035  0.0180 -0.3792 -0.0815
 5192SOL    HW127212   0.918   4.471   6.091 -0.8047  0.3933 -1.5947
 5192SOL    HW227213   1.066   4.479   6.057  0.1605 -0.2461 -0.8770
 5193SOL     OW27214   3.229   2.436   9.447 -0.3131  0.3553 -0.2320
 5193SOL    HW127215   3.285   2.401   9.517  0.2278  1.5736 -0.0526
 5193SOL    HW227216   3.206   2.357   9.398  2.3472  0.0826 -1.0432
 5194SOL     OW27217   0.321   3.776  16.058 -0.3026  0.0888  0.1864
 5194SOL    HW127218   0.229   3.794  16.040 -0.1620 -2.2332 -2.7062
 5194SOL    HW227219   0.361   3.798  15.974 -1.2110  0.4824 -0.1468
 5195SOL     OW27220   4.067   2.040  13.247 -0.3089  0.3256 -0.1566
 5195SOL    HW127221   4.156   2.009  13.228 -1.1177 -2.1994  0.1968
 5195SOL    HW227222   4.079   2.055  13.341 -3.2163 -0.0781  0.2896
 5196SOL     OW27223   4.121   0.627  14.398 -0.1201  0.0846 -0.0138
 5196SOL    HW127224   4.198   0.575  14.377 -1.0949 -1.2280 -0.3427
 5196SOL    HW227225   4.145   0.716  14.374 -0.1740  0.5594  1.7052
 5197SOL     OW27226   1.539   4.678   6.403 -0.1409 -0.3806 -1.0303
 5197SOL    HW127227   1.613   4.706   6.457 -0.5121 -3.3770  1.0069
 5197SOL    HW227228   1.469   4.738   6.429 -0.6367 -0.5434 -1.9989
 5198SOL     OW27229   2.514   2.612  15.574  0.3880  0.2097  0.3508
 5198SOL    HW127230   2.576   2.587  15.642 -2.2149 -2.6850  1.6789
 5198SOL    HW227231   2.551   2.694  15.541 -0.6911 -0.0288 -1.4417
 5199SOL     OW27232   4.103   3.324   8.080  0.2099 -0.6197  0.1639
 5199SOL    HW127233   4.035   3.258   8.092  1.5385 -1.7268  1.5957
 5199SOL    HW227234   4.165   3.271   8.028  1.8428 -0.0943  1.5850
 5200SOL     OW27235   3.465   0.448   8.238 -0.4078  0.5275 -0.2446
 5200SOL    HW127236   3.444   0.539   8.215  2.6274  1.7362  1.7190
 5200SOL    HW227237   3.561   0.447   8.244 -0.3505 -1.1302 -1.6071
 5201SOL     OW27238   3.347   1.498   5.248 -0.7241 -0.4600  0.2092
 5201SOL    HW127239   3.420   1.490   5.185  1.0353  0.5444  2.1167
 5201SOL    HW227240   3.272   1.472   5.195  0.2981 -2.3821 -0.3043
 5202SOL     OW27241   3.924   4.308  11.289 -0.0514  0.5685 -0.2087
 5202SOL    HW127242   3.876   4.234  11.327  1.0395 -0.8923 -1.6725
 5202SOL    HW227243   3.873   4.381  11.324  0.6962  0.7467  0.5070
 5203SOL     OW27244   1.648   3.658   6.689  0.4265 -0.1180  0.0442
 5203SOL    HW127245   1.597   3.596   6.636 -1.6258  2.9160 -1.5239
 5203SOL    HW227246   1.644   3.617   6.776 -1.4783  1.3388  0.6311
 5204SOL     OW27247   0.211   3.058   6.400  0.2407 -0.2196  0.0184
 5204SOL    HW127248   0.224   3.094   6.312 -1.6223  1.3685  0.3724
 5204SOL    HW227249   0.155   3.129   6.434 -0.2916  0.4041 -2.1685
 5205SOL     OW27250   3.132   3.791   7.680 -0.0371  0.2069  0.3607
 5205SOL    HW127251   3.181   3.709   7.688 -0.2452  0.1260  0.7838
 5205SOL    HW227252   3.141   3.826   7.768 -0.7948 -1.9779  1.3000
 5206SOL     OW27253   1.739   3.258   4.972  0.4375 -0.1767  0.0893
 5206SOL    HW127254   1.781   3.221   4.894  0.0814  0.5258 -0.4354
 5206SOL    HW227255   1.710   3.180   5.020 -1.0213  0.9198  0.9596
 5207SOL     OW27256   2.673   3.701   3.782 -0.4105  0.4783 -0.3490
 5207SOL    HW127257   2.601   3.723   3.723 -1.8264  1.9368  1.9007
 5207SOL    HW227258   2.626   3.659   3.855  1.9699 -0.8506  0.4074
 5208SOL     OW27259   1.508   3.842   2.117  0.0549  0.2327  0.1800
 5208SOL    HW127260   1.436   3.841   2.054 -0.6714 -0.7556  1.0277
 5208SOL    HW227261   1.483   3.917   2.171 -1.4362  0.2287 -0.5306
 5209SOL     OW27262   3.999   1.990  17.217  0.4037  0.7465 -0.6893
 5209SOL    HW127263   3.973   1.957  17.131  0.6972  0.6706 -0.7496
 5209SOL    HW227264   3.975   2.083  17.215 -1.7299  0.1364 -3.1102
 5210SOL     OW27265   2.355   1.942   6.070 -0.2854  0.2097 -0.2669
 5210SOL    HW127266   2.383   1.872   6.011  0.8134 -1.0401  1.7337
 5210SOL    HW227267   2.264   1.952   6.041 -0.6148 -1.7045  0.1020
 5211SOL     OW27268   4.047   0.924   7.630  0.1406 -0.2691 -0.4575
 5211SOL    HW127269   4.071   0.972   7.709 -0.3091 -0.5508 -0.1468
 5211SOL    HW227270   4.019   0.999   7.578 -2.2929  0.2358  1.5797
 5212SOL     OW27271   1.218   1.924   0.955 -0.2470 -0.1581 -0.0392
 5212SOL    HW127272   1.178   1.987   0.896 -0.2153  1.5598  1.7585
 5212SOL    HW227273   1.222   1.984   1.030 -0.7681 -1.3456  0.9245
 5213SOL     OW27274   3.491   1.801   6.867  0.0214 -0.6576 -0.2904
 5213SOL    HW127275   3.424   1.852   6.821  1.1388  0.6707 -0.4671
 5213SOL    HW227276   3.486   1.853   6.948 -2.4388  0.1778 -0.9830
 5214SOL     OW27277   0.800   4.270   4.478  0.1601  0.0887  0.3281
 5214SOL    HW127278   0.745   4.209   4.526  0.4912 -1.4312 -1.2186
 5214SOL    HW227279   0.845   4.299   4.557  0.2211 -1.9231  1.0261
 5215SOL     OW27280   1.014   1.146   7.535 -0.5014  0.4744  1.1920
 5215SOL    HW127281   0.997   1.220   7.478  0.6870  0.3104  0.6373
 5215SOL    HW227282   1.034   1.072   7.477 -0.3658  1.4925 -0.0440
 5216SOL     OW27283   0.906   3.857  12.805  0.3426  0.1652 -0.3147
 5216SOL    HW127284   0.964   3.792  12.766  0.5962  0.5941 -0.6483
 5216SOL    HW227285   0.867   3.912  12.737 -1.8891 -0.6660  0.2726
 5217SOL     OW27286   2.610   4.075   5.465  0.0806  0.6359  0.3334
 5217SOL    HW127287   2.704   4.065   5.448 -0.0849  0.4802 -0.5158
 5217SOL    HW227288   2.604   4.169   5.480  0.1235  0.5117  1.0952
 5218SOL     OW27289   0.062   2.550   1.570  0.1801  0.0509  0.2245
 5218SOL    HW127290   0.042   2.549   1.476  1.2243  0.8577 -0.0009
 5218SOL    HW227291   0.141   2.495   1.569  0.9209  1.0965  2.2454
 5219SOL     OW27292   2.825   3.958   5.186  0.2253  0.1555  0.4987
 5219SOL    HW127293   2.829   3.877   5.135 -0.0956  0.2518  0.3194
 5219SOL    HW227294   2.733   3.983   5.179 -0.0040 -0.9248 -0.4886
 5220SOL     OW27295   0.421   3.729   9.038  0.0509  0.1077 -0.0581
 5220SOL    HW127296   0.416   3.777   9.121 -0.7854  1.1779 -0.7340
 5220SOL    HW227297   0.408   3.804   8.981 -2.4202 -0.7000 -0.5319
 5221SOL     OW27298   4.298   1.636   2.660 -0.1414  0.1854 -0.2035
 5221SOL    HW127299   4.232   1.637   2.590 -0.3124 -2.1340 -0.0715
 5221SOL    HW227300   4.334   1.548   2.650  0.8888  0.4906  0.9146
 5222SOL     OW27301   2.383   1.154   5.653  0.1413 -0.1056 -0.2422
 5222SOL    HW127302   2.312   1.154   5.717 -0.6473  0.6884 -1.1152
 5222SOL    HW227303   2.337   1.139   5.571  1.8353  0.1269 -1.2251
 5223SOL     OW27304   1.759   2.287  10.324 -0.4226  0.4351 -0.2454
 5223SOL    HW127305   1.679   2.240  10.347  1.1509 -0.5649  3.2369
 5223SOL    HW227306   1.724   2.374  10.303  0.5183  0.1637 -2.9395
 5224SOL     OW27307   2.626   1.270  12.880  0.1542 -0.6611 -0.2788
 5224SOL    HW127308   2.703   1.327  12.889 -0.3931 -0.1104  0.9191
 5224SOL    HW227309   2.652   1.202  12.942 -0.3282  2.1687  3.0048
 5225SOL     OW27310   1.868   1.889   7.646 -0.3772  0.6404 -0.1820
 5225SOL    HW127311   1.815   1.966   7.665 -0.5774  1.1496 -2.8156
 5225SOL    HW227312   1.834   1.834   7.716 -0.3696  0.9639  0.0744
 5226SOL     OW27313   3.550   2.410   4.597 -0.3169  0.1366 -0.2398
 5226SOL    HW127314   3.496   2.456   4.533  1.1088  0.3838 -1.2652
 5226SOL    HW227315   3.502   2.328   4.588  1.1770 -0.7645  0.0814
 5227SOL     OW27316   1.086   4.711   7.387  0.2421  0.0769 -0.1233
 5227SOL    HW127317   1.115   0.049   7.437  1.2687 -2.2262  2.8187
 5227SOL    HW227318   1.074   0.012   7.301 -0.6069 -0.4228 -0.2428
 5228SOL     OW27319   0.069   1.910   8.705 -0.2777 -0.2246  0.3630
 5228SOL    HW127320   0.101   2.000   8.714 -0.6540 -0.0565  0.0783
 5228SOL    HW227321   0.037   1.885   8.792 -2.8194  0.4506 -0.3637
 5229SOL     OW27322   1.560   1.345  12.876  0.3844 -0.1295  0.2899
 5229SOL    HW127323   1.494   1.313  12.937  1.2498 -1.1282  0.7094
 5229SOL    HW227324   1.615   1.387  12.943  1.0665 -0.2658 -0.1857
 5230SOL     OW27325   3.211   1.755  17.396  0.4918  0.3290  0.2283
 5230SOL    HW127326   3.247   1.790  17.315 -0.5131  1.2556  0.1768
 5230SOL    HW227327   3.201   1.835  17.448 -1.4630 -1.4943  2.6286
 5231SOL     OW27328   0.113   0.938  11.859 -0.4955 -0.0072 -0.5819
 5231SOL    HW127329   0.117   1.004  11.790 -3.0182  2.9966  2.1075
 5231SOL    HW227330   0.169   0.871  11.819  0.8282  1.7225 -1.6288
 5232SOL     OW27331   1.121   3.503  14.762 -0.6329 -0.3800  0.4519
 5232SOL    HW127332   1.159   3.550  14.688  0.6350 -2.2206 -0.0891
 5232SOL    HW227333   1.178   3.533  14.833  0.1040 -0.4132 -0.1219
 5233SOL     OW27334   0.910   2.330   3.049  0.1363 -0.7484  0.3492
 5233SOL    HW127335   0.848   2.352   3.119  0.6578 -1.6519  1.0908
 5233SOL    HW227336   0.948   2.417   3.036 -1.1592 -0.1387  0.5627
 5234SOL     OW27337   3.273   1.291  10.564 -0.1958 -0.0079 -0.2884
 5234SOL    HW127338   3.354   1.255  10.602  0.5413  1.0301 -0.8835
 5234SOL    HW227339   3.310   1.379  10.562 -1.8417  0.7331  1.5802
 5235SOL     OW27340   3.574   4.514  17.381  0.4225 -0.2343 -0.0381
 5235SOL    HW127341   3.596   4.438  17.328  0.6982 -0.2246  0.0660
 5235SOL    HW227342   3.480   4.525  17.365  0.7972  1.0608 -1.3384
 5236SOL     OW27343   3.263   3.719   6.330  0.1116 -0.5679  0.3199
 5236SOL    HW127344   3.274   3.675   6.414 -0.2613 -0.2494  0.5362
 5236SOL    HW227345   3.290   3.660   6.260 -2.3176  0.8829 -1.8398
 5237SOL     OW27346   3.118   1.345   1.459  0.2195 -0.3428 -0.0355
 5237SOL    HW127347   3.115   1.249   1.448  0.5483 -0.2343 -1.0728
 5237SOL    HW227348   3.049   1.374   1.398 -0.1094 -1.3980 -0.1686
 5238SOL     OW27349   2.395   2.316   9.746  0.1393 -0.3946  0.6124
 5238SOL    HW127350   2.451   2.394   9.745  0.8215 -0.8324  2.6135
 5238SOL    HW227351   2.313   2.364   9.754  1.8835  3.0899 -2.8706
 5239SOL     OW27352   1.918   2.696  15.700 -0.0809 -0.1597 -0.3983
 5239SOL    HW127353   1.887   2.674  15.788  0.9877  2.2466  0.5506
 5239SOL    HW227354   2.012   2.711  15.690 -0.2792 -1.1000 -3.5803
 5240SOL     OW27355   0.639   3.675   6.421  0.1026 -0.1608 -0.1558
 5240SOL    HW127356   0.708   3.687   6.486  0.8768  1.0574 -1.2060
 5240SOL    HW227357   0.700   3.649   6.352  0.5470 -2.1573  0.9886
 5241SOL     OW27358   1.492   2.213   3.462  0.0338 -0.0337  0.4278
 5241SOL    HW127359   1.561   2.191   3.526 -1.7431 -2.1115  1.5963
 5241SOL    HW227360   1.479   2.131   3.416  0.3991 -0.5321  1.2034
 5242SOL     OW27361   3.201   2.783   7.641  0.1364  0.0009  0.6994
 5242SOL    HW127362   3.196   2.688   7.633  1.4585 -0.0598  0.5158
 5242SOL    HW227363   3.290   2.790   7.605 -0.1887 -1.2731 -0.3475
 5243SOL     OW27364   2.981   0.967   9.745 -0.2587 -0.8455 -0.0044
 5243SOL    HW127365   2.954   0.916   9.669  1.9260 -1.8632 -0.0718
 5243SOL    HW227366   2.895   0.972   9.787  0.3163  2.0747  0.8117
 5244SOL     OW27367   2.960   0.202   8.103 -0.3039  0.3665 -0.0561
 5244SOL    HW127368   3.024   0.131   8.112 -0.3711  0.7767  3.7125
 5244SOL    HW227369   2.923   0.200   8.192 -2.1375 -1.9099 -0.8631
 5245SOL     OW27370   0.589   1.546  17.501  0.2445  0.5611 -0.5480
 5245SOL    HW127371   0.596   1.520  17.592 -1.4155  0.5779 -0.4117
 5245SOL    HW227372   0.641   1.626  17.487 -3.3745  2.9846 -0.2511
 5246SOL     OW27373   4.553   2.961   3.403  0.5423 -0.3096 -0.2055
 5246SOL    HW127374   4.535   2.878   3.360 -0.2422  0.2053 -0.8677
 5246SOL    HW227375   4.540   3.024   3.332 -0.6581  0.1683  0.4359
 5247SOL     OW27376   1.403   3.504   8.036 -0.1920 -0.2429  0.0205
 5247SOL    HW127377   1.318   3.464   8.021  0.4747 -1.1138 -1.3557
 5247SOL    HW227378   1.410   3.552   7.954  0.7278 -0.0209  0.2234
 5248SOL     OW27379   0.955   1.649   5.878 -0.7179 -0.7550  0.0050
 5248SOL    HW127380   0.993   1.676   5.961  2.1538 -0.8229 -1.2788
 5248SOL    HW227381   0.937   1.556   5.895 -0.5289 -0.7963 -0.0242
 5249SOL     OW27382   0.325   4.408  13.196 -0.1020  0.5727  0.8495
 5249SOL    HW127383   0.300   4.459  13.118  0.8751 -0.6719 -0.2875
 5249SOL    HW227384   0.239   4.383  13.230  0.3356 -0.5291  1.1213
 5250SOL     OW27385   1.019   3.587   8.400  0.3797 -0.1708  0.4607
 5250SOL    HW127386   1.070   3.607   8.478  1.7617 -2.3175  0.1045
 5250SOL    HW227387   1.054   3.510   8.355  2.7244  0.3337  1.4485
 5251SOL     OW27388   3.099   2.220   8.574  0.3676 -0.2155  0.0554
 5251SOL    HW127389   3.118   2.271   8.495  0.0626  1.4689  1.0666
 5251SOL    HW227390   3.113   2.287   8.641  2.2923  0.3246 -0.9032
 5252SOL     OW27391   2.563   3.258  10.476  0.1960 -0.6929  0.5233
 5252SOL    HW127392   2.659   3.260  10.475  0.1510  1.1490  0.5909
 5252SOL    HW227393   2.524   3.344  10.465  0.1144 -0.7389  0.4515
 5253SOL     OW27394   1.413   3.710   7.437 -0.3158 -0.3146  0.0443
 5253SOL    HW127395   1.482   3.776   7.448  0.2614 -1.3144  2.3867
 5253SOL    HW227396   1.336   3.748   7.480 -1.7684 -0.5473 -2.3598
 5254SOL     OW27397   3.453   3.315  17.102  0.1429 -0.3419  0.0489
 5254SOL    HW127398   3.429   3.402  17.133  2.2454  0.2995 -0.1172
 5254SOL    HW227399   3.548   3.321  17.098  0.2505 -1.6242  0.6765
 5255SOL     OW27400   3.644   1.969   6.715 -0.0242  0.5861  0.3942
 5255SOL    HW127401   3.601   2.022   6.781 -1.1737  0.9433 -0.6345
 5255SOL    HW227402   3.636   1.880   6.750  0.0695  1.2370  2.0661
 5256SOL     OW27403   1.476   2.901  14.138 -0.5930 -0.1184  0.4840
 5256SOL    HW127404   1.443   2.823  14.183  2.0878 -0.4465  1.8557
 5256SOL    HW227405   1.402   2.934  14.087 -0.9567  0.3955  1.3555
 5257SOL     OW27406   0.677   0.089   6.744 -0.2439  0.5617  0.6766
 5257SOL    HW127407   0.642   4.739   6.744 -1.9140  1.2154 -0.6422
 5257SOL    HW227408   0.769   0.073   6.766 -0.5488  1.8219  2.9470
 5258SOL     OW27409   3.990   2.916  12.936  0.2149  0.1433  0.4922
 5258SOL    HW127410   4.032   2.993  12.972  1.4375 -1.3859  2.3458
 5258SOL    HW227411   3.911   2.923  12.990 -1.5105  0.2701 -2.0144
 5259SOL     OW27412   4.615   4.180   8.401 -0.0125 -0.3369  0.0185
 5259SOL    HW127413   4.547   4.246   8.413  1.2512  1.0411 -0.3066
 5259SOL    HW227414   4.572   4.097   8.420  1.1667 -1.0647 -0.4794
 5260SOL     OW27415   3.649   3.917   8.945 -0.6578 -0.4573  0.0691
 5260SOL    HW127416   3.615   3.850   8.885  0.4527  1.5580 -2.8224
 5260SOL    HW227417   3.656   3.996   8.892  2.2198 -0.2320  0.7870
 5261SOL     OW27418   0.361   3.639  14.986  0.2948  0.0192 -0.2823
 5261SOL    HW127419   0.445   3.612  15.022 -0.5229 -2.3512 -0.1782
 5261SOL    HW227420   0.306   3.570  15.024 -1.2182  1.1691 -0.3535
 5262SOL     OW27421   1.103   1.956   0.212  0.3175  0.2548 -0.1303
 5262SOL    HW127422   1.129   2.027   0.271 -0.0934 -1.6413  2.3349
 5262SOL    HW227423   1.057   1.899   0.273 -1.1965  0.9492 -0.6330
 5263SOL     OW27424   1.052   0.081   7.130 -0.4503  0.7784 -0.1157
 5263SOL    HW127425   1.059   0.163   7.081 -1.7943 -0.9971 -3.3031
 5263SOL    HW227426   0.971   0.053   7.086  0.0710  0.9520 -1.1884
 5264SOL     OW27427   4.071   3.356  16.959  0.1255  0.2876  0.2171
 5264SOL    HW127428   4.120   3.275  16.942  1.7507  1.0877  1.0528
 5264SOL    HW227429   4.098   3.392  17.044  0.4977  2.2413 -0.7502
 5265SOL     OW27430   1.244   4.149   6.218  0.1740 -0.2763 -0.2467
 5265SOL    HW127431   1.239   4.239   6.251 -0.7765 -0.7525  0.9188
 5265SOL    HW227432   1.292   4.107   6.289 -1.6840 -1.6111  0.2146
 5266SOL     OW27433   0.150   4.480   3.513  0.0443 -0.4604 -0.1677
 5266SOL    HW127434   0.155   4.511   3.603  0.5877 -0.6457 -0.1369
 5266SOL    HW227435   0.220   4.519   3.460  0.0879  1.5543  1.3765
 5267SOL     OW27436   4.088   0.464   0.194 -0.0436  0.1165 -0.0029
 5267SOL    HW127437   4.177   0.437   0.174  0.3642  1.3287  0.1649
 5267SOL    HW227438   4.054   0.484   0.107  2.8945 -2.5320 -1.7608
 5268SOL     OW27439   3.039   0.990   1.859 -0.1422 -0.1490  0.4723
 5268SOL    HW127440   3.008   1.018   1.772  0.8323 -0.8448 -0.1002
 5268SOL    HW227441   3.083   1.072   1.878  1.5819 -0.7450 -0.9956
 5269SOL     OW27442   3.965   2.954   2.729 -0.2256 -0.4083  0.2272
 5269SOL    HW127443   3.874   2.948   2.701 -0.1984 -0.3571  0.1304
 5269SOL    HW227444   3.980   3.048   2.737  1.4991 -0.9002  2.9163
 5270SOL     OW27445   1.726   1.147  13.839  0.3096 -0.4697 -0.4881
 5270SOL    HW127446   1.756   1.195  13.916 -0.9425  1.1532 -1.0321
 5270SOL    HW227447   1.682   1.070  13.875  0.5845 -0.0851  0.6835
 5271SOL     OW27448   4.163   2.235   6.278 -0.3514  0.6663 -0.5367
 5271SOL    HW127449   4.178   2.314   6.330 -0.1192  0.4074 -0.2092
 5271SOL    HW227450   4.106   2.184   6.336 -0.2450  1.8177  0.5781
 5272SOL     OW27451   4.078   4.370   3.322  0.1294 -0.8224 -0.2158
 5272SOL    HW127452   4.155   4.418   3.353  0.9870 -2.0503 -0.4322
 5272SOL    HW227453   4.038   4.350   3.406 -1.4017  2.4472 -0.1872
 5273SOL     OW27454   0.021   2.013   4.889 -0.0382  0.1305 -0.0888
 5273SOL    HW127455   0.015   2.000   4.794 -2.5245 -0.0632  0.0769
 5273SOL    HW227456   4.702   1.947   4.927 -1.2186  0.0114 -2.0643
 5274SOL     OW27457   2.689   1.710   8.463 -0.4391  0.2690  0.1557
 5274SOL    HW127458   2.625   1.778   8.443 -0.9385 -0.4110 -0.5594
 5274SOL    HW227459   2.758   1.721   8.397 -1.7768 -3.1873 -1.7764
 5275SOL     OW27460   4.178   1.880   8.727  0.1083 -0.5431 -0.4584
 5275SOL    HW127461   4.194   1.971   8.702  1.0617 -0.8940 -1.1048
 5275SOL    HW227462   4.252   1.828   8.698  0.0968 -0.5781 -0.4247
 5276SOL     OW27463   0.166   1.375   7.799 -0.5902  0.6079  0.1694
 5276SOL    HW127464   0.187   1.436   7.870 -1.0126 -2.1563  2.6529
 5276SOL    HW227465   0.114   1.432   7.742 -0.4729 -0.3714 -0.9086
 5277SOL     OW27466   3.054   3.214   5.039  0.7669 -0.4209 -0.8720
 5277SOL    HW127467   3.043   3.179   4.950 -2.3913 -0.7781 -0.3419
 5277SOL    HW227468   3.063   3.133   5.089 -0.6083  0.3798  0.6630
 5278SOL     OW27469   3.125   3.438   7.542 -0.2785  0.5630  0.1177
 5278SOL    HW127470   3.132   3.361   7.485 -2.0359  1.0161 -0.6878
 5278SOL    HW227471   3.196   3.493   7.509  2.0179 -2.0774  0.5750
 5279SOL     OW27472   4.313   1.464  15.563  0.1882 -0.6061 -0.1051
 5279SOL    HW127473   4.227   1.473  15.521 -0.5668 -3.9991  0.7681
 5279SOL    HW227474   4.323   1.369  15.564  1.3717 -0.4985 -1.2309
 5280SOL     OW27475   2.898   2.670  12.013  0.0575  0.2170 -0.2885
 5280SOL    HW127476   2.960   2.736  11.982  2.1763 -0.6210  2.2254
 5280SOL    HW227477   2.946   2.618  12.077  1.3787  1.0657 -0.5929
 5281SOL     OW27478   2.124   1.834  11.931 -0.1937 -0.3303  0.3711
 5281SOL    HW127479   2.102   1.887  12.009 -0.6261  0.5531 -0.3532
 5281SOL    HW227480   2.044   1.834  11.879  1.0086  1.6019 -1.4453
 5282SOL     OW27481   1.347   2.264   2.340  0.0910  0.3174 -0.2600
 5282SOL    HW127482   1.313   2.253   2.252  1.0226 -1.9104 -0.3267
 5282SOL    HW227483   1.396   2.188   2.372 -0.6225 -0.3010 -0.6525
 5283SOL     OW27484   2.206   4.113   6.199 -0.1888 -0.1492  0.1510
 5283SOL    HW127485   2.166   4.063   6.128 -0.6630 -0.5554  0.6998
 5283SOL    HW227486   2.214   4.052   6.272 -0.4739 -0.2066  0.1351
 5284SOL     OW27487   3.564   2.307  15.456 -0.0750  0.4552  0.2697
 5284SOL    HW127488   3.587   2.394  15.425  1.1315  1.1921  3.2593
 5284SOL    HW227489   3.534   2.306  15.547 -1.1055 -1.0180 -0.0684
 5285SOL     OW27490   4.214   4.388  12.533 -0.4018  0.4172  0.3405
 5285SOL    HW127491   4.170   4.343  12.605 -2.8936  2.8100  0.3069
 5285SOL    HW227492   4.183   4.475  12.558 -1.3180  0.5509 -1.2824
 5286SOL     OW27493   3.213   4.444   3.089 -0.1852 -0.0310  0.1104
 5286SOL    HW127494   3.308   4.456   3.088 -0.3185  1.1311  2.6013
 5286SOL    HW227495   3.192   4.352   3.072  1.2822 -0.5770  1.2192
 5287SOL     OW27496   0.598   3.135   0.438  0.3996 -0.0932 -0.8813
 5287SOL    HW127497   0.640   3.050   0.429 -0.0549 -0.3809 -0.2569
 5287SOL    HW227498   0.592   3.166   0.347 -3.4011  0.0270 -0.5974
 5288SOL     OW27499   1.636   0.532   3.396  0.2081 -0.2021 -0.1140
 5288SOL    HW127500   1.663   0.598   3.332 -0.1824 -2.4624 -2.5948
 5288SOL    HW227501   1.707   0.468   3.394  0.0588 -0.4081  0.9830
 5289SOL     OW27502   4.514   3.424   8.062  0.7140  0.0833 -0.0738
 5289SOL    HW127503   4.580   3.355   8.055  0.7620 -0.0450  1.7012
 5289SOL    HW227504   4.457   3.405   7.987 -0.7985  1.3259  0.7616
 5290SOL     OW27505   3.423   3.835   7.570  0.2720  0.6267 -0.0910
 5290SOL    HW127506   3.371   3.808   7.645 -1.4465  0.3484 -1.3896
 5290SOL    HW227507   3.516   3.837   7.591  0.0395 -0.5888  0.9949
 5291SOL     OW27508   1.385   4.322   6.064 -0.0548 -0.3544  0.1679
 5291SOL    HW127509   1.448   4.354   5.999  0.8820 -1.4346  0.5359
 5291SOL    HW227510   1.427   4.241   6.091 -0.0132 -0.2950  0.2803
 5292SOL     OW27511   1.567   3.297   6.344 -0.3653  0.0453 -0.0187
 5292SOL    HW127512   1.600   3.371   6.294  1.5822 -1.5319 -1.1002
 5292SOL    HW227513   1.521   3.345   6.412  1.1664 -0.4160  1.3411
 5293SOL     OW27514   2.110   3.842   5.525  0.4469  0.5540  0.5228
 5293SOL    HW127515   2.056   3.780   5.476 -0.3563  1.0249  0.8027
 5293SOL    HW227516   2.150   3.785   5.591 -0.0601 -0.1293  0.2420
 5294SOL     OW27517   4.602   0.329   2.063 -0.4088  0.8291  0.2338
 5294SOL    HW127518   4.643   0.409   2.031  0.1728  0.5708  0.3410
 5294SOL    HW227519   4.672   0.282   2.109  1.4268  2.0504 -1.3018
 5295SOL     OW27520   3.501   4.304   5.245  0.9922 -0.2983  0.0991
 5295SOL    HW127521   3.573   4.367   5.245  0.4927  0.2603 -2.0048
 5295SOL    HW227522   3.483   4.315   5.338  0.1597  2.1247 -0.3431
 5296SOL     OW27523   2.698   1.127   7.856  0.0697  0.1002 -0.2232
 5296SOL    HW127524   2.738   1.088   7.779  0.9357  0.8351 -0.1516
 5296SOL    HW227525   2.737   1.215   7.854 -0.2963  0.3003  0.9337
 5297SOL     OW27526   3.150   3.132  16.821 -0.3906  0.1366  0.1315
 5297SOL    HW127527   3.092   3.202  16.854  0.3684  1.8633 -2.2041
 5297SOL    HW227528   3.205   3.171  16.753 -1.0498 -1.0676 -1.0886
 5298SOL     OW27529   3.140   2.164   3.611 -0.3875 -0.1055  0.2095
 5298SOL    HW127530   3.220   2.112   3.620 -0.3258  0.0721  0.6913
 5298SOL    HW227531   3.169   2.254   3.622  0.3447 -0.3280  0.1274
 5299SOL     OW27532   1.107   3.662   2.481  0.4956  0.2839 -0.4933
 5299SOL    HW127533   1.021   3.629   2.457 -1.2387  4.0046  0.5879
 5299SOL    HW227534   1.163   3.623   2.414 -3.5725 -0.5203 -3.4099
 5300SOL     OW27535   4.140   3.077   8.587 -0.1076  0.3295 -0.2979
 5300SOL    HW127536   4.096   2.992   8.585  1.0851 -0.2986  1.0341
 5300SOL    HW227537   4.081   3.141   8.628 -0.0064  0.2899 -0.0939
 5301SOL     OW27538   4.040   3.217   2.649  0.0325 -0.0113  0.6016
 5301SOL    HW127539   4.084   3.288   2.602 -1.1390  1.1501  1.2792
 5301SOL    HW227540   4.034   3.268   2.730 -1.0317  1.4286 -0.3869
 5302SOL     OW27541   1.628   4.368  10.535  0.3988 -0.1046  0.0881
 5302SOL    HW127542   1.714   4.325  10.537 -1.0439 -2.9476  0.3608
 5302SOL    HW227543   1.663   4.457  10.530  0.2025 -0.0026  0.5711
 5303SOL     OW27544   2.062   1.531   5.416 -0.3420 -0.2798 -0.0427
 5303SOL    HW127545   2.157   1.534   5.422 -0.3726 -1.1099  0.7741
 5303SOL    HW227546   2.033   1.559   5.503 -1.2623 -0.3461 -0.3188
 5304SOL     OW27547   4.665   0.653   5.472  0.1898  0.3679 -0.4883
 5304SOL    HW127548   4.718   0.662   5.552 -1.1067  1.5301  0.2483
 5304SOL    HW227549   4.672   0.558   5.471 -0.6890  0.3152 -1.6735
 5305SOL     OW27550   1.869   2.997   2.274 -0.3729  0.3677  0.2102
 5305SOL    HW127551   1.837   2.995   2.364  0.5370 -2.3066  0.4962
 5305SOL    HW227552   1.843   2.914   2.234 -2.6043  2.8142 -3.3915
 5306SOL     OW27553   1.022   0.384   2.806 -0.0290 -0.6175  0.1233
 5306SOL    HW127554   1.112   0.382   2.840 -0.2473  0.1225  0.7563
 5306SOL    HW227555   0.966   0.381   2.884 -0.5309 -0.0204 -0.2172
 5307SOL     OW27556   2.467   2.691   5.709 -0.2769  0.2138  0.0555
 5307SOL    HW127557   2.452   2.674   5.802  1.6514  1.9645  0.6880
 5307SOL    HW227558   2.555   2.726   5.724 -0.0777 -0.4695  0.4522
 5308SOL     OW27559   0.898   2.796  13.705 -0.1489  0.2564  0.0053
 5308SOL    HW127560   0.874   2.718  13.657 -1.1910 -0.0575  1.0325
 5308SOL    HW227561   0.964   2.767  13.768  0.1568  0.5965 -0.1593
 5309SOL     OW27562   2.092   0.627   7.817 -0.1746 -0.5124 -0.2440
 5309SOL    HW127563   2.161   0.608   7.753  0.4987  2.2103 -0.2983
 5309SOL    HW227564   2.138   0.605   7.898 -1.2659  1.2570  0.8494
 5310SOL     OW27565   1.314   1.554   9.812 -0.2035 -0.4672  0.0157
 5310SOL    HW127566   1.285   1.479   9.759  1.5250 -2.2619  1.5982
 5310SOL    HW227567   1.349   1.620   9.752 -1.4210  0.2795  0.1279
 5311SOL     OW27568   0.464   0.748   3.319 -0.3204 -0.4807  0.3942
 5311SOL    HW127569   0.473   0.663   3.276 -0.2712  0.6885 -1.9098
 5311SOL    HW227570   0.390   0.790   3.275  0.4709  2.5134  1.8909
 5312SOL     OW27571   3.632   0.671  13.016 -0.4188 -0.3580  0.2857
 5312SOL    HW127572   3.678   0.608  12.961 -0.2273  0.0504 -0.0187
 5312SOL    HW227573   3.659   0.749  12.967 -0.5553  0.2474  1.1587
 5313SOL     OW27574   0.098   3.298   2.147 -0.1212  0.0410  0.6179
 5313SOL    HW127575   0.044   3.376   2.137 -0.8930 -0.6000 -0.2630
 5313SOL    HW227576   0.114   3.283   2.054 -2.2211 -0.0035  0.2744
 5314SOL     OW27577   0.856   0.441   7.213 -0.4407 -0.2359  0.6650
 5314SOL    HW127578   0.925   0.502   7.238 -1.7827  2.2382 -1.6050
 5314SOL    HW227579   0.887   0.364   7.261  1.6138  0.4681  0.4731
 5315SOL     OW27580   0.129   0.367  16.519  0.0494 -0.1018  0.3094
 5315SOL    HW127581   0.046   0.384  16.474 -1.0277 -1.7622  1.6964
 5315SOL    HW227582   0.193   0.357  16.449 -0.8921 -1.4633 -0.3523
 5316SOL     OW27583   0.903   0.100  11.368 -0.0399  0.2811  0.3248
 5316SOL    HW127584   0.950   0.029  11.412  1.1668  0.8875  0.0043
 5316SOL    HW227585   0.923   0.177  11.421  0.5734 -1.0189  1.9955
 5317SOL     OW27586   4.281   3.194   3.456  0.3779 -0.8229  0.5914
 5317SOL    HW127587   4.195   3.161   3.428  0.4780 -0.7624  0.2132
 5317SOL    HW227588   4.291   3.151   3.541  0.5491 -0.1536  0.9069
 5318SOL     OW27589   0.410   0.836  13.617 -0.0079  0.4895  0.0513
 5318SOL    HW127590   0.339   0.865  13.674 -3.6287 -1.0956 -3.6174
 5318SOL    HW227591   0.479   0.881  13.665  0.1096  0.5873 -0.2075
 5319SOL     OW27592   0.817   2.931   3.797  0.1369 -0.4417  0.1726
 5319SOL    HW127593   0.843   3.013   3.839  1.1020  0.4539 -2.1879
 5319SOL    HW227594   0.895   2.879   3.813 -0.3018 -1.1431  0.0274
 5320SOL     OW27595   0.180   0.672   3.482 -0.4523  0.4371 -0.1167
 5320SOL    HW127596   0.275   0.684   3.484 -0.1709 -1.9027  0.6539
 5320SOL    HW227597   0.170   0.653   3.575 -0.4288 -1.4779 -0.5093
 5321SOL     OW27598   4.512   0.409   1.724 -0.2792  0.1123  0.2473
 5321SOL    HW127599   4.454   0.462   1.669  2.0178  1.4244 -0.9049
 5321SOL    HW227600   4.599   0.444   1.704  0.5885 -0.9874  2.0193
 5322SOL     OW27601   0.341   2.309   2.602 -0.0526  0.1556  0.3921
 5322SOL    HW127602   0.395   2.231   2.588  1.3118  1.1322  0.1313
 5322SOL    HW227603   0.366   2.326   2.693 -2.8700  0.8782  1.0061
 5323SOL     OW27604   3.002   4.211   2.063 -0.1629 -0.0435  0.3932
 5323SOL    HW127605   3.061   4.136   2.073  0.4472  0.2955 -0.6825
 5323SOL    HW227606   2.920   4.167   2.042  1.2092 -1.1107 -2.7817
 5324SOL     OW27607   0.712   2.648  14.089 -0.6671 -0.2587 -0.3258
 5324SOL    HW127608   0.738   2.605  14.008 -0.4367 -0.9684  0.1284
 5324SOL    HW227609   0.787   2.640  14.148 -0.2389 -1.9247 -1.1036
 5325SOL     OW27610   2.535   1.314  10.103  0.1174  0.8644 -0.2696
 5325SOL    HW127611   2.504   1.335  10.191  1.2047 -0.2643  0.3923
 5325SOL    HW227612   2.557   1.401  10.070 -0.3563  1.2999  0.5751
 5326SOL     OW27613   4.515   0.091   2.558  0.1091  0.0912 -0.0830
 5326SOL    HW127614   4.508   0.136   2.642 -3.9994  0.7561 -0.7707
 5326SOL    HW227615   4.591   0.036   2.576  0.5749  1.1974  1.2562
 5327SOL     OW27616   4.000   3.440   0.696  0.0440 -0.6550 -0.6189
 5327SOL    HW127617   4.066   3.397   0.640  1.5515 -1.5243  1.8487
 5327SOL    HW227618   4.016   3.416   0.787  2.7125 -0.8714 -1.1361
 5328SOL     OW27619   4.334   4.346   7.107  0.6550  0.0451  0.2734
 5328SOL    HW127620   4.256   4.376   7.153 -0.4604 -2.6924  0.1648
 5328SOL    HW227621   4.397   4.350   7.178  2.0961  1.4998 -1.0702
 5329SOL     OW27622   2.773   3.304   5.081  0.1528  0.6154  0.0720
 5329SOL    HW127623   2.731   3.218   5.067  1.0053  0.1876  0.1461
 5329SOL    HW227624   2.865   3.282   5.066 -0.0134 -1.1495  1.5271
 5330SOL     OW27625   3.958   0.623   6.003  0.1946 -0.7670  0.2689
 5330SOL    HW127626   3.930   0.570   6.077 -0.5486 -0.5896  0.1172
 5330SOL    HW227627   3.932   0.568   5.929  1.4809 -0.2361 -0.5857
 5331SOL     OW27628   0.150   1.177   5.147 -0.0609 -0.3706 -0.1427
 5331SOL    HW127629   0.061   1.211   5.135  1.1111  3.1100  0.8447
 5331SOL    HW227630   0.176   1.153   5.058  1.6248  1.5769 -0.1846
 5332SOL     OW27631   2.259   3.120   7.868  0.1932  0.0952  0.5490
 5332SOL    HW127632   2.243   3.068   7.946  2.0739  0.8660  1.4581
 5332SOL    HW227633   2.265   3.198   7.924 -2.2257  0.3536  0.4691
 5333SOL     OW27634   2.314   2.095   8.372  0.2123 -0.6235 -0.0860
 5333SOL    HW127635   2.257   2.122   8.300 -1.4470 -1.3234  0.9646
 5333SOL    HW227636   2.324   2.177   8.420  2.2214 -1.1883  0.4562
 5334SOL     OW27637   2.714   2.038   9.940  0.6551 -0.1864 -0.4455
 5334SOL    HW127638   2.758   2.003  10.018  0.5547 -0.6028 -0.5777
 5334SOL    HW227639   2.759   2.122   9.950  1.0407 -0.3593 -0.7257
 5335SOL     OW27640   0.748   2.247   7.523  0.0950  0.2024  0.3810
 5335SOL    HW127641   0.683   2.182   7.499 -1.7886  0.8278  3.7836
 5335SOL    HW227642   0.817   2.187   7.550 -0.1043 -0.0305  0.3634
 5336SOL     OW27643   1.158   2.402   2.451  0.3060  0.0010  0.0273
 5336SOL    HW127644   1.237   2.351   2.434 -1.6969 -2.7971 -0.8145
 5336SOL    HW227645   1.176   2.453   2.530  0.8684  0.0542 -0.1385
 5337SOL     OW27646   4.659   3.889   8.168 -0.4695  0.5496  0.0141
 5337SOL    HW127647   4.564   3.905   8.168 -0.1278  2.5922 -0.4828
 5337SOL    HW227648   4.680   3.873   8.260 -3.4920  1.0192  0.8050
 5338SOL     OW27649   1.218   2.506   3.892  0.3099  0.1547  0.3372
 5338SOL    HW127650   1.146   2.487   3.952  0.1605  0.8928  0.3829
 5338SOL    HW227651   1.239   2.416   3.867  0.7225  0.1465  0.7198
 5339SOL     OW27652   3.028   3.493   1.835  0.3461 -0.3809 -0.6278
 5339SOL    HW127653   2.933   3.479   1.836  0.4070 -0.7545 -0.1047
 5339SOL    HW227654   3.056   3.402   1.824  2.2784  0.0986  0.3696
 5340SOL     OW27655   0.035   4.560   7.541  0.1417 -0.3512 -0.5403
 5340SOL    HW127656   0.123   4.549   7.577  0.1246  0.6507 -0.1827
 5340SOL    HW227657   0.058   4.577   7.450  0.8499  1.6645  0.0098
 5341SOL     OW27658   1.847   1.588  12.513 -0.0384 -0.0872 -0.0208
 5341SOL    HW127659   1.812   1.646  12.581 -1.3820 -0.9864  0.0368
 5341SOL    HW227660   1.919   1.637  12.472 -1.9490  1.6371 -1.3140
 5342SOL     OW27661   3.605   4.037   7.924  0.2515 -0.5024 -0.6345
 5342SOL    HW127662   3.675   4.046   7.989 -1.1023 -1.1358  0.9176
 5342SOL    HW227663   3.573   4.127   7.913  0.1645 -0.2657  1.5813
 5343SOL     OW27664   1.802   1.615   0.346  0.4627 -0.9951  0.0312
 5343SOL    HW127665   1.877   1.577   0.393  0.4756  1.4491  1.9548
 5343SOL    HW227666   1.743   1.540   0.354 -1.5567  0.3714 -2.1400
 5344SOL     OW27667   0.980   1.488   4.828  0.4213 -0.4404 -0.7670
 5344SOL    HW127668   0.943   1.509   4.743  1.3959 -1.8092 -1.5194
 5344SOL    HW227669   1.032   1.568   4.835 -0.1658  0.0216 -1.7354
 5345SOL     OW27670   3.985   2.827  17.516  0.1401  0.4154 -0.2306
 5345SOL    HW127671   4.014   2.743  17.481 -1.5273 -0.8496  1.3837
 5345SOL    HW227672   3.982   2.888  17.442 -0.5671  0.5383 -0.1087
 5346SOL     OW27673   4.383   3.011   8.663  0.3085  0.5312 -0.0351
 5346SOL    HW127674   4.407   3.100   8.689 -1.3704  0.8006  0.6508
 5346SOL    HW227675   4.294   3.023   8.629  0.4188 -1.2743 -0.9565
 5347SOL     OW27676   1.870   0.130   7.171 -0.8632 -0.3086 -0.0805
 5347SOL    HW127677   1.871   0.196   7.241 -1.5026 -1.1374  0.7069
 5347SOL    HW227678   1.775   0.118   7.171 -0.7804 -0.9179 -0.4214
 5348SOL     OW27679   3.084   4.653   7.308 -0.0494 -0.2813  0.1081
 5348SOL    HW127680   3.143   4.693   7.372  0.4385  0.0415 -0.5418
 5348SOL    HW227681   3.017   4.720   7.294  0.0778 -0.1452  0.1515
 5349SOL     OW27682   0.157   0.616   7.050 -0.2352 -0.3731 -0.1274
 5349SOL    HW127683   0.176   0.704   7.081 -1.5041 -0.7291  1.6716
 5349SOL    HW227684   0.126   0.581   7.133 -1.3276  0.7924 -0.0422
 5350SOL     OW27685   0.351   3.716   2.542  0.0634 -0.0606  0.2043
 5350SOL    HW127686   0.287   3.649   2.565 -0.8995  0.2570 -1.4978
 5350SOL    HW227687   0.288   3.788   2.532  0.0194 -0.0151  0.8291
 5351SOL     OW27688   4.646   0.337  16.174 -0.6934  0.5656 -0.1345
 5351SOL    HW127689   4.727   0.313  16.129 -1.7971 -2.9785 -0.2983
 5351SOL    HW227690   4.654   0.432  16.175 -0.0230  0.4986  1.7885
 5352SOL     OW27691   3.584   3.559  12.873  0.2236 -0.4460  0.0894
 5352SOL    HW127692   3.580   3.464  12.858  0.5364 -0.2278 -1.4327
 5352SOL    HW227693   3.574   3.567  12.968 -0.9274  0.7607 -0.1303
 5353SOL     OW27694   0.853   0.658   7.471 -0.5999  0.0135 -0.2135
 5353SOL    HW127695   0.790   0.588   7.484 -0.2731 -0.6858 -2.3472
 5353SOL    HW227696   0.797   0.729   7.503  1.5170  0.8110  1.7208
 5354SOL     OW27697   1.779   1.655   9.038 -0.5065 -0.4480  0.1014
 5354SOL    HW127698   1.786   1.735   9.091 -0.7203  0.1467 -0.7808
 5354SOL    HW227699   1.695   1.669   8.994  1.1203  2.1037 -2.1609
 5355SOL     OW27700   2.632   0.458   2.640  0.6431  0.5684  0.2817
 5355SOL    HW127701   2.684   0.504   2.705 -1.1498 -0.0672  2.1694
 5355SOL    HW227702   2.550   0.476   2.685 -1.6326  0.2589 -3.7488
 5356SOL     OW27703   3.828   2.032  17.567 -1.0801  0.2119 -0.6636
 5356SOL    HW127704   3.808   1.981  17.489 -0.5636  0.9951 -1.3067
 5356SOL    HW227705   3.833   1.964  17.634  0.1617  1.4608  0.5141
 5357SOL     OW27706   1.355   2.974   8.833  0.5219 -0.3133  0.3391
 5357SOL    HW127707   1.292   3.033   8.873  0.3573 -0.1540 -0.1577
 5357SOL    HW227708   1.373   3.011   8.747 -0.0040 -1.0232 -0.0830
 5358SOL     OW27709   4.661   2.821   2.325  0.8652  0.7423 -0.1871
 5358SOL    HW127710   0.007   2.782   2.345  0.3734 -0.3505 -0.2498
 5358SOL    HW227711   4.678   2.915   2.334 -0.7019  0.8455  1.9540
 5359SOL     OW27712   1.554   4.097   2.829  0.1007 -0.1677 -0.0904
 5359SOL    HW127713   1.512   4.155   2.892  1.6715 -1.8217  2.5267
 5359SOL    HW227714   1.519   4.015   2.864  0.5077 -0.1661  0.3277
 5360SOL     OW27715   0.212   3.157  15.127  0.4462  0.1528 -0.1534
 5360SOL    HW127716   0.231   3.183  15.037 -4.2295 -1.2897 -1.5504
 5360SOL    HW227717   0.136   3.210  15.151  0.2621 -0.9993  1.8680
 5361SOL     OW27718   3.992   3.250   8.737  0.9845 -0.0671  0.3359
 5361SOL    HW127719   4.047   3.294   8.802  0.5167  0.6181  0.2723
 5361SOL    HW227720   3.943   3.326   8.704  0.1946  0.0803  1.8514
 5362SOL     OW27721   1.768   0.713  11.192  0.0346 -0.4616  0.0674
 5362SOL    HW127722   1.862   0.725  11.193 -0.2090  1.3318  0.5336
 5362SOL    HW227723   1.742   0.742  11.104  0.2330  0.4692  0.3196
 5363SOL     OW27724   0.435   4.352   1.510 -0.2061 -0.4232  0.0851
 5363SOL    HW127725   0.457   4.401   1.589  0.9368 -1.6139  0.5049
 5363SOL    HW227726   0.387   4.414   1.455  1.0290  0.2361 -0.2446
 5364SOL     OW27727   3.569   0.894   7.610 -0.9471 -0.6668  0.0289
 5364SOL    HW127728   3.621   0.816   7.628 -1.1290 -0.9232 -0.5768
 5364SOL    HW227729   3.533   0.876   7.524  0.2648 -0.8241 -0.4411
 5365SOL     OW27730   1.311   0.480   8.138 -0.5807  0.0806  0.2954
 5365SOL    HW127731   1.232   0.429   8.154  0.7596 -1.6367  1.5520
 5365SOL    HW227732   1.351   0.434   8.064  1.6431 -0.1173  1.6176
 5366SOL     OW27733   0.169   3.757   2.034  0.0700 -0.1731 -0.3186
 5366SOL    HW127734   0.196   3.837   2.079 -3.1293 -0.0320  1.2912
 5366SOL    HW227735   0.097   3.724   2.087 -0.2843  0.6905 -0.2735
 5367SOL     OW27736   2.321   2.498   4.819 -0.3733  0.1613 -0.1209
 5367SOL    HW127737   2.277   2.578   4.793  1.9902  0.5855 -2.9181
 5367SOL    HW227738   2.378   2.492   4.742  0.1813  0.7713  0.2441
 5368SOL     OW27739   3.587   3.804   3.372 -0.7291  0.3286  0.0386
 5368SOL    HW127740   3.505   3.823   3.418  1.3535  0.0909  3.8554
 5368SOL    HW227741   3.551   3.778   3.287  1.1395 -0.8334 -0.4094
 5369SOL     OW27742   4.654   0.882   8.621  0.0462  0.2282 -0.2513
 5369SOL    HW127743   4.735   0.916   8.585 -0.5666  0.5717 -1.3252
 5369SOL    HW227744   4.648   0.933   8.701 -0.7799 -0.8793  0.4101
 5370SOL     OW27745   2.283   1.936   2.296 -0.2401 -0.0571  0.3034
 5370SOL    HW127746   2.377   1.919   2.297 -0.4090 -0.9136  0.9577
 5370SOL    HW227747   2.284   2.015   2.350 -1.3495 -1.1785  1.9674
 5371SOL     OW27748   1.901   1.006   5.720  0.3877 -0.9234  0.2138
 5371SOL    HW127749   1.912   0.937   5.655  0.4858 -0.7249  0.0190
 5371SOL    HW227750   1.882   0.949   5.794  2.4941 -0.0492  1.4312
 5372SOL     OW27751   3.704   3.611   2.558  0.4819 -0.9019 -0.3527
 5372SOL    HW127752   3.651   3.584   2.633  1.6578 -1.3775  0.3218
 5372SOL    HW227753   3.786   3.653   2.585 -0.4927 -0.3930  1.7779
 5373SOL     OW27754   3.684   2.490   3.386 -0.0554 -0.4538  0.5384
 5373SOL    HW127755   3.596   2.502   3.349 -0.1300  1.1688  1.2098
 5373SOL    HW227756   3.731   2.547   3.326 -0.9780  0.2999  0.5207
 5374SOL     OW27757   2.503   0.053   6.132 -0.1620  0.1879 -0.4314
 5374SOL    HW127758   2.563   4.725   6.167 -0.5140  0.3184  0.4099
 5374SOL    HW227759   2.542   0.134   6.166  0.4674 -0.1812 -0.2786
 5375SOL     OW27760   2.323   2.934  14.578 -0.6340 -0.0250  0.0883
 5375SOL    HW127761   2.272   2.854  14.565 -0.9404  0.0136  1.0690
 5375SOL    HW227762   2.302   2.983  14.498 -1.1879  0.2227  0.3893
 5376SOL     OW27763   2.612   2.619   9.869  0.7090  0.2338  0.4450
 5376SOL    HW127764   2.572   2.645   9.786 -0.8578  1.9463  1.7386
 5376SOL    HW227765   2.705   2.642   9.867  0.1486  2.5653  0.4853
 5377SOL     OW27766   2.384   3.732  10.572 -0.3440 -0.0347  0.2013
 5377SOL    HW127767   2.330   3.801  10.534 -0.0657  2.0960  3.6983
 5377SOL    HW227768   2.473   3.763  10.555 -0.0501 -1.5267 -1.0362
 5378SOL     OW27769   1.721   4.297   3.370 -0.0042  0.2449 -0.3335
 5378SOL    HW127770   1.691   4.209   3.349  0.5800 -0.0491  0.0596
 5378SOL    HW227771   1.815   4.287   3.353 -0.4385  0.1471 -2.5709
 5379SOL     OW27772   4.532   3.802   5.820 -0.4512  0.1207 -0.2613
 5379SOL    HW127773   4.577   3.783   5.738  0.4667  1.0499  0.0277
 5379SOL    HW227774   4.477   3.724   5.831 -1.2705  0.8542  0.9477
 5380SOL     OW27775   1.948   2.517   2.564 -0.3370  0.6848  0.1900
 5380SOL    HW127776   2.001   2.530   2.485 -3.5420  1.7121 -1.7821
 5380SOL    HW227777   1.947   2.424   2.585  1.0312  0.4662 -0.6974
 5381SOL     OW27778   4.139   3.661   4.722  0.7489 -0.0437  0.3136
 5381SOL    HW127779   4.228   3.691   4.737  1.8005 -1.9029 -2.0924
 5381SOL    HW227780   4.126   3.692   4.632  1.4877  1.2587  0.6613
 5382SOL     OW27781   3.061   4.014   1.801  0.3841  0.0233  0.0817
 5382SOL    HW127782   2.972   4.000   1.832  1.0903 -2.3611  1.0895
 5382SOL    HW227783   3.092   3.925   1.822  0.3959 -0.3481 -1.4859
 5383SOL     OW27784   1.134   4.142   5.231  0.1324 -0.1068 -0.9562
 5383SOL    HW127785   1.042   4.161   5.210  0.0244  0.4840  0.0418
 5383SOL    HW227786   1.123   4.048   5.216 -2.2100 -0.2428  1.5181
 5384SOL     OW27787   3.410   3.052   0.801 -1.1049  0.2602 -0.0861
 5384SOL    HW127788   3.503   3.070   0.814 -0.0486 -4.5653 -0.8993
 5384SOL    HW227789   3.394   3.146   0.813 -4.8852 -0.5287  1.1952
 5385SOL     OW27790   2.539   0.223   2.542 -0.3105  0.4092  0.7841
 5385SOL    HW127791   2.559   0.311   2.573  1.2418  0.1351  0.5291
 5385SOL    HW227792   2.620   0.194   2.501 -1.0994  0.1668 -0.6097
 5386SOL     OW27793   2.146   4.486   2.903 -0.2446  0.0635  0.2776
 5386SOL    HW127794   2.239   4.471   2.888 -0.1677  0.0724  0.7677
 5386SOL    HW227795   2.146   4.464   2.996 -1.5707  1.2681  0.5582
 5387SOL     OW27796   0.518   3.401   4.469  0.7184  0.1163  0.2736
 5387SOL    HW127797   0.431   3.370   4.493  0.1986  1.5880  0.2968
 5387SOL    HW227798   0.511   3.479   4.413  4.7626  0.7048  0.5871
 5388SOL     OW27799   2.959   2.977   7.095 -0.3731 -0.3932  0.2088
 5388SOL    HW127800   3.005   2.989   7.178  1.2664  0.5743 -0.8418
 5388SOL    HW227801   2.943   2.883   7.100 -1.4136 -0.3179 -1.5814
 5389SOL     OW27802   4.416   2.525   2.925 -0.1700  0.3098 -0.0585
 5389SOL    HW127803   4.328   2.520   2.963 -0.2822  2.2047 -0.0698
 5389SOL    HW227804   4.443   2.613   2.954 -0.7026 -0.0158  1.4215
 5390SOL     OW27805   4.458   2.459   7.820  0.1796 -0.0656  0.0256
 5390SOL    HW127806   4.524   2.528   7.804  0.5240 -0.8202 -1.8221
 5390SOL    HW227807   4.477   2.389   7.757 -2.0561 -0.4115 -0.2342
 5391SOL     OW27808   4.143   3.440  17.231  0.4343 -0.0111 -0.3840
 5391SOL    HW127809   4.206   3.459  17.300 -0.1000 -1.6728  0.5649
 5391SOL    HW227810   4.066   3.479  17.273  0.7145  2.4789 -2.1803
 5392SOL     OW27811   4.050   4.252   2.287  0.3119 -0.7423 -0.5120
 5392SOL    HW127812   4.135   4.293   2.304  0.6334 -2.3423  1.8769
 5392SOL    HW227813   4.070   4.183   2.224 -0.9870 -0.6911 -0.9656
 5393SOL     OW27814   2.585   0.626   3.591 -0.3570  0.3881  0.3641
 5393SOL    HW127815   2.516   0.585   3.539 -1.6523  0.5273  1.9725
 5393SOL    HW227816   2.622   0.551   3.638 -3.9913 -0.7286  1.4450
 5394SOL     OW27817   2.024   4.082   6.519  0.1893  0.3476  0.1775
 5394SOL    HW127818   2.099   4.119   6.565 -0.2196  0.7675  0.5139
 5394SOL    HW227819   2.009   4.129   6.438  3.6257  0.5770 -0.3356
 5395SOL     OW27820   3.054   2.702   7.339 -0.1318  0.5440 -0.1981
 5395SOL    HW127821   3.058   2.644   7.415 -0.2852  2.4262  1.2400
 5395SOL    HW227822   2.967   2.676   7.307 -0.7855  1.3622  0.8688
 5396SOL     OW27823   1.837   1.662   6.379  0.4964  0.0416 -0.3771
 5396SOL    HW127824   1.792   1.618   6.307 -2.3527 -0.3709  1.6477
 5396SOL    HW227825   1.924   1.642   6.346  0.0952  0.3358 -1.6033
 5397SOL     OW27826   3.948   2.020   7.241 -0.2793 -0.2159 -0.7343
 5397SOL    HW127827   3.922   2.036   7.150  0.6670 -0.3264 -1.0140
 5397SOL    HW227828   3.862   2.004   7.281  0.7743  1.6350  2.2679
 5398SOL     OW27829   4.348   2.939   2.182 -0.1255 -0.2132  0.1303
 5398SOL    HW127830   4.278   2.978   2.131  1.4602  2.9274  0.3064
 5398SOL    HW227831   4.419   2.968   2.123  0.4800 -1.7159  0.1211
 5399SOL     OW27832   1.313   1.064  10.382  0.7336  0.2934  0.4294
 5399SOL    HW127833   1.282   1.050  10.472 -0.0334 -2.1849 -0.2277
 5399SOL    HW227834   1.342   1.155  10.380 -2.4352  1.3055  0.5578
 5400SOL     OW27835   3.685   0.415  13.548 -0.2771  0.7890  0.0912
 5400SOL    HW127836   3.687   0.478  13.621  0.6806 -0.9501  1.5642
 5400SOL    HW227837   3.772   0.383  13.523 -0.4188 -0.3138  1.0051
 5401SOL     OW27838   0.579   2.616   3.791 -0.0273 -0.2911 -0.1480
 5401SOL    HW127839   0.597   2.549   3.857  0.3152 -0.3504 -0.2995
 5401SOL    HW227840   0.561   2.695   3.842 -1.1718 -0.8400  0.2988
 5402SOL     OW27841   0.529   1.704  15.297 -0.0808  0.0183  0.3183
 5402SOL    HW127842   0.601   1.757  15.262 -0.9471  0.9240 -0.0860
 5402SOL    HW227843   0.577   1.621  15.296  0.5787  0.4133 -0.3003
 5403SOL     OW27844   4.712   4.419   5.127  0.1422  0.2973 -0.4446
 5403SOL    HW127845   0.065   4.393   5.132  0.4750  1.7602  0.9864
 5403SOL    HW227846   4.675   4.365   5.197  4.4891  1.6921  2.9118
 5404SOL     OW27847   1.896   1.721   8.274  0.1836  0.1609  0.3455
 5404SOL    HW127848   1.953   1.680   8.208  2.6042  2.2950  1.1308
 5404SOL    HW227849   1.874   1.646   8.330 -1.6504  1.1761  0.9531
 5405SOL     OW27850   3.142   3.679  11.690 -0.7939 -0.0473 -0.3285
 5405SOL    HW127851   3.173   3.619  11.758 -0.4665  0.9637  0.4272
 5405SOL    HW227852   3.077   3.628  11.643 -0.4607 -2.4485  1.8665
 5406SOL     OW27853   1.425   2.599   3.227 -0.3011 -0.0503 -0.1564
 5406SOL    HW127854   1.497   2.540   3.252 -1.0153 -0.2211  1.4866
 5406SOL    HW227855   1.413   2.557   3.142  1.8775  1.9678 -1.4629
 5407SOL     OW27856   0.604   1.001   7.406 -0.2037  0.1382  0.2467
 5407SOL    HW127857   0.636   1.085   7.439  1.3636  0.1081 -1.1917
 5407SOL    HW227858   0.521   1.033   7.371  0.0604 -0.9522 -1.3705
 5408SOL     OW27859   2.494   1.136   2.366 -0.1247 -0.2877  0.1604
 5408SOL    HW127860   2.578   1.100   2.338 -0.8768 -0.5829 -1.6970
 5408SOL    HW227861   2.421   1.097   2.317  0.4171  0.0912 -0.9459
 5409SOL     OW27862   4.686   1.844   6.948 -0.4775 -0.2643 -0.3602
 5409SOL    HW127863   4.733   1.798   7.017  0.3585 -1.5661 -1.7815
 5409SOL    HW227864   4.666   1.773   6.887 -2.4382  0.5374 -0.6811
 5410SOL     OW27865   0.596   0.780   5.429  0.4601  0.4703  0.1098
 5410SOL    HW127866   0.647   0.855   5.462  2.6941 -0.6576 -0.7603
 5410SOL    HW227867   0.575   0.811   5.341  1.1341  1.0780  0.1574
 5411SOL     OW27868   3.784   2.864   0.013 -0.1105  0.7756 -0.0256
 5411SOL    HW127869   3.776   2.769   0.023 -1.2547  0.7564 -1.1565
 5411SOL    HW227870   3.827   2.878  17.682 -0.3135  0.2091 -0.2244
 5412SOL     OW27871   0.080   2.308   9.455  0.1724  0.3056  0.8148
 5412SOL    HW127872   0.013   2.266   9.508  1.5009 -0.2365  2.0518
 5412SOL    HW227873   0.025   2.362   9.398  0.8150 -0.2168 -0.2984
 5413SOL     OW27874   1.432   3.999   1.769 -0.1339 -0.0649  0.1297
 5413SOL    HW127875   1.382   3.953   1.838 -1.3045 -0.5617 -1.0471
 5413SOL    HW227876   1.463   4.066   1.830 -0.7101 -0.4104  0.8148
 5414SOL     OW27877   2.263   4.170   6.615 -0.4369  0.0123 -0.1220
 5414SOL    HW127878   2.331   4.117   6.573  1.1761  1.9968  0.0047
 5414SOL    HW227879   2.312   4.237   6.661  0.5388  0.4346 -1.8042
 5415SOL     OW27880   0.562   0.896   6.593  0.2922  0.3109 -0.3363
 5415SOL    HW127881   0.512   0.970   6.561 -0.2437 -0.5121 -1.3871
 5415SOL    HW227882   0.610   0.874   6.513  1.5324  0.0159  0.4858
 5416SOL     OW27883   0.552   1.012   8.173 -0.2197 -0.0815  0.0472
 5416SOL    HW127884   0.577   0.944   8.235  0.8259  0.5650  0.3413
 5416SOL    HW227885   0.468   1.048   8.201 -0.0204  0.0900  0.4226
 5417SOL     OW27886   4.666   0.539   5.921 -0.0330  0.6280  0.6880
 5417SOL    HW127887   4.577   0.538   5.886  0.2456  0.5609 -0.0233
 5417SOL    HW227888   4.669   0.456   5.969  0.2486 -0.7690 -1.7611
 5418SOL     OW27889   4.242   4.444   6.635  0.2854 -0.4171 -0.2720
 5418SOL    HW127890   4.311   4.415   6.695  0.8202  0.6168 -0.3853
 5418SOL    HW227891   4.212   4.359   6.603  2.9923 -1.4669  0.0365
 5419SOL     OW27892   0.814   0.145   8.185  0.6416 -0.8781  0.0343
 5419SOL    HW127893   0.738   0.203   8.186  1.6044  0.4226 -1.2092
 5419SOL    HW227894   0.770   0.061   8.201 -2.3315  0.3378 -1.7402
 5420SOL     OW27895   2.256   2.408   4.116  0.7693  0.2152 -0.2070
 5420SOL    HW127896   2.278   2.501   4.127 -2.0958  1.0410 -1.5544
 5420SOL    HW227897   2.167   2.427   4.087 -0.3457 -1.5510  2.0336
 5421SOL     OW27898   0.093   0.677   5.679  0.8732 -0.3243  0.5947
 5421SOL    HW127899   0.069   0.722   5.760  1.5897  0.5331  0.3214
 5421SOL    HW227900   0.173   0.727   5.670  0.6394  0.3742  2.3447
 5422SOL     OW27901   0.172   1.991  10.025  0.5113  0.0228 -0.1276
 5422SOL    HW127902   0.106   1.997   9.955 -1.1794 -0.4801  1.4335
 5422SOL    HW227903   0.181   1.896  10.036  0.9945  0.0187 -0.5922
 5423SOL     OW27904   0.984   2.813   8.198 -0.1746  0.3931  0.1483
 5423SOL    HW127905   0.902   2.766   8.214  0.1776 -0.4189 -0.4214
 5423SOL    HW227906   0.982   2.814   8.102 -0.9381  3.0657  0.1897
 5424SOL     OW27907   0.710   0.207   1.735  0.1862 -0.2052  0.2249
 5424SOL    HW127908   0.751   0.292   1.750 -1.6067  0.6703  0.1828
 5424SOL    HW227909   0.774   0.166   1.677 -0.6311  1.0919 -1.5787
 5425SOL     OW27910   4.240   2.055   4.309 -0.3898 -0.0981 -0.4417
 5425SOL    HW127911   4.173   2.006   4.261  0.3042 -0.9224 -0.5615
 5425SOL    HW227912   4.309   2.042   4.243  0.4641  1.8055  0.0867
 5426SOL     OW27913   1.887   0.113   2.671  0.1937  0.5866 -0.2367
 5426SOL    HW127914   1.925   0.146   2.753  0.6173 -0.7186  0.1025
 5426SOL    HW227915   1.859   0.197   2.633  1.0508  0.6174 -0.8135
 5427SOL     OW27916   2.980   3.559   0.286  0.3869  0.5324 -0.1491
 5427SOL    HW127917   2.900   3.609   0.269  0.3759  1.6836  3.2649
 5427SOL    HW227918   2.976   3.542   0.380 -0.6538 -1.0132 -0.4701
 5428SOL     OW27919   0.178   2.521  17.302  0.1928 -0.8421  0.3242
 5428SOL    HW127920   0.236   2.547  17.231  0.8708 -1.6789  0.5760
 5428SOL    HW227921   0.102   2.577  17.287  1.6442  1.4463  1.5214
 5429SOL     OW27922   4.028   3.450   3.025 -0.0007 -0.8022  0.2936
 5429SOL    HW127923   3.993   3.444   2.936  0.5347 -1.4912  0.1251
 5429SOL    HW227924   4.047   3.357   3.039 -0.2343 -0.9964 -0.6459
 5430SOL     OW27925   0.777   1.118   5.045 -0.3833  0.1873  0.2313
 5430SOL    HW127926   0.784   1.213   5.043  1.6078  0.0273 -0.2049
 5430SOL    HW227927   0.789   1.099   5.138  1.5454  6.1713  1.1597
 5431SOL     OW27928   1.154   2.802  12.175  0.1823 -0.0605  0.0660
 5431SOL    HW127929   1.073   2.750  12.179  0.4901 -0.6546 -1.3440
 5431SOL    HW227930   1.180   2.800  12.268 -1.9814  3.2912  0.7183
 5432SOL     OW27931   3.885   3.716   7.849  0.3410  0.4193 -0.1564
 5432SOL    HW127932   3.880   3.621   7.837 -0.8514  0.6092 -1.1145
 5432SOL    HW227933   3.954   3.711   7.916  0.1167 -1.2361 -0.0367
 5433SOL     OW27934   4.316   1.522   6.677  0.0117  0.4366  0.7509
 5433SOL    HW127935   4.361   1.588   6.624 -0.1476 -0.6679 -0.7508
 5433SOL    HW227936   4.356   1.441   6.646 -0.5094  1.4221 -2.5382
 5434SOL     OW27937   4.371   2.186   2.800 -0.1363  0.0882  0.5405
 5434SOL    HW127938   4.457   2.228   2.804 -0.8714  1.8092 -1.7973
 5434SOL    HW227939   4.322   2.262   2.767 -2.2832 -0.9535  1.3198
 5435SOL     OW27940   2.061   1.779   5.967 -0.0767 -0.4369 -0.5724
 5435SOL    HW127941   2.032   1.859   5.923 -1.1646 -0.7485 -0.4320
 5435SOL    HW227942   2.032   1.799   6.055  1.5987  0.7661 -0.2835
 5436SOL     OW27943   0.348   0.352  13.300 -0.3342 -0.1906  0.2368
 5436SOL    HW127944   0.288   0.375  13.371 -0.0697 -2.5812  1.2230
 5436SOL    HW227945   0.388   0.439  13.299  0.8125 -0.6961  1.9349
 5437SOL     OW27946   1.111   1.566   7.974 -0.7414  0.0057  0.6459
 5437SOL    HW127947   1.060   1.620   8.034  3.5017  4.8010 -0.0816
 5437SOL    HW227948   1.202   1.591   7.992 -1.6884  2.5485  1.8031
 5438SOL     OW27949   0.470   1.830  14.030 -0.0059  0.4452  0.6471
 5438SOL    HW127950   0.401   1.858  13.970 -0.2164 -0.3925  0.4955
 5438SOL    HW227951   0.469   1.739  14.001 -1.2593 -0.1225  2.4212
 5439SOL     OW27952   2.588   4.605   8.870 -0.0470 -0.0339 -0.5737
 5439SOL    HW127953   2.551   4.520   8.893 -0.1977  0.6266  1.5979
 5439SOL    HW227954   2.531   4.630   8.797 -1.7967  0.1819  0.8918
 5440SOL     OW27955   2.550   2.735   2.412 -0.4244 -0.0413  0.6573
 5440SOL    HW127956   2.546   2.652   2.364 -1.1164  0.7278 -0.5983
 5440SOL    HW227957   2.476   2.777   2.368  1.2075  1.5283 -0.5227
 5441SOL     OW27958   2.224   3.442   3.121  0.0484 -0.3206  0.3771
 5441SOL    HW127959   2.133   3.459   3.099  0.1082 -1.0232 -0.4229
 5441SOL    HW227960   2.272   3.422   3.041  2.5900  0.0017  1.7840
 5442SOL     OW27961   2.369   1.054   3.728 -0.0598 -0.0656 -0.0044
 5442SOL    HW127962   2.381   0.959   3.732  0.8719 -0.0369 -1.9512
 5442SOL    HW227963   2.290   1.074   3.778 -0.3076 -1.0750 -0.0008
 5443SOL     OW27964   2.541   1.256  12.629 -0.0210 -0.3811 -0.0026
 5443SOL    HW127965   2.619   1.217  12.589  0.0400  1.1403 -1.3180
 5443SOL    HW227966   2.575   1.267  12.718  0.7050 -0.7054 -0.2405
 5444SOL     OW27967   4.184   3.204  14.425  0.6148 -0.1511 -0.9002
 5444SOL    HW127968   4.251   3.152  14.381  1.4116  1.9964 -2.2480
 5444SOL    HW227969   4.197   3.288  14.381  0.7686  1.1796  1.6989
 5445SOL     OW27970   4.437   1.359   2.597  0.3126 -0.2739 -0.3201
 5445SOL    HW127971   4.398   1.288   2.546  1.6737 -0.6462 -0.8416
 5445SOL    HW227972   4.508   1.309   2.637  0.4990 -0.1657 -0.5199
 5446SOL     OW27973   3.121   3.074   4.768  0.6199  0.2351  0.1864
 5446SOL    HW127974   3.044   3.019   4.756  1.2007 -0.7501  0.9027
 5446SOL    HW227975   3.149   3.085   4.677  0.0251 -2.4607 -0.3197
 5447SOL     OW27976   0.952   4.199   5.531 -0.0851  0.3038  0.3622
 5447SOL    HW127977   0.993   4.114   5.520 -0.4955  0.1512  0.0008
 5447SOL    HW227978   0.895   4.213   5.455 -0.2095  1.0274  0.5860
 5448SOL     OW27979   3.701   4.494   8.812  0.9048  0.0734 -0.0289
 5448SOL    HW127980   3.703   4.535   8.899 -0.4723  2.6319 -1.2186
 5448SOL    HW227981   3.742   4.566   8.765 -0.9252  2.3838  1.9564
 5449SOL     OW27982   3.955   4.058   9.281 -0.2323  0.3876  0.2271
 5449SOL    HW127983   3.946   4.000   9.205 -1.2315  0.3396  0.3917
 5449SOL    HW227984   3.998   3.997   9.341 -1.2897 -2.6994 -2.1120
 5450SOL     OW27985   0.340   1.599   7.700  0.0541  0.3104 -0.1519
 5450SOL    HW127986   0.427   1.573   7.729 -0.0640 -2.2735 -2.0979
 5450SOL    HW227987   0.307   1.510   7.685  1.0822  0.1253 -1.2790
 5451SOL     OW27988   3.454   1.353   1.644  0.3598 -0.5920 -0.5738
 5451SOL    HW127989   3.418   1.267   1.624 -0.5864 -0.5918  1.0895
 5451SOL    HW227990   3.484   1.348   1.735  2.2435  2.8147 -0.9647
 5452SOL     OW27991   0.729   2.941   5.551 -0.4193 -0.1788 -0.3078
 5452SOL    HW127992   0.780   3.005   5.502 -1.7914  0.2774 -1.1384
 5452SOL    HW227993   0.674   3.002   5.600 -1.4822 -0.8757 -0.6326
 5453SOL     OW27994   4.329   0.287   4.252 -0.0022 -0.4694  0.2373
 5453SOL    HW127995   4.418   0.252   4.241 -0.5232 -1.4092 -0.9634
 5453SOL    HW227996   4.337   0.377   4.221  3.1792 -0.3490  1.4541
 5454SOL     OW27997   2.296   1.795  11.692  0.2226  0.2000  0.6221
 5454SOL    HW127998   2.235   1.839  11.750 -2.3635  0.1447 -2.0485
 5454SOL    HW227999   2.285   1.700  11.699  0.1940  0.0402 -1.6414
 5455SOL     OW28000   4.503   1.282  16.937  0.2036 -0.3283  0.3109
 5455SOL    HW128001   4.586   1.242  16.964  0.7183 -0.9870 -2.2307
 5455SOL    HW228002   4.511   1.282  16.842  1.5945 -0.7530  0.4198
 5456SOL     OW28003   3.761   3.112  17.477  0.1739  0.3724  0.2705
 5456SOL    HW128004   3.721   3.073  17.400  3.1750  0.5930 -1.4115
 5456SOL    HW228005   3.692   3.107  17.543 -0.6483  0.8385 -0.5545
 5457SOL     OW28006   3.989   2.644   6.748 -0.3606 -0.1756 -0.4444
 5457SOL    HW128007   3.947   2.727   6.772  1.1217  0.3871  0.1968
 5457SOL    HW228008   4.071   2.683   6.718  0.3734 -1.7058 -0.4146
 5458SOL     OW28009   1.251   2.879   1.651  0.5924  0.6616  0.1558
 5458SOL    HW128010   1.269   2.878   1.745 -1.2041 -0.3657  0.4963
 5458SOL    HW228011   1.249   2.786   1.628  1.4975  0.2190  1.8656
 5459SOL     OW28012   3.714   0.479   7.790 -0.1208 -0.1041 -0.0272
 5459SOL    HW128013   3.673   0.532   7.859 -0.4840  1.7030 -1.6326
 5459SOL    HW228014   3.686   0.391   7.812  3.2979 -1.5717 -1.5448
 5460SOL     OW28015   1.070   2.504  14.085 -0.0684 -0.0071  0.3941
 5460SOL    HW128016   1.159   2.537  14.099  0.3732 -2.2350  2.7970
 5460SOL    HW228017   1.050   2.558  14.009 -3.4289 -1.7139  0.0849
 5461SOL     OW28018   0.236   2.874   3.765  0.3902  0.5708  0.5625
 5461SOL    HW128019   0.252   2.828   3.682  2.7513  0.0321  1.3120
 5461SOL    HW228020   0.304   2.939   3.784 -1.1183  1.2993  3.5006
 5462SOL     OW28021   1.281   0.033   6.482 -0.5283 -0.4650 -0.0796
 5462SOL    HW128022   1.198   0.081   6.476 -0.5173 -0.7399 -2.3228
 5462SOL    HW228023   1.294   4.738   6.571 -0.5721 -2.1182 -0.7035
 5463SOL     OW28024   3.806   1.175   2.097  0.8131  0.0451  0.5512
 5463SOL    HW128025   3.733   1.145   2.152 -0.5510 -0.5956 -1.6053
 5463SOL    HW228026   3.753   1.203   2.022  1.1274 -1.0949 -0.1028
 5464SOL     OW28027   1.137   2.748   0.685 -0.3758  0.9696 -0.6888
 5464SOL    HW128028   1.083   2.821   0.655 -0.0663  1.2016 -0.6802
 5464SOL    HW228029   1.157   2.708   0.600 -1.8744 -0.7516 -0.2195
 5465SOL     OW28030   2.037   3.441   8.298  0.0524  0.0129  0.2774
 5465SOL    HW128031   2.053   3.362   8.247  2.8717  0.1154  1.0085
 5465SOL    HW228032   2.114   3.447   8.354 -2.0273  2.3266  2.9253
 5466SOL     OW28033   0.472   3.659   4.660  0.0138  0.0270  0.4272
 5466SOL    HW128034   0.490   3.586   4.600  2.5642  0.4621  0.6445
 5466SOL    HW228035   0.428   3.613   4.731 -0.3577 -0.2670  0.0011
 5467SOL     OW28036   1.487   3.269   5.224  0.7862 -0.0477 -0.1199
 5467SOL    HW128037   1.466   3.177   5.207  0.7270 -0.3217  1.4738
 5467SOL    HW228038   1.516   3.293   5.136  0.9209  0.7468  0.1385
 5468SOL     OW28039   3.087   2.696   0.827  0.0901  0.0698  0.1807
 5468SOL    HW128040   3.013   2.730   0.877 -0.6973 -3.7003  1.5863
 5468SOL    HW228041   3.087   2.607   0.864 -0.5762 -0.4659 -1.1230
 5469SOL     OW28042   4.296   2.761   5.739 -0.8335 -0.2152 -1.0031
 5469SOL    HW128043   4.220   2.708   5.761  0.8501 -1.6168  1.3821
 5469SOL    HW228044   4.309   2.805   5.823 -0.4774 -2.0552 -0.0972
 5470SOL     OW28045   4.034   2.386   0.418 -0.3678 -0.1541  0.2056
 5470SOL    HW128046   3.943   2.391   0.388  0.1408  0.2243 -1.2783
 5470SOL    HW228047   4.062   2.304   0.377 -0.7207  0.3513 -1.0566
 5471SOL     OW28048   4.739   1.615  15.053 -0.1981 -0.4153  0.3416
 5471SOL    HW128049   4.648   1.627  15.082 -0.7384 -2.2867 -0.5426
 5471SOL    HW228050   0.025   1.706  15.042  3.4503 -1.7007 -2.0468
 5472SOL     OW28051   3.005   3.269   6.196 -0.2415 -0.0770  0.5909
 5472SOL    HW128052   2.921   3.262   6.241 -1.1687 -1.0750 -1.3354
 5472SOL    HW228053   2.990   3.266   6.102 -3.6948 -1.7093  1.1926
 5473SOL     OW28054   2.118   1.855  12.838 -0.5110 -0.1833 -0.4012
 5473SOL    HW128055   2.094   1.860  12.746 -2.5785 -1.7059  0.0255
 5473SOL    HW228056   2.159   1.769  12.840  1.9762  1.0649  1.6346
 5474SOL     OW28057   0.789   2.357   5.915  0.5080  0.0826  0.1170
 5474SOL    HW128058   0.874   2.326   5.882  1.3033  2.2087  0.1987
 5474SOL    HW228059   0.804   2.451   5.916 -1.8218  0.4586 -0.1657
 5475SOL     OW28060   0.074   4.360  13.282 -0.2447 -0.1028 -0.2956
 5475SOL    HW128061   0.012   4.290  13.263 -2.4494  1.1725  2.2344
 5475SOL    HW228062   0.017   4.437  13.286  1.1710  1.0111 -0.9914
 5476SOL     OW28063   3.026   2.164  17.565 -0.6536  0.3983  0.3151
 5476SOL    HW128064   2.942   2.168  17.609 -1.2821  0.0015 -0.8488
 5476SOL    HW228065   3.063   2.228  17.625 -0.7170  1.1260 -0.4185
 5477SOL     OW28066   4.563   4.496   2.402 -0.6672  0.3308 -0.6811
 5477SOL    HW128067   4.527   4.530   2.484 -0.4362  0.4176 -0.6147
 5477SOL    HW228068   4.655   4.499   2.430 -1.3344 -1.2319  1.6517
 5478SOL     OW28069   3.470   1.137   0.465  0.0724  0.7271 -0.4480
 5478SOL    HW128070   3.460   1.158   0.558  2.8188  2.1923 -0.4550
 5478SOL    HW228071   3.554   1.179   0.447  0.8591 -1.7588 -2.6560
 5479SOL     OW28072   4.225   3.286  15.129  0.3161 -0.5059  0.2428
 5479SOL    HW128073   4.316   3.256  15.136  0.2054 -1.2317 -1.3328
 5479SOL    HW228074   4.179   3.222  15.184  1.2590 -0.1838  1.3995
 5480SOL     OW28075   3.977   1.007  12.477 -1.0054  0.3461  0.4032
 5480SOL    HW128076   3.927   0.982  12.400  0.7959  1.4335 -1.1445
 5480SOL    HW228077   4.021   1.088  12.450 -1.1873  0.6683  1.0877
 5481SOL     OW28078   2.134   3.430   5.229  0.5000  0.2370  0.1243
 5481SOL    HW128079   2.082   3.349   5.222 -0.0049  0.3469  2.6008
 5481SOL    HW228080   2.077   3.478   5.290  1.0061  0.7951  0.1577
 5482SOL     OW28081   1.271   0.949   5.958 -0.5022 -1.0549  0.0425
 5482SOL    HW128082   1.210   0.878   5.976 -0.8479 -0.9186 -0.5911
 5482SOL    HW228083   1.265   0.953   5.863 -0.2042 -1.4629  0.0084
 5483SOL     OW28084   2.747   1.966  16.257  0.1288  0.5889 -0.0682
 5483SOL    HW128085   2.769   1.966  16.350  0.3285  1.2875 -0.1156
 5483SOL    HW228086   2.703   1.882  16.245 -0.0866  0.6956 -0.0297
 5484SOL     OW28087   2.240   1.915   4.010  0.2210 -0.3605 -0.7715
 5484SOL    HW128088   2.281   1.833   3.982 -0.7011 -1.2813  0.5283
 5484SOL    HW228089   2.212   1.961   3.931 -1.2002 -0.3054 -0.2434
 5485SOL     OW28090   3.968   2.715  12.216  0.7386  0.0942 -0.7860
 5485SOL    HW128091   3.947   2.700  12.308  1.6822  2.8960 -0.1152
 5485SOL    HW228092   3.981   2.809  12.221  3.6582 -0.4187  1.1008
 5486SOL     OW28093   0.090   4.281   1.858 -0.1863 -0.5044  0.1845
 5486SOL    HW128094   0.003   4.301   1.824 -0.7414 -2.1223  0.6901
 5486SOL    HW228095   0.107   4.192   1.828 -1.3039  0.0122 -2.0035
 5487SOL     OW28096   2.330   4.426  11.960 -0.4968 -0.1749 -0.2285
 5487SOL    HW128097   2.313   4.364  12.031  2.3000  1.0507  1.4822
 5487SOL    HW228098   2.367   4.497  12.011 -1.8144  1.3660 -1.4093
 5488SOL     OW28099   0.195   3.318  12.265  0.4100  0.1417 -0.2389
 5488SOL    HW128100   0.153   3.393  12.223  0.8079 -0.4850 -1.7389
 5488SOL    HW228101   0.172   3.240  12.215  0.9277  1.0132 -1.8064
 5489SOL     OW28102   1.624   2.202  11.721  0.0441  0.4090  0.5203
 5489SOL    HW128103   1.617   2.286  11.767  0.6306  1.3745 -1.1474
 5489SOL    HW228104   1.655   2.221  11.632  1.6740  1.1196  1.2374
 5490SOL     OW28105   2.450   3.878   8.075  0.0106  0.7306  0.2614
 5490SOL    HW128106   2.366   3.835   8.057  0.4508 -0.5863  1.3286
 5490SOL    HW228107   2.484   3.907   7.991  0.8857 -3.0786 -0.6662
 5491SOL     OW28108   3.355   4.447   0.179 -0.6605  0.2893  0.2692
 5491SOL    HW128109   3.318   4.387   0.244  2.1434 -0.3268  1.2857
 5491SOL    HW228110   3.311   4.530   0.197 -0.8835  0.3926 -0.7484
 5492SOL     OW28111   3.288   2.632   1.987 -0.6381 -0.1782  0.2919
 5492SOL    HW128112   3.362   2.680   2.025  0.3191 -1.1123 -0.3826
 5492SOL    HW228113   3.303   2.546   2.026  0.8997  0.4255  1.0325
 5493SOL     OW28114   2.623   4.646   7.077  0.0846 -0.1313  0.3088
 5493SOL    HW128115   2.679   4.570   7.091 -1.1123 -1.1617 -0.4100
 5493SOL    HW228116   2.667   4.689   7.004 -0.6549 -2.0336 -1.2565
 5494SOL     OW28117   2.852   3.721  16.345 -0.5394 -0.0896  0.1025
 5494SOL    HW128118   2.773   3.668  16.352  0.2704 -1.2819  0.3076
 5494SOL    HW228119   2.818   3.810  16.333 -1.3238 -0.8219 -3.0842
 5495SOL     OW28120   0.426   3.155   3.770 -0.5074 -0.2630  0.0359
 5495SOL    HW128121   0.395   3.244   3.789 -1.2988 -0.7181  0.8763
 5495SOL    HW228122   0.491   3.142   3.839 -0.5255  1.2040  0.3346
 5496SOL     OW28123   4.168   2.412   4.412 -0.9908 -0.9669  0.0253
 5496SOL    HW128124   4.151   2.444   4.323 -0.5466 -1.1179 -0.1128
 5496SOL    HW228125   4.201   2.496   4.446  2.6267 -2.3839  0.0073
 5497SOL     OW28126   4.471   1.822   2.777 -0.3560 -0.4528 -0.2036
 5497SOL    HW128127   4.394   1.812   2.834 -0.4947 -1.0250 -0.4856
 5497SOL    HW228128   4.455   1.758   2.708  2.3128 -0.2858 -0.9749
 5498SOL     OW28129   1.603   4.717  17.648 -0.1043  0.4795 -0.5369
 5498SOL    HW128130   1.537   4.711  17.717 -0.1158  0.7092 -0.5299
 5498SOL    HW228131   1.552   0.008  17.573  0.8764 -1.2913 -1.9081
 5499SOL     OW28132   0.239   3.854   5.088 -0.2372 -0.6735  0.4919
 5499SOL    HW128133   0.161   3.810   5.055 -1.2623  0.1916  1.7641
 5499SOL    HW228134   0.306   3.787   5.073 -0.5860 -1.0246  0.4970
 5500SOL     OW28135   0.176   0.303   1.906 -0.0930  0.1537  0.0016
 5500SOL    HW128136   0.176   0.208   1.891 -0.2720 -0.0544  1.2723
 5500SOL    HW228137   0.191   0.302   2.001  0.5249  0.4713 -0.0947
 5501SOL     OW28138   0.471   2.814   8.279  0.3575 -0.0497 -0.7859
 5501SOL    HW128139   0.432   2.769   8.354  0.1664 -0.2496 -1.0052
 5501SOL    HW228140   0.444   2.904   8.295 -3.4481 -1.3449  0.0623
 5502SOL     OW28141   1.677   1.290   8.054  0.2022  0.1526  0.3295
 5502SOL    HW128142   1.704   1.321   7.968  2.6719 -0.5033  0.8751
 5502SOL    HW228143   1.599   1.344   8.067 -1.3726 -1.3427 -2.8629
 5503SOL     OW28144   3.035   2.069   6.123  0.1363  0.8589 -0.5577
 5503SOL    HW128145   3.107   2.129   6.144  0.1066  0.5102  0.5641
 5503SOL    HW228146   3.023   2.053   6.217 -1.7865  1.0546 -0.7654
 5504SOL     OW28147   1.591   1.589   2.356 -0.0354 -0.1862 -0.2969
 5504SOL    HW128148   1.526   1.642   2.309 -0.3358 -1.6750 -1.5874
 5504SOL    HW228149   1.617   1.535   2.281  2.0170 -1.4018  1.3168
 5505SOL     OW28150   0.815   2.742  12.430 -0.2459 -0.3572 -0.5701
 5505SOL    HW128151   0.838   2.706  12.345  1.2548 -1.4862  0.3208
 5505SOL    HW228152   0.762   2.819  12.410 -0.1180 -0.1475 -0.0821
 5506SOL     OW28153   1.094   2.121   0.799  0.2917  0.2954 -0.3383
 5506SOL    HW128154   1.099   2.206   0.756 -4.2570  1.3401  1.1963
 5506SOL    HW228155   1.014   2.135   0.850 -0.6332  0.7291 -1.9074
 5507SOL     OW28156   4.116   3.451   2.528  0.0628  0.5167  0.2628
 5507SOL    HW128157   4.158   3.533   2.555  0.4807  0.1283  0.7846
 5507SOL    HW228158   4.067   3.487   2.453  1.7414  0.2701 -0.9410
 5508SOL     OW28159   3.963   0.353   9.093 -1.1339 -0.0165 -0.3203
 5508SOL    HW128160   4.009   0.390   9.017  1.9381  1.0912  2.0379
 5508SOL    HW228161   3.884   0.329   9.046 -1.1614  0.7065 -0.6511
 5509SOL     OW28162   2.342   3.554   8.184 -0.0219  0.7069  0.0554
 5509SOL    HW128163   2.360   3.601   8.265  0.1779  0.2493  0.2731
 5509SOL    HW228164   2.293   3.622   8.137 -2.6014 -1.7851 -0.8182
 5510SOL     OW28165   2.375   2.210   1.344  0.2445 -0.2166 -0.2573
 5510SOL    HW128166   2.388   2.248   1.431 -0.0555 -0.5558 -0.0654
 5510SOL    HW228167   2.280   2.197   1.344  0.2252 -0.0764 -0.0720
 5511SOL     OW28168   4.383   4.093   2.427  0.1717 -0.2579  0.2638
 5511SOL    HW128169   4.447   4.086   2.356 -1.1124 -0.5837 -0.8502
 5511SOL    HW228170   4.447   4.141   2.480 -0.4600  2.5923 -1.5700
 5512SOL     OW28171   3.393   2.102   8.835 -0.0854  0.0728 -0.1495
 5512SOL    HW128172   3.470   2.070   8.789  1.0630 -1.2846  2.7515
 5512SOL    HW228173   3.320   2.068   8.784 -2.0554  1.8225  1.4930
 5513SOL     OW28174   3.573   2.302   3.820 -0.2675  0.2875 -0.2484
 5513SOL    HW128175   3.612   2.236   3.764 -1.1525  0.5865 -1.2147
 5513SOL    HW228176   3.497   2.260   3.861  1.7162 -1.7913  1.2747
 5514SOL     OW28177   3.803   2.344   3.996 -0.0326  0.0913  0.3939
 5514SOL    HW128178   3.879   2.382   3.952  0.2669 -1.5933 -0.5504
 5514SOL    HW228179   3.737   2.381   3.938  0.4230 -3.4480 -2.3646
 5515SOL     OW28180   3.716   0.095   3.930 -0.4321 -0.2803 -0.0876
 5515SOL    HW128181   3.759   0.086   3.845 -2.2177 -0.0879 -0.9939
 5515SOL    HW228182   3.784   0.139   3.982  0.8949 -0.9257 -1.2542
 5516SOL     OW28183   1.705   0.450   6.195  0.1754  0.0957 -0.4792
 5516SOL    HW128184   1.670   0.362   6.209  0.7860  0.4091  3.0416
 5516SOL    HW228185   1.653   0.501   6.257  0.2510 -0.7496  0.2649
 5517SOL     OW28186   2.462   1.897  11.503  0.0457  0.1632 -0.2256
 5517SOL    HW128187   2.420   1.824  11.549 -0.7785  1.1432  0.5708
 5517SOL    HW228188   2.472   1.964  11.571  1.2932 -0.1149 -0.1513
 5518SOL     OW28189   1.509   3.388   4.896 -0.2983  0.1442 -0.2241
 5518SOL    HW128190   1.468   3.342   4.824  1.8758 -1.6524 -0.3028
 5518SOL    HW228191   1.594   3.346   4.909 -2.0825 -2.8341  1.5840
 5519SOL     OW28192   0.918   0.644   4.241  0.7338 -0.2491  0.2080
 5519SOL    HW128193   0.993   0.657   4.299  1.2546 -2.5751  0.0411
 5519SOL    HW228194   0.848   0.664   4.302  1.9091  1.6139  0.9544
 5520SOL     OW28195   1.465   1.163   2.754 -0.2648  0.3098 -0.5321
 5520SOL    HW128196   1.436   1.079   2.717 -1.5118  0.2860  0.4867
 5520SOL    HW228197   1.380   1.177   2.794 -0.7546 -1.6470 -0.8886
 5521SOL     OW28198   2.158   0.226  16.281 -0.3189 -0.6916 -0.1319
 5521SOL    HW128199   2.078   0.201  16.235 -0.4592 -1.9909  0.8129
 5521SOL    HW228200   2.167   0.147  16.334 -1.5260  1.3416  3.1099
 5522SOL     OW28201   2.930   0.145   7.356  0.3866 -0.0471 -0.2350
 5522SOL    HW128202   2.881   0.227   7.344 -0.9455 -0.6713  0.9676
 5522SOL    HW228203   2.928   0.129   7.451 -1.7313 -0.1268 -0.2948
 5523SOL     OW28204   2.806   3.909   1.225 -0.0209  0.0735 -0.1615
 5523SOL    HW128205   2.821   3.861   1.307 -0.7571  0.7367  0.3593
 5523SOL    HW228206   2.898   3.932   1.211 -0.4223  1.5713 -0.3691
 5524SOL     OW28207   1.767   2.224  11.486 -0.5328  0.1267  0.4105
 5524SOL    HW128208   1.808   2.310  11.490  0.6487 -0.4497  0.7424
 5524SOL    HW228209   1.843   2.166  11.495 -0.2687  0.1890 -1.4805
 5525SOL     OW28210   4.215   0.889   6.543  0.0396 -0.1832 -0.1597
 5525SOL    HW128211   4.120   0.888   6.531  0.0686 -1.3720 -0.2628
 5525SOL    HW228212   4.241   0.976   6.512  1.5709 -1.5569 -2.7192
 5526SOL     OW28213   3.898   2.466   7.774 -0.2245 -0.1226 -0.0800
 5526SOL    HW128214   3.944   2.453   7.857 -1.1700 -1.3597  0.2485
 5526SOL    HW228215   3.814   2.425   7.793 -0.5326  1.0055  1.0311
 5527SOL     OW28216   2.870   2.381   1.724  0.0057  0.0133 -0.1492
 5527SOL    HW128217   2.956   2.343   1.742 -1.0269 -1.8328  0.8456
 5527SOL    HW228218   2.864   2.444   1.796 -0.1195  0.5886 -0.6568
 5528SOL     OW28219   2.418   4.682   8.677 -0.1639  0.0615 -0.4922
 5528SOL    HW128220   2.415   0.015   8.613  2.2011 -0.0257 -0.7053
 5528SOL    HW228221   2.326   4.654   8.685  0.1018 -0.4589  0.7085
 5529SOL     OW28222   4.127   2.867   5.529  0.1545  0.1438 -0.4668
 5529SOL    HW128223   4.196   2.847   5.592  1.2358  0.6751 -1.4963
 5529SOL    HW228224   4.167   2.830   5.450  0.2367 -0.4298 -0.1526
 5530SOL     OW28225   4.587   3.287   0.873  0.0493  0.5203 -0.7040
 5530SOL    HW128226   4.674   3.255   0.849 -0.7627 -3.2849  1.3365
 5530SOL    HW228227   4.554   3.244   0.795  1.2312 -1.8415  0.0747
 5531SOL     OW28228   1.252   3.581  14.533 -0.0140  0.6820  0.2403
 5531SOL    HW128229   1.317   3.524  14.574  0.0830  0.4797 -0.1963
 5531SOL    HW228230   1.252   3.568  14.438 -1.9362 -3.0438  0.7236
 5532SOL     OW28231   3.246   1.894  16.875  0.4434 -0.1618  0.7858
 5532SOL    HW128232   3.287   1.810  16.855  0.0044 -0.1469 -0.2082
 5532SOL    HW228233   3.243   1.932  16.787 -0.6726  0.3572  1.0507
 5533SOL     OW28234   0.532   4.308   8.715 -0.1670 -0.1793  0.1006
 5533SOL    HW128235   0.535   4.277   8.806  0.1954 -1.8535 -0.4840
 5533SOL    HW228236   0.489   4.391   8.731  2.3311  1.2711 -0.6793
 5534SOL     OW28237   3.230   2.171   2.527  0.0622  0.1026 -0.4099
 5534SOL    HW128238   3.233   2.075   2.523 -1.2681  0.1074 -1.3151
 5534SOL    HW228239   3.325   2.184   2.533  0.0104 -0.4613  1.6883
 5535SOL     OW28240   0.416   1.047   7.218 -0.7630 -0.2410 -0.6305
 5535SOL    HW128241   0.359   1.123   7.210 -0.5275  0.0686  0.6564
 5535SOL    HW228242   0.357   0.973   7.231 -1.0332 -0.0044 -0.5047
 5536SOL     OW28243   1.022   1.630   7.383  0.4736 -0.1217 -0.2205
 5536SOL    HW128244   0.940   1.581   7.376  1.6831 -1.9838 -1.3958
 5536SOL    HW228245   1.089   1.579   7.336 -0.4254  2.2718 -4.1367
 5537SOL     OW28246   2.776   0.334   9.489  0.4511 -0.4124  0.4545
 5537SOL    HW128247   2.716   0.390   9.440  1.1488  0.6936  0.8833
 5537SOL    HW228248   2.728   0.310   9.569 -3.2117 -0.6346 -1.8074
 5538SOL     OW28249   2.483   3.212  11.234 -0.4017  0.7232 -0.6089
 5538SOL    HW128250   2.514   3.223  11.144 -1.3840 -0.3645 -1.0692
 5538SOL    HW228251   2.393   3.184  11.218  0.6698 -2.6391 -0.6218
 5539SOL     OW28252   1.342   1.147   4.691 -0.3261 -0.0777 -0.5692
 5539SOL    HW128253   1.336   1.233   4.650 -1.6425  0.2242  0.2687
 5539SOL    HW228254   1.258   1.107   4.670  0.7857 -3.1198  0.7623
 5540SOL     OW28255   4.181   1.170   7.694  0.2084  0.1463  0.4397
 5540SOL    HW128256   4.244   1.216   7.638  1.1433 -1.9392 -0.2153
 5540SOL    HW228257   4.111   1.162   7.630 -0.4222  1.4711  0.9551
 5541SOL     OW28258   1.970   1.851   3.135 -0.3352  0.1361  0.1783
 5541SOL    HW128259   1.953   1.758   3.151 -0.8088 -0.0178 -1.2474
 5541SOL    HW228260   2.051   1.852   3.084  0.7808  2.0658  1.9788
 5542SOL     OW28261   1.987   2.550   9.278 -0.0159 -0.5929  0.3156
 5542SOL    HW128262   1.953   2.462   9.298  0.1379 -0.6109  0.4961
 5542SOL    HW228263   1.924   2.569   9.209  0.7434  2.1647  0.4034
 5543SOL     OW28264   1.376   3.267   7.276  0.1858  0.4652  0.0769
 5543SOL    HW128265   1.405   3.304   7.193 -0.9886 -2.0034 -1.4297
 5543SOL    HW228266   1.462   3.247   7.313  0.3486 -3.6015 -2.4860
 5544SOL     OW28267   3.154   3.766  13.108  0.1110 -0.6171 -0.6065
 5544SOL    HW128268   3.082   3.790  13.166  0.2695 -0.5101 -0.4535
 5544SOL    HW228269   3.141   3.672  13.121 -1.9523 -0.3317 -0.5376
 5545SOL     OW28270   1.117   3.080   8.608  0.0137 -0.2186  0.1236
 5545SOL    HW128271   1.187   3.143   8.594 -0.3331  0.6869  2.5229
 5545SOL    HW228272   1.063   3.123   8.674  0.1494 -1.9606  1.3776
 5546SOL     OW28273   3.655   3.845  14.432 -0.1219  0.1173 -0.1062
 5546SOL    HW128274   3.642   3.814  14.342  0.2456 -0.5166  0.0617
 5546SOL    HW228275   3.664   3.940  14.423 -2.5520  0.4176  0.6280
 5547SOL     OW28276   2.049   1.098  16.790 -0.2857 -0.1189 -0.5789
 5547SOL    HW128277   2.013   1.185  16.774 -0.7285 -0.3684 -0.9894
 5547SOL    HW228278   2.007   1.056  16.714 -0.6540 -0.5606 -0.1262
 5548SOL     OW28279   2.183   0.687   3.694  0.7094 -0.5359  0.0093
 5548SOL    HW128280   2.177   0.736   3.776 -0.5704  0.9669 -0.9787
 5548SOL    HW228281   2.111   0.624   3.704  1.1693 -0.6430  2.8553
 5549SOL     OW28282   4.546   1.681   3.201  0.2002 -0.1059  0.4705
 5549SOL    HW128283   4.464   1.660   3.156 -0.9444  2.9855  1.1018
 5549SOL    HW228284   4.587   1.737   3.136  0.0371 -1.4686 -0.7951
 5550SOL     OW28285   2.405   1.810  14.333  0.0008  0.1096  0.0169
 5550SOL    HW128286   2.390   1.897  14.297  0.5949  0.2119  0.0185
 5550SOL    HW228287   2.374   1.759  14.258 -1.7817 -0.0920  0.9134
 5551SOL     OW28288   1.909   3.889   5.072  0.0252 -0.3737 -0.9769
 5551SOL    HW128289   1.857   3.896   4.992  0.4776  0.5298 -1.1912
 5551SOL    HW228290   1.976   3.825   5.044  1.0056  0.3822 -0.3622
 5552SOL     OW28291   1.939   2.042  15.512 -0.3400 -0.4142 -0.4316
 5552SOL    HW128292   1.952   1.949  15.494 -1.5077 -0.5640 -0.4936
 5552SOL    HW228293   2.028   2.075  15.525 -0.1893 -0.3188 -1.7507
 5553SOL     OW28294   0.358   2.108  14.392  0.3293 -0.2719  0.0381
 5553SOL    HW128295   0.379   2.121  14.300  0.0743  0.3330  0.0660
 5553SOL    HW228296   0.432   2.140  14.443 -0.5147  0.9431  0.4887
 5554SOL     OW28297   4.177   1.918  16.021  0.3767 -0.3988 -0.6069
 5554SOL    HW128298   4.159   1.908  16.114  2.7615 -1.9626 -0.3221
 5554SOL    HW228299   4.244   1.849  16.022  2.4830  1.6549 -0.2180
 5555SOL     OW28300   2.974   4.707  11.195 -0.4277  0.4174  0.1073
 5555SOL    HW128301   2.949   0.052  11.156 -0.8076  0.8010  1.1851
 5555SOL    HW228302   3.015   0.004  11.273 -0.3610 -0.8241  0.6440
 5556SOL     OW28303   2.320   0.856   8.394  0.2143  0.2011 -0.2528
 5556SOL    HW128304   2.379   0.836   8.322  1.2524  0.7890  0.4265
 5556SOL    HW228305   2.375   0.872   8.471 -1.0210 -0.7270  0.8209
 5557SOL     OW28306   1.354   3.822   4.526 -0.0777  0.2365 -0.1495
 5557SOL    HW128307   1.355   3.900   4.471  2.2577  0.4441  0.1718
 5557SOL    HW228308   1.273   3.778   4.503  1.3616 -1.4705 -1.9581
 5558SOL     OW28309   1.937   1.174  11.721  0.6114 -0.3094 -0.0068
 5558SOL    HW128310   2.004   1.237  11.693 -0.0049  0.6100  0.5995
 5558SOL    HW228311   1.953   1.185  11.815 -0.4126  0.5217  0.0739
 5559SOL     OW28312   4.310   3.883  14.919  0.4120 -0.5652 -0.1000
 5559SOL    HW128313   4.359   3.946  14.867 -1.3713  0.4740 -0.5148
 5559SOL    HW228314   4.318   3.804  14.865 -1.2248 -0.9084  0.1466
 5560SOL     OW28315   4.033   2.118   8.020 -0.2493 -0.4011 -0.1661
 5560SOL    HW128316   4.112   2.123   7.966 -0.8089  1.6739 -0.7967
 5560SOL    HW228317   4.044   2.026   8.043  0.4557 -0.1068  0.6707
 5561SOL     OW28318   4.199   3.791   3.885  0.1387 -0.5577  0.0562
 5561SOL    HW128319   4.281   3.797   3.933 -0.2575 -0.9197  0.7706
 5561SOL    HW228320   4.181   3.697   3.888 -0.3567 -0.4879 -0.7836
 5562SOL     OW28321   2.556   3.320   8.523  0.1039 -0.1396 -0.4005
 5562SOL    HW128322   2.486   3.297   8.462 -2.0566  1.1436  1.6088
 5562SOL    HW228323   2.629   3.307   8.462  1.0831  1.2738  0.4966
 5563SOL     OW28324   3.891   2.272   9.203 -0.1071 -0.0213 -0.3276
 5563SOL    HW128325   3.914   2.364   9.220  0.7240 -0.6314  1.8285
 5563SOL    HW228326   3.967   2.236   9.249  0.8255  0.8851 -1.1633
 5564SOL     OW28327   4.363   0.266   1.899 -0.0314 -0.3579 -0.8428
 5564SOL    HW128328   4.290   0.325   1.916 -1.1017 -2.6843  2.6071
 5564SOL    HW228329   4.427   0.328   1.866  2.5999 -2.1206  0.9449
 5565SOL     OW28330   0.868   1.818   4.817  0.8283 -0.1092  0.2237
 5565SOL    HW128331   0.849   1.874   4.742 -0.4701 -0.3453  0.3864
 5565SOL    HW228332   0.960   1.793   4.804 -0.2016 -2.8559 -1.6502
 5566SOL     OW28333   0.255   1.917   0.166 -0.0050  0.4866  0.4795
 5566SOL    HW128334   0.214   1.830   0.160  2.7924 -0.8651  0.9157
 5566SOL    HW228335   0.337   1.918   0.117  0.4637 -1.9149  1.1752
 5567SOL     OW28336   2.508   3.832   0.861 -0.4382  0.6066 -0.2992
 5567SOL    HW128337   2.425   3.842   0.909 -0.3242  0.0502  0.0113
 5567SOL    HW228338   2.566   3.792   0.925 -1.2506 -1.8656 -1.0749
 5568SOL     OW28339   2.794   1.185   2.927 -0.2418  0.4653  0.2517
 5568SOL    HW128340   2.850   1.260   2.908 -0.2377  0.1087 -1.1343
 5568SOL    HW228341   2.818   1.124   2.857 -1.7543  1.0891 -0.8375
 5569SOL     OW28342   2.091   0.552  11.180  0.3754  0.0368  0.1195
 5569SOL    HW128343   2.043   0.606  11.117 -1.3782 -0.9880  0.5776
 5569SOL    HW228344   2.117   0.616  11.246 -0.5501  0.5370 -0.0025
 5570SOL     OW28345   1.795   2.003  13.939  0.0431 -0.4877  0.2757
 5570SOL    HW128346   1.811   2.066  14.009 -1.6148 -0.6697  0.8381
 5570SOL    HW228347   1.785   1.917  13.979  0.6958  0.2236  1.9638
 5571SOL     OW28348   2.969   3.649  13.791  0.1406 -0.5402 -0.3035
 5571SOL    HW128349   2.945   3.738  13.818  0.5817 -0.6585  0.4943
 5571SOL    HW228350   2.916   3.609  13.860  0.2955  0.9441  0.6793
 5572SOL     OW28351   2.908   3.568   3.880  0.9847 -0.1080  0.2612
 5572SOL    HW128352   2.853   3.614   3.817 -0.2169  1.2493  2.2851
 5572SOL    HW228353   2.960   3.636   3.924  1.9189 -1.0033  0.5385
 5573SOL     OW28354   2.715   3.400   5.783 -0.6856 -0.3052 -0.4127
 5573SOL    HW128355   2.684   3.324   5.734  0.4970 -3.4383  3.7680
 5573SOL    HW228356   2.714   3.468   5.715 -2.7822 -0.4248 -0.5063
 5574SOL     OW28357   0.025   3.731   4.953  0.0362 -0.4859 -0.1533
 5574SOL    HW128358   0.012   3.651   4.902  0.1495 -0.2406 -0.5747
 5574SOL    HW228359   0.016   3.800   4.887  0.0410  0.9431  1.3322
 5575SOL     OW28360   0.752   1.030   5.567  0.1417 -0.3102 -0.4722
 5575SOL    HW128361   0.819   1.052   5.632 -0.8286 -1.8676  1.0913
 5575SOL    HW228362   0.799   1.015   5.485 -1.1922 -2.5387 -0.8377
 5576SOL     OW28363   2.767   1.149   2.263  0.3751  0.5515 -0.8653
 5576SOL    HW128364   2.800   1.061   2.248 -0.1942 -0.4034  3.5995
 5576SOL    HW228365   2.705   1.167   2.192 -0.1622 -0.0771 -0.5479
 5577SOL     OW28366   3.031   3.237   8.257 -0.2846  0.0510  0.0970
 5577SOL    HW128367   3.020   3.322   8.299 -1.0825  0.2688 -0.5695
 5577SOL    HW228368   3.085   3.191   8.322  0.3982  0.6824 -0.0346
 5578SOL     OW28369   0.747   1.444  11.919 -0.3381 -0.8757  0.3233
 5578SOL    HW128370   0.822   1.460  11.976 -0.3674 -1.1121  0.4280
 5578SOL    HW228371   0.783   1.479  11.838 -1.4320  0.8310  0.5649
 5579SOL     OW28372   1.203   2.406   3.187  0.1070  0.0271  0.4251
 5579SOL    HW128373   1.128   2.359   3.224 -0.8634 -0.9098 -2.7803
 5579SOL    HW228374   1.230   2.441   3.272  0.4050  3.7289 -1.2172
 5580SOL     OW28375   0.171   0.245   2.168  0.6154 -0.0051  0.1798
 5580SOL    HW128376   0.200   0.311   2.230 -0.4176  3.6975 -3.2354
 5580SOL    HW228377   0.186   0.168   2.223  0.8165 -1.1473 -1.4446
 5581SOL     OW28378   0.167   2.851  12.431 -0.4000 -0.0208  0.3318
 5581SOL    HW128379   0.088   2.904  12.447 -0.8913 -0.5383 -0.4120
 5581SOL    HW228380   0.127   2.779  12.383  1.7963 -1.5514  0.8356
 5582SOL     OW28381   2.312   2.671   4.219 -0.0943  0.3042  0.7956
 5582SOL    HW128382   2.286   2.762   4.231 -1.5814  0.3347 -2.4988
 5582SOL    HW228383   2.336   2.638   4.305 -0.5407 -0.1982  0.7301
 5583SOL     OW28384   1.068   0.997   2.774 -0.7580  0.0543  0.9190
 5583SOL    HW128385   1.095   0.906   2.764  0.3636  0.5622 -0.6846
 5583SOL    HW228386   0.999   1.012   2.710 -0.4052  1.4156  0.8675
 5584SOL     OW28387   3.113   0.391   5.776 -0.3697 -0.1779 -0.2273
 5584SOL    HW128388   3.208   0.391   5.780 -0.4351  1.0110  1.5114
 5584SOL    HW228389   3.089   0.434   5.859 -1.1306  1.3493 -1.2270
 5585SOL     OW28390   0.745   3.170   2.236 -0.1731  0.0442 -0.4259
 5585SOL    HW128391   0.765   3.262   2.219  1.7970 -0.8035 -2.7586
 5585SOL    HW228392   0.778   3.172   2.325  0.2814  1.1332 -0.6274
 5586SOL     OW28393   0.374   1.455   8.614  0.0285 -0.7978 -0.2426
 5586SOL    HW128394   0.302   1.411   8.568 -0.5322  0.2897 -0.3998
 5586SOL    HW228395   0.425   1.484   8.539 -0.5164  1.3602  0.2098
 5587SOL     OW28396   2.965   1.647   7.239 -0.2125  0.0185 -0.1834
 5587SOL    HW128397   2.932   1.619   7.324  1.4130  0.9495  0.7578
 5587SOL    HW228398   2.885   1.657   7.187 -0.4924  0.4921  0.3465
 5588SOL     OW28399   1.257   0.849   8.701  0.5764  0.4640  0.3719
 5588SOL    HW128400   1.277   0.756   8.713  1.7568  0.7947  1.0266
 5588SOL    HW228401   1.346   0.879   8.681 -0.3361  1.8370 -1.5566
 5589SOL     OW28402   2.726   3.176   2.798  0.2108 -0.7332 -0.5611
 5589SOL    HW128403   2.669   3.252   2.812 -0.1890 -0.7885 -1.9477
 5589SOL    HW228404   2.779   3.185   2.878 -1.4200  1.0727  0.3236
 5590SOL     OW28405   3.814   2.977   8.584  0.5296  0.3301 -0.6325
 5590SOL    HW128406   3.835   2.990   8.677 -2.8859  1.1941  0.0183
 5590SOL    HW228407   3.736   2.921   8.583 -0.4167  1.5986  0.5302
 5591SOL     OW28408   2.811   0.121   4.708  0.0764 -0.5150  0.0093
 5591SOL    HW128409   2.756   0.082   4.775 -1.4107  1.1848 -0.2416
 5591SOL    HW228410   2.852   0.201   4.741  0.3760 -0.1506 -1.2511
 5592SOL     OW28411   2.536   3.469   7.447  0.1853 -0.3078 -0.3504
 5592SOL    HW128412   2.574   3.423   7.522  2.5008  1.9418 -0.1498
 5592SOL    HW228413   2.481   3.401   7.408  0.4588 -1.2591  0.9084
 5593SOL     OW28414   4.389   2.678   0.159 -0.4069 -0.2647 -0.4214
 5593SOL    HW128415   4.325   2.673   0.088 -0.3613 -0.2235 -0.4652
 5593SOL    HW228416   4.423   2.590   0.149 -0.5364 -0.2886 -0.6546
 5594SOL     OW28417   2.335   3.790  14.054  0.2938 -0.5673 -0.5002
 5594SOL    HW128418   2.326   3.879  14.088 -1.2825 -0.8121 -0.3123
 5594SOL    HW228419   2.389   3.806  13.976  0.6451 -0.4392 -0.2343
 5595SOL     OW28420   3.635   2.332   8.655  0.3152 -0.1309  0.1029
 5595SOL    HW128421   3.556   2.382   8.675 -0.5951 -1.9348  1.0711
 5595SOL    HW228422   3.661   2.304   8.743  0.2004 -1.1076 -0.1670
 5596SOL     OW28423   3.644   0.499   4.605 -0.3201 -0.6548 -0.2276
 5596SOL    HW128424   3.633   0.419   4.657  3.2432 -0.8416  0.2010
 5596SOL    HW228425   3.576   0.485   4.539  1.2887 -1.2900 -1.7269
 5597SOL     OW28426   0.301   2.857  12.897 -0.1800 -0.2833  0.3590
 5597SOL    HW128427   0.297   2.762  12.912  0.6701 -0.4896 -0.6998
 5597SOL    HW228428   0.312   2.895  12.984 -0.5254  0.6312  0.0039
 5598SOL     OW28429   3.141   4.427   2.801  0.2800  0.0917  0.4036
 5598SOL    HW128430   3.172   4.497   2.744  0.8394 -0.6550 -0.2203
 5598SOL    HW228431   3.168   4.456   2.888 -0.3630  0.1130  0.5974
 5599SOL     OW28432   0.732   4.394   5.065  0.4894 -0.2722  0.2734
 5599SOL    HW128433   0.700   4.305   5.072 -0.4585  0.0515  0.0198
 5599SOL    HW228434   0.739   4.388   4.969  0.8428 -0.7901  0.3312
 5600SOL     OW28435   2.586   0.065   9.975 -0.5860 -0.6301 -0.2774
 5600SOL    HW128436   2.507   0.118   9.993 -0.5901 -0.5494 -0.5312
 5600SOL    HW228437   2.611   0.038  10.063  1.2981 -0.7934 -0.8805
 5601SOL     OW28438   3.949   0.650  10.662  0.0267  0.1488  0.3705
 5601SOL    HW128439   4.025   0.654  10.719 -0.2134  3.0879  0.4759
 5601SOL    HW228440   3.976   0.690  10.579 -0.2692  0.8419  0.6140
 5602SOL     OW28441   1.075   1.276  12.586  1.0201  0.5550 -0.1452
 5602SOL    HW128442   1.068   1.227  12.504  2.6117  0.2282 -0.0855
 5602SOL    HW228443   1.004   1.339  12.592  1.4532  0.7848  2.4725
 5603SOL     OW28444   4.667   4.449   4.167  0.0273  0.3418 -0.1159
 5603SOL    HW128445   4.702   4.470   4.254 -0.2286 -0.6489  0.2207
 5603SOL    HW228446   4.699   4.360   4.154  3.3979  1.3392  1.3120
 5604SOL     OW28447   3.103   0.493   1.036 -0.6793 -0.3854  0.0830
 5604SOL    HW128448   3.170   0.452   0.983  0.1227  1.1737 -0.1077
 5604SOL    HW228449   3.042   0.516   0.966 -0.0529 -2.7162 -1.2141
 5605SOL     OW28450   4.479   0.406   7.123 -0.4451  0.5993 -0.5077
 5605SOL    HW128451   4.564   0.369   7.150 -0.9295  0.6592  1.1223
 5605SOL    HW228452   4.435   0.421   7.207  0.7746  4.9634 -0.6640
 5606SOL     OW28453   4.653   2.512   3.940 -0.2617  0.0246  0.2163
 5606SOL    HW128454   4.701   2.460   4.004  0.5976 -0.5818 -0.9329
 5606SOL    HW228455   4.731   2.564   3.920 -0.8978  0.1116 -2.1119
 5607SOL     OW28456   3.118   1.831   6.643  0.0531  0.4452 -0.1033
 5607SOL    HW128457   3.059   1.906   6.640 -0.5318  0.0613  2.8528
 5607SOL    HW228458   3.078   1.763   6.589  0.4042 -0.4835  0.8108
 5608SOL     OW28459   4.547   3.272   5.856 -0.1782 -0.3508 -0.4418
 5608SOL    HW128460   4.475   3.239   5.802 -1.3365  0.9509  0.3022
 5608SOL    HW228461   4.503   3.256   5.939  0.2779 -0.7712 -0.2793
 5609SOL     OW28462   3.194   4.666   0.234  0.2314  0.2034 -0.0062
 5609SOL    HW128463   3.109   4.632   0.263 -0.5614  1.2861 -1.0508
 5609SOL    HW228464   3.160   4.734   0.176 -1.2703  1.7235  2.6435
 5610SOL     OW28465   2.395   3.193   7.593  0.2481  0.0577 -0.1977
 5610SOL    HW128466   2.479   3.237   7.609  0.6498 -1.9316  3.2259
 5610SOL    HW228467   2.382   3.177   7.687  1.6327 -2.7789 -0.4654
 5611SOL     OW28468   4.430   3.694   7.308 -0.2151 -0.0843  0.0713
 5611SOL    HW128469   4.424   3.739   7.224 -0.6798  0.1752  0.2407
 5611SOL    HW228470   4.408   3.607   7.277 -0.6971  0.5167 -1.2752
 5612SOL     OW28471   1.859   2.002   2.704 -0.1677  0.5362  0.0995
 5612SOL    HW128472   1.856   2.004   2.608  0.4712 -1.7402  0.0356
 5612SOL    HW228473   1.885   1.911   2.719 -0.5026  0.0862 -1.9615
 5613SOL     OW28474   1.583   2.491   8.165  0.1858 -0.8517 -0.3748
 5613SOL    HW128475   1.661   2.469   8.215  0.9255  1.3965 -0.5264
 5613SOL    HW228476   1.517   2.429   8.196  0.4193 -0.2556  1.3261
 5614SOL     OW28477   1.369   3.023   3.704 -0.2720  0.2817 -0.0640
 5614SOL    HW128478   1.450   2.975   3.685 -0.0959  0.6150 -0.1379
 5614SOL    HW228479   1.367   3.028   3.800  0.1946 -0.1621 -0.0244
 5615SOL     OW28480   1.869   3.921   8.777  0.0182  0.6464  0.5312
 5615SOL    HW128481   1.807   3.874   8.721  2.1610 -2.5687  0.8885
 5615SOL    HW228482   1.954   3.914   8.735  0.4133 -0.1144  1.4687
 5616SOL     OW28483   1.576   2.250   5.981  0.5016 -0.7249  0.2988
 5616SOL    HW128484   1.516   2.315   6.016 -2.1205 -1.7358 -2.2754
 5616SOL    HW228485   1.572   2.269   5.887 -2.1591  1.1081  0.8064
 5617SOL     OW28486   2.036   4.645   9.131  0.3635  0.2413  0.4221
 5617SOL    HW128487   2.116   4.664   9.082 -1.3201  1.3660 -1.8721
 5617SOL    HW228488   1.959   4.685   9.092  0.1764 -0.3586  0.1820
 5618SOL     OW28489   3.491   4.520   3.100  0.0572  0.1028 -0.3865
 5618SOL    HW128490   3.481   4.615   3.092 -2.4874 -0.1444 -0.1885
 5618SOL    HW228491   3.575   4.513   3.145  1.2017  0.2093 -2.5390
 5619SOL     OW28492   2.134   0.839   6.468  0.6063 -0.1841  0.4056
 5619SOL    HW128493   2.079   0.782   6.414 -0.9272 -1.1910  3.0582
 5619SOL    HW228494   2.069   0.860   6.535  0.9365  1.7896  0.1144
 5620SOL     OW28495   0.635   3.697   7.367  0.3867  0.1436  0.8790
 5620SOL    HW128496   0.584   3.683   7.447 -0.2409  0.9465  0.6224
 5620SOL    HW228497   0.707   3.754   7.396 -0.2282  0.0572  2.6022
 5621SOL     OW28498   1.984   2.139   6.716 -0.5288  0.3666  0.4569
 5621SOL    HW128499   1.975   2.235   6.710  1.4911  0.6418  1.9381
 5621SOL    HW228500   1.935   2.127   6.798  0.3759  0.1542  0.9664
 5622SOL     OW28501   2.178   0.043   1.564  0.0207  0.1692 -0.0384
 5622SOL    HW128502   2.136   4.715   1.618  0.7671  1.2956  1.9320
 5622SOL    HW228503   2.122   0.052   1.487  1.3213 -0.1552 -1.0361
 5623SOL     OW28504   2.799   2.402   7.075  0.1321  0.2951  0.2555
 5623SOL    HW128505   2.826   2.431   7.162  1.1816 -1.7398  0.6031
 5623SOL    HW228506   2.703   2.411   7.075 -0.0780 -1.8462 -0.1249
 5624SOL     OW28507   1.360   4.415   8.911 -0.3477  0.3355  0.4012
 5624SOL    HW128508   1.276   4.371   8.895  0.1111 -0.0679 -0.9100
 5624SOL    HW228509   1.329   4.488   8.964  1.0306  1.3930 -0.2647
 5625SOL     OW28510   1.871   2.912   3.136  0.5024 -0.2396  0.3352
 5625SOL    HW128511   1.848   2.938   3.047 -0.6541 -0.8291  0.4589
 5625SOL    HW228512   1.894   2.994   3.178  0.6781 -0.8337  1.3975
 5626SOL     OW28513   4.566   3.112   2.016  0.1111  0.4569  0.1087
 5626SOL    HW128514   4.653   3.094   1.982  0.8085  0.5394  1.8693
 5626SOL    HW228515   4.543   3.188   1.962  1.4277  2.3986  2.2969
 5627SOL     OW28516   4.563   3.080  16.717 -0.6589  0.7219  0.1031
 5627SOL    HW128517   4.633   3.053  16.776 -0.5787 -2.2267 -1.3753
 5627SOL    HW228518   4.505   3.118  16.783 -3.7351 -2.6900 -0.6230
 5628SOL     OW28519   4.033   1.149   9.177  0.9918  0.6425 -0.3592
 5628SOL    HW128520   4.113   1.180   9.134  1.6835 -0.2124  0.3130
 5628SOL    HW228521   4.010   1.232   9.218 -0.1669  0.5718 -0.8562
 5629SOL     OW28522   4.400   3.854   4.058 -0.1936 -0.1603  0.0454
 5629SOL    HW128523   4.493   3.839   4.074 -0.6345 -1.0596  1.7241
 5629SOL    HW228524   4.394   3.950   4.064  1.3981 -0.0973  0.6084
 5630SOL     OW28525   4.398   2.688  14.340 -0.1353  0.3352 -0.4093
 5630SOL    HW128526   4.480   2.687  14.291 -0.2930 -2.1572 -0.6268
 5630SOL    HW228527   4.391   2.600  14.378  1.0720  1.1266  1.6599
 5631SOL     OW28528   4.257   4.450  13.218  0.6442  0.2451  0.7081
 5631SOL    HW128529   4.330   4.388  13.225  0.7139  0.5913  3.0270
 5631SOL    HW228530   4.242   4.453  13.124 -0.6616 -0.9734  0.8785
 5632SOL     OW28531   3.649   1.585   6.810  0.3428  0.1628  0.0075
 5632SOL    HW128532   3.581   1.642   6.847  0.0849 -0.7710  0.9884
 5632SOL    HW228533   3.599   1.519   6.762  0.6005  0.6443 -0.9125
 5633SOL     OW28534   2.129   4.033   5.723  0.0937  0.3713  0.6064
 5633SOL    HW128535   2.113   3.957   5.667  0.6755  1.1084 -0.5469
 5633SOL    HW228536   2.216   4.063   5.695 -0.3952  0.5356 -0.7100
 5634SOL     OW28537   4.406   0.543   5.789  0.5131  0.7752  0.0876
 5634SOL    HW128538   4.395   0.594   5.709 -3.1073 -1.1891 -0.6997
 5634SOL    HW228539   4.333   0.580   5.839 -0.7989 -0.7925 -0.6471
 5635SOL     OW28540   2.947   2.677   3.572  0.0575  0.3250 -0.5010
 5635SOL    HW128541   2.882   2.746   3.561 -0.1871 -0.0816 -1.7077
 5635SOL    HW228542   2.986   2.681   3.484  0.2240  1.2640 -0.3790
 5636SOL     OW28543   2.697   2.369   3.130  0.6097 -0.2065 -0.2205
 5636SOL    HW128544   2.660   2.348   3.044  1.3504 -0.4617 -0.4815
 5636SOL    HW228545   2.684   2.283   3.170  1.1949 -0.6312 -0.9330
 5637SOL     OW28546   4.593   3.440  15.482 -0.2730  0.0882  0.5104
 5637SOL    HW128547   4.547   3.406  15.558 -0.3549 -1.5921 -0.2994
 5637SOL    HW228548   4.660   3.373  15.476 -0.5021 -0.1856  0.9993
 5638SOL     OW28549   0.997   3.646   5.586 -0.9966  0.2069 -0.6720
 5638SOL    HW128550   1.072   3.703   5.571 -0.2775 -0.5312  0.1317
 5638SOL    HW228551   1.033   3.604   5.664 -1.3863  0.5268 -0.3180
 5639SOL     OW28552   4.286   3.985   1.433  0.2738 -0.1033  0.0269
 5639SOL    HW128553   4.291   3.985   1.337  0.2481 -0.5732  0.0255
 5639SOL    HW228554   4.362   4.033   1.466  0.5337  0.1811 -0.9690
 5640SOL     OW28555   0.268   1.561   9.040 -0.6533  0.5547 -0.0275
 5640SOL    HW128556   0.243   1.636   9.094 -2.3584 -1.1216  1.5421
 5640SOL    HW228557   0.263   1.595   8.951 -0.9465 -0.4012 -0.3849
 5641SOL     OW28558   0.630   1.085  10.933  0.1554  0.1104  0.0036
 5641SOL    HW128559   0.713   1.102  10.887 -0.4039  2.6797 -0.1004
 5641SOL    HW228560   0.619   0.991  10.922  1.3371 -0.1057  0.6602
 5642SOL     OW28561   3.914   3.741   9.748 -0.2389  0.3185  0.0776
 5642SOL    HW128562   3.903   3.748   9.842 -1.4064  3.6741 -0.3356
 5642SOL    HW228563   3.889   3.831   9.730 -0.7177  0.3835  1.0999
 5643SOL     OW28564   4.531   3.233   6.657  0.0614 -0.5921  0.3884
 5643SOL    HW128565   4.473   3.158   6.664 -0.0431 -0.4424  1.0813
 5643SOL    HW228566   4.600   3.211   6.719  0.7715 -2.3648 -1.0263
 5644SOL     OW28567   1.003   0.408  16.436  0.2355  0.3002 -0.0385
 5644SOL    HW128568   1.057   0.365  16.503  0.0732  1.8627  1.0845
 5644SOL    HW228569   0.956   0.337  16.393 -1.3084  1.1273  0.2807
 5645SOL     OW28570   0.162   1.034   5.926 -0.1013  0.5546 -0.9007
 5645SOL    HW128571   0.080   0.985   5.919  0.3665 -0.1045 -1.8223
 5645SOL    HW228572   0.223   0.960   5.923 -0.2133  0.3534  1.6897
 5646SOL     OW28573   3.255   2.063   3.153  0.1752 -0.0150  0.1799
 5646SOL    HW128574   3.250   2.114   3.234  0.1113  0.6097 -0.2146
 5646SOL    HW228575   3.193   1.995   3.179 -1.0223  0.6585 -0.9588
 5647SOL     OW28576   3.892   2.287   6.435  0.4425  0.3535  0.9487
 5647SOL    HW128577   3.833   2.278   6.510 -1.0095  0.8774 -0.1063
 5647SOL    HW228578   3.903   2.382   6.429 -0.9546  0.4464 -0.1263
 5648SOL     OW28579   4.280   4.018   7.135 -0.0596  0.2398 -0.2456
 5648SOL    HW128580   4.346   3.958   7.099 -1.0373 -0.9513 -0.0393
 5648SOL    HW228581   4.263   4.078   7.062 -1.5567 -1.5116 -1.3262
 5649SOL     OW28582   0.582   0.442  10.882 -0.5732 -0.2817  0.0514
 5649SOL    HW128583   0.527   0.506  10.838  1.2910  1.7788  0.7244
 5649SOL    HW228584   0.520   0.370  10.896 -0.7444  0.3338  2.4299
 5650SOL     OW28585   4.185   0.547   4.564  0.0114  0.2199  0.2494
 5650SOL    HW128586   4.274   0.573   4.588  1.1298 -0.4590 -3.2442
 5650SOL    HW228587   4.154   0.626   4.520  0.9092  1.4607  1.8370
 5651SOL     OW28588   0.909   0.221   3.814  0.9730 -0.2080  0.5725
 5651SOL    HW128589   0.991   0.212   3.864  0.7086 -0.6227  0.9268
 5651SOL    HW228590   0.849   0.172   3.870 -1.6389  0.1398 -1.9161
 5652SOL     OW28591   3.318   0.614   7.762 -0.0470 -0.8215  0.1602
 5652SOL    HW128592   3.279   0.682   7.816  1.3156  1.5595 -1.8094
 5652SOL    HW228593   3.346   0.549   7.827 -1.0433 -0.9416  0.4607
 5653SOL     OW28594   3.202   0.111   1.910 -0.1598  0.6212 -0.3256
 5653SOL    HW128595   3.176   0.093   1.820 -1.2181  3.2580 -0.5443
 5653SOL    HW228596   3.120   0.107   1.960 -1.0479 -0.0567 -1.8679
 5654SOL     OW28597   4.330   2.853   7.187  0.3982 -0.1591  0.2494
 5654SOL    HW128598   4.345   2.929   7.131  2.2353 -0.3250  0.5267
 5654SOL    HW228599   4.259   2.877   7.247  0.5743 -1.8315  1.1086
 5655SOL     OW28600   1.321   3.269  14.399 -0.1094  0.3625 -0.7712
 5655SOL    HW128601   1.375   3.322  14.457  2.3043 -0.4936 -2.2049
 5655SOL    HW228602   1.383   3.231  14.337  0.2198  1.6395 -1.2275
 5656SOL     OW28603   3.268   4.463   1.697  0.1524  0.3582  0.2314
 5656SOL    HW128604   3.183   4.507   1.703  0.3103  0.6994 -0.0423
 5656SOL    HW228605   3.262   4.391   1.760 -0.9196 -1.7953 -2.2821
 5657SOL     OW28606   1.499   1.389   6.312 -0.0128  0.3549 -0.1855
 5657SOL    HW128607   1.578   1.358   6.267  0.8459 -0.4018  1.8352
 5657SOL    HW228608   1.474   1.309   6.358  0.8293 -0.0012 -0.3455
 5658SOL     OW28609   4.037   1.442  15.010  0.0391  0.3200  0.0054
 5658SOL    HW128610   4.047   1.387  14.933 -3.7592  1.6133 -1.4129
 5658SOL    HW228611   3.991   1.378  15.065  2.2066 -0.8486  0.4525
 5659SOL     OW28612   4.657   1.253   9.500 -0.2024  0.9956  0.3039
 5659SOL    HW128613   4.735   1.300   9.471  0.7850 -0.5920  0.4084
 5659SOL    HW228614   4.587   1.282   9.441 -0.9028  1.1385  1.2097
 5660SOL     OW28615   1.952   1.925   6.200 -0.1282  0.4202  0.5166
 5660SOL    HW128616   1.879   1.888   6.249 -0.9470  0.7746 -0.4417
 5660SOL    HW228617   1.909   1.992   6.147 -0.2973 -0.9747 -1.1053
 5661SOL     OW28618   3.869   2.193   2.731 -0.3564 -0.4738 -0.0795
 5661SOL    HW128619   3.886   2.103   2.760  2.2944  0.3184  0.8174
 5661SOL    HW228620   3.957   2.202   2.694  0.0981 -1.2724  0.8066
 5662SOL     OW28621   1.029   0.094   6.272 -0.2681  0.5921 -0.0501
 5662SOL    HW128622   0.937   0.121   6.261 -0.7962 -0.8145  0.9018
 5662SOL    HW228623   1.047   0.117   6.364 -1.0734 -0.5380  0.3928
 5663SOL     OW28624   3.091   1.922  14.736 -0.6177 -0.1069  0.3382
 5663SOL    HW128625   3.137   1.838  14.726  0.3972  0.4161  0.6653
 5663SOL    HW228626   3.161   1.981  14.763 -0.1200 -0.9908  0.9790
 5664SOL     OW28627   3.962   1.390   2.146 -0.0021  0.6632  0.2581
 5664SOL    HW128628   3.920   1.424   2.226  0.9771  3.4698 -0.4082
 5664SOL    HW228629   3.912   1.309   2.143  1.8509 -0.5056  0.9912
 5665SOL     OW28630   1.683   1.063   7.600 -0.6598  0.4517  0.0995
 5665SOL    HW128631   1.695   0.976   7.639  1.6277  0.7444 -0.0026
 5665SOL    HW228632   1.774   1.087   7.585 -0.2993 -1.4501 -0.8431
 5666SOL     OW28633   2.481   1.355   3.425  0.2164  0.4468 -0.1123
 5666SOL    HW128634   2.422   1.281   3.409  1.1849  0.2120 -2.5965
 5666SOL    HW228635   2.444   1.388   3.506  0.8977 -1.9384  1.1717
 5667SOL     OW28636   2.444   1.074   4.664  0.0828  0.3392 -0.6600
 5667SOL    HW128637   2.420   1.085   4.572 -0.6943 -2.1889 -0.7577
 5667SOL    HW228638   2.393   0.994   4.680 -0.2479  0.7466  0.3180
 5668SOL     OW28639   3.965   1.367   8.836  0.6883 -0.0196 -0.3755
 5668SOL    HW128640   4.019   1.331   8.765  1.1817 -1.0623  0.5188
 5668SOL    HW228641   3.994   1.306   8.904  1.8241  1.0356  0.0765
 5669SOL     OW28642   3.287   1.211  10.907  0.4412  0.3385  0.2870
 5669SOL    HW128643   3.252   1.269  10.975 -1.9178  3.2166 -3.3576
 5669SOL    HW228644   3.362   1.267  10.884  0.8621 -0.9614 -1.4722
 5670SOL     OW28645   1.179   2.111  13.688 -0.0693 -0.3073 -0.3856
 5670SOL    HW128646   1.255   2.060  13.662  1.0708  0.7527  0.8567
 5670SOL    HW228647   1.202   2.137  13.777 -1.3095  0.5842 -0.3128
 5671SOL     OW28648   1.571   3.560  14.238 -0.1544 -0.2867 -0.5422
 5671SOL    HW128649   1.612   3.492  14.185 -1.5854 -1.8981  0.4276
 5671SOL    HW228650   1.628   3.554  14.314  0.2438 -0.2688 -0.8368
 5672SOL     OW28651   2.057   0.519   6.660 -0.5329 -0.1293  0.7130
 5672SOL    HW128652   2.027   0.555   6.577  2.2070  1.3428  0.3574
 5672SOL    HW228653   2.151   0.527   6.643 -0.6178 -1.5737 -0.4726
 5673SOL     OW28654   4.263   2.105   9.639  0.4933  0.2271 -0.8520
 5673SOL    HW128655   4.319   2.146   9.572  1.3864 -0.8601 -0.7679
 5673SOL    HW228656   4.324   2.077   9.707 -0.9946  1.7240  1.0805
 5674SOL     OW28657   3.874   1.722   7.139  0.8067  0.2117  0.2196
 5674SOL    HW128658   3.798   1.778   7.156  0.7475 -0.2346  1.4336
 5674SOL    HW228659   3.894   1.739   7.047 -0.6896  0.0345 -0.1372
 5675SOL     OW28660   3.771   1.432  10.900 -0.5378  0.0284 -0.0771
 5675SOL    HW128661   3.801   1.502  10.841 -1.8418 -0.4968 -1.3844
 5675SOL    HW228662   3.800   1.462  10.986 -0.7871  1.1708 -0.3833
 5676SOL     OW28663   1.978   0.355   6.158  0.3797  0.2112  0.0572
 5676SOL    HW128664   1.886   0.379   6.164 -0.0351 -1.4906  0.6293
 5676SOL    HW228665   2.009   0.330   6.245 -4.1879  0.9856  1.8945
 5677SOL     OW28666   2.185   1.208  12.946  0.2174 -0.1549  0.0175
 5677SOL    HW128667   2.102   1.244  12.976  0.5278 -0.7272  1.5544
 5677SOL    HW228668   2.171   1.210  12.852  1.2825 -0.2656 -0.1463
 5678SOL     OW28669   2.893   2.900   1.850 -0.0331 -0.3238 -0.2902
 5678SOL    HW128670   2.816   2.958   1.851 -0.6424 -1.1860  2.1097
 5678SOL    HW228671   2.863   2.811   1.866  1.8545 -0.7096  1.0516
 5679SOL     OW28672   2.472   3.920  17.561 -0.3551 -0.3051  0.3848
 5679SOL    HW128673   2.438   3.973  17.633 -0.5077 -0.2133  0.2456
 5679SOL    HW228674   2.472   3.834  17.602  1.1572  0.2273  1.4952
 5680SOL     OW28675   4.731   2.490   1.325 -0.6224  0.2014 -0.0486
 5680SOL    HW128676   4.726   2.564   1.265  0.5040  1.6483  1.6455
 5680SOL    HW228677   0.029   2.426   1.264  1.5549  0.4546  0.9970
 5681SOL     OW28678   0.973   3.398  11.660  0.1069 -0.3019 -0.7012
 5681SOL    HW128679   1.024   3.333  11.613 -0.6937  1.2949 -3.7884
 5681SOL    HW228680   1.010   3.470  11.608  3.5292 -2.2165 -0.8998
 5682SOL     OW28681   3.435   4.381   4.527 -0.3409 -0.1291 -0.3856
 5682SOL    HW128682   3.424   4.471   4.557 -2.5098 -0.0414 -1.4954
 5682SOL    HW228683   3.453   4.335   4.610  0.7785  2.5148  0.8154
 5683SOL     OW28684   1.008   2.261   1.893 -0.3405 -0.0678  0.1930
 5683SOL    HW128685   0.982   2.335   1.947 -0.2977 -0.6008  0.9540
 5683SOL    HW228686   1.012   2.197   1.964  1.1446 -1.4838 -1.1617
 5684SOL     OW28687   2.656   4.574   0.318 -0.2172 -0.1078 -0.2066
 5684SOL    HW128688   2.657   4.561   0.413 -1.6456  1.7493  0.0554
 5684SOL    HW228689   2.599   4.502   0.292 -2.3160  1.1052  1.1045
 5685SOL     OW28690   3.476   2.868   1.932  0.0157 -0.3867  0.1204
 5685SOL    HW128691   3.568   2.842   1.931 -0.2062 -1.1673  0.0226
 5685SOL    HW228692   3.445   2.847   2.020  2.2305 -1.2451  0.7000
 5686SOL     OW28693   1.119   4.189   4.476  0.3647  0.4777 -0.0966
 5686SOL    HW128694   1.078   4.271   4.502 -0.1677 -0.0680  0.8097
 5686SOL    HW228695   1.149   4.152   4.558  0.0316 -0.1342 -0.2457
 5687SOL     OW28696   3.008   2.064   6.420 -0.2512  0.3257 -0.2337
 5687SOL    HW128697   2.954   2.143   6.418 -1.2272 -0.3930 -1.7732
 5687SOL    HW228698   2.971   2.025   6.498  2.2214 -1.9173 -0.1691
 5688SOL     OW28699   3.106   1.134  10.744  0.2900 -0.0976  0.2848
 5688SOL    HW128700   3.178   1.158  10.802  0.3365  0.2010  0.1043
 5688SOL    HW228701   3.151   1.148  10.661 -1.1182 -0.7591 -0.5950
 5689SOL     OW28702   1.065   3.668  12.146  0.4203  0.1611 -0.5203
 5689SOL    HW128703   1.064   3.659  12.051  1.5217 -0.6368 -0.4597
 5689SOL    HW228704   1.151   3.630  12.164 -0.9280 -0.3237  5.0432
 5690SOL     OW28705   0.351   2.268   7.706  0.2998 -0.2969  0.4246
 5690SOL    HW128706   0.282   2.211   7.741  0.2465 -0.4163  0.1237
 5690SOL    HW228707   0.312   2.293   7.623  1.4644 -0.0848 -0.0687
 5691SOL     OW28708   0.635   3.432   5.422 -0.1237 -0.0497  0.0943
 5691SOL    HW128709   0.545   3.422   5.453 -0.0702  2.2950  1.0544
 5691SOL    HW228710   0.652   3.357   5.366  1.1112 -1.1336  1.8987
 5692SOL     OW28711   3.930   1.028   6.833 -0.0592 -0.0271  0.1650
 5692SOL    HW128712   3.843   0.989   6.835  0.2662 -0.7662 -0.0251
 5692SOL    HW228713   3.951   1.040   6.926  2.0110  1.1516 -0.4415
 5693SOL     OW28714   2.374   4.197   6.008 -0.2802 -1.3596 -0.6021
 5693SOL    HW128715   2.296   4.236   5.969 -0.6330 -2.3054 -0.8426
 5693SOL    HW228716   2.338   4.168   6.092 -1.2050 -2.6009 -1.4303
 5694SOL     OW28717   4.479   2.747   3.797 -0.3055  0.2353 -0.5870
 5694SOL    HW128718   4.531   2.672   3.767  0.5394  1.0445 -1.1029
 5694SOL    HW228719   4.535   2.821   3.778  2.5252 -1.8261 -0.2492
 5695SOL     OW28720   4.723   0.316   7.148 -0.3619 -0.4294 -0.0778
 5695SOL    HW128721   0.041   0.247   7.115 -0.8801 -1.4505  1.2086
 5695SOL    HW228722   0.050   0.364   7.199  1.7703 -0.3732 -2.8283
 5696SOL     OW28723   1.835   0.161   0.146  0.5103 -0.3497 -0.2768
 5696SOL    HW128724   1.748   0.197   0.163  0.7437 -0.2358  0.6467
 5696SOL    HW228725   1.854   0.115   0.228 -1.2499 -0.0513  0.2926
 5697SOL     OW28726   4.229   0.455   2.575 -0.0470 -0.1141  0.0599
 5697SOL    HW128727   4.148   0.505   2.579 -0.3288 -0.4112 -2.0809
 5697SOL    HW228728   4.254   0.459   2.483  1.1880  0.4752  0.4149
 5698SOL     OW28729   1.942   3.803  10.098  0.0262  0.1978  0.7922
 5698SOL    HW128730   1.976   3.715  10.085  1.2376  1.2871 -3.6655
 5698SOL    HW228731   1.938   3.814  10.193  0.4334 -0.9829  0.9385
 5699SOL     OW28732   0.134   3.475   6.604  0.1738 -0.6407 -0.1772
 5699SOL    HW128733   0.172   3.402   6.654 -2.8154 -2.0826 -0.0106
 5699SOL    HW228734   0.068   3.517   6.659  1.7643 -0.7116  1.7640
 5700SOL     OW28735   2.381   1.779  10.597  0.1072 -0.4128 -0.6812
 5700SOL    HW128736   2.448   1.806  10.660 -0.1178 -2.1798  0.3159
 5700SOL    HW228737   2.364   1.861  10.551 -1.0293 -0.2628 -0.0037
 5701SOL     OW28738   3.946   1.229  15.161 -0.0567  0.1139  0.2706
 5701SOL    HW128739   3.894   1.156  15.127  0.0272 -0.4737  1.4000
 5701SOL    HW228740   3.967   1.197  15.249  0.5557 -2.0832 -0.6858
 5702SOL     OW28741   4.194   1.763  14.263 -0.3963 -0.1791  0.3770
 5702SOL    HW128742   4.258   1.718  14.208  0.0499 -1.6317  2.0862
 5702SOL    HW228743   4.121   1.791  14.207  1.3764  0.0915 -1.8050
 5703SOL     OW28744   1.123   1.116   5.590  0.1017 -0.6899  0.2397
 5703SOL    HW128745   1.056   1.163   5.639  1.2924  2.3175 -0.9834
 5703SOL    HW228746   1.112   1.024   5.611 -3.0134 -0.2918  0.3742
 5704SOL     OW28747   0.836   0.517   3.854  0.0799 -0.1076 -0.5647
 5704SOL    HW128748   0.845   0.424   3.876 -3.7274 -0.7055 -1.6015
 5704SOL    HW228749   0.741   0.519   3.845 -0.1459 -1.4965  1.3626
 5705SOL     OW28750   0.945   3.098  15.635 -0.1889 -0.6442 -0.2754
 5705SOL    HW128751   1.035   3.118  15.661 -0.9677 -0.9766  2.7817
 5705SOL    HW228752   0.900   3.182  15.634  2.2258  0.6749  0.8801
 5706SOL     OW28753   3.227   3.156  17.123 -0.6497 -0.1684  0.1151
 5706SOL    HW128754   3.302   3.214  17.111  0.3575 -1.2258  1.2928
 5706SOL    HW228755   3.180   3.171  17.041  0.9959  2.3822 -0.3571
 5707SOL     OW28756   2.731   2.646   2.879  0.0379  0.5938 -0.1844
 5707SOL    HW128757   2.737   2.556   2.847 -4.1653 -0.2750  1.5223
 5707SOL    HW228758   2.672   2.674   2.809  2.0359  1.7823 -1.4066
 5708SOL     OW28759   1.349   0.953   6.942  0.2450  0.3005  0.1414
 5708SOL    HW128760   1.328   0.876   6.890  2.4140 -0.1079 -0.0946
 5708SOL    HW228761   1.443   0.942   6.951  0.2158  0.0121  0.0938
 5709SOL     OW28762   2.610   3.254   0.128  1.0473  0.8966 -0.1373
 5709SOL    HW128763   2.564   3.334   0.104 -1.6012 -1.6433 -3.5397
 5709SOL    HW228764   2.633   3.211   0.046 -0.7204 -1.1329  0.4223
 5710SOL     OW28765   4.686   2.997  12.443  0.1644 -0.2406  0.1460
 5710SOL    HW128766   4.716   3.085  12.467 -1.1585 -0.2019  1.6851
 5710SOL    HW228767   4.639   3.019  12.362 -0.7264 -0.5060  0.5928
 5711SOL     OW28768   4.042   2.419   4.974  0.2573  0.2128  0.2343
 5711SOL    HW128769   4.056   2.492   5.034  0.8592 -0.2614  0.6666
 5711SOL    HW228770   4.030   2.470   4.894 -1.3871 -1.1888 -0.4183
 5712SOL     OW28771   4.630   0.722   5.152  0.2317  0.0776  0.7654
 5712SOL    HW128772   4.554   0.667   5.131  0.7106  0.2825 -1.4901
 5712SOL    HW228773   4.627   0.721   5.248  1.1999  0.6053  0.7987
 5713SOL     OW28774   4.500   3.276  16.276  0.4451  0.0391  0.1855
 5713SOL    HW128775   4.573   3.227  16.238 -0.4511 -0.6199 -0.7021
 5713SOL    HW228776   4.465   3.215  16.340 -0.2216 -1.0308 -1.1818
 5714SOL     OW28777   4.631   4.452   6.812  0.2546  0.8295  0.1557
 5714SOL    HW128778   4.558   4.390   6.806  0.1197  1.0867 -0.9984
 5714SOL    HW228779   4.634   4.460   6.907 -4.5998  0.3624  0.3502
 5715SOL     OW28780   2.961   2.700  16.052 -0.1321  0.2890  0.3986
 5715SOL    HW128781   2.876   2.658  16.066 -0.0395  0.0301  0.2020
 5715SOL    HW228782   2.975   2.710  15.957  0.3486  0.6580  0.5049
 5716SOL     OW28783   1.832   1.952   4.884 -0.2672  0.1027 -0.0261
 5716SOL    HW128784   1.844   1.966   4.790 -0.0685  0.1349  0.0049
 5716SOL    HW228785   1.922   1.943   4.915 -0.1452 -0.5601 -0.5717
 5717SOL     OW28786   0.492   4.591   6.730  0.4681 -0.2008  0.3632
 5717SOL    HW128787   0.535   4.510   6.704  0.8865  0.2857 -0.4716
 5717SOL    HW228788   0.446   4.614   6.649 -0.0251 -1.8623  0.1677
 5718SOL     OW28789   1.496   0.791   8.486 -0.0637 -0.4280  0.4534
 5718SOL    HW128790   1.482   0.775   8.393  1.6617  0.5131  0.0399
 5718SOL    HW228791   1.448   0.724   8.535  1.2241 -1.4342  0.3498
 5719SOL     OW28792   2.348   4.735  11.398  0.2509 -0.4202 -0.3062
 5719SOL    HW128793   2.294   0.063  11.442  1.3929  0.4115 -0.1821
 5719SOL    HW228794   2.430   0.044  11.387 -0.8733  1.6907  0.3094
 5720SOL     OW28795   0.810   2.151   5.063 -0.6081 -0.2574  0.4956
 5720SOL    HW128796   0.767   2.161   5.148 -0.1699 -0.1169  0.7070
 5720SOL    HW228797   0.903   2.158   5.084 -0.2316 -0.8016 -0.9502
 5721SOL     OW28798   3.017   1.041   7.889 -0.3665 -0.1644 -0.3644
 5721SOL    HW128799   3.054   1.035   7.977 -0.8916  2.0317  0.0101
 5721SOL    HW228800   3.079   1.100   7.847 -0.4297 -0.6496 -1.1343
 5722SOL     OW28801   2.053   0.918   8.350 -0.2945 -0.1856  0.1774
 5722SOL    HW128802   2.008   0.883   8.426 -0.6925  0.5246  0.2662
 5722SOL    HW228803   2.143   0.891   8.371 -1.0734 -0.8280  2.6893
 5723SOL     OW28804   2.446   1.466   3.667 -0.5211 -0.1353 -0.1639
 5723SOL    HW128805   2.384   1.529   3.703 -1.4557  0.2531 -2.5085
 5723SOL    HW228806   2.519   1.513   3.707 -0.8756  0.8095 -0.6331
 5724SOL     OW28807   0.761   1.829   6.938 -0.6337 -0.8257  0.5040
 5724SOL    HW128808   0.829   1.764   6.956  0.8304  0.2317 -1.2571
 5724SOL    HW228809   0.791   1.882   6.865 -0.2739 -0.0740  1.2068
 5725SOL     OW28810   2.339   4.596  16.656  0.9661 -0.2170  0.3528
 5725SOL    HW128811   2.349   4.616  16.749 -0.2184  3.8759 -0.4108
 5725SOL    HW228812   2.422   4.628  16.622 -1.2133  1.8911 -3.0158
 5726SOL     OW28813   4.484   1.282  15.313 -0.0746 -0.0854  0.0272
 5726SOL    HW128814   4.442   1.305  15.230  0.8333  0.0152 -0.4010
 5726SOL    HW228815   4.569   1.324  15.307  1.1778 -2.5273  0.7569
 5727SOL     OW28816   1.681   2.668   4.701 -0.1513 -0.3400  0.7235
 5727SOL    HW128817   1.734   2.647   4.778  1.2366 -2.1606 -0.7163
 5727SOL    HW228818   1.747   2.709   4.645 -0.6144  0.8755  1.0631
 5728SOL     OW28819   1.356   4.721   6.986  0.3381 -0.2913 -0.4410
 5728SOL    HW128820   1.348   0.011   7.077 -1.3654  0.3393 -0.7885
 5728SOL    HW228821   1.368   4.627   6.998  0.5243 -0.1569  0.4128
 5729SOL     OW28822   3.746   3.878  12.584  0.9358  0.6450 -0.3470
 5729SOL    HW128823   3.682   3.810  12.602 -0.1222  1.7509  0.0566
 5729SOL    HW228824   3.710   3.915  12.504 -1.4202 -0.5632  0.1660
 5730SOL     OW28825   2.229   0.780   0.603  0.2679 -0.0700  0.0503
 5730SOL    HW128826   2.250   0.829   0.682  2.2644  1.1054 -1.2111
 5730SOL    HW228827   2.313   0.760   0.561 -0.0999 -0.5571 -0.4590
 5731SOL     OW28828   3.944   3.306  15.584  0.8248  0.2560 -0.2043
 5731SOL    HW128829   3.966   3.386  15.632 -1.5304  1.4779 -1.1418
 5731SOL    HW228830   3.869   3.284  15.640  0.2926  0.2289 -0.9217
 5732SOL     OW28831   3.835   4.711  15.615 -0.4829  0.6630 -1.0486
 5732SOL    HW128832   3.922   4.717  15.653 -0.6788 -0.0007 -0.4961
 5732SOL    HW228833   3.838   4.648  15.543 -0.0168 -0.5708  0.0561
 5733SOL     OW28834   3.927   0.868   4.538  0.2772 -0.1263 -0.4959
 5733SOL    HW128835   3.855   0.927   4.518  1.0621  0.0789 -2.6321
 5733SOL    HW228836   3.996   0.909   4.487  0.7883  0.1686  0.4282
 5734SOL     OW28837   0.214   2.811   7.079 -0.3376 -0.0222  0.2199
 5734SOL    HW128838   0.250   2.891   7.040 -0.7454  1.1772  2.2836
 5734SOL    HW228839   0.261   2.749   7.023  0.3805  0.3809  0.3657
 5735SOL     OW28840   3.909   2.914   8.252 -0.2986  0.3462 -0.5876
 5735SOL    HW128841   3.826   2.891   8.294 -0.6877  0.5197 -1.2636
 5735SOL    HW228842   3.929   3.001   8.286 -2.7041  0.2973  0.9452
 5736SOL     OW28843   3.203   0.443   5.187 -0.9785  0.3340 -0.1424
 5736SOL    HW128844   3.184   0.537   5.181 -1.3594  0.2895  0.3306
 5736SOL    HW228845   3.134   0.404   5.242 -2.9276  2.3959 -1.1089
 5737SOL     OW28846   2.912   3.611   7.543  0.8501 -0.6808 -0.1718
 5737SOL    HW128847   2.986   3.551   7.552  2.0644  0.5387 -2.0236
 5737SOL    HW228848   2.926   3.664   7.621  1.5256 -0.3271 -0.5283
 5738SOL     OW28849   3.438   2.541   3.719  0.1949  0.7520 -0.1415
 5738SOL    HW128850   3.365   2.494   3.678  0.9178  0.6020 -1.2632
 5738SOL    HW228851   3.491   2.466   3.745  0.9282  0.9733 -0.9756
 5739SOL     OW28852   0.210   3.826   7.305 -0.8791  0.3940 -0.1237
 5739SOL    HW128853   0.170   3.909   7.329 -0.8991  0.3418  0.0250
 5739SOL    HW228854   0.287   3.845   7.251 -1.6791  0.9702 -1.0758
 5740SOL     OW28855   1.141   0.465   3.534 -0.1720 -0.1911 -0.9320
 5740SOL    HW128856   1.235   0.450   3.547  0.1504  0.8956 -1.9799
 5740SOL    HW228857   1.123   0.527   3.606  0.3074  0.2945 -1.2310
 5741SOL     OW28858   1.179   2.855   7.477 -0.2830 -0.8343  0.1268
 5741SOL    HW128859   1.191   2.844   7.382  0.3378 -0.8507  0.2099
 5741SOL    HW228860   1.261   2.891   7.510 -0.5257  0.4444 -0.6639
 5742SOL     OW28861   0.797   1.704  16.554  0.4184 -0.1220 -0.2026
 5742SOL    HW128862   0.813   1.725  16.646  1.0207 -0.1100 -0.3120
 5742SOL    HW228863   0.875   1.752  16.526  0.9608  0.2186  1.8967
 5743SOL     OW28864   3.881   1.301  12.596  0.8224 -0.2195  0.7294
 5743SOL    HW128865   3.805   1.256  12.632  0.4475 -0.5173 -0.4341
 5743SOL    HW228866   3.918   1.222  12.556 -0.1907  0.2698 -1.1418
 5744SOL     OW28867   1.090   2.129   4.363  0.2931 -0.1308  0.5166
 5744SOL    HW128868   1.166   2.179   4.333 -1.4061  1.2028 -1.4898
 5744SOL    HW228869   1.102   2.051   4.308  2.2117 -0.4524  1.3803
 5745SOL     OW28870   2.527   1.003   2.683 -0.3212  0.0331  0.2823
 5745SOL    HW128871   2.578   0.957   2.749 -0.3674 -0.2586  0.1130
 5745SOL    HW228872   2.593   1.016   2.615  0.6894 -0.5724  1.1480
 5746SOL     OW28873   2.027   0.457   9.082 -0.0841 -0.1154  0.2555
 5746SOL    HW128874   1.943   0.463   9.126  0.1140  1.3888  0.4002
 5746SOL    HW228875   2.038   0.549   9.061  0.4485 -0.4923 -1.0964
 5747SOL     OW28876   3.857   1.990   4.390  0.5459  0.7182  0.0577
 5747SOL    HW128877   3.879   2.000   4.298  2.2167  1.4738  0.5255
 5747SOL    HW228878   3.886   2.077   4.415  0.6182  0.9714 -0.9227
 5748SOL     OW28879   4.353   2.411  16.247 -0.3674 -0.2031  0.5914
 5748SOL    HW128880   4.281   2.348  16.250 -1.1998  0.8094  1.8901
 5748SOL    HW228881   4.386   2.399  16.336  0.6170 -0.8711  0.1329
 5749SOL     OW28882   2.947   2.496  12.595 -0.2472  0.0047 -0.3224
 5749SOL    HW128883   2.939   2.475  12.688  2.1295 -0.5872 -0.2525
 5749SOL    HW228884   2.936   2.591  12.591  0.4707  0.2077  2.3273
 5750SOL     OW28885   1.366   3.566   1.669 -0.1262  0.1290  0.1455
 5750SOL    HW128886   1.348   3.472   1.676  0.4617  0.0925  1.0565
 5750SOL    HW228887   1.449   3.570   1.716  0.0893  1.3567 -0.3271
 5751SOL     OW28888   4.190   3.398   4.544  0.4056 -0.2360  0.1727
 5751SOL    HW128889   4.246   3.455   4.597  2.7710 -1.5135 -0.9577
 5751SOL    HW228890   4.194   3.327   4.609 -0.6504 -0.7217 -0.2876
 5752SOL     OW28891   2.318   2.753   6.453  0.5964  0.9398  0.2589
 5752SOL    HW128892   2.377   2.809   6.403  3.4327 -1.7824  0.5484
 5752SOL    HW228893   2.367   2.671   6.448 -0.0185  0.6047 -0.2766
 5753SOL     OW28894   2.693   1.619   5.364  0.0265 -0.2568  0.6107
 5753SOL    HW128895   2.735   1.543   5.402  0.2548 -0.0527  0.7664
 5753SOL    HW228896   2.739   1.613   5.280  1.1063  0.9603  1.1189
 5754SOL     OW28897   3.956   0.363   4.729 -0.0817  0.2925  0.6202
 5754SOL    HW128898   3.871   0.369   4.684  0.6290 -0.2817 -0.7887
 5754SOL    HW228899   4.021   0.360   4.659  0.4765  1.6141  1.0705
 5755SOL     OW28900   0.005   3.936   6.623 -0.0228 -0.0361 -0.3652
 5755SOL    HW128901   0.021   4.015   6.571 -0.6037  0.1867 -0.2099
 5755SOL    HW228902   0.059   3.873   6.575 -3.7340 -2.0386 -1.9599
 5756SOL     OW28903   1.380   1.274  15.587 -0.0699 -0.0677 -0.2351
 5756SOL    HW128904   1.461   1.326  15.580 -1.2520  1.8217  0.0433
 5756SOL    HW228905   1.422   1.190  15.605 -0.6463 -0.4795 -0.8573
 5757SOL     OW28906   2.071   4.643  12.061 -0.2006 -0.8475  0.0920
 5757SOL    HW128907   2.025   4.724  12.081  0.0826 -1.1047  1.7906
 5757SOL    HW228908   2.071   4.616  12.153 -1.7630 -1.9498 -0.2282
 5758SOL     OW28909   0.270   3.974   7.605 -0.0357  0.0342 -0.1916
 5758SOL    HW128910   0.355   3.978   7.561 -1.3615  1.0042 -2.6820
 5758SOL    HW228911   0.274   3.887   7.645 -1.4700  0.1561  0.2047
 5759SOL     OW28912   4.296   1.608   1.055  0.7346  0.3615 -0.0544
 5759SOL    HW128913   4.252   1.692   1.039 -0.4790 -0.1594  0.5260
 5759SOL    HW228914   4.316   1.564   0.972  0.4054  0.4205 -0.1659
 5760SOL     OW28915   4.015   0.686   7.237 -0.4821  0.2531  0.0677
 5760SOL    HW128916   3.972   0.717   7.157  0.6001  1.2386 -0.1254
 5760SOL    HW228917   4.042   0.597   7.213 -3.9557 -0.8925  0.3655
 5761SOL     OW28918   2.975   1.269   6.333  0.0600  0.2300  0.2653
 5761SOL    HW128919   3.034   1.217   6.279 -2.2671 -2.2494  0.0498
 5761SOL    HW228920   2.986   1.356   6.294 -0.2462  0.3398  0.4255
 5762SOL     OW28921   2.026   3.918   8.380  0.3873 -0.4894 -0.6564
 5762SOL    HW128922   2.046   3.934   8.472 -2.0781  0.1561 -0.2211
 5762SOL    HW228923   2.109   3.950   8.344  0.3885 -0.7267 -0.8640
 5763SOL     OW28924   2.095   2.101   9.807 -0.2607  0.5426  0.3392
 5763SOL    HW128925   2.117   2.194   9.809 -1.5656  0.8744 -0.5455
 5763SOL    HW228926   2.157   2.067   9.743  0.5584  1.7366  0.5001
 5764SOL     OW28927   3.638   4.578  12.791  0.3944  0.2108 -0.6069
 5764SOL    HW128928   3.703   4.644  12.817 -0.2772  0.9243 -0.7634
 5764SOL    HW228929   3.670   4.505  12.845  0.5955 -0.0456 -1.0773
 5765SOL     OW28930   4.104   4.127   0.916  0.0365  0.0205  0.4102
 5765SOL    HW128931   4.060   4.182   0.851 -2.1349 -0.8217  1.1739
 5765SOL    HW228932   4.145   4.188   0.977 -0.7330  1.4135 -0.4776
 5766SOL     OW28933   3.843   4.425   6.705  0.5731  0.3493 -0.3043
 5766SOL    HW128934   3.856   4.382   6.621 -0.4589 -1.4996  0.4812
 5766SOL    HW228935   3.751   4.446   6.690  0.9441  1.0389 -1.5590
 5767SOL     OW28936   0.093   4.466  14.854  0.0317 -0.2539 -0.0805
 5767SOL    HW128937   0.148   4.426  14.922  0.8857  0.5060 -0.3205
 5767SOL    HW228938   0.159   4.485  14.787 -1.4151 -0.5722 -1.5947
 5768SOL     OW28939   3.537   0.020  15.597 -0.3710 -0.1104 -0.0625
 5768SOL    HW128940   3.617   0.060  15.630 -1.4718  1.6629  0.4405
 5768SOL    HW228941   3.523   4.694  15.666  0.5821 -1.2096 -0.8776
 5769SOL     OW28942   3.125   0.843   2.901 -0.4110  0.2378  0.8561
 5769SOL    HW128943   3.078   0.808   2.977  1.9749  2.4317  3.3604
 5769SOL    HW228944   3.116   0.937   2.917  0.6525  0.4923 -0.0606
 5770SOL     OW28945   4.505   1.374   6.502 -0.1840  0.5498  0.9402
 5770SOL    HW128946   4.588   1.354   6.545  1.1630  0.5247 -1.6618
 5770SOL    HW228947   4.526   1.448   6.445 -1.2113  0.8330  0.9266
 5771SOL     OW28948   1.976   2.836   9.148  0.0508 -0.5848 -0.1273
 5771SOL    HW128949   2.028   2.908   9.185  0.9543 -1.1559 -0.2683
 5771SOL    HW228950   1.910   2.819   9.216  0.9539 -0.0657  0.8935
 5772SOL     OW28951   1.101   2.891   3.816  0.7194  0.8051  0.4832
 5772SOL    HW128952   1.159   2.916   3.744  2.3721  1.8728  2.1683
 5772SOL    HW228953   1.162   2.828   3.855  0.6411 -0.0628 -0.8072
 5773SOL     OW28954   2.060   1.223   4.922  0.1224 -0.3652  0.4179
 5773SOL    HW128955   1.972   1.236   4.886 -0.1862 -1.0144  0.9394
 5773SOL    HW228956   2.053   1.288   4.992  0.5625 -0.2514  0.3554
 5774SOL     OW28957   0.886   4.401   5.679  0.8964 -0.0188 -0.2788
 5774SOL    HW128958   0.899   4.468   5.612  2.3255 -0.8183 -0.8006
 5774SOL    HW228959   0.928   4.327   5.635  0.7334 -1.5032  2.0891
 5775SOL     OW28960   1.093   3.282   4.999 -0.0628  0.3647  0.0819
 5775SOL    HW128961   1.158   3.244   4.940 -0.1753 -3.4067  2.4270
 5775SOL    HW228962   1.033   3.333   4.945  1.1926  0.0361 -1.6310
 5776SOL     OW28963   3.554   2.062   3.279  0.7960 -0.5580  0.6225
 5776SOL    HW128964   3.619   2.106   3.335  0.8441  1.1140 -0.7674
 5776SOL    HW228965   3.477   2.112   3.304  0.0405 -0.6396 -1.5889
 5777SOL     OW28966   2.165   3.233   5.996  0.0202  0.4742 -0.1781
 5777SOL    HW128967   2.140   3.325   5.991  0.5384  0.8587  4.0710
 5777SOL    HW228968   2.107   3.205   6.067 -1.2788  1.5814 -0.8254
 5778SOL     OW28969   0.627   4.609  11.119 -0.0556  0.1420  0.1466
 5778SOL    HW128970   0.710   4.565  11.134 -1.7096 -3.8115 -2.2525
 5778SOL    HW228971   0.658   4.692  11.083 -0.7571 -0.7088 -2.4546
 5779SOL     OW28972   0.545   0.086   7.701 -0.0460  0.3889 -0.2441
 5779SOL    HW128973   0.450   0.086   7.712  0.0652 -0.9283  0.8316
 5779SOL    HW228974   0.565   0.020   7.768  0.2758  0.2490 -0.4794
 5780SOL     OW28975   2.005   3.741  11.457  0.2924  0.2320 -0.3438
 5780SOL    HW128976   2.009   3.835  11.437  0.2867  0.3843  0.3506
 5780SOL    HW228977   1.938   3.707  11.398  1.0428 -2.9749  0.6929
 5781SOL     OW28978   2.127   2.784   8.347  0.0273 -0.0147  0.1669
 5781SOL    HW128979   2.172   2.814   8.426  0.1667 -2.2910  0.9260
 5781SOL    HW228980   2.038   2.781   8.382  0.2309  0.5099  0.7221
 5782SOL     OW28981   1.302   0.715   3.455  0.2503 -0.1898 -0.5509
 5782SOL    HW128982   1.278   0.719   3.548  0.7700  0.0322 -0.4255
 5782SOL    HW228983   1.254   0.788   3.417  0.5667 -0.7138 -1.9265
 5783SOL     OW28984   4.363   1.003  16.709 -0.4870  0.6004  0.6228
 5783SOL    HW128985   4.431   0.952  16.753  0.1298  0.9185  0.0323
 5783SOL    HW228986   4.400   1.015  16.622 -0.6705 -0.2855  0.4236
 5784SOL     OW28987   0.326   2.714   2.164 -0.2693  0.0060 -0.3854
 5784SOL    HW128988   0.309   2.656   2.090  0.0897 -0.0110 -0.4529
 5784SOL    HW228989   0.304   2.796   2.120 -1.5414  0.6598  1.4426
 5785SOL     OW28990   4.292   2.017   9.365  0.0242 -0.1481 -0.1257
 5785SOL    HW128991   4.239   1.946   9.329  0.7387  0.4589 -2.3995
 5785SOL    HW228992   4.380   1.979   9.362 -0.1809 -0.7758  1.9484
 5786SOL     OW28993   0.613   2.749   2.710  0.0469 -0.2086  0.1684
 5786SOL    HW128994   0.680   2.718   2.770  1.5251  2.1395 -0.2866
 5786SOL    HW228995   0.642   2.705   2.630  0.6841  0.8446 -0.1737
 5787SOL     OW28996   1.957   4.578   4.225 -0.5834  0.2311  0.6443
 5787SOL    HW128997   1.867   4.605   4.243 -1.1983 -0.0470 -2.0036
 5787SOL    HW228998   2.004   4.632   4.289  2.0931 -0.3194 -0.8246
 5788SOL     OW28999   1.615   0.523   8.858 -0.3363 -0.2112  0.0781
 5788SOL    HW129000   1.645   0.483   8.939 -2.2892  1.1265  1.4429
 5788SOL    HW229001   1.655   0.469   8.790  0.3619 -0.7754  0.9380
 5789SOL     OW29002   2.672   4.656   4.894  0.3133  0.1167 -0.7927
 5789SOL    HW129003   2.675   4.675   4.988 -3.0073 -0.7227 -0.5417
 5789SOL    HW229004   2.606   4.713   4.854 -1.1902 -0.1233  1.3930
 5790SOL     OW29005   2.727   1.874   3.594 -0.1059 -0.1576 -0.1050
 5790SOL    HW129006   2.652   1.910   3.547  1.1645  1.8909 -0.5428
 5790SOL    HW229007   2.684   1.804   3.643 -0.3772 -0.2424 -0.4636
 5791SOL     OW29008   2.628   2.730  15.112  0.5734 -0.1738 -0.0985
 5791SOL    HW129009   2.548   2.677  15.108  1.3004 -1.2035 -0.9251
 5791SOL    HW229010   2.615   2.767  15.199  1.0482 -0.2023 -0.0194
 5792SOL     OW29011   2.413   0.027   2.374 -0.1808 -0.1879 -0.4279
 5792SOL    HW129012   2.472   0.037   2.299  0.0068  0.5000 -0.1808
 5792SOL    HW229013   2.436   0.100   2.430 -1.1675  0.8346 -1.3450
 5793SOL     OW29014   2.663   0.045  16.678  0.1791  0.2695  0.5012
 5793SOL    HW129015   2.609   0.117  16.644 -1.0457 -1.1349 -0.5158
 5793SOL    HW229016   2.636   4.711  16.622  0.7469  0.7695 -0.4237
 5794SOL     OW29017   2.868   1.295   9.879  0.3909  0.3734  1.0735
 5794SOL    HW129018   2.937   1.290   9.812 -1.0294 -0.0462 -0.3541
 5794SOL    HW229019   2.864   1.390   9.886 -1.7995  0.2410  1.6019
 5795SOL     OW29020   0.513   0.412   5.436  0.0098  0.0772 -0.1951
 5795SOL    HW129021   0.443   0.359   5.397  0.8369 -1.0173 -0.1796
 5795SOL    HW229022   0.585   0.397   5.374 -0.3538 -1.9767 -0.1380
 5796SOL     OW29023   3.831   0.831  11.194 -0.2786  0.2924 -0.2819
 5796SOL    HW129024   3.888   0.886  11.247  1.4620 -2.1403  0.3719
 5796SOL    HW229025   3.824   0.877  11.110 -1.5128 -2.3803 -1.6606
 5797SOL     OW29026   3.286   2.137  11.809  0.1631  0.2602 -0.4776
 5797SOL    HW129027   3.260   2.113  11.720 -1.1692  1.9715 -0.5594
 5797SOL    HW229028   3.370   2.178  11.792  0.8827 -0.2991  1.7284
 5798SOL     OW29029   0.608   3.359   7.728  0.1416  0.5648 -0.1485
 5798SOL    HW129030   0.684   3.412   7.706  1.4721 -1.0851  0.5075
 5798SOL    HW229031   0.636   3.321   7.812  0.7862  0.0062 -0.6126
 5799SOL     OW29032   1.542   0.799  16.247 -0.3696 -0.4149  0.3853
 5799SOL    HW129033   1.615   0.850  16.212 -0.3715 -0.9707 -0.4339
 5799SOL    HW229034   1.480   0.871  16.237  0.4741  0.4587  1.3669
 5800SOL     OW29035   1.022   2.821   4.197 -0.0568  0.1583  0.2566
 5800SOL    HW129036   0.999   2.908   4.163  0.3142  0.5714  1.0406
 5800SOL    HW229037   1.099   2.846   4.248 -1.0194 -2.0124  2.7672
 5801SOL     OW29038   3.655   1.335  13.585  0.3646  0.3784  0.1369
 5801SOL    HW129039   3.604   1.325  13.504 -1.1522 -1.7058  1.3491
 5801SOL    HW229040   3.622   1.415  13.626  0.7743  0.6933 -0.1466
 5802SOL     OW29041   2.287   0.053   2.791  0.4979  0.1015 -0.1131
 5802SOL    HW129042   2.356   0.070   2.727  2.3645  1.1037  2.1745
 5802SOL    HW229043   2.223   4.736   2.747  1.2800 -1.2460  0.4597
 5803SOL     OW29044   2.457   1.909   7.290  0.2401 -0.1025  0.1725
 5803SOL    HW129045   2.498   1.851   7.354 -0.7809 -2.0084 -0.9013
 5803SOL    HW229046   2.409   1.966   7.350 -0.3548 -1.8231  1.3071
 5804SOL     OW29047   0.269   2.348   9.082 -0.4879 -0.2510 -0.2831
 5804SOL    HW129048   0.185   2.381   9.112 -0.6794 -0.0612 -1.0556
 5804SOL    HW229049   0.306   2.333   9.170 -0.2152  1.0043 -0.1852
 5805SOL     OW29050   2.725   1.509   6.130  0.6221  0.6624  0.1056
 5805SOL    HW129051   2.675   1.580   6.170 -0.9361 -0.5377  0.2482
 5805SOL    HW229052   2.665   1.436   6.143 -0.3797  1.4647 -0.0687
 5806SOL     OW29053   4.256   4.046   4.972 -0.1703 -0.4199 -0.1033
 5806SOL    HW129054   4.165   4.021   4.959 -0.4669  0.2039  0.7558
 5806SOL    HW229055   4.284   4.002   5.052  0.7796 -2.6002 -1.6251
 5807SOL     OW29056   2.879   3.363   6.593 -0.4915 -0.0990 -0.6867
 5807SOL    HW129057   2.818   3.418   6.643  0.1067 -0.0415 -0.0067
 5807SOL    HW229058   2.824   3.294   6.555 -0.2245 -0.9546  0.4565
 5808SOL     OW29059   4.286   4.177  16.518  0.1080 -0.1626  0.3305
 5808SOL    HW129060   4.220   4.199  16.584 -0.1052 -1.1718  0.4489
 5808SOL    HW229061   4.243   4.201  16.436  1.9722 -1.7724 -1.1118
 5809SOL     OW29062   0.670   1.367  10.889  0.3589  0.0202  0.0972
 5809SOL    HW129063   0.623   1.292  10.925 -0.0588  0.0025 -0.4862
 5809SOL    HW229064   0.641   1.437  10.947  0.4557 -2.3798  3.0315
 5810SOL     OW29065   2.423   0.009   1.217 -0.3587  0.4016  0.3057
 5810SOL    HW129066   2.352   0.072   1.205 -0.5933  0.2166  0.7308
 5810SOL    HW229067   2.494   0.074   1.218  0.0461 -0.0127 -1.3857
 5811SOL     OW29068   0.723   3.327   0.605  0.4448 -0.0847  0.0153
 5811SOL    HW129069   0.695   3.289   0.522  1.8412 -0.7572 -0.1511
 5811SOL    HW229070   0.645   3.370   0.641  0.8381  1.9487 -1.5326
 5812SOL     OW29071   3.555   2.133  17.376  0.7037  0.3503 -0.1440
 5812SOL    HW129072   3.552   2.143  17.471  2.4301 -1.6384  0.1447
 5812SOL    HW229073   3.470   2.151  17.336  0.0366  0.8107  1.4704
 5813SOL     OW29074   1.039   1.650   6.142 -0.5025 -0.1481 -0.1228
 5813SOL    HW129075   0.985   1.605   6.207 -0.2143 -0.8180 -0.3480
 5813SOL    HW229076   1.126   1.638   6.182  0.8432  2.3790 -2.3510
 5814SOL     OW29077   2.685   0.589   0.545 -0.6814 -0.4155  0.3722
 5814SOL    HW129078   2.758   0.568   0.487 -0.8064  4.3498 -1.5772
 5814SOL    HW229079   2.652   0.502   0.566 -0.7898  0.1325  2.4588
 5815SOL     OW29080   2.361   1.550   7.869  0.2546 -0.0599  0.3140
 5815SOL    HW129081   2.331   1.574   7.957 -0.6281  3.4841 -0.9273
 5815SOL    HW229082   2.283   1.502   7.841  0.6068  0.2489 -1.2114
 5816SOL     OW29083   0.956   1.858   2.032  0.0111 -0.0717 -0.5511
 5816SOL    HW129084   0.991   1.768   2.024  1.5149  0.3991  0.6812
 5816SOL    HW229085   0.863   1.852   2.050 -0.1260 -1.3273 -1.6616
 5817SOL     OW29086   0.700   1.728   2.039 -0.0564 -0.5182 -0.2976
 5817SOL    HW129087   0.753   1.662   1.995  0.6415 -2.0260  2.8090
 5817SOL    HW229088   0.657   1.669   2.101 -0.7480  0.0219 -0.2639
 5818SOL     OW29089   2.400   2.068   9.847 -0.5224  0.1055 -0.1526
 5818SOL    HW129090   2.413   2.142   9.789  0.1437  0.2664  0.1928
 5818SOL    HW229091   2.394   2.106   9.935  0.6227 -0.2774  0.0975
 5819SOL     OW29092   3.068   3.103   4.071  0.2984  0.3015  0.1867
 5819SOL    HW129093   3.139   3.047   4.039 -1.2702 -1.2085 -0.6591
 5819SOL    HW229094   3.043   3.034   4.133  2.4306 -0.3121  0.3887
 5820SOL     OW29095   3.941   0.422   2.490 -0.0069 -0.0762 -0.1928
 5820SOL    HW129096   3.891   0.497   2.458  0.1727 -0.5496 -1.5530
 5820SOL    HW229097   3.971   0.384   2.408  0.5873 -0.8749  0.3976
 5821SOL     OW29098   1.151   1.061   9.145 -0.3883 -0.4978 -0.0427
 5821SOL    HW129099   1.219   1.116   9.183 -1.0769  0.9078 -0.8221
 5821SOL    HW229100   1.161   1.072   9.050 -1.8409 -2.3662 -0.4158
 5822SOL     OW29101   2.620   3.886   6.914 -0.0795 -0.3520  0.0357
 5822SOL    HW129102   2.575   3.967   6.889 -1.9398 -1.0254  1.2263
 5822SOL    HW229103   2.702   3.906   6.958 -0.4739 -1.0800  1.1041
 5823SOL     OW29104   0.065   1.903   2.621  0.2420 -0.2073 -0.0673
 5823SOL    HW129105   0.073   1.862   2.708  0.4435 -2.9779 -1.3685
 5823SOL    HW229106   0.024   1.837   2.565  2.8107 -1.6220 -0.3071
 5824SOL     OW29107   0.809   1.804   7.788 -0.5841 -0.9900  0.2000
 5824SOL    HW129108   0.874   1.736   7.771  0.3144  0.3573 -1.7894
 5824SOL    HW229109   0.754   1.801   7.710 -1.2253  1.3626  0.5484
 5825SOL     OW29110   3.784   3.803   8.110  0.4184 -0.2246  0.5451
 5825SOL    HW129111   3.795   3.898   8.106 -3.5803  0.1726 -0.9918
 5825SOL    HW229112   3.782   3.776   8.018 -2.0657 -0.2944  0.6201
 5826SOL     OW29113   1.358   2.280   2.767  0.5333 -0.1918  0.5240
 5826SOL    HW129114   1.294   2.256   2.834 -0.7479 -0.1708 -0.6946
 5826SOL    HW229115   1.431   2.220   2.783 -0.2381 -1.9883 -2.7659
 5827SOL     OW29116   0.712   1.510   8.109 -0.4174 -0.4607 -0.2922
 5827SOL    HW129117   0.704   1.433   8.166  1.3221 -0.0993  0.4382
 5827SOL    HW229118   0.663   1.500   8.027 -0.7310  3.3974 -0.5845
 5828SOL     OW29119   4.370   1.392   2.273  0.1782 -0.0422 -0.6254
 5828SOL    HW129120   4.397   1.478   2.306  0.0592 -0.5827  0.8460
 5828SOL    HW229121   4.330   1.408   2.187  0.7440 -2.1128 -1.2651
 5829SOL     OW29122   2.113   3.296   4.588  0.1223 -0.0563 -0.7128
 5829SOL    HW129123   2.180   3.349   4.543  0.7307  0.9907  1.4207
 5829SOL    HW229124   2.154   3.210   4.592 -0.6063 -0.3348  0.7941
 5830SOL     OW29125   3.563   0.803   3.512  0.1769  0.2302  0.2129
 5830SOL    HW129126   3.494   0.736   3.518  0.1259  0.1060 -1.5923
 5830SOL    HW229127   3.635   0.740   3.504  2.2649  2.4509  1.4717
 5831SOL     OW29128   2.616   4.352   5.967 -0.3614 -0.0537 -0.3391
 5831SOL    HW129129   2.528   4.318   5.979 -0.0254 -0.2333  1.5954
 5831SOL    HW229130   2.659   4.273   5.933  0.4033  0.4356 -0.5097
 5832SOL     OW29131   2.305   0.645   2.986 -0.1983  0.0169  0.5238
 5832SOL    HW129132   2.387   0.662   3.032 -0.1322 -2.4184  1.2997
 5832SOL    HW229133   2.237   0.652   3.052  1.2843 -1.0505  2.1428
 5833SOL     OW29134   1.405   0.295  15.269  0.1581  0.0384 -0.4395
 5833SOL    HW129135   1.333   0.256  15.219  0.2372  1.0157 -1.3071
 5833SOL    HW229136   1.478   0.239  15.240  0.9507  0.6477  0.3748
 5834SOL     OW29137   3.898   1.493   7.654  0.3112 -0.4408 -0.0298
 5834SOL    HW129138   3.870   1.426   7.591 -0.1741  0.8140 -1.1590
 5834SOL    HW229139   3.901   1.573   7.601 -0.6646 -0.8581 -0.7125
 5835SOL     OW29140   2.571   3.016   3.847 -0.2627  0.0332 -0.3301
 5835SOL    HW129141   2.505   3.017   3.778  0.0982 -1.4414 -0.7133
 5835SOL    HW229142   2.535   3.070   3.917 -2.9773  0.1418 -1.8092
 5836SOL     OW29143   1.004   1.879   3.261 -0.6317 -0.4116  0.1339
 5836SOL    HW129144   1.013   1.920   3.175 -0.1825 -0.5747  0.1041
 5836SOL    HW229145   0.915   1.845   3.268 -0.4605 -0.6043  1.3123
 5837SOL     OW29146   3.888   1.572   6.159  0.1773 -0.3780  0.1776
 5837SOL    HW129147   3.817   1.510   6.139 -0.7332 -0.4244  3.5828
 5837SOL    HW229148   3.947   1.530   6.221 -0.9006 -1.7797  0.2576
 5838SOL     OW29149   2.010   1.606   7.910  0.0121 -0.5082  0.0519
 5838SOL    HW129150   1.960   1.565   7.840 -1.9709  2.5700 -0.3309
 5838SOL    HW229151   2.003   1.540   7.980 -1.3732 -2.5694 -2.0375
 5839SOL     OW29152   1.335   2.811   5.412 -0.4902 -0.2182 -0.2235
 5839SOL    HW129153   1.356   2.755   5.487  0.8998  1.1377  0.4055
 5839SOL    HW229154   1.241   2.822   5.424 -0.2781  1.3065  0.0765
 5840SOL     OW29155   0.056   3.228   4.845  0.0851 -0.0007 -0.0844
 5840SOL    HW129156   0.029   3.181   4.924  0.4289  1.9972  1.2370
 5840SOL    HW229157   0.151   3.219   4.839  0.2630  3.0270 -2.0332
 5841SOL     OW29158   1.195   1.916  16.947  0.5061 -0.1165  0.1687
 5841SOL    HW129159   1.216   2.000  16.987 -0.8610  0.8382 -1.1490
 5841SOL    HW229160   1.120   1.886  16.998 -0.3286 -0.1829 -1.0988
 5842SOL     OW29161   2.748   2.968   8.404  0.5979  0.0062  0.1513
 5842SOL    HW129162   2.672   2.929   8.447 -0.5055  0.8118 -1.1135
 5842SOL    HW229163   2.766   2.902   8.337 -1.4809 -0.1777 -0.2085
 5843SOL     OW29164   2.226   0.641   1.926 -0.0900  0.3407  0.0976
 5843SOL    HW129165   2.205   0.722   1.879 -1.0983  1.1260  1.9158
 5843SOL    HW229166   2.315   0.657   1.958 -0.4100  1.4668  0.4459
 5844SOL     OW29167   1.830   4.071   2.755 -0.2512  0.6045  0.1548
 5844SOL    HW129168   1.736   4.085   2.748 -0.1315  1.5502  0.4227
 5844SOL    HW229169   1.851   4.165   2.755 -0.6851  0.7009 -0.4453
 5845SOL     OW29170   0.825   1.102  15.488 -0.3242 -0.6461 -0.3995
 5845SOL    HW129171   0.911   1.123  15.524 -1.3077  0.4793  1.3074
 5845SOL    HW229172   0.816   1.013  15.522  0.7598  0.6984  3.3373
 5846SOL     OW29173   3.319   1.807   8.647  0.8622  0.3592  0.5734
 5846SOL    HW129174   3.402   1.851   8.630  0.0762  2.4105  2.1212
 5846SOL    HW229175   3.255   1.859   8.695 -0.3062 -1.0814  0.6030
 5847SOL     OW29176   4.635   3.025   2.985  0.7509 -0.3062  0.6010
 5847SOL    HW129177   4.588   3.014   2.902 -1.4718  2.9761  1.4628
 5847SOL    HW229178   4.602   2.949   3.033  0.6200  0.5902  1.9096
 5848SOL     OW29179   1.843   3.575   5.933 -0.1886  0.1680 -0.0291
 5848SOL    HW129180   1.823   3.663   5.900  1.2814  1.1206  1.6674
 5848SOL    HW229181   1.801   3.513   5.873 -0.7764 -0.6289  1.2026
 5849SOL     OW29182   2.759   1.037   3.331 -0.0990  0.2318  1.0956
 5849SOL    HW129183   2.833   1.097   3.318 -0.1598  0.1374  0.3376
 5849SOL    HW229184   2.748   1.050   3.426  0.8499 -2.4134  1.5526
 5850SOL     OW29185   2.745   0.148  10.514 -0.2802  0.0327  0.3402
 5850SOL    HW129186   2.761   0.233  10.555 -2.9019  0.4422  0.4978
 5850SOL    HW229187   2.789   0.093  10.580  0.2882  1.6075  1.2769
 5851SOL     OW29188   0.562   4.329  11.366 -0.2832  0.0278  0.9823
 5851SOL    HW129189   0.640   4.380  11.390  0.3180  0.0451 -1.0641
 5851SOL    HW229190   0.570   4.242  11.407  0.1116 -1.0684 -1.4315
 5852SOL     OW29191   2.605   3.727  12.261 -0.8869 -0.2342  0.0359
 5852SOL    HW129192   2.672   3.794  12.268 -1.1451 -0.0231  0.4754
 5852SOL    HW229193   2.580   3.702  12.350  1.9310  0.6287  1.0617
 5853SOL     OW29194   1.936   0.391   0.018  0.6751 -0.1434  0.2448
 5853SOL    HW129195   2.004   0.350  17.718  2.2640  3.6139 -0.6324
 5853SOL    HW229196   1.898   0.315   0.061  2.3351  0.7686  3.3487
 5854SOL     OW29197   0.222   3.252   5.904 -0.2989  0.2831  0.0072
 5854SOL    HW129198   0.229   3.342   5.873 -0.2047  0.6018  0.9530
 5854SOL    HW229199   0.137   3.227   5.868  0.6966 -1.3898 -1.1993
 5855SOL     OW29200   3.576   2.559   2.002  0.3573 -0.4484 -0.0290
 5855SOL    HW129201   3.607   2.649   2.003 -2.1867  0.4346 -0.2057
 5855SOL    HW229202   3.644   2.530   2.063 -0.7956 -2.5077  0.2880
 5856SOL     OW29203   3.395   3.571   6.944 -0.0986 -0.1047 -0.2523
 5856SOL    HW129204   3.391   3.506   7.015  1.4382  1.1836  1.0276
 5856SOL    HW229205   3.490   3.585   6.952  0.1765 -2.3091  0.3920
 5857SOL     OW29206   1.324   4.153   7.017  0.2045 -0.0135  0.0990
 5857SOL    HW129207   1.388   4.108   7.072 -0.1658  0.4710  0.9177
 5857SOL    HW229208   1.377   4.192   6.947 -0.7580 -0.1135 -0.6807
 5858SOL     OW29209   1.549   3.837   4.284  0.0199  0.4277 -0.6757
 5858SOL    HW129210   1.488   3.911   4.286  0.7057  1.0604 -2.3903
 5858SOL    HW229211   1.583   3.836   4.373 -0.8131  0.6908 -0.3520
 5859SOL     OW29212   1.088   4.258   0.467 -0.4073  0.1279 -0.3523
 5859SOL    HW129213   1.107   4.242   0.559  2.7212  0.0794 -0.9994
 5859SOL    HW229214   1.104   4.353   0.465 -1.1635  0.2425 -0.9341
 5860SOL     OW29215   0.634   2.217   3.647 -0.2562 -0.6553 -0.1500
 5860SOL    HW129216   0.597   2.300   3.678  0.8163 -0.0650 -0.4764
 5860SOL    HW229217   0.667   2.243   3.562  1.2793 -0.6199  0.4643
 5861SOL     OW29218   3.791   0.241   8.935 -0.1004  0.3280 -0.2214
 5861SOL    HW129219   3.714   0.188   8.955 -0.2084  0.4494 -0.3185
 5861SOL    HW229220   3.770   0.274   8.848 -0.8532 -1.7893 -0.8436
 5862SOL     OW29221   3.322   2.254  12.089  0.1752 -0.1754 -0.4659
 5862SOL    HW129222   3.377   2.323  12.052 -0.9553  1.5629  1.0620
 5862SOL    HW229223   3.286   2.206  12.015  1.0566 -2.8504  0.8438
 5863SOL     OW29224   2.455   4.688   7.479  0.0245 -0.2816  0.2328
 5863SOL    HW129225   2.383   0.001   7.514 -1.3772 -1.2536 -1.2115
 5863SOL    HW229226   2.458   4.719   7.388  0.3213  0.5931  0.5389
 5864SOL     OW29227   4.395   1.738   4.768  0.4044 -0.5000 -0.7936
 5864SOL    HW129228   4.311   1.766   4.804  0.8122  1.9529 -1.7248
 5864SOL    HW229229   4.395   1.814   4.709  1.0682 -0.9174 -1.3365
 5865SOL     OW29230   4.443   3.580   8.896 -0.0573 -0.0522  0.0889
 5865SOL    HW129231   4.356   3.540   8.907  0.2271 -0.4696  0.8338
 5865SOL    HW229232   4.468   3.567   8.805 -0.4530 -3.3710  0.4478
 5866SOL     OW29233   4.346   3.963   1.163  0.0942 -0.3077  0.3811
 5866SOL    HW129234   4.434   3.995   1.141  0.5077 -0.0559  2.4281
 5866SOL    HW229235   4.299   4.037   1.125 -1.8496 -3.3200 -3.0630
 5867SOL     OW29236   2.902   0.717  10.500  0.2670  0.0577 -0.0939
 5867SOL    HW129237   2.926   0.789  10.559  0.3063  0.8178 -1.0261
 5867SOL    HW229238   2.974   0.712  10.436  0.3059  0.9250 -0.1180
 5868SOL     OW29239   0.479   3.546  16.825  0.4679  0.0647 -0.2842
 5868SOL    HW129240   0.556   3.571  16.775 -1.8632  4.8616 -1.4574
 5868SOL    HW229241   0.521   3.518  16.906 -0.4475 -0.9116 -0.1413
 5869SOL     OW29242   3.576   2.577   9.383  0.3625  0.0288 -0.1436
 5869SOL    HW129243   3.571   2.497   9.331 -0.6572 -1.2007  1.8615
 5869SOL    HW229244   3.613   2.537   9.462  4.1959  1.5238 -1.1846
 5870SOL     OW29245   1.347   3.347  12.085 -0.3146  0.5298  0.0971
 5870SOL    HW129246   1.374   3.283  12.151 -0.8026 -0.5080 -0.7025
 5870SOL    HW229247   1.423   3.358  12.029  1.3075 -1.2852  1.9492
 5871SOL     OW29248   3.197   0.794   7.938  0.0200  0.1093  0.0448
 5871SOL    HW129249   3.214   0.776   8.031 -0.5856 -3.4499 -0.5268
 5871SOL    HW229250   3.107   0.828   7.938 -0.7232 -1.8184  3.6745
 5872SOL     OW29251   2.914   0.904   9.473  0.1045  0.3206  0.5907
 5872SOL    HW129252   3.002   0.940   9.467 -0.2788  1.1243 -0.2011
 5872SOL    HW229253   2.895   0.878   9.383  0.8977 -3.6738  1.6046
 5873SOL     OW29254   3.678   0.387  13.902  0.0904 -0.0029  0.0384
 5873SOL    HW129255   3.692   0.474  13.863 -2.7042 -0.7421 -2.5916
 5873SOL    HW229256   3.585   0.396  13.925  0.7808  1.6398  2.1746
 5874SOL     OW29257   0.291   2.627   9.633  0.7249 -0.0728 -0.1628
 5874SOL    HW129258   0.244   2.699   9.592  0.7811 -0.8526 -1.6076
 5874SOL    HW229259   0.358   2.672   9.686  2.2251  0.0869 -2.1755
 5875SOL     OW29260   1.121   3.980   5.637 -0.2870 -0.0275 -0.5631
 5875SOL    HW129261   1.207   3.993   5.676  0.1487 -0.3390 -1.4215
 5875SOL    HW229262   1.153   3.948   5.553 -0.6591  2.7170 -1.7374
 5876SOL     OW29263   2.086   1.109   9.745 -0.6714  0.4709  0.4744
 5876SOL    HW129264   2.119   1.134   9.831 -0.2465 -1.3250  0.8349
 5876SOL    HW229265   2.038   1.185   9.713  1.4094  0.8573 -1.6784
 5877SOL     OW29266   2.940   0.642   3.401 -0.1983 -1.2005 -0.0504
 5877SOL    HW129267   2.853   0.676   3.382  0.3422  0.2863  0.0978
 5877SOL    HW229268   2.943   0.636   3.497  1.0826 -0.3618 -0.0383
 5878SOL     OW29269   0.247   1.856   7.672  0.5110 -0.6219 -0.2134
 5878SOL    HW129270   0.262   1.766   7.699  4.4680 -0.3280 -1.4039
 5878SOL    HW229271   0.324   1.868   7.616  0.9655 -3.4783 -0.2041
 5879SOL     OW29272   2.859   1.672   5.947 -0.1948  0.1801  0.3749
 5879SOL    HW129273   2.944   1.628   5.954 -0.2471  0.6080  3.5796
 5879SOL    HW229274   2.807   1.627   6.013 -1.2846 -0.5551 -0.9944
 5880SOL     OW29275   0.191   0.275   3.326 -0.0182  0.4745  0.0419
 5880SOL    HW129276   0.140   0.283   3.407  1.4319 -1.1506  1.1288
 5880SOL    HW229277   0.207   0.183   3.306  0.0022  0.1484  1.5287
 5881SOL     OW29278   0.257   4.374  11.486 -0.4623 -0.0983 -0.1401
 5881SOL    HW129279   0.218   4.461  11.488 -2.2212 -0.8868 -0.7694
 5881SOL    HW229280   0.326   4.392  11.422 -0.8233  2.0851  0.0799
 5882SOL     OW29281   0.422   2.824   9.776  0.1143  0.0908 -0.3593
 5882SOL    HW129282   0.349   2.881   9.800 -0.1834  0.4885 -2.2605
 5882SOL    HW229283   0.451   2.875   9.701 -0.9144 -1.3167 -1.7008
 5883SOL     OW29284   4.731   0.819   5.899  0.9473  0.3956  0.0908
 5883SOL    HW129285   4.685   0.735   5.893 -0.9085  1.2131  2.9252
 5883SOL    HW229286   0.016   0.817   5.992 -0.9246 -0.1356  0.5626
 5884SOL     OW29287   1.064   1.389  10.692 -0.3500  0.1779  0.4558
 5884SOL    HW129288   1.104   1.340  10.620  0.9427  0.6819  0.8223
 5884SOL    HW229289   0.995   1.422  10.635 -0.9776 -0.3897  0.8931
 5885SOL     OW29290   4.145   3.598   7.204  0.4091  0.3545  0.3619
 5885SOL    HW129291   4.084   3.625   7.136  2.9649  2.5141 -1.0719
 5885SOL    HW229292   4.172   3.509   7.181 -0.8235 -0.3856  1.8022
 5886SOL     OW29293   3.059   2.740   4.655  0.1830  0.0663 -0.0792
 5886SOL    HW129294   3.057   2.767   4.563 -2.0880 -0.9007 -0.3043
 5886SOL    HW229295   2.968   2.753   4.682 -0.5362 -0.7569 -2.1061
 5887SOL     OW29296   1.633   2.314   1.552  0.6174  0.2462 -0.4835
 5887SOL    HW129297   1.560   2.332   1.610  1.4873 -0.1841  0.7389
 5887SOL    HW229298   1.586   2.273   1.479  1.8066  0.8891 -1.6231
 5888SOL     OW29299   2.001   2.534   2.238  1.0638  0.4979 -0.6842
 5888SOL    HW129300   1.920   2.543   2.188  0.5977  1.4637  0.2676
 5888SOL    HW229301   2.052   2.473   2.184  0.4022  1.7075 -2.6682
 5889SOL     OW29302   1.774   3.141   4.724 -0.9619 -0.1449  0.3864
 5889SOL    HW129303   1.681   3.157   4.707 -0.9255 -0.3676 -0.0175
 5889SOL    HW229304   1.803   3.180   4.642 -1.4364  0.8770  0.6961
 5890SOL     OW29305   3.705   1.293   5.435  0.4971 -0.0598  0.7333
 5890SOL    HW129306   3.714   1.388   5.429 -0.5727  0.2464  3.7250
 5890SOL    HW229307   3.656   1.257   5.362  1.0884 -0.3491  0.4821
 5891SOL     OW29308   2.611   0.518   8.638 -0.0187  0.6734 -0.5886
 5891SOL    HW129309   2.684   0.515   8.700 -0.7062 -0.0903  0.1863
 5891SOL    HW229310   2.644   0.464   8.566  1.5420 -0.8705  1.2669
 5892SOL     OW29311   0.156   3.370   2.808  0.0049  0.1433  0.1705
 5892SOL    HW129312   0.189   3.421   2.734 -1.9172 -0.5465 -1.1697
 5892SOL    HW229313   0.207   3.289   2.801  1.8637  1.3166  0.3000
 5893SOL     OW29314   1.883   1.308   9.708 -0.6197 -0.6362 -0.7288
 5893SOL    HW129315   1.936   1.386   9.726 -0.7694 -0.5583 -0.6244
 5893SOL    HW229316   1.803   1.320   9.759 -0.2334 -2.6424  0.3625
 5894SOL     OW29317   4.027   3.082   5.285 -0.1650  0.0443  0.1488
 5894SOL    HW129318   3.977   3.097   5.205  1.5587  2.8308 -0.3997
 5894SOL    HW229319   3.973   3.016   5.328  1.3228 -1.7271 -0.6748
 5895SOL     OW29320   4.609   2.881   8.012 -0.3022 -1.3063 -0.2978
 5895SOL    HW129321   4.676   2.914   7.952 -1.2167  0.2629 -0.4644
 5895SOL    HW229322   4.534   2.922   7.969  1.3067  1.2054 -0.6804
 5896SOL     OW29323   1.070   3.117   2.931 -0.0751 -0.6361 -0.2180
 5896SOL    HW129324   0.975   3.112   2.920 -0.1606 -1.2540  0.8975
 5896SOL    HW229325   1.072   3.177   3.005 -2.3861 -0.1416 -0.5641
 5897SOL     OW29326   1.896   2.408   3.722 -0.2450 -0.5675 -0.2485
 5897SOL    HW129327   1.822   2.397   3.782 -0.5295 -1.1481 -0.7116
 5897SOL    HW229328   1.877   2.493   3.683 -0.0849 -1.2704 -1.8432
 5898SOL     OW29329   0.389   1.774  13.362  0.3230 -0.1858 -0.2000
 5898SOL    HW129330   0.379   1.796  13.455 -2.3058 -1.1886 -0.2379
 5898SOL    HW229331   0.301   1.739  13.349 -0.4355  2.2380 -1.5776
 5899SOL     OW29332   2.425   0.151   8.911 -0.5916  0.3359  0.4144
 5899SOL    HW129333   2.401   0.129   8.820  0.4460 -1.2632  0.5354
 5899SOL    HW229334   2.370   0.227   8.929 -1.0591  0.2400 -0.5737
 5900SOL     OW29335   3.188   4.048   8.507  0.5129 -0.3381  0.1296
 5900SOL    HW129336   3.098   4.082   8.499  1.5143  2.3269  0.3491
 5900SOL    HW229337   3.237   4.122   8.472  0.4553 -0.3988 -0.0766
 5901SOL     OW29338   3.463   1.657   7.256 -0.1925 -0.2463  0.5675
 5901SOL    HW129339   3.394   1.594   7.235 -0.2273 -0.5805  1.6861
 5901SOL    HW229340   3.534   1.598   7.281  1.2852  0.1496 -2.6243
 5902SOL     OW29341   0.181   1.637   0.109 -0.0470  0.3594  0.2098
 5902SOL    HW129342   0.121   1.578   0.063  0.8638 -1.4643  1.3265
 5902SOL    HW229343   0.256   1.652   0.052  1.8827 -1.0014  2.3785
 5903SOL     OW29344   4.538   1.713  12.851 -0.0371  0.1933  0.5121
 5903SOL    HW129345   4.521   1.741  12.941  0.1997 -0.5070  0.7718
 5903SOL    HW229346   4.525   1.796  12.805  0.1338  0.7806  1.5371
 5904SOL     OW29347   2.162   0.908   6.767  0.1657  0.7677  0.2295
 5904SOL    HW129348   2.229   0.911   6.836  0.0297  0.3134  0.3824
 5904SOL    HW229349   2.218   0.867   6.702 -0.6149  1.3460 -0.8002
 5905SOL     OW29350   3.353   3.259  14.561 -0.4964 -0.5795 -0.4260
 5905SOL    HW129351   3.362   3.336  14.504 -1.5355  0.2866  0.5799
 5905SOL    HW229352   3.432   3.265  14.614 -0.7113 -1.3334 -0.0187
 5906SOL     OW29353   2.502   2.268  10.060  0.0363  0.3739  0.7918
 5906SOL    HW129354   2.593   2.272  10.030 -0.3047  1.8281 -0.0002
 5906SOL    HW229355   2.514   2.198  10.126 -1.6711 -0.0327  0.6609
 5907SOL     OW29356   1.761   4.302   8.568  0.1950  0.1807 -0.0747
 5907SOL    HW129357   1.779   4.243   8.495 -0.9410 -0.9247  0.5405
 5907SOL    HW229358   1.819   4.378   8.554 -0.0683  0.4918  0.5067
 5908SOL     OW29359   4.152   0.016  16.529 -0.2792  0.2574  0.4416
 5908SOL    HW129360   4.111   0.029  16.615 -0.8142  0.2461  0.1831
 5908SOL    HW229361   4.200   0.098  16.514  0.1272  0.2086  1.4644
 5909SOL     OW29362   4.002   0.259   6.412 -0.7575  0.1879  0.1958
 5909SOL    HW129363   3.952   0.283   6.490 -0.3085  0.4899  0.3850
 5909SOL    HW229364   4.084   0.306   6.422  0.4023 -1.5911 -0.9964
 5910SOL     OW29365   2.210   3.321   2.622 -0.5770 -0.3315  0.5040
 5910SOL    HW129366   2.235   3.238   2.582  1.0153 -0.8396  2.5074
 5910SOL    HW229367   2.259   3.306   2.703 -0.8120 -1.1213  0.5056
 5911SOL     OW29368   1.034   4.180   8.580  0.5176 -0.1898 -0.3058
 5911SOL    HW129369   1.039   4.094   8.622  3.1999 -0.9092 -2.0350
 5911SOL    HW229370   1.124   4.182   8.545  0.4216  0.3460 -0.5116
 5912SOL     OW29371   0.928   0.895   2.270 -0.1442 -0.7205  0.0258
 5912SOL    HW129372   0.999   0.933   2.323 -0.0777  0.6993 -1.0724
 5912SOL    HW229373   0.847   0.898   2.321  0.0110 -0.1303  0.2410
 5913SOL     OW29374   1.412   1.255  10.565 -0.2212  0.5313  0.2420
 5913SOL    HW129375   1.439   1.190  10.630 -0.3668  2.5429  2.3017
 5913SOL    HW229376   1.319   1.233  10.568 -0.6111  2.2264  0.8633
 5914SOL     OW29377   0.323   4.109   5.012  0.2685  0.3169  0.4527
 5914SOL    HW129378   0.290   4.023   5.039 -2.3303  0.7895 -1.2492
 5914SOL    HW229379   0.261   4.174   5.044  1.0944  0.3206  2.0479
 5915SOL     OW29380   2.798   0.840   6.476  0.1518  0.0243 -0.2016
 5915SOL    HW129381   2.893   0.832   6.472  0.4035  1.3579  2.5001
 5915SOL    HW229382   2.787   0.935   6.478  1.3472  0.1865 -1.4058
 5916SOL     OW29383   2.442   4.197   2.700 -0.2403  0.3957 -0.5412
 5916SOL    HW129384   2.435   4.107   2.733 -1.6265  0.5476 -0.4602
 5916SOL    HW229385   2.501   4.176   2.627  1.8951 -4.0521  2.4343
 5917SOL     OW29386   1.057   1.012   5.257 -0.1942 -0.1437  0.0525
 5917SOL    HW129387   1.092   1.083   5.203 -0.1414 -0.6929 -0.6375
 5917SOL    HW229388   1.136   0.985   5.305 -0.0449  0.3318  0.0773
 5918SOL     OW29389   3.768   2.222   4.885  0.2001  0.4534 -0.0079
 5918SOL    HW129390   3.780   2.292   4.821 -0.8580 -1.1345 -1.9460
 5918SOL    HW229391   3.707   2.164   4.839  1.1896 -0.4527 -0.1805
 5919SOL     OW29392   3.975   2.221   8.878 -0.0553  0.1034  0.4826
 5919SOL    HW129393   4.036   2.194   8.810  1.1854 -0.4019  1.8118
 5919SOL    HW229394   4.019   2.186   8.955 -0.1723  0.5928  0.7741
 5920SOL     OW29395   1.866   1.656   3.307 -0.5870 -0.3133 -0.2990
 5920SOL    HW129396   1.782   1.629   3.345 -0.2293 -2.4124 -1.0074
 5920SOL    HW229397   1.909   1.693   3.384 -0.3500  1.1751 -1.1406
 5921SOL     OW29398   4.506   2.916   0.206  0.8984  0.2629 -0.2751
 5921SOL    HW129399   4.482   2.824   0.200 -1.8123  1.0152 -0.9681
 5921SOL    HW229400   4.511   2.939   0.113  1.3044 -1.3283 -0.6477
 5922SOL     OW29401   2.513   1.753   7.719  0.0107 -0.2929  0.1121
 5922SOL    HW129402   2.455   1.698   7.771  0.7501  0.5833  1.8439
 5922SOL    HW229403   2.571   1.783   7.788 -2.9637  3.3949  1.0535
 5923SOL     OW29404   2.810   3.033   4.717 -0.1919 -0.1567  0.4402
 5923SOL    HW129405   2.784   2.964   4.656  0.3350 -0.0421  0.0913
 5923SOL    HW229406   2.720   3.053   4.743 -0.1098 -0.3934  0.8995
 5924SOL     OW29407   2.119   0.097   5.755  0.2476  0.7343  0.1945
 5924SOL    HW129408   2.205   0.121   5.721  0.9709  0.6781  1.9512
 5924SOL    HW229409   2.124   0.121   5.848 -2.9426  0.0081  0.5648
 5925SOL     OW29410   3.628   4.074   5.159  0.7102 -0.3367 -0.5318
 5925SOL    HW129411   3.594   4.158   5.189  0.1412 -2.1294  3.9363
 5925SOL    HW229412   3.648   4.034   5.244  2.4596  0.4473 -0.5732
 5926SOL     OW29413   3.679   3.013   7.654 -0.1611 -0.3871  0.5461
 5926SOL    HW129414   3.659   3.016   7.747  0.7032 -1.9263  0.7829
 5926SOL    HW229415   3.648   3.098   7.625  1.8877  0.2612  0.2838
 5927SOL     OW29416   1.276   0.885   4.948 -0.1458 -0.0035 -0.1028
 5927SOL    HW129417   1.229   0.869   4.866  0.5835 -1.4752 -0.2306
 5927SOL    HW229418   1.220   0.828   4.999  0.7302  2.8155  3.9961
 5928SOL     OW29419   4.229   0.421  10.800 -0.3839 -0.2788  0.1102
 5928SOL    HW129420   4.274   0.442  10.882  0.0243  1.3938 -0.5359
 5928SOL    HW229421   4.155   0.479  10.818 -0.2738  0.3562 -1.4072
 5929SOL     OW29422   1.885   4.388  13.275  0.2372 -0.5525 -0.0225
 5929SOL    HW129423   1.939   4.310  13.263 -0.4347 -0.9543 -0.4534
 5929SOL    HW229424   1.894   4.400  13.369  2.3526 -1.3549 -0.1370
 5930SOL     OW29425   0.089   1.505  17.613  0.1934  0.5324  0.4187
 5930SOL    HW129426   0.005   1.496  17.570 -0.4020 -0.8750  1.8916
 5930SOL    HW229427   0.150   1.516  17.540 -1.6295 -1.9762 -1.4377
 5931SOL     OW29428   2.741   3.913  14.157 -0.1831 -0.1511  0.3048
 5931SOL    HW129429   2.823   3.911  14.206  1.8635  0.4546 -3.1000
 5931SOL    HW229430   2.679   3.963  14.211 -2.1049 -1.4457 -0.7344
 5932SOL     OW29431   1.405   2.313   1.706 -0.5059 -0.7746 -0.6193
 5932SOL    HW129432   1.366   2.366   1.775 -1.1787 -0.7397 -1.0301
 5932SOL    HW229433   1.328   2.291   1.653  1.0265 -1.8671 -2.3959
 5933SOL     OW29434   0.558   1.770   5.467  0.1856  0.7428  0.2610
 5933SOL    HW129435   0.471   1.754   5.430  1.3329 -1.7613 -1.4009
 5933SOL    HW229436   0.613   1.803   5.396  1.5487  0.0761  1.0035
 5934SOL     OW29437   3.359   2.153   0.377 -0.0317 -0.5246 -0.3269
 5934SOL    HW129438   3.417   2.142   0.301 -1.1846 -3.4368 -0.8043
 5934SOL    HW229439   3.383   2.074   0.425  2.1819  1.8432  2.4676
 5935SOL     OW29440   2.688   1.870  16.601  0.0533  0.3937 -0.0250
 5935SOL    HW129441   2.600   1.889  16.634  0.5686  1.1189  0.9214
 5935SOL    HW229442   2.686   1.776  16.582  0.4151  0.2674  0.5592
 5936SOL     OW29443   4.720   3.154  16.501 -0.5254 -0.2330 -0.2020
 5936SOL    HW129444   4.662   3.121  16.570 -0.6384  1.8903  0.7112
 5936SOL    HW229445   0.060   3.107  16.527  0.2945  0.7009 -1.0054
 5937SOL     OW29446   3.018   3.633   3.227 -0.2576 -0.3383  0.1959
 5937SOL    HW129447   3.089   3.568   3.230  0.8241  0.8411  0.2825
 5937SOL    HW229448   3.018   3.676   3.142 -0.6737  2.3004  1.5357
 5938SOL     OW29449   3.448   1.120   4.331  0.4655  0.0182  0.0753
 5938SOL    HW129450   3.358   1.118   4.362  0.6681  1.9300  0.8335
 5938SOL    HW229451   3.447   1.185   4.261  3.3652  0.4777  0.4291
 5939SOL     OW29452   3.389   4.460   2.165 -0.5472  0.3448  0.0105
 5939SOL    HW129453   3.349   4.503   2.089  0.9561 -0.5074 -1.2395
 5939SOL    HW229454   3.449   4.529   2.193 -0.4463 -0.3820  1.5782
 5940SOL     OW29455   1.304   1.524   0.248  0.0179 -0.3016 -0.3877
 5940SOL    HW129456   1.381   1.569   0.285 -0.0062 -1.6747  1.3415
 5940SOL    HW229457   1.322   1.534   0.155  0.6726  1.1639 -0.1170
 5941SOL     OW29458   0.140   1.567   3.859  0.5099  0.0774  0.2071
 5941SOL    HW129459   0.045   1.561   3.860  0.4454  1.3138  0.5150
 5941SOL    HW229460   0.151   1.624   3.783  0.4694 -0.7973 -0.4524
 5942SOL     OW29461   0.426   3.068  12.775  0.1969  0.3668 -0.1354
 5942SOL    HW129462   0.379   3.006  12.831  1.5281  2.0212  2.8210
 5942SOL    HW229463   0.517   3.037  12.776  0.4833  1.1890 -0.8198
 5943SOL     OW29464   1.122   1.815  16.666  0.1668  0.2637 -0.1295
 5943SOL    HW129465   1.164   1.808  16.752 -3.3595 -0.9353  1.5176
 5943SOL    HW229466   1.142   1.724  16.643  1.6711  0.7431 -0.6485
 5944SOL     OW29467   2.290   1.702   9.081 -0.0455  0.4125 -0.0900
 5944SOL    HW129468   2.382   1.707   9.053  0.7404 -2.8971  1.8301
 5944SOL    HW229469   2.257   1.785   9.048  0.1169  0.0506 -1.1378
 5945SOL     OW29470   1.547   1.059   3.886 -0.1662  0.0727 -0.0442
 5945SOL    HW129471   1.589   1.122   3.944 -0.6319  1.6495 -1.4291
 5945SOL    HW229472   1.483   1.119   3.847 -0.4777 -1.2642 -1.6320
 5946SOL     OW29473   1.231   3.519  12.436 -0.4332  0.9454  0.1066
 5946SOL    HW129474   1.182   3.438  12.425 -0.5201  1.1779 -1.2611
 5946SOL    HW229475   1.231   3.542  12.343  1.0460  0.8578  0.0846
 5947SOL     OW29476   3.480   2.592  11.329 -0.2134 -0.2751 -0.0153
 5947SOL    HW129477   3.488   2.522  11.264 -0.2247  1.7881 -2.2223
 5947SOL    HW229478   3.391   2.586  11.364  0.3934  1.8207  1.8503
 5948SOL     OW29479   4.261   2.820   1.509  0.0872  0.1214 -0.5036
 5948SOL    HW129480   4.309   2.769   1.443  0.0455 -0.5871  0.0185
 5948SOL    HW229481   4.334   2.860   1.556 -0.5990  1.2192 -0.3796
 5949SOL     OW29482   0.110   0.243   6.851  0.0277  0.3281 -0.1822
 5949SOL    HW129483   0.144   0.204   6.931  0.9059 -0.9437 -1.1849
 5949SOL    HW229484   0.061   0.318   6.883  0.4357  0.7511 -0.5512
 5950SOL     OW29485   2.462   4.102   6.897  0.4966 -0.0282 -0.5075
 5950SOL    HW129486   2.479   4.140   6.983  0.5731  2.4695 -1.6097
 5950SOL    HW229487   2.408   4.171   6.858 -2.6582 -1.8365  0.6392
 5951SOL     OW29488   3.316   0.838   4.639 -0.0332 -0.5392  0.1024
 5951SOL    HW129489   3.236   0.789   4.658 -2.1879  2.5473 -0.9749
 5951SOL    HW229490   3.288   0.929   4.644  1.9550  0.1152 -0.9081
 5952SOL     OW29491   3.809   1.169  11.348  0.1452 -0.0215  0.5949
 5952SOL    HW129492   3.782   1.162  11.257  1.1232  1.3801  0.1997
 5952SOL    HW229493   3.887   1.113  11.351 -1.2336 -1.9752  0.1240
 5953SOL     OW29494   3.821   2.934   4.698  0.0142 -0.0916 -0.6845
 5953SOL    HW129495   3.814   2.920   4.792 -1.5443 -0.0686 -0.7972
 5953SOL    HW229496   3.731   2.909   4.677  1.2523 -1.8440 -3.9426
 5954SOL     OW29497   4.110   3.058   1.142  0.0386  0.9012 -0.1573
 5954SOL    HW129498   4.195   3.015   1.148  1.5093  3.3312 -4.0282
 5954SOL    HW229499   4.083   3.047   1.233 -0.8635  1.7693 -0.3152
 5955SOL     OW29500   4.456   2.665   2.249  0.3992 -0.5885  0.7025
 5955SOL    HW129501   4.514   2.724   2.296 -0.7511  1.4892 -0.4601
 5955SOL    HW229502   4.372   2.701   2.276  1.6863  2.7508  0.3169
 5956SOL     OW29503   2.081   0.122  17.324 -0.4679 -0.3238 -0.2182
 5956SOL    HW129504   2.087   0.057  17.394 -0.4882  1.3943  1.3756
 5956SOL    HW229505   2.072   0.200  17.378 -0.2317  0.4782 -1.3168
 5957SOL     OW29506   4.470   0.172   4.848 -0.1957  0.3408 -0.6956
 5957SOL    HW129507   4.505   0.219   4.772  0.1857  2.0559  0.5483
 5957SOL    HW229508   4.376   0.171   4.833 -0.1719  0.4909 -0.8453
 5958SOL     OW29509   3.809   2.341   4.642 -0.2764 -0.2473  0.3697
 5958SOL    HW129510   3.859   2.309   4.567 -0.3233  0.0139  0.2298
 5958SOL    HW229511   3.721   2.348   4.606  0.1672  0.0331 -0.6534
 5959SOL     OW29512   2.955   2.011   3.729  0.4203 -0.2554 -0.0861
 5959SOL    HW129513   2.900   1.970   3.662  0.1596 -0.5223  0.2935
 5959SOL    HW229514   3.008   2.068   3.673  0.7332 -0.9141 -0.4585
 5960SOL     OW29515   0.337   3.747  10.714  0.1386 -0.1874  0.3552
 5960SOL    HW129516   0.333   3.652  10.698  2.6756 -0.4666  1.5034
 5960SOL    HW229517   0.426   3.759  10.681  0.9066 -0.5148  2.3408
 5961SOL     OW29518   1.395   4.622   8.154 -0.1568  0.2658 -0.3557
 5961SOL    HW129519   1.400   4.669   8.071  2.0335 -0.5741 -0.7011
 5961SOL    HW229520   1.304   4.631   8.182  0.3138  0.9858  0.9432
 5962SOL     OW29521   2.118   4.133   2.304 -0.3556  0.2884  0.3063
 5962SOL    HW129522   2.194   4.089   2.342 -0.5184  1.7415  2.3170
 5962SOL    HW229523   2.131   4.228   2.314  0.9657 -0.0375  1.7285
 5963SOL     OW29524   1.798   3.924   6.221 -1.0279  0.0093  0.1343
 5963SOL    HW129525   1.822   3.863   6.291  0.2243  2.4937  1.8337
 5963SOL    HW229526   1.829   4.007   6.256 -0.3676 -1.3159  2.6161
 5964SOL     OW29527   0.543   2.282   7.144 -0.2597  0.0753  0.6389
 5964SOL    HW129528   0.601   2.205   7.142 -1.0541 -0.4491 -2.9300
 5964SOL    HW229529   0.454   2.249   7.132  0.3345 -0.1665 -3.0871
 5965SOL     OW29530   3.721   2.706  16.701 -0.2375 -0.3062  0.0237
 5965SOL    HW129531   3.800   2.753  16.726 -0.0188 -0.3329 -0.6009
 5965SOL    HW229532   3.693   2.761  16.627  2.4261  0.8839 -0.0982
 5966SOL     OW29533   0.229   0.463   4.290  0.1295 -0.0478  0.5561
 5966SOL    HW129534   0.227   0.408   4.368  1.1265 -1.5651 -0.5111
 5966SOL    HW229535   0.246   0.546   4.335  1.1700  0.3811 -0.6296
 5967SOL     OW29536   1.347   0.066   2.523 -0.2555  0.4536 -0.6134
 5967SOL    HW129537   1.355   0.083   2.616 -0.7069 -0.3865 -0.4198
 5967SOL    HW229538   1.438   0.086   2.500  0.6702 -1.8737  1.0794
 5968SOL     OW29539   3.914   1.322   3.172  0.0654  0.5981 -0.4335
 5968SOL    HW129540   3.929   1.232   3.142  2.5661 -0.0189  2.6536
 5968SOL    HW229541   3.917   1.316   3.267 -0.0856  1.2726 -0.3863
 5969SOL     OW29542   2.767   1.003   7.614 -0.3490 -0.4042 -0.0308
 5969SOL    HW129543   2.825   1.043   7.549 -0.7367  2.5749  1.4172
 5969SOL    HW229544   2.740   0.929   7.561 -1.2843  0.0634 -0.2100
 5970SOL     OW29545   4.582   2.860   0.597  0.0514 -0.0096  0.1879
 5970SOL    HW129546   4.513   2.803   0.630  0.0781 -0.1765 -0.0405
 5970SOL    HW229547   4.638   2.874   0.673 -3.1652 -0.8957  2.7428
 5971SOL     OW29548   2.805   4.559  10.451 -0.6494 -0.4536 -0.8036
 5971SOL    HW129549   2.793   4.516  10.536  1.2291  1.1797  0.2794
 5971SOL    HW229550   2.894   4.594  10.451 -0.4659 -0.9029  0.6552
 5972SOL     OW29551   4.471   2.194   1.185  0.2484  0.3939  0.3326
 5972SOL    HW129552   4.508   2.276   1.153 -0.5178  0.6503  0.0842
 5972SOL    HW229553   4.384   2.203   1.146  0.2922  0.2220  0.1940
 5973SOL     OW29554   3.825   3.929   5.028 -0.1352 -0.0527  0.1066
 5973SOL    HW129555   3.760   3.994   5.056 -0.1440  0.2670 -0.6473
 5973SOL    HW229556   3.835   3.954   4.936  1.5976  0.0244  0.3308
 5974SOL     OW29557   0.539   0.213   5.765  0.3234  0.7366 -0.0896
 5974SOL    HW129558   0.579   0.193   5.849  3.2027 -0.1544 -1.6617
 5974SOL    HW229559   0.503   0.300   5.781 -1.0070  0.1402  0.1612
 5975SOL     OW29560   3.303   0.950  14.482 -0.6194  0.1003  0.6441
 5975SOL    HW129561   3.314   0.879  14.546  0.2308 -0.5658 -0.2278
 5975SOL    HW229562   3.387   0.949  14.437  0.3574 -0.3165  2.4711
 5976SOL     OW29563   0.820   2.653   9.790  0.5167 -0.1864 -0.3465
 5976SOL    HW129564   0.749   2.618   9.842 -0.1981 -0.5931 -1.6008
 5976SOL    HW229565   0.825   2.742   9.825 -0.3211 -0.6643  0.9671
 5977SOL     OW29566   4.156   3.030   0.745 -0.7002  0.0991 -0.1909
 5977SOL    HW129567   4.193   3.087   0.813  0.9196  1.1062 -1.9272
 5977SOL    HW229568   4.065   3.042   0.770 -0.5223 -0.0647  0.5347
 5978SOL     OW29569   1.668   1.427   0.512  0.2001 -0.0689  0.0523
 5978SOL    HW129570   1.704   1.474   0.587  0.7276 -2.0553  1.0563
 5978SOL    HW229571   1.577   1.426   0.539  0.2352 -0.4675  0.1604
 5979SOL     OW29572   3.422   0.394   2.604 -0.0750 -0.0661  0.2465
 5979SOL    HW129573   3.467   0.335   2.543 -0.4527 -0.2942  0.1879
 5979SOL    HW229574   3.443   0.476   2.559  0.6714  0.3380  1.3298
 5980SOL     OW29575   2.384   0.848   5.765 -0.3394 -0.1332 -0.0598
 5980SOL    HW129576   2.457   0.907   5.783  1.1872 -2.7351  2.3257
 5980SOL    HW229577   2.409   0.814   5.679  0.5443 -2.1007  0.9979
 5981SOL     OW29578   2.102   0.714   3.134  0.3565  0.0133  0.4177
 5981SOL    HW129579   2.036   0.780   3.117  0.2113 -0.5367 -1.1650
 5981SOL    HW229580   2.126   0.745   3.221  0.1802 -1.3430  0.9653
 5982SOL     OW29581   3.568   3.452   1.398 -0.4133  0.5035 -0.2261
 5982SOL    HW129582   3.526   3.407   1.325  2.3176  0.5616 -1.8361
 5982SOL    HW229583   3.554   3.545   1.378 -0.0260  0.6935  0.3791
 5983SOL     OW29584   4.470   4.173   5.545 -0.3043 -0.2559 -0.0125
 5983SOL    HW129585   4.387   4.146   5.584 -0.1849 -0.0814  0.3540
 5983SOL    HW229586   4.527   4.150   5.618  0.7290  1.5968 -0.2267
 5984SOL     OW29587   3.627   1.216  11.763 -0.0192 -0.3212 -0.5569
 5984SOL    HW129588   3.567   1.242  11.832  0.9835  1.2447 -0.2798
 5984SOL    HW229589   3.559   1.182  11.705  0.7923 -1.1247 -1.0307
 5985SOL     OW29590   2.448   0.795   3.745 -0.0545 -0.3796 -0.3386
 5985SOL    HW129591   2.508   0.734   3.702 -0.2421  0.1228 -1.3293
 5985SOL    HW229592   2.365   0.747   3.742  1.4551 -2.9771 -0.6758
 5986SOL     OW29593   1.107   0.667   2.258 -0.3062  0.2828 -0.1227
 5986SOL    HW129594   1.055   0.589   2.279  0.3214 -0.3508 -0.9172
 5986SOL    HW229595   1.035   0.727   2.239 -0.0494  0.3937 -0.7378
 5987SOL     OW29596   2.479   3.653   4.794 -0.0945 -0.4439 -0.1535
 5987SOL    HW129597   2.465   3.559   4.784 -0.3483 -0.7181  2.9026
 5987SOL    HW229598   2.523   3.677   4.712 -2.3540 -0.4956 -1.3597
 5988SOL     OW29599   1.248   0.058   5.554 -0.3673  0.0913 -0.0007
 5988SOL    HW129600   1.277   4.706   5.545 -0.7690 -0.0005 -0.3682
 5988SOL    HW229601   1.154   0.055   5.539 -0.7690 -0.9423  2.7384
 5989SOL     OW29602   1.740   0.943   2.482 -0.4158 -0.2092  0.7074
 5989SOL    HW129603   1.807   0.899   2.429 -0.5768  1.9202 -1.2665
 5989SOL    HW229604   1.670   0.878   2.475 -0.1372 -0.7975  3.7280
 5990SOL     OW29605   4.435   2.499   7.370  0.6954  0.1843 -0.3015
 5990SOL    HW129606   4.465   2.409   7.376  1.5996  0.4957 -0.0447
 5990SOL    HW229607   4.366   2.496   7.304  2.2229 -0.6814 -1.8678
 5991SOL     OW29608   3.894   2.051   0.296 -0.0160  0.1554  0.1216
 5991SOL    HW129609   3.905   1.996   0.218 -1.1967  0.3436 -0.1729
 5991SOL    HW229610   3.983   2.085   0.301 -0.5360  1.4652  0.4090
 5992SOL     OW29611   3.272   0.399   0.850 -0.2021 -0.0775  0.9600
 5992SOL    HW129612   3.317   0.438   0.775 -2.7125  0.4879 -0.2742
 5992SOL    HW229613   3.244   0.315   0.814 -1.4587  0.4224  0.7596
 5993SOL     OW29614   1.815   1.100  13.005 -0.0797  0.2704 -0.0208
 5993SOL    HW129615   1.841   1.164  13.071 -0.5464  1.3325 -0.8757
 5993SOL    HW229616   1.778   1.027  13.056  0.4891  1.5069  2.1644
 5994SOL     OW29617   3.425   4.666   7.811  0.1730 -0.2263 -0.1760
 5994SOL    HW129618   3.519   4.668   7.793  0.2949  3.7782  0.9832
 5994SOL    HW229619   3.435   4.600   7.879 -0.5187  0.2186  0.3552
 5995SOL     OW29620   0.156   3.447   4.265  0.0250  0.8262  0.3393
 5995SOL    HW129621   0.205   3.404   4.335  1.4836  0.7831 -0.6992
 5995SOL    HW229622   0.069   3.410   4.276 -0.0861  1.2278  0.7849
 5996SOL     OW29623   0.951   3.944   0.445  0.1238 -0.3981 -0.4463
 5996SOL    HW129624   0.901   3.879   0.495 -1.1543 -0.8427 -2.2923
 5996SOL    HW229625   0.904   4.018   0.482 -0.8271 -1.8455  1.2478
 5997SOL     OW29626   0.483   3.881   7.198  0.3950  0.2705 -0.1628
 5997SOL    HW129627   0.525   3.808   7.243 -2.2687 -1.4477 -0.5021
 5997SOL    HW229628   0.481   3.841   7.111 -0.5374 -0.7598  0.3364
 5998SOL     OW29629   4.532   1.022  16.486 -0.3173 -0.5153 -0.1446
 5998SOL    HW129630   4.623   0.995  16.497 -0.8768 -2.6496 -0.8857
 5998SOL    HW229631   4.538   1.090  16.419  0.9970 -2.9167 -2.4502
 5999SOL     OW29632   1.178   1.011   3.042  0.5848 -0.3803  0.7391
 5999SOL    HW129633   1.101   1.023   2.986  0.6332  0.8740  0.9545
 5999SOL    HW229634   1.181   1.091   3.094 -0.3943 -0.8065  1.4368
 6000SOL     OW29635   0.554   4.703  10.562 -0.3693 -0.0560 -0.1526
 6000SOL    HW129636   0.649   4.713  10.561 -0.4972  1.0477 -1.5202
 6000SOL    HW229637   0.549   4.675  10.653  1.6908 -0.0164 -0.0330
 6001SOL     OW29638   4.288   0.694   2.830  0.0813  0.8105  0.7781
 6001SOL    HW129639   4.362   0.633   2.833 -1.5248 -1.1244  0.9614
 6001SOL    HW229640   4.218   0.632   2.850  0.9376 -0.5927 -0.5825
 6002SOL     OW29641   4.010   2.499   7.068 -0.0163  0.7509  0.3646
 6002SOL    HW129642   3.935   2.476   7.014 -0.1022  1.3740  0.2203
 6002SOL    HW229643   4.014   2.594   7.061  0.3029  0.7165  0.0908
 6003SOL     OW29644   1.067   1.379  10.334 -0.4963  0.4924  0.0186
 6003SOL    HW129645   1.115   1.316  10.279  0.1261  0.1476  0.9641
 6003SOL    HW229646   0.983   1.334  10.344 -0.8160  1.0210 -0.3007
 6004SOL     OW29647   0.301   0.273   4.486 -0.1487  0.2413 -0.2317
 6004SOL    HW129648   0.318   0.181   4.467  0.0107  0.2723 -0.2368
 6004SOL    HW229649   0.240   0.258   4.559  2.4705 -2.0750  1.4825
 6005SOL     OW29650   2.840   3.100  15.170  0.0840  0.2779  0.2619
 6005SOL    HW129651   2.861   3.187  15.137  0.3713  0.2405  0.3487
 6005SOL    HW229652   2.881   3.039  15.108 -0.8366 -0.6560  0.5615
 6006SOL     OW29653   1.165   4.188   2.016 -0.6815 -0.1013 -0.1237
 6006SOL    HW129654   1.160   4.202   1.922  0.0364  0.1247 -0.1228
 6006SOL    HW229655   1.257   4.177   2.039 -0.5248  1.2126 -0.1049
 6007SOL     OW29656   3.142   2.523   1.053 -0.3028 -0.1022 -0.3807
 6007SOL    HW129657   3.219   2.486   1.097 -1.8917 -0.5046  2.0748
 6007SOL    HW229658   3.099   2.564   1.129 -1.5559 -1.2073 -0.5013
 6008SOL     OW29659   0.461   4.717  13.049 -0.0166  0.0959  0.5581
 6008SOL    HW129660   0.553   0.000  13.061  0.7430 -1.5556 -2.4193
 6008SOL    HW229661   0.422   0.008  13.132 -1.0838 -1.1376  0.5116
 6009SOL     OW29662   4.035   3.389   5.511 -0.6699  0.3900 -0.0474
 6009SOL    HW129663   4.047   3.382   5.417 -0.9432  0.3702 -0.0824
 6009SOL    HW229664   4.073   3.475   5.528  0.9904 -0.4810  0.5969
 6010SOL     OW29665   3.803   2.297  11.342 -0.5254  0.3868 -0.4057
 6010SOL    HW129666   3.824   2.390  11.339 -0.0789  0.2320 -1.8804
 6010SOL    HW229667   3.761   2.291  11.428  0.0825  1.0849 -0.0589
 6011SOL     OW29668   0.178   2.841   9.531  0.6929  0.3753  0.2064
 6011SOL    HW129669   0.201   2.934   9.543  0.2167  0.4159  0.8172
 6011SOL    HW229670   0.120   2.846   9.455  0.6638 -0.8865  0.1489
 6012SOL     OW29671   2.936   1.232  14.517  0.0064  0.6067  0.0292
 6012SOL    HW129672   2.958   1.318  14.481 -1.1438 -0.1515 -2.4617
 6012SOL    HW229673   2.886   1.258  14.595  2.0059  1.0726  1.1627
 6013SOL     OW29674   2.226   1.480   2.570 -0.1495  0.2604  0.1448
 6013SOL    HW129675   2.230   1.472   2.475 -1.6813  1.0094  0.0107
 6013SOL    HW229676   2.195   1.390   2.580 -0.4923  0.4470  0.7500
 6014SOL     OW29677   3.904   2.465  15.829 -0.1677 -0.4475 -0.1397
 6014SOL    HW129678   3.990   2.423  15.828  0.3516  0.5277  1.5862
 6014SOL    HW229679   3.930   2.555  15.852  0.0367  0.3739 -3.5486
 6015SOL     OW29680   0.090   2.962   4.699  0.1946 -0.2326 -0.0862
 6015SOL    HW129681   0.080   2.869   4.719 -1.1462 -0.1940 -0.5718
 6015SOL    HW229682   0.016   2.995   4.748  0.6570  2.6404 -1.3300
 6016SOL     OW29683   2.679   1.161  14.467 -0.5215  0.2407  0.3573
 6016SOL    HW129684   2.630   1.192  14.543 -2.1382  0.7564 -0.9014
 6016SOL    HW229685   2.772   1.178  14.478 -0.4337  0.1715 -0.2724
 6017SOL     OW29686   1.059   0.328   7.831  0.0338 -0.4327  0.1617
 6017SOL    HW129687   0.979   0.325   7.884  0.3393  0.3908  0.6759
 6017SOL    HW229688   1.067   0.417   7.797  0.4038 -0.5890 -0.1554
 6018SOL     OW29689   3.832   2.288  17.539 -0.1285  0.5735 -0.3025
 6018SOL    HW129690   3.838   2.196  17.564 -0.0762  0.3014 -1.3235
 6018SOL    HW229691   3.799   2.327  17.620  0.2605  0.1450  0.0642
 6019SOL     OW29692   4.207   1.987  10.122 -0.3603  0.2804  0.1026
 6019SOL    HW129693   4.198   2.072  10.079  2.7256 -0.4947 -2.1101
 6019SOL    HW229694   4.116   1.963  10.135 -0.9393  1.7028 -1.3531
 6020SOL     OW29695   1.563   2.745   5.016  0.1610  0.4707 -0.5083
 6020SOL    HW129696   1.517   2.662   5.030 -0.4873  0.9394  0.1236
 6020SOL    HW229697   1.511   2.791   4.949 -2.2365 -0.5670  0.6551
 6021SOL     OW29698   2.812   1.348   6.545  0.4372  0.0020 -0.8462
 6021SOL    HW129699   2.876   1.302   6.491 -0.8869 -0.8460 -1.6646
 6021SOL    HW229700   2.801   1.282   6.613 -0.8244  0.0958 -0.9633
 6022SOL     OW29701   0.059   0.919   6.478 -0.3819  0.8446  0.4102
 6022SOL    HW129702   0.026   0.829   6.483 -0.6965  0.9632  0.4896
 6022SOL    HW229703   0.006   0.953   6.405 -1.8637  0.6494  1.3979
 6023SOL     OW29704   0.251   4.592   9.872 -0.2645  0.7704 -0.4933
 6023SOL    HW129705   0.198   4.657   9.918  0.3336  0.2018  0.9908
 6023SOL    HW229706   0.312   4.563   9.939  1.8271  0.9785 -2.3111
 6024SOL     OW29707   3.988   4.264   9.459 -0.0173  0.2761 -0.0589
 6024SOL    HW129708   3.974   4.183   9.409 -0.8862  0.0789  0.5019
 6024SOL    HW229709   3.997   4.329   9.390  0.5172  1.1984  0.8811
 6025SOL     OW29710   4.188   0.150   7.065 -0.2763 -0.2538 -0.6377
 6025SOL    HW129711   4.264   0.121   7.115 -1.0566  2.3830  2.1207
 6025SOL    HW229712   4.222   0.221   7.012 -1.2812  0.2456 -0.6087
 6026SOL     OW29713   2.863   1.590   1.575  0.0408 -0.3022  0.2018
 6026SOL    HW129714   2.824   1.676   1.560  1.5701  1.0386  3.8998
 6026SOL    HW229715   2.894   1.565   1.488  1.9791 -1.0058  1.0927
 6027SOL     OW29716   2.733   1.999   4.662 -0.8201  0.2952 -0.2014
 6027SOL    HW129717   2.755   2.036   4.747 -0.6794  0.1659 -0.1804
 6027SOL    HW229718   2.810   2.000   4.604  0.6478 -0.0823  1.7229
 6028SOL     OW29719   2.028   3.922   0.338 -0.0849 -0.0162  0.3528
 6028SOL    HW129720   1.940   3.933   0.376  0.0859  1.7997  0.2543
 6028SOL    HW229721   2.046   4.014   0.320  0.3978  0.3226  2.5041
 6029SOL     OW29722   2.741   2.454   5.043 -0.7800  0.2420  0.1479
 6029SOL    HW129723   2.736   2.444   5.138 -2.0248 -0.7215 -0.0161
 6029SOL    HW229724   2.824   2.500   5.026  0.5874 -1.4962  2.0911
 6030SOL     OW29725   4.579   4.344   7.315 -0.4498 -0.1691 -0.5302
 6030SOL    HW129726   4.523   4.382   7.383 -0.6996  0.1388 -0.9094
 6030SOL    HW229727   4.630   4.285   7.371 -3.3145  1.7534  4.1485
 6031SOL     OW29728   4.154   2.760   2.681  0.2026  0.5769  0.3243
 6031SOL    HW129729   4.212   2.782   2.753  0.4919  2.4349 -0.4810
 6031SOL    HW229730   4.091   2.832   2.677 -3.8536 -2.8766  1.6362
 6032SOL     OW29731   3.701   0.117   3.327 -0.1313 -0.8918 -0.1741
 6032SOL    HW129732   3.735   0.192   3.377 -1.1465 -1.6977  1.7078
 6032SOL    HW229733   3.649   0.078   3.397 -0.5926 -0.5485 -0.3243
 6033SOL     OW29734   0.385   0.205   5.322  0.1313  0.4046 -0.2394
 6033SOL    HW129735   0.311   0.266   5.322 -0.2455 -0.0531 -0.3434
 6033SOL    HW229736   0.373   0.157   5.404 -0.0311  0.1924 -0.3877
 6034SOL     OW29737   2.612   3.160   5.703  0.3455  0.4081 -0.1187
 6034SOL    HW129738   2.655   3.099   5.763  0.8923  0.0311 -0.9024
 6034SOL    HW229739   2.526   3.119   5.703  0.1839  0.7384  1.6233
 6035SOL     OW29740   0.257   4.031   2.043  0.0967  0.2100  0.4909
 6035SOL    HW129741   0.297   4.117   2.045  0.6531 -0.0266 -0.4878
 6035SOL    HW229742   0.286   4.001   1.957  3.2663  2.7624  0.6900
 6036SOL     OW29743   0.938   1.052   8.853  0.2897  0.1058  0.4118
 6036SOL    HW129744   1.031   1.064   8.872  0.1038  2.0020  0.1728
 6036SOL    HW229745   0.917   0.971   8.900  1.6593 -1.4143 -1.5848
 6037SOL     OW29746   1.617   1.411   7.485  0.1623  0.2093 -0.7585
 6037SOL    HW129747   1.559   1.343   7.520  0.2137  0.3777 -0.3407
 6037SOL    HW229748   1.706   1.377   7.477 -0.9813 -2.1333 -3.5138
 6038SOL     OW29749   3.255   1.677   9.070  0.5302 -0.5938  0.7449
 6038SOL    HW129750   3.261   1.596   9.021  0.0556 -0.6549  0.7856
 6038SOL    HW229751   3.168   1.669   9.109 -0.1967 -0.1803 -0.7804
 6039SOL     OW29752   3.709   2.605  13.655  0.3518 -0.1741  0.4012
 6039SOL    HW129753   3.782   2.573  13.707  0.8620  0.2675 -0.0452
 6039SOL    HW229754   3.641   2.583  13.719  1.1921  3.5162  2.5894
 6040SOL     OW29755   2.564   1.958   8.415  0.1235  0.8674  0.2243
 6040SOL    HW129756   2.474   1.990   8.411  0.4006  1.5107 -0.9965
 6040SOL    HW229757   2.600   2.043   8.441  1.4926  0.1736  0.6153
 6041SOL     OW29758   3.186   1.944   7.690  0.3450 -0.2823  0.2532
 6041SOL    HW129759   3.252   1.888   7.650  0.2686  0.0619 -0.3617
 6041SOL    HW229760   3.140   1.969   7.610  0.9021 -2.4848 -0.7454
 6042SOL     OW29761   0.532   3.146   3.245  0.0978  0.2720  0.4284
 6042SOL    HW129762   0.474   3.118   3.316 -2.2559 -1.5138 -2.2210
 6042SOL    HW229763   0.467   3.176   3.181 -1.2907 -0.8439  1.3066
 6043SOL     OW29764   1.026   0.162   6.534  0.3217 -1.6588 -0.3987
 6043SOL    HW129765   0.948   0.218   6.537  0.5310 -1.5476  3.9116
 6043SOL    HW229766   1.059   0.159   6.624 -1.6044 -0.0261  0.3831
 6044SOL     OW29767   4.458   3.167  11.994 -0.0524  0.4635 -0.1867
 6044SOL    HW129768   4.393   3.108  11.955 -1.3304  0.8776  1.3474
 6044SOL    HW229769   4.440   3.242  11.936 -1.4673  0.1494 -0.1618
 6045SOL     OW29770   1.692   1.443   9.928  0.3009  0.0527  0.4591
 6045SOL    HW129771   1.697   1.538   9.932  0.2759  0.1197 -0.9974
 6045SOL    HW229772   1.749   1.410   9.998 -0.5511  0.3391  1.2768
 6046SOL     OW29773   2.159   2.460  15.438 -0.6411 -0.2839 -0.2146
 6046SOL    HW129774   2.116   2.433  15.357  1.9519 -0.4821 -1.5064
 6046SOL    HW229775   2.210   2.381  15.458  1.5685  0.8826 -1.2510
 6047SOL     OW29776   0.584   3.744  10.901  0.1769  0.2732  0.6213
 6047SOL    HW129777   0.600   3.714  10.812 -2.5884  0.0073  0.1946
 6047SOL    HW229778   0.490   3.762  10.896  0.3006  0.8897  0.5233
 6048SOL     OW29779   0.159   1.188   1.462  0.2118 -0.5435 -0.5050
 6048SOL    HW129780   0.193   1.261   1.514 -1.1309 -1.5699  1.8187
 6048SOL    HW229781   0.076   1.168   1.505 -0.5464  2.1774 -0.7196
 6049SOL     OW29782   4.398   1.725   8.594 -0.9684  0.0865 -0.2116
 6049SOL    HW129783   4.430   1.727   8.504  0.1066  0.5751  0.1843
 6049SOL    HW229784   4.407   1.630   8.605  3.3718  0.5143  0.0538
 6050SOL     OW29785   1.521   0.117   4.115  0.5261  0.3455  0.0509
 6050SOL    HW129786   1.490   0.186   4.175  0.0269 -0.2270  0.4550
 6050SOL    HW229787   1.594   0.163   4.074  0.3062  2.0991  1.6319
 6051SOL     OW29788   1.753   1.220   5.742  0.0829  0.2335 -0.4468
 6051SOL    HW129789   1.701   1.215   5.662  0.3205 -0.8325 -0.5379
 6051SOL    HW229790   1.812   1.145   5.729  0.2477  0.4334 -0.8588
 6052SOL     OW29791   4.515   0.622   7.442 -0.1646 -0.0322 -0.3006
 6052SOL    HW129792   4.596   0.597   7.399  1.2372  0.7799  1.8779
 6052SOL    HW229793   4.537   0.654   7.530 -0.2743 -2.2528  0.5296
 6053SOL     OW29794   0.074   2.836   5.212 -0.1462  0.2012  0.2886
 6053SOL    HW129795   0.016   2.760   5.212  1.8718 -1.3434 -0.6788
 6053SOL    HW229796   0.038   2.877   5.291  0.5616 -0.0440  0.7433
 6054SOL     OW29797   0.180   1.348   8.479 -0.3130 -0.7078  0.1034
 6054SOL    HW129798   0.194   1.254   8.475  1.5189 -0.3790 -0.8531
 6054SOL    HW229799   0.094   1.334   8.520  0.1698  1.1444  1.7548
 6055SOL     OW29800   3.813   1.685   0.596 -0.2156  0.1893  0.7621
 6055SOL    HW129801   3.724   1.652   0.590  0.0424 -0.5882  1.0777
 6055SOL    HW229802   3.799   1.779   0.586 -0.8357  0.1774  1.4928
 6056SOL     OW29803   1.411   1.408  12.660 -0.0379  0.5461  0.0211
 6056SOL    HW129804   1.475   1.360  12.713  1.2630  3.5016  1.0934
 6056SOL    HW229805   1.328   1.399  12.707  0.5471  0.4674  1.0337
 6057SOL     OW29806   1.444   4.475   6.557 -0.3358  0.3348 -0.2616
 6057SOL    HW129807   1.471   4.530   6.483 -2.4165  1.2006 -0.3762
 6057SOL    HW229808   1.456   4.530   6.635  0.8038 -0.5978  0.2305
 6058SOL     OW29809   2.045   3.442   3.586 -0.1965 -0.3116 -0.0705
 6058SOL    HW129810   2.073   3.508   3.649  0.5465 -0.8060  0.1171
 6058SOL    HW229811   1.986   3.389   3.639  0.7363  1.1937  2.4966
 6059SOL     OW29812   3.900   3.848   0.360  0.1594  0.0637  0.4765
 6059SOL    HW129813   3.904   3.798   0.279  1.6703  1.0655 -0.0649
 6059SOL    HW229814   3.945   3.788   0.419  0.6834  2.2929  2.3234
 6060SOL     OW29815   0.343   1.630  11.139 -0.3216  0.3473  0.0543
 6060SOL    HW129816   0.412   1.614  11.204  1.6227 -1.4527 -2.4202
 6060SOL    HW229817   0.395   1.636  11.059 -0.4711  1.5603  0.0559
 6061SOL     OW29818   0.951   3.012  15.378 -0.1316 -0.1096  0.8418
 6061SOL    HW129819   0.954   3.049  15.467  0.5135  1.2031  0.2796
 6061SOL    HW229820   1.039   3.040  15.350 -0.8256 -0.0383 -1.2646
 6062SOL     OW29821   1.079   3.698   6.992 -0.2142 -0.3618  0.5103
 6062SOL    HW129822   1.078   3.793   7.003 -1.2706 -0.1288 -1.4307
 6062SOL    HW229823   1.171   3.677   7.008 -0.2202 -0.4230  0.4651
 6063SOL     OW29824   2.131   0.285   3.750  0.2107  0.4845 -0.2774
 6063SOL    HW129825   2.063   0.332   3.798 -0.5778  0.6719 -1.5734
 6063SOL    HW229826   2.095   0.291   3.662  1.4369 -1.8045 -0.9324
 6064SOL     OW29827   2.701   2.229  15.063 -0.4661 -0.2843  1.0730
 6064SOL    HW129828   2.753   2.224  14.983 -0.2526  1.0460  1.1212
 6064SOL    HW229829   2.734   2.308  15.107  1.5152 -0.3361 -0.3427
 6065SOL     OW29830   2.566   4.425  17.016 -0.2209 -0.2847  0.1415
 6065SOL    HW129831   2.507   4.457  17.084  0.6622  1.5094  0.0565
 6065SOL    HW229832   2.556   4.505  16.964 -0.8505 -0.3446  0.1731
 6066SOL     OW29833   3.781   3.500  14.801  0.1720 -0.7801  0.6560
 6066SOL    HW129834   3.762   3.593  14.810 -2.4612 -1.3114  0.7988
 6066SOL    HW229835   3.768   3.497  14.706 -0.0619 -1.2718  0.7027
 6067SOL     OW29836   4.081   3.186   3.093  0.2500 -0.0458  0.6533
 6067SOL    HW129837   4.157   3.144   3.053  0.4592 -0.0582  1.0614
 6067SOL    HW229838   4.054   3.117   3.155  0.6943 -1.4912 -0.7601
 6068SOL     OW29839   4.393   4.142   5.886 -0.1836  0.5975 -0.5290
 6068SOL    HW129840   4.417   4.144   5.979  0.4059 -0.1692 -0.6587
 6068SOL    HW229841   4.431   4.058   5.859  1.5612  1.0151  0.5905
 6069SOL     OW29842   1.855   2.268   5.969  0.1232 -0.6149  0.2903
 6069SOL    HW129843   1.760   2.274   5.981  0.0558  0.2449 -0.5977
 6069SOL    HW229844   1.875   2.362   5.962 -0.2322 -0.5949 -0.4603
 6070SOL     OW29845   0.847   3.910   5.685  0.4336  0.2164 -0.3495
 6070SOL    HW129846   0.918   3.973   5.672  0.4062  0.4724  0.7204
 6070SOL    HW229847   0.894   3.830   5.662 -0.8615 -0.0999 -1.9722
 6071SOL     OW29848   3.014   0.819   3.657 -0.0299 -0.4076 -0.1952
 6071SOL    HW129849   2.942   0.836   3.719  1.0046  0.3827  0.7730
 6071SOL    HW229850   3.065   0.896   3.681 -0.0978 -1.2317  2.5941
 6072SOL     OW29851   0.860   4.459  16.114  0.0137  0.1850  0.0663
 6072SOL    HW129852   0.914   4.461  16.193 -1.2788  0.8146  0.9474
 6072SOL    HW229853   0.778   4.429  16.153 -1.1468  1.9676 -0.9870
 6073SOL     OW29854   4.465   3.325  14.187 -0.6637  0.3382  0.8079
 6073SOL    HW129855   4.538   3.298  14.132 -2.0421 -2.3254  0.3000
 6073SOL    HW229856   4.485   3.418  14.198 -1.1023  0.3809  1.2705
 6074SOL     OW29857   1.957   4.298   2.812 -0.2316 -0.2374  0.1498
 6074SOL    HW129858   1.914   4.281   2.895  1.1355 -1.0431  0.7018
 6074SOL    HW229859   2.025   4.354   2.849  0.8985 -1.7977  0.4618
 6075SOL     OW29860   4.489   4.663   0.301  0.0081  0.8060 -0.2630
 6075SOL    HW129861   4.394   4.658   0.293  0.3361 -2.5164 -1.9248
 6075SOL    HW229862   4.508   4.572   0.280 -1.8397  0.4213 -0.2925
 6076SOL     OW29863   1.778   0.427   9.871  0.2589  0.7814 -0.6608
 6076SOL    HW129864   1.845   0.491   9.895  1.1919  0.4660 -2.4342
 6076SOL    HW229865   1.806   0.364   9.936 -3.2861  0.1989  0.3139
 6077SOL     OW29866   4.490   2.411   3.732 -0.1730 -0.0750 -0.6539
 6077SOL    HW129867   4.555   2.416   3.662  0.1248 -1.1094 -0.4464
 6077SOL    HW229868   4.542   2.435   3.809 -1.4136  2.4602 -0.6002
 6078SOL     OW29869   3.259   0.544   4.389  0.5452 -0.1864 -0.2588
 6078SOL    HW129870   3.314   0.480   4.344  0.5577  0.4294 -1.1058
 6078SOL    HW229871   3.208   0.488   4.449 -2.2149  0.7350 -1.7365
 6079SOL     OW29872   4.455   3.084   5.453 -0.4084  0.1189 -0.0784
 6079SOL    HW129873   4.390   3.097   5.384  0.7383  0.5227 -1.0520
 6079SOL    HW229874   4.400   3.088   5.532  2.9253  2.5303  2.1164
 6080SOL     OW29875   0.553   4.087  10.513 -0.1470  0.2700  0.5316
 6080SOL    HW129876   0.538   4.074  10.607 -0.7398 -1.6738  0.1835
 6080SOL    HW229877   0.488   4.154  10.491 -1.6501 -1.9015 -1.6172
 6081SOL     OW29878   2.445   1.886   2.547 -0.1188 -0.1209 -0.3987
 6081SOL    HW129879   2.388   1.834   2.604  1.9961  0.0220  1.8678
 6081SOL    HW229880   2.432   1.972   2.587  0.0872  1.2008 -3.2144
 6082SOL     OW29881   4.509   0.007  10.909 -0.5431  0.0655  0.3371
 6082SOL    HW129882   4.557   4.678  10.956 -1.2071 -0.0672  0.8266
 6082SOL    HW229883   4.516   0.082  10.968  0.7620 -0.1047  0.4081
 6083SOL     OW29884   2.430   0.342   8.211  0.5375  0.4359  0.0425
 6083SOL    HW129885   2.493   0.274   8.189  0.1363 -0.3361  1.2753
 6083SOL    HW229886   2.345   0.296   8.209  0.2116  1.2069 -3.2839
 6084SOL     OW29887   1.437   1.160   2.394 -0.2194  0.1347 -0.0481
 6084SOL    HW129888   1.530   1.160   2.414 -0.4894  1.6124  1.1539
 6084SOL    HW229889   1.400   1.226   2.453  1.6422  0.6655  0.4969
 6085SOL     OW29890   4.551   2.868   2.650 -0.1898  0.1092 -0.5240
 6085SOL    HW129891   4.572   2.780   2.681  3.0552  0.5999 -1.2877
 6085SOL    HW229892   4.626   2.872   2.590 -0.3138 -0.3294 -0.7026
 6086SOL     OW29893   1.925   0.474   4.671 -0.0080  0.0261  0.1551
 6086SOL    HW129894   1.854   0.525   4.634  0.6519 -0.2036 -1.4449
 6086SOL    HW229895   1.888   0.437   4.751  0.7419 -1.1225 -0.0341
 6087SOL     OW29896   3.169   1.697  11.086  0.0769  0.0986  0.1320
 6087SOL    HW129897   3.202   1.758  11.020  2.9146  0.2497  1.6828
 6087SOL    HW229898   3.233   1.707  11.156 -2.1696 -0.0470  2.1857
 6088SOL     OW29899   3.841   1.398  11.759 -0.1472  0.2116 -0.2611
 6088SOL    HW129900   3.761   1.345  11.760 -0.1598  0.2255 -0.5021
 6088SOL    HW229901   3.798   1.482  11.745  1.0550  0.8782  0.0428
 6089SOL     OW29902   3.229   2.654   3.438 -0.1264 -0.1304 -0.4057
 6089SOL    HW129903   3.197   2.743   3.453  3.2391  1.1003 -0.6049
 6089SOL    HW229904   3.243   2.654   3.344 -0.9207 -0.2118 -0.5235
 6090SOL     OW29905   3.298   2.350   9.785  0.5348  0.2658 -0.1254
 6090SOL    HW129906   3.355   2.424   9.808 -0.6031  0.7354  1.2315
 6090SOL    HW229907   3.329   2.325   9.698  0.7156 -1.6412  0.4663
 6091SOL     OW29908   2.568   3.927   7.532  0.1192 -0.1882  0.2286
 6091SOL    HW129909   2.506   3.942   7.603  0.6035 -1.6011  0.9593
 6091SOL    HW229910   2.654   3.916   7.573 -0.3499 -0.9137  1.0273
 6092SOL     OW29911   3.160   0.539   3.028 -0.6014 -0.4666  0.1306
 6092SOL    HW129912   3.101   0.532   3.103 -1.5167  1.8714 -0.3626
 6092SOL    HW229913   3.110   0.510   2.952 -0.7266  1.7790 -0.6420
 6093SOL     OW29914   3.482   0.973   9.137 -0.3760 -1.1276  0.2714
 6093SOL    HW129915   3.549   0.974   9.206  0.2662 -0.8888 -0.3614
 6093SOL    HW229916   3.461   1.067   9.131  0.2709 -1.0442 -0.6238
 6094SOL     OW29917   3.220   0.177   6.490 -0.0799  0.4620  0.4318
 6094SOL    HW129918   3.220   0.140   6.578 -1.2694 -1.4055 -0.3611
 6094SOL    HW229919   3.192   0.101   6.439  2.7655  1.0444 -1.9957
 6095SOL     OW29920   3.893   4.512   1.766  0.7723 -0.1711  0.2558
 6095SOL    HW129921   3.845   4.429   1.766  1.5122 -0.6053 -0.6839
 6095SOL    HW229922   3.891   4.522   1.670 -2.0749 -0.6597  0.2543
 6096SOL     OW29923   3.444   4.278   3.301 -0.0007 -0.0720  0.1188
 6096SOL    HW129924   3.477   4.256   3.388  0.0098  0.6109  0.2905
 6096SOL    HW229925   3.517   4.319   3.254  0.2533 -1.7262 -0.9236
 6097SOL     OW29926   2.359   4.311   1.398  0.5222 -0.1168 -0.8287
 6097SOL    HW129927   2.369   4.218   1.375 -0.5067 -0.5107  0.2956
 6097SOL    HW229928   2.382   4.354   1.316 -2.3748 -0.9298 -2.0579
 6098SOL     OW29929   1.567   3.520   1.846 -0.9396 -0.5122  0.5888
 6098SOL    HW129930   1.634   3.453   1.829 -0.4571 -0.5089  2.4702
 6098SOL    HW229931   1.617   3.581   1.900 -1.5987  0.4482  0.0930
 6099SOL     OW29932   3.307   2.280   5.684  0.6477 -0.0390 -0.2851
 6099SOL    HW129933   3.264   2.236   5.757  1.4426 -2.2526 -1.1684
 6099SOL    HW229934   3.395   2.243   5.697  1.3578  1.3424 -1.1259
 6100SOL     OW29935   0.524   4.001   6.500 -0.2958  0.4753  0.7344
 6100SOL    HW129936   0.449   4.050   6.534 -0.9819  0.8850 -1.4143
 6100SOL    HW229937   0.585   3.992   6.573  0.2396  1.7395  0.4351
 6101SOL     OW29938   1.210   3.312   1.675 -0.1586  0.0111  0.4490
 6101SOL    HW129939   1.266   3.252   1.624  1.4539  0.9019  1.1672
 6101SOL    HW229940   1.239   3.294   1.765 -0.3698 -0.1747  0.4793
 6102SOL     OW29941   1.014   2.109   3.562 -0.3229 -0.4202  0.1001
 6102SOL    HW129942   1.081   2.174   3.538 -1.4911  0.9501  0.5003
 6102SOL    HW229943   1.036   2.035   3.506 -0.5704 -1.1421  0.9667
 6103SOL     OW29944   4.301   3.031   3.020 -0.3367  0.5267  0.1293
 6103SOL    HW129945   4.304   2.940   3.048 -0.3815  1.5006  3.2565
 6103SOL    HW229946   4.350   3.014   2.939 -0.9288 -1.3612  0.1711
 6104SOL     OW29947   2.494   0.269   1.112  0.0207 -0.2065  0.0859
 6104SOL    HW129948   2.507   0.309   1.198 -0.1017 -1.0230  0.4915
 6104SOL    HW229949   2.582   0.285   1.079 -0.4988 -0.5734 -1.4540
 6105SOL     OW29950   1.441   1.578   9.152  0.5065  0.4296 -0.0111
 6105SOL    HW129951   1.505   1.628   9.204 -1.1243  0.5957  1.8203
 6105SOL    HW229952   1.400   1.652   9.106 -1.3910 -0.8836 -0.4135
 6106SOL     OW29953   3.815   2.963   3.071 -0.2915 -0.8846  0.7092
 6106SOL    HW129954   3.890   2.969   3.131 -0.0596 -0.5306  0.3842
 6106SOL    HW229955   3.792   3.056   3.065  2.8961  0.1178  3.8289
 6107SOL     OW29956   2.392   0.978   3.245  0.5946 -0.5100  0.0237
 6107SOL    HW129957   2.409   0.884   3.250  0.1280 -0.5512  0.7373
 6107SOL    HW229958   2.442   0.994   3.164 -1.7286  0.2923 -1.2587
 6108SOL     OW29959   3.591   4.110   7.050  0.3854 -0.2915  0.2526
 6108SOL    HW129960   3.504   4.115   7.011 -0.9970  1.3877  3.4711
 6108SOL    HW229961   3.583   4.057   7.129  0.2994  0.5735  0.8217
 6109SOL     OW29962   1.821   4.420  12.752  0.4607  0.1158 -0.0310
 6109SOL    HW129963   1.832   4.412  12.847 -2.1917 -1.7201  0.1261
 6109SOL    HW229964   1.729   4.448  12.749  0.6354  0.6486 -0.4523
 6110SOL     OW29965   3.697   2.897   2.668  0.2122  0.4636  0.0234
 6110SOL    HW129966   3.643   2.820   2.687  2.5808 -0.9418  0.9332
 6110SOL    HW229967   3.712   2.876   2.576  0.3454  1.4784 -0.1798
 6111SOL     OW29968   2.230   3.166   4.205 -0.7158 -1.5988 -0.0866
 6111SOL    HW129969   2.165   3.181   4.136 -0.2173 -1.8663 -0.6207
 6111SOL    HW229970   2.222   3.247   4.254  4.9861 -0.3936 -1.1862
 6112SOL     OW29971   3.043   3.567   3.567  0.1516 -0.1738  0.1530
 6112SOL    HW129972   3.068   3.507   3.637 -0.0267 -1.2246 -0.6877
 6112SOL    HW229973   3.119   3.556   3.510  0.7224 -0.3394  0.9529
 6113SOL     OW29974   3.695   1.317   1.896 -0.2993  0.8520  0.4654
 6113SOL    HW129975   3.724   1.344   1.808 -1.3243  0.3650 -0.0135
 6113SOL    HW229976   3.601   1.303   1.883 -0.7102  1.6718  2.5170
 6114SOL     OW29977   1.006   3.354   6.075 -0.0706 -0.0343 -0.3047
 6114SOL    HW129978   0.993   3.307   5.993  0.8281  0.0841 -0.5193
 6114SOL    HW229979   0.922   3.336   6.117  0.1194  2.9977  1.3402
 6115SOL     OW29980   3.932   2.000   1.160  0.2621 -0.1834  0.0900
 6115SOL    HW129981   3.884   2.028   1.082 -0.8305  0.4573  1.0008
 6115SOL    HW229982   3.857   2.004   1.219 -0.3633  3.2891 -0.9597
 6116SOL     OW29983   2.689   3.088   1.816  0.4796 -0.1026 -0.2646
 6116SOL    HW129984   2.663   3.101   1.908  1.8955  1.0376 -0.0288
 6116SOL    HW229985   2.629   3.153   1.779 -0.2756  0.0462  1.2177
 6117SOL     OW29986   2.276   3.193   3.236 -0.1841 -0.6226 -0.1328
 6117SOL    HW129987   2.257   3.193   3.330  0.2375 -2.2357 -0.0468
 6117SOL    HW229988   2.250   3.282   3.214  2.2120 -0.4969 -2.3744
 6118SOL     OW29989   4.626   0.725  16.553  0.1474 -0.2026  0.0862
 6118SOL    HW129990   4.593   0.776  16.627 -0.6033  0.5159 -0.7459
 6118SOL    HW229991   4.679   0.786  16.501  1.4085  0.1590  1.8076
 6119SOL     OW29992   3.056   0.368   3.560 -0.0700 -0.8931 -0.2209
 6119SOL    HW129993   2.978   0.317   3.538  0.0457 -0.1514 -2.3448
 6119SOL    HW229994   3.119   0.299   3.579 -0.1004 -1.6238 -2.7060
 6120SOL     OW29995   0.865   0.417   8.032  0.6443  0.1177  0.2722
 6120SOL    HW129996   0.785   0.395   7.984  0.7509 -0.7011  0.4822
 6120SOL    HW229997   0.842   0.501   8.072  0.2590  0.2189 -0.1602
 6121SOL     OW29998   2.966   4.624   1.275  0.2742 -0.4207  0.2660
 6121SOL    HW129999   3.038   4.603   1.334  0.7871  1.2135  0.2314
 6121SOL    HW230000   3.010   4.645   1.192  1.0163  0.7091  0.9426
 6122SOL     OW30001   1.729   3.951   3.100 -0.3363  0.4796  0.1216
 6122SOL    HW130002   1.666   4.010   3.060 -0.5959  0.1861  0.0988
 6122SOL    HW230003   1.673   3.909   3.165 -0.1279 -0.8577 -0.5576
 6123SOL     OW30004   3.543   3.476   5.379 -0.1371 -0.5271 -1.2109
 6123SOL    HW130005   3.609   3.438   5.437  0.2701  0.7682 -0.8309
 6123SOL    HW230006   3.528   3.393   5.332 -0.2644 -2.3013  1.9744
 6124SOL     OW30007   2.814   4.321  11.269  0.3595  0.0095 -0.3329
 6124SOL    HW130008   2.788   4.233  11.244 -0.1290 -0.0069  0.2476
 6124SOL    HW230009   2.825   4.361  11.183 -2.9889  0.5739 -0.4808
 6125SOL     OW30010   1.732   2.766   2.139 -0.4991  0.3524 -0.0818
 6125SOL    HW130011   1.678   2.688   2.151  2.5399 -1.6893  0.2625
 6125SOL    HW230012   1.754   2.737   2.050 -1.0882 -1.5309  0.4055
 6126SOL     OW30013   1.123   2.163   0.374  0.1809 -0.0476 -0.1418
 6126SOL    HW130014   1.033   2.153   0.404  0.6490  0.1658  1.3218
 6126SOL    HW230015   1.142   2.256   0.386 -0.9680  0.2822 -0.8751
 6127SOL     OW30016   0.032   1.725   8.491  0.5585 -0.1668 -0.5739
 6127SOL    HW130017   0.080   1.740   8.409  0.4862 -1.0057 -0.7703
 6127SOL    HW230018   0.074   1.792   8.544 -0.8121 -0.3544  0.7432
 6128SOL     OW30019   0.292   1.184   3.810 -0.2725  0.5138  0.4856
 6128SOL    HW130020   0.203   1.215   3.829 -0.4092 -0.8154  2.0860
 6128SOL    HW230021   0.340   1.253   3.854 -1.4487  1.3151  0.5222
 6129SOL     OW30022   3.619   1.309   3.953  0.1854 -0.3805 -0.0349
 6129SOL    HW130023   3.605   1.293   4.046  0.8364  0.3547  0.1883
 6129SOL    HW230024   3.529   1.317   3.920 -0.1553  0.0140  0.9972
 6130SOL     OW30025   1.884   1.624  17.550  0.5615 -0.3783 -0.0060
 6130SOL    HW130026   1.913   1.573  17.625  1.6769 -2.6142 -1.9640
 6130SOL    HW230027   1.790   1.606  17.559  0.2426  0.1886 -2.2904
 6131SOL     OW30028   3.104   1.138   3.997 -0.4199  0.0870 -0.6168
 6131SOL    HW130029   3.145   1.218   4.030 -0.8217  0.0097  0.0668
 6131SOL    HW230030   3.129   1.071   4.061 -0.0961  0.6267 -0.1730
 6132SOL     OW30031   3.096   1.435  11.333  0.1024 -0.1788 -0.1165
 6132SOL    HW130032   3.026   1.373  11.355  1.4388 -1.3537  0.8330
 6132SOL    HW230033   3.155   1.422  11.407  0.1293 -0.0123 -0.1081
 6133SOL     OW30034   3.076   3.921  10.805 -0.1085 -0.1750 -0.6953
 6133SOL    HW130035   3.126   3.990  10.849 -0.5817  1.3350 -2.5628
 6133SOL    HW230036   3.147   3.883  10.752 -0.2449  0.6127 -1.4388
 6134SOL     OW30037   0.860   1.787  11.808 -0.4920  0.0894  0.2019
 6134SOL    HW130038   0.907   1.829  11.880  0.2812  0.7066 -0.6725
 6134SOL    HW230039   0.910   1.706  11.800  1.2526  1.2286 -0.5023
 6135SOL     OW30040   1.865   4.313   8.820 -0.3236 -0.8203 -0.0292
 6135SOL    HW130041   1.835   4.291   8.732 -0.9979  1.6327 -0.4102
 6135SOL    HW230042   1.831   4.234   8.863  1.1574 -1.4404  0.0228
 6136SOL     OW30043   4.026   4.626   7.979 -0.3058  0.2016  0.0235
 6136SOL    HW130044   4.102   4.642   7.923  1.1000  1.3587  2.2709
 6136SOL    HW230045   4.068   4.658   8.059  0.9470 -1.7113  0.1356
 6137SOL     OW30046   0.715   3.389   6.816 -0.0458 -0.0976  0.6176
 6137SOL    HW130047   0.758   3.400   6.901 -1.6706  0.2842  1.3909
 6137SOL    HW230048   0.783   3.347   6.764 -0.2753  0.1128  0.1386
 6138SOL     OW30049   4.051   2.288   3.410 -0.6321  0.1059  0.2776
 6138SOL    HW130050   4.123   2.249   3.459  0.2633  0.4543 -0.7631
 6138SOL    HW230051   4.082   2.271   3.321  1.4880 -0.4873  1.1230
 6139SOL     OW30052   2.372   3.373   8.970  0.5093  0.8426  0.3535
 6139SOL    HW130053   2.380   3.468   8.962  3.3348  0.7514  1.9171
 6139SOL    HW230054   2.430   3.359   9.045  0.5700 -1.2485 -0.0813
 6140SOL     OW30055   2.572   0.857   2.911 -0.0494  0.8130 -0.1957
 6140SOL    HW130056   2.562   0.936   2.965  1.9837  2.3578 -2.0554
 6140SOL    HW230057   2.558   0.793   2.981  0.4052  0.6622 -0.2427
 6141SOL     OW30058   0.032   2.145   2.538  0.0359 -0.6626  0.0564
 6141SOL    HW130059   0.037   2.062   2.587 -1.1403 -0.0456  1.2099
 6141SOL    HW230060   0.061   2.117   2.451 -0.0874 -0.0907 -0.1679
 6142SOL     OW30061   0.061   0.329   1.181  0.4381  0.5239  0.6216
 6142SOL    HW130062   0.081   0.328   1.275 -2.8425  0.5987  1.3240
 6142SOL    HW230063   0.148   0.308   1.148  0.3253  2.9441 -1.1393
 6143SOL     OW30064   2.025   0.423   7.568  0.5078  0.2558  0.5229
 6143SOL    HW130065   2.033   0.368   7.646  0.7869 -0.7542 -0.2151
 6143SOL    HW230066   1.978   0.495   7.608  0.9512 -0.0829  1.6347
 6144SOL     OW30067   3.967   2.936  12.403 -0.1650 -0.1458 -0.2148
 6144SOL    HW130068   4.063   2.936  12.409 -0.4090 -1.5755  3.6788
 6144SOL    HW230069   3.939   2.930  12.494 -1.7917  0.2174 -0.7041
 6145SOL     OW30070   3.430   1.342   4.166  0.2945 -0.1567 -0.0966
 6145SOL    HW130071   3.363   1.367   4.102  0.4175 -0.4785 -0.3477
 6145SOL    HW230072   3.385   1.369   4.246 -3.8253 -0.1311 -2.4335
 6146SOL     OW30073   3.304   0.123   5.366  0.4051 -0.1157 -0.4073
 6146SOL    HW130074   3.260   0.181   5.428 -0.7315  0.7155 -1.9931
 6146SOL    HW230075   3.296   0.046   5.423 -1.0555  1.4277  1.4894
 6147SOL     OW30076   2.832   1.902   8.328 -0.0157 -0.0043 -0.2037
 6147SOL    HW130077   2.881   1.934   8.403  0.8757 -0.9757 -0.3730
 6147SOL    HW230078   2.751   1.951   8.344  1.2612  1.6528  1.0528
 6148SOL     OW30079   0.106   1.321   4.562 -0.8476  0.5443  0.1267
 6148SOL    HW130080   0.079   1.346   4.650  0.1866 -0.3172  0.6804
 6148SOL    HW230081   0.070   1.398   4.517 -1.3271 -0.5071 -1.2789
 6149SOL     OW30082   1.623   3.736   0.103  0.5917  0.8315  0.8321
 6149SOL    HW130083   1.582   3.669   0.158 -0.7834 -0.2492 -1.5173
 6149SOL    HW230084   1.552   3.754   0.042  0.8491 -1.2221 -0.0799
 6150SOL     OW30085   2.534   3.643   9.704 -0.1521 -0.3785 -0.1359
 6150SOL    HW130086   2.472   3.597   9.760  0.4591  0.8163  1.5120
 6150SOL    HW230087   2.503   3.620   9.616 -1.5486  1.6191 -0.1725
 6151SOL     OW30088   2.213   2.941   2.963  0.6284  0.1934  0.1142
 6151SOL    HW130089   2.272   3.005   3.003  0.2785 -2.1545  4.4119
 6151SOL    HW230090   2.269   2.863   2.958 -0.1745 -0.3813  0.1319
 6152SOL     OW30091   2.249   2.929   4.320  0.5646 -0.3280  0.3332
 6152SOL    HW130092   2.265   3.009   4.270 -0.8614 -1.9010 -2.6046
 6152SOL    HW230093   2.236   2.972   4.404  0.2428  0.2626 -0.0213
 6153SOL     OW30094   1.213   1.518  17.719  0.5503 -0.5782 -0.2530
 6153SOL    HW130095   1.240   1.429  17.694  1.1213 -0.8556  1.3666
 6153SOL    HW230096   1.229   1.561  17.635  2.3212  0.6985  0.7476
 6154SOL     OW30097   0.927   2.492   2.664  0.1509 -0.0555 -0.4357
 6154SOL    HW130098   1.022   2.491   2.674  0.1834  1.9192 -0.6480
 6154SOL    HW230099   0.907   2.560   2.729 -1.0598  0.3022 -1.1693
 6155SOL     OW30100   3.041   2.741   9.088 -0.0290  0.0758 -0.6719
 6155SOL    HW130101   3.092   2.704   9.161  0.4605 -1.5600 -1.8247
 6155SOL    HW230102   2.987   2.808   9.129  0.4337  0.7188 -1.1193
 6156SOL     OW30103   3.397   3.869  12.980  0.1978 -0.3142  0.1210
 6156SOL    HW130104   3.442   3.810  13.040  0.3478  1.7086  2.0124
 6156SOL    HW230105   3.306   3.844  13.000  0.1890 -2.5170 -2.6693
 6157SOL     OW30106   3.462   1.635   4.870 -0.3438 -0.3947 -0.1649
 6157SOL    HW130107   3.507   1.719   4.862 -0.0645 -0.5883 -0.6444
 6157SOL    HW230108   3.370   1.661   4.864  0.3259  2.4697  2.1719
 6158SOL     OW30109   1.968   1.075   7.630  0.3718 -1.0929 -0.2038
 6158SOL    HW130110   1.924   0.992   7.645  0.1728 -0.5754  2.0365
 6158SOL    HW230111   2.051   1.058   7.674  1.4006 -0.0453 -1.7193
 6159SOL     OW30112   2.122   2.498   7.721  0.0156  0.4245 -0.2849
 6159SOL    HW130113   2.052   2.552   7.683 -0.9799 -0.5840  0.1009
 6159SOL    HW230114   2.095   2.408   7.703 -0.8353  0.9557 -1.6100
 6160SOL     OW30115   1.266   0.552   1.344  0.5403  0.2020 -0.4338
 6160SOL    HW130116   1.181   0.509   1.338  0.5391  0.1766 -0.2348
 6160SOL    HW230117   1.229   0.640   1.343 -0.6333 -0.3019 -1.5127
 6161SOL     OW30118   4.309   2.483   0.468  0.1867  0.4064 -0.3607
 6161SOL    HW130119   4.228   2.431   0.467 -0.2146  1.0654 -2.3703
 6161SOL    HW230120   4.274   2.568   0.440  1.1545  1.2848  1.1167
 6162SOL     OW30121   0.388   2.074   0.960  0.0206 -0.1065 -1.0599
 6162SOL    HW130122   0.448   2.105   1.027 -0.4060  1.1294 -1.2615
 6162SOL    HW230123   0.416   2.126   0.884  2.4941  3.9233  2.6726
 6163SOL     OW30124   4.497   3.805   2.429  0.3900  0.0365  0.3781
 6163SOL    HW130125   4.452   3.880   2.468 -1.7026 -0.5346 -0.9446
 6163SOL    HW230126   4.445   3.802   2.349  1.4371  1.8721 -0.3828
 6164SOL     OW30127   4.094   0.041  16.809 -0.1190 -0.3577 -0.0663
 6164SOL    HW130128   4.004   0.074  16.814 -0.2752 -0.5920 -1.3416
 6164SOL    HW230129   4.094   4.709  16.874 -0.2306 -0.1270  0.1822
 6165SOL     OW30130   4.429   0.505   4.807 -0.3339  0.7470  0.3371
 6165SOL    HW130131   4.455   0.532   4.895 -2.2314 -1.1077  1.4614
 6165SOL    HW230132   4.445   0.578   4.747  1.6640 -0.2628 -0.3427
 6166SOL     OW30133   3.633   4.136   8.763 -0.4147 -0.9693  0.0846
 6166SOL    HW130134   3.541   4.156   8.782  0.8117  2.1343  2.6734
 6166SOL    HW230135   3.641   4.131   8.667 -1.1253 -1.4908  0.0484
 6167SOL     OW30136   4.433   1.625  14.646  0.2379  0.3777  0.3018
 6167SOL    HW130137   4.348   1.662  14.621  0.6187  0.9282 -0.1488
 6167SOL    HW230138   4.452   1.680  14.722 -0.0739  0.9013  0.0013
 6168SOL     OW30139   2.497   1.504   2.682 -0.4552 -0.0471  0.3298
 6168SOL    HW130140   2.433   1.438   2.711 -0.8069  0.6345  1.1007
 6168SOL    HW230141   2.499   1.489   2.588 -2.3168  2.7208 -0.1205
 6169SOL     OW30142   2.762   0.619   2.821 -0.4672  0.3220 -0.3183
 6169SOL    HW130143   2.856   0.600   2.819 -0.4912  0.4123 -2.1244
 6169SOL    HW230144   2.751   0.700   2.871  0.3955  0.6951 -0.7271
 6170SOL     OW30145   3.250   4.298   5.503 -0.0114 -0.6291 -0.3683
 6170SOL    HW130146   3.280   4.297   5.593 -2.1325 -0.3560  0.3316
 6170SOL    HW230147   3.289   4.375   5.461  0.7524 -0.1702  1.1863
 6171SOL     OW30148   0.021   1.330   7.238 -0.1611 -0.6197  0.3118
 6171SOL    HW130149   4.687   1.272   7.214 -2.2567  1.9232  0.4645
 6171SOL    HW230150   4.713   1.411   7.260 -0.6463 -0.3658 -1.6149
 6172SOL     OW30151   1.543   3.595   7.237 -0.2955  0.5336  0.0119
 6172SOL    HW130152   1.629   3.638   7.239  0.4602 -1.0364  1.1021
 6172SOL    HW230153   1.505   3.631   7.317  0.4062  2.8654 -0.7127
 6173SOL     OW30154   3.775   0.278   4.425  0.4823 -0.7124 -0.4115
 6173SOL    HW130155   3.861   0.262   4.464 -0.2536 -0.7427  1.2120
 6173SOL    HW230156   3.725   0.205   4.462 -0.3675 -0.3077 -0.7532
 6174SOL     OW30157   2.167   3.473   4.946  0.0627 -0.6060  0.5145
 6174SOL    HW130158   2.229   3.403   4.926 -0.1164 -0.6041 -0.0616
 6174SOL    HW230159   2.150   3.461   5.039  0.0364 -0.3366  0.5423
 6175SOL     OW30160   3.581   1.928   4.477 -0.1083  0.3199  0.2771
 6175SOL    HW130161   3.671   1.940   4.448  0.3634 -1.5462  0.9790
 6175SOL    HW230162   3.558   1.843   4.438  1.1619 -0.2756  0.8467
 6176SOL     OW30163   4.100   0.520   6.633 -0.1398 -0.4781 -0.5882
 6176SOL    HW130164   4.163   0.574   6.584  2.0771 -3.0059 -0.4904
 6176SOL    HW230165   4.152   0.443   6.655 -0.0708 -0.2038  0.2098
 6177SOL     OW30166   0.732   4.178  14.301 -0.2200  0.2243  0.1894
 6177SOL    HW130167   0.822   4.177  14.270  0.7886  0.0541  3.1776
 6177SOL    HW230168   0.727   4.098  14.354  3.5951 -1.6944 -2.3629
 6178SOL     OW30169   0.179   3.026  14.748  0.3561  0.4714 -0.7217
 6178SOL    HW130170   0.250   2.963  14.754  0.4210  0.6063 -0.1542
 6178SOL    HW230171   0.208   3.106  14.791 -1.4040  0.7011  0.0433
 6179SOL     OW30172   1.173   2.340   3.616  0.2272 -0.0757  0.4589
 6179SOL    HW130173   1.212   2.415   3.572 -1.8283  0.3248 -0.6843
 6179SOL    HW230174   1.238   2.316   3.681 -1.3901 -1.2080  1.6541
 6180SOL     OW30175   2.862   2.686   7.065  0.3486 -0.4125  0.3359
 6180SOL    HW130176   2.810   2.606   7.069 -1.0401  0.5568  2.0040
 6180SOL    HW230177   2.814   2.730   6.995 -0.0689  1.0926  1.5675
 6181SOL     OW30178   2.590   4.100   2.511 -0.6134 -0.1911  0.5660
 6181SOL    HW130179   2.597   4.004   2.513  0.2392 -0.1542 -0.3225
 6181SOL    HW230180   2.673   4.107   2.465 -0.6902 -0.3047  0.4079
 6182SOL     OW30181   3.394   3.257   3.238 -0.0765  0.5602 -0.3296
 6182SOL    HW130182   3.459   3.268   3.307  0.1084 -0.3265 -0.3638
 6182SOL    HW230183   3.358   3.175   3.273 -0.9984  1.7724  1.5179
 6183SOL     OW30184   2.661   0.907  10.638  0.2428  0.2403  0.1352
 6183SOL    HW130185   2.738   0.865  10.677  0.2711 -0.3770 -0.5721
 6183SOL    HW230186   2.663   0.868  10.550 -0.0953  0.1573  0.1652
 6184SOL     OW30187   4.363   1.271   1.099 -0.1788 -0.3413 -0.4930
 6184SOL    HW130188   4.354   1.348   1.155  1.1607 -0.4287 -0.1679
 6184SOL    HW230189   4.415   1.204   1.142 -3.1420 -0.8908  2.2653
 6185SOL     OW30190   4.388   2.262   0.329 -0.8484  0.2544 -0.1517
 6185SOL    HW130191   4.475   2.255   0.291 -0.2783  2.3525  0.8059
 6185SOL    HW230192   4.387   2.347   0.372  1.0280  1.2324 -2.0820
 6186SOL     OW30193   0.305   4.209   6.214 -0.2128 -0.4073  0.0384
 6186SOL    HW130194   0.387   4.245   6.246 -0.7492  2.6590 -2.0935
 6186SOL    HW230195   0.337   4.145   6.150 -0.2453  1.4297 -1.7774
 6187SOL     OW30196   4.326   0.932  10.711  0.4721 -0.1265 -0.6702
 6187SOL    HW130197   4.258   0.936  10.779 -0.8120 -1.4324 -1.8742
 6187SOL    HW230198   4.403   0.909  10.765 -0.0130 -1.1007 -0.3830
 6188SOL     OW30199   4.435   3.239   8.780  0.8066 -0.1300 -0.5776
 6188SOL    HW130200   4.526   3.264   8.792  0.4461  0.4030  1.0874
 6188SOL    HW230201   4.406   3.214   8.868  1.4160 -1.3212 -0.7240
 6189SOL     OW30202   3.670   2.990   5.719  0.3558  0.5058 -0.2383
 6189SOL    HW130203   3.744   2.955   5.769 -2.6615  0.1588  3.9440
 6189SOL    HW230204   3.594   2.938   5.743  1.2417 -0.8521 -0.3946
 6190SOL     OW30205   1.723   2.169  15.618 -0.4945 -0.0752  0.3582
 6190SOL    HW130206   1.774   2.249  15.632  0.6402 -0.9218  1.0653
 6190SOL    HW230207   1.780   2.123  15.556 -0.2711  0.9962 -0.2512
 6191SOL     OW30208   2.040   3.440   2.007  0.3965 -0.2072 -0.1201
 6191SOL    HW130209   2.030   3.508   2.074 -0.8122  0.0655 -0.5880
 6191SOL    HW230210   2.008   3.355   2.039  0.3347 -0.4206 -0.7562
 6192SOL     OW30211   2.633   0.333  13.051 -0.5105 -0.9560  0.0773
 6192SOL    HW130212   2.664   0.272  12.985  0.0883  0.1291 -0.6427
 6192SOL    HW230213   2.557   0.290  13.089  0.1867 -1.3019  1.0909
 6193SOL     OW30214   2.621   1.457  13.917 -0.0152 -0.0965 -0.3666
 6193SOL    HW130215   2.663   1.371  13.924 -1.3513 -0.8446 -1.5939
 6193SOL    HW230216   2.556   1.432  13.852  0.6478  2.7697 -2.1402
 6194SOL     OW30217   3.625   2.207  11.162 -0.6179  0.6403 -0.2756
 6194SOL    HW130218   3.591   2.294  11.142  1.2623  0.8859 -2.5057
 6194SOL    HW230219   3.698   2.233  11.218  0.5109 -3.4715  0.1572
 6195SOL     OW30220   4.559   1.623   0.074 -0.0691 -0.0698 -0.0170
 6195SOL    HW130221   4.494   1.584   0.015  0.6891 -0.5360 -0.5452
 6195SOL    HW230222   4.624   1.552   0.072  0.3567  0.3175  0.0919
 6196SOL     OW30223   4.068   3.654   8.855  0.0366  0.0439  0.1530
 6196SOL    HW130224   4.126   3.594   8.808 -1.5290 -0.3915 -1.2337
 6196SOL    HW230225   4.008   3.593   8.899 -1.1279  1.9484  1.2344
 6197SOL     OW30226   1.497   0.730  16.522 -0.0456 -0.4583 -0.0203
 6197SOL    HW130227   1.482   0.725  16.428 -3.4596  1.4362  0.4254
 6197SOL    HW230228   1.425   0.788  16.547 -0.3959 -0.8478 -0.1479
 6198SOL     OW30229   3.720   1.195   0.399 -0.1272  0.0744 -0.0234
 6198SOL    HW130230   3.803   1.241   0.387  1.1723 -1.8181  1.7578
 6198SOL    HW230231   3.742   1.102   0.397  0.0256  0.1107  0.0217
 6199SOL     OW30232   0.253   2.640  11.905  0.1893 -0.6356  0.7963
 6199SOL    HW130233   0.301   2.717  11.874 -0.3833 -0.5720  0.0621
 6199SOL    HW230234   0.290   2.618  11.990  0.9468  0.6131  0.7952
 6200SOL     OW30235   4.530   0.619   4.581  0.8534  0.1730 -0.1021
 6200SOL    HW130236   4.624   0.616   4.563  0.7678  0.7602 -0.6358
 6200SOL    HW230237   4.498   0.688   4.524 -0.0932 -0.2378 -0.0679
 6201SOL     OW30238   4.145   1.704   7.376  0.5489  0.5560  0.7313
 6201SOL    HW130239   4.146   1.708   7.280  1.3058 -2.4284  0.6064
 6201SOL    HW230240   4.087   1.631   7.396  0.2655  0.5336 -0.1504
 6202SOL     OW30241   0.111   3.817   3.874 -0.1193  0.3127  0.3017
 6202SOL    HW130242   0.069   3.821   3.788  0.0546  2.2438  0.3037
 6202SOL    HW230243   0.037   3.847   3.927  0.7791  0.3153  1.5690
 6203SOL     OW30244   3.558   2.620   7.257  0.0790  0.6406 -0.0449
 6203SOL    HW130245   3.549   2.601   7.164 -1.3211 -3.6863  0.9953
 6203SOL    HW230246   3.627   2.561   7.287  0.6230  1.0379 -0.5241
 6204SOL     OW30247   2.936   4.669   8.350 -0.3592  0.3173  0.0065
 6204SOL    HW130248   2.985   4.718   8.416  0.8774 -1.4115  0.3562
 6204SOL    HW230249   2.857   4.636   8.394  2.1878 -1.4707  3.2374
 6205SOL     OW30250   1.175   4.097   8.958  0.2600 -0.1263 -0.1245
 6205SOL    HW130251   1.162   4.183   8.917  0.8872  0.3777  0.7349
 6205SOL    HW230252   1.143   4.035   8.892 -0.4055  0.0510  0.0373
 6206SOL     OW30253   0.573   4.152   5.061  0.6747  0.4494  0.0934
 6206SOL    HW130254   0.609   4.063   5.071  0.1000  0.0514 -1.3922
 6206SOL    HW230255   0.480   4.130   5.071  1.2161 -1.3668  1.2688
 6207SOL     OW30256   2.640   1.499   6.901 -0.0523 -0.3426  0.1713
 6207SOL    HW130257   2.705   1.558   6.941 -0.1172  1.3733 -2.2646
 6207SOL    HW230258   2.648   1.436   6.973 -0.5983 -2.4026 -1.6132
 6208SOL     OW30259   1.513   3.424   2.118  0.1631 -0.0267 -0.3235
 6208SOL    HW130260   1.488   3.465   2.035 -0.1247  0.9685  0.2653
 6208SOL    HW230261   1.439   3.440   2.177 -0.9888 -1.6526 -1.2990
 6209SOL     OW30262   1.159   1.138  10.624  0.1847 -0.1028  0.0577
 6209SOL    HW130263   1.145   1.099  10.710  0.6651  1.2034  0.7375
 6209SOL    HW230264   1.128   1.067  10.567 -0.7154  0.3648 -0.0383
 6210SOL     OW30265   3.522   1.558   7.577 -0.0973  0.3670 -0.0339
 6210SOL    HW130266   3.580   1.586   7.648  0.8646 -1.5050 -0.0969
 6210SOL    HW230267   3.588   1.523   7.517  2.0859  2.1354  1.3426
 6211SOL     OW30268   2.122   2.993  15.936 -0.6311  0.6224 -0.0266
 6211SOL    HW130269   2.113   2.910  15.983 -1.2417  0.0456 -1.1770
 6211SOL    HW230270   2.052   2.979  15.873 -0.9803  0.5077  0.3845
 6212SOL     OW30271   1.560   2.791   7.461  0.5329 -0.0359  0.0955
 6212SOL    HW130272   1.547   2.778   7.367  1.7618 -0.4264 -0.0236
 6212SOL    HW230273   1.580   2.704   7.496  2.8494  0.0596 -0.9956
 6213SOL     OW30274   2.753   1.011   8.673  0.2947  0.1824 -0.2915
 6213SOL    HW130275   2.666   0.973   8.665  0.3169  0.3098 -1.2124
 6213SOL    HW230276   2.783   0.967   8.752 -0.2610 -0.9662 -0.7226
 6214SOL     OW30277   1.529   0.225   6.203 -0.5027  0.5558 -0.2618
 6214SOL    HW130278   1.490   0.141   6.227  2.6826 -0.7750  0.3688
 6214SOL    HW230279   1.463   0.266   6.148  0.0754  3.1675  0.9700
 6215SOL     OW30280   3.323   1.389   2.456  0.1547 -0.6332  0.1608
 6215SOL    HW130281   3.280   1.466   2.421 -1.4184 -0.9635  1.3737
 6215SOL    HW230282   3.286   1.319   2.402 -0.2950  0.4867 -0.9801
 6216SOL     OW30283   2.813   0.237   5.210  0.3825  0.2884  0.6517
 6216SOL    HW130284   2.745   0.262   5.147  1.3864  1.1803 -0.0680
 6216SOL    HW230285   2.843   0.158   5.164  0.2026 -0.1723  1.3308
 6217SOL     OW30286   4.034   0.791   2.167 -0.6129 -0.5303  0.1956
 6217SOL    HW130287   4.081   0.857   2.115 -0.4989 -0.1592  0.7664
 6217SOL    HW230288   4.001   0.722   2.109 -0.7420  1.3688 -1.9948
 6218SOL     OW30289   3.988   2.512   9.308 -0.1534 -0.2442 -0.2210
 6218SOL    HW130290   4.083   2.501   9.318 -0.3189 -1.3300  0.2300
 6218SOL    HW230291   3.970   2.606   9.310 -0.3995 -0.2807 -0.6601
 6219SOL     OW30292   3.232   3.458  13.109  0.0887 -0.2390 -0.0098
 6219SOL    HW130293   3.327   3.447  13.110 -0.2835 -3.5363  0.6116
 6219SOL    HW230294   3.200   3.384  13.058  0.7471  0.5520 -1.5815
 6220SOL     OW30295   0.255   4.178   4.749  0.0949 -0.7167  0.2365
 6220SOL    HW130296   0.294   4.161   4.835 -2.0517  1.4444  1.6345
 6220SOL    HW230297   0.176   4.217   4.785 -0.8799 -0.4551 -2.2448
 6221SOL     OW30298   1.694   4.388   2.180  0.0107 -0.5645  0.2318
 6221SOL    HW130299   1.620   4.441   2.152  0.2940 -0.4497 -0.2893
 6221SOL    HW230300   1.701   4.425   2.268 -0.0726 -1.6375  0.7040
 6222SOL     OW30301   2.015   3.231   4.016 -0.0807 -0.3381  0.6356
 6222SOL    HW130302   1.983   3.321   4.010  0.2047 -0.1670  1.6502
 6222SOL    HW230303   1.933   3.183   4.013 -0.3451  0.1981 -0.6123
 6223SOL     OW30304   2.664   2.890   7.349 -0.5409 -0.4695 -0.6118
 6223SOL    HW130305   2.576   2.925   7.361 -0.7835 -1.2587 -0.1060
 6223SOL    HW230306   2.649   2.795   7.355  0.5949 -0.5197  1.5807
 6224SOL     OW30307   3.722   4.312   9.239 -0.6260 -0.2914 -0.5814
 6224SOL    HW130308   3.669   4.335   9.315 -0.5736  1.0898 -0.9530
 6224SOL    HW230309   3.701   4.222   9.215  2.1735 -0.9923 -0.3888
 6225SOL     OW30310   3.131   1.093   6.574 -0.1198  0.2035  0.3737
 6225SOL    HW130311   3.072   1.153   6.618 -2.3354 -1.3113 -0.5639
 6225SOL    HW230312   3.128   1.143   6.492  2.7712  1.8874  1.2994
 6226SOL     OW30313   0.312   3.155   2.743  0.0391  0.3869 -0.0839
 6226SOL    HW130314   0.266   3.078   2.709 -0.4263  0.0181  1.3708
 6226SOL    HW230315   0.400   3.149   2.706 -0.4024 -0.0493 -1.0513
 6227SOL     OW30316   3.095   1.312   3.059 -0.6621 -0.4389  0.3803
 6227SOL    HW130317   3.068   1.402   3.041 -1.6539 -0.8714 -0.3030
 6227SOL    HW230318   3.183   1.317   3.097 -0.7158  0.2249  0.4221
 6228SOL     OW30319   4.726   0.125  15.357  0.1811  0.2502  0.2397
 6228SOL    HW130320   4.672   0.146  15.433 -1.1241  0.6523 -0.7761
 6228SOL    HW230321   0.066   0.100  15.405 -0.7177 -1.2128  0.9542
 6229SOL     OW30322   0.494   1.374   9.106 -0.6206 -0.0040  0.2364
 6229SOL    HW130323   0.425   1.436   9.132  0.2278  1.1427 -0.2123
 6229SOL    HW230324   0.476   1.358   9.013  0.0776 -1.2852  0.3289
 6230SOL     OW30325   4.463   1.958  12.770  0.0350  0.0662  0.0223
 6230SOL    HW130326   4.483   2.010  12.691  0.8945  1.2742  1.0268
 6230SOL    HW230327   4.482   2.027  12.834  0.1747  1.5381 -1.5835
 6231SOL     OW30328   1.276   0.634   6.135 -0.4093  0.0348 -0.6156
 6231SOL    HW130329   1.338   0.688   6.087 -0.8901  0.4199 -0.8056
 6231SOL    HW230330   1.337   0.611   6.205  1.6954 -0.3738 -2.5924
 6232SOL     OW30331   3.779   2.924   5.235  0.2341 -0.4358  0.0248
 6232SOL    HW130332   3.788   2.891   5.324 -1.9356 -2.7065 -0.5714
 6232SOL    HW230333   3.721   2.998   5.253  0.1131 -0.5554  0.1317
 6233SOL     OW30334   1.688   1.054   1.204  0.3164  0.0408 -0.4961
 6233SOL    HW130335   1.730   1.071   1.120 -0.3737 -0.3292 -0.9124
 6233SOL    HW230336   1.728   1.118   1.263 -2.3559  2.4004 -1.2563
 6234SOL     OW30337   0.807   4.377   2.474  0.2270 -0.1465 -0.0709
 6234SOL    HW130338   0.760   4.293   2.476  1.0563 -0.5802  1.2267
 6234SOL    HW230339   0.838   4.377   2.383 -0.6894  1.4882 -0.3803
 6235SOL     OW30340   1.774   4.229   0.405 -0.4819  0.0363 -0.4117
 6235SOL    HW130341   1.771   4.325   0.399 -0.2344 -0.0440 -1.8041
 6235SOL    HW230342   1.764   4.221   0.500  0.4757 -0.0832 -0.3235
 6236SOL     OW30343   3.801   2.169   7.895  1.0218 -0.1971  0.5427
 6236SOL    HW130344   3.764   2.220   7.968 -1.1953  0.7760 -1.2366
 6236SOL    HW230345   3.891   2.169   7.928  1.0029  1.0981  0.6140
 6237SOL     OW30346   4.051   3.710  17.608 -0.7690  0.0640  0.0764
 6237SOL    HW130347   3.986   3.710  17.537 -0.0047  1.7991 -0.6141
 6237SOL    HW230348   4.119   3.658  17.566  0.4399  1.5505  0.2097
 6238SOL     OW30349   0.648   1.933  11.731  0.0179  0.0968 -0.5899
 6238SOL    HW130350   0.723   1.886  11.766  0.9483  1.0197 -1.3256
 6238SOL    HW230351   0.687   2.016  11.702  0.0749  0.6777  1.1869
 6239SOL     OW30352   1.068   2.113   4.025  0.7045  0.0861  0.1157
 6239SOL    HW130353   1.142   2.173   4.033 -0.7762  1.9758 -0.2300
 6239SOL    HW230354   1.043   2.121   3.933  2.0014 -0.5594 -0.2915
 6240SOL     OW30355   1.965   3.524   3.073 -0.2889  0.0968  0.8233
 6240SOL    HW130356   1.940   3.496   3.161  1.2513 -0.0770  1.2009
 6240SOL    HW230357   1.894   3.586   3.058 -0.7467 -0.2776  1.4025
 6241SOL     OW30358   1.901   1.888  16.742 -0.0976 -0.4161 -0.1409
 6241SOL    HW130359   1.916   1.979  16.767  1.2874 -0.0982 -2.1859
 6241SOL    HW230360   1.867   1.905  16.654  1.0158  1.8705 -0.1260
 6242SOL     OW30361   3.178   0.951  17.523 -0.6554  0.1811  0.1102
 6242SOL    HW130362   3.223   0.987  17.599 -2.5068 -1.5122  2.0466
 6242SOL    HW230363   3.166   1.029  17.469  0.6280 -0.6525 -1.3791
 6243SOL     OW30364   0.688   4.707   2.950 -0.6181 -0.0065  0.4727
 6243SOL    HW130365   0.779   4.679   2.950 -0.6876 -0.2337  0.4640
 6243SOL    HW230366   0.654   4.674   3.033  0.0548  2.7976  1.8677
 6244SOL     OW30367   0.803   0.122   8.784 -0.7734  0.3448  0.0931
 6244SOL    HW130368   0.784   0.028   8.778  0.1023  0.2639 -1.3950
 6244SOL    HW230369   0.828   0.143   8.695 -1.6804  3.9179  0.7022
 6245SOL     OW30370   1.203   0.070   3.638  0.0648  0.5432 -0.1518
 6245SOL    HW130371   1.109   0.069   3.620  0.2873  1.2346 -1.3310
 6245SOL    HW230372   1.243   0.004   3.582 -0.0374 -0.6145  1.1270
 6246SOL     OW30373   2.718   2.700   0.808 -0.3981  0.1050 -0.7644
 6246SOL    HW130374   2.767   2.780   0.830 -1.5189  0.5544  0.1234
 6246SOL    HW230375   2.713   2.673   0.900  0.0154  2.6543  0.0157
 6247SOL     OW30376   0.933   4.162   9.093 -0.2525 -0.3143 -0.1681
 6247SOL    HW130377   0.906   4.087   9.040 -0.3637  0.1273 -0.7345
 6247SOL    HW230378   1.029   4.159   9.094 -0.2309  0.6050  0.1969
 6248SOL     OW30379   0.686   1.762   3.962  0.1506  0.3656 -1.2845
 6248SOL    HW130380   0.746   1.834   3.947  1.0833 -0.0438  0.5343
 6248SOL    HW230381   0.601   1.802   3.983  0.4485  1.0967 -1.4943
 6249SOL     OW30382   1.045   1.609   2.221  0.6635 -0.0123 -0.0430
 6249SOL    HW130383   1.057   1.605   2.126  1.8923  2.3642  0.0275
 6249SOL    HW230384   1.132   1.637   2.247  0.8840 -0.5555 -0.2013
 6250SOL     OW30385   2.528   1.478   8.511 -0.0242  0.1620  0.4760
 6250SOL    HW130386   2.583   1.400   8.511  0.0325  0.1880  3.1152
 6250SOL    HW230387   2.593   1.548   8.509 -0.0053  0.0771 -1.9269
 6251SOL     OW30388   0.965   2.811   7.940  0.1695  0.3602 -0.2951
 6251SOL    HW130389   1.043   2.854   7.907 -0.1655 -0.1451 -1.7124
 6251SOL    HW230390   0.948   2.743   7.875  0.1083  0.0369  0.0598
 6252SOL     OW30391   2.182   0.409   1.751 -0.0741  0.7673  0.0198
 6252SOL    HW130392   2.184   0.459   1.669  0.3880  0.7076 -0.0006
 6252SOL    HW230393   2.182   0.481   1.813 -0.3875  1.1521 -0.4306
 6253SOL     OW30394   0.303   1.282  13.776  0.4053  0.0735  0.0083
 6253SOL    HW130395   0.290   1.314  13.865  0.3603 -0.2604  0.1208
 6253SOL    HW230396   0.326   1.360  13.725  3.7517  0.3487  1.9211
 6254SOL     OW30397   1.380   0.161   5.154  0.1174  0.2059  0.0770
 6254SOL    HW130398   1.347   0.072   5.148  0.5707  0.1046 -0.8939
 6254SOL    HW230399   1.474   0.144   5.155  0.1752  0.4242 -2.7072
 6255SOL     OW30400   0.669   3.225   2.941  0.1339 -0.8114 -0.6155
 6255SOL    HW130401   0.694   3.133   2.945 -2.8258 -1.5959 -0.4646
 6255SOL    HW230402   0.637   3.232   3.031 -0.9595 -0.2906 -1.0373
 6256SOL     OW30403   1.158   1.313   1.333 -0.5984  0.3405  0.6759
 6256SOL    HW130404   1.115   1.275   1.257  0.0394  0.4636  0.2529
 6256SOL    HW230405   1.235   1.257   1.344 -0.1294  1.1156  1.4026
 6257SOL     OW30406   3.097   0.071  13.976 -0.0909  0.4346 -0.7520
 6257SOL    HW130407   3.064   0.112  14.056 -0.1080 -0.5051 -0.2647
 6257SOL    HW230408   3.158   0.139  13.949  1.4834 -1.3962 -1.8332
 6258SOL     OW30409   3.406   0.983  10.887 -0.3725 -0.0045 -0.3760
 6258SOL    HW130410   3.337   1.050  10.887 -0.8975 -0.5238  1.6648
 6258SOL    HW230411   3.409   0.967  10.982  0.2066  2.4953  0.0208
 6259SOL     OW30412   0.203   1.797   6.212 -0.3594  0.0611 -0.2172
 6259SOL    HW130413   0.276   1.757   6.260 -2.9574 -1.8076  2.1715
 6259SOL    HW230414   0.213   1.744   6.132 -1.2531  2.1271 -1.6832
 6260SOL     OW30415   0.152   1.909  17.573  0.0468  0.7102 -1.1119
 6260SOL    HW130416   0.187   1.822  17.593  1.6207  1.4025 -0.8286
 6260SOL    HW230417   0.072   1.922  17.624  1.0590  2.0292  0.1368
 6261SOL     OW30418   1.392   4.567   9.906 -0.0636 -0.0870 -0.4819
 6261SOL    HW130419   1.440   4.639   9.947  0.6646 -0.8364 -0.0424
 6261SOL    HW230420   1.421   4.560   9.816 -1.7712  2.2827 -1.2302
 6262SOL     OW30421   0.438   0.943  10.186 -0.4661  0.0008 -0.0350
 6262SOL    HW130422   0.402   0.972  10.270  0.5101  1.9446 -0.2774
 6262SOL    HW230423   0.362   0.934  10.128 -0.2794 -0.7661 -0.1609
 6263SOL     OW30424   3.081   4.339  16.496 -0.1532  0.7114  0.2722
 6263SOL    HW130425   3.109   4.329  16.405 -1.3325 -0.6716  0.0469
 6263SOL    HW230426   3.000   4.386  16.475  1.6301  2.1965 -3.1841
 6264SOL     OW30427   1.221   4.539   3.175 -0.1911  0.5504  0.1806
 6264SOL    HW130428   1.131   4.568   3.187  0.3112  1.4241  1.9075
 6264SOL    HW230429   1.232   4.503   3.263 -0.5241 -0.7644 -0.3273
 6265SOL     OW30430   0.113   0.059   9.968 -0.6537 -0.2692 -0.2675
 6265SOL    HW130431   0.131   0.109   9.889 -0.4290 -0.0805 -0.0995
 6265SOL    HW230432   0.064   0.125  10.018 -0.2785  1.8719 -2.7586
 6266SOL     OW30433   4.707   3.142   9.404 -0.4015 -0.4761  0.2938
 6266SOL    HW130434   4.624   3.115   9.364  0.3657 -3.6489  0.8413
 6266SOL    HW230435   4.719   3.232   9.374  0.2075  0.0528  2.1149
 6267SOL     OW30436   0.093   0.640   2.542  0.4143 -0.0420 -0.4686
 6267SOL    HW130437   0.061   0.718   2.497 -0.7611  0.1965  0.7778
 6267SOL    HW230438   0.128   0.676   2.624 -1.1851 -0.7717  0.5274
 6268SOL     OW30439   2.678   3.859   3.511 -0.0835 -0.0048  0.7544
 6268SOL    HW130440   2.688   3.951   3.486  0.6741  0.3270  2.2759
 6268SOL    HW230441   2.770   3.835   3.501  0.0210  0.4638  0.5782
 6269SOL     OW30442   0.584   3.525  12.187  0.0683 -0.2356 -0.0417
 6269SOL    HW130443   0.545   3.482  12.110 -1.7227 -0.3872  0.9477
 6269SOL    HW230444   0.673   3.533  12.153 -0.3125  2.3840 -0.4344
 6270SOL     OW30445   1.751   1.374   3.372  0.6573 -0.0920  0.7516
 6270SOL    HW130446   1.804   1.309   3.326  2.5269  2.4496 -0.6973
 6270SOL    HW230447   1.665   1.363   3.331  0.8341  1.4676 -0.0522
 6271SOL     OW30448   0.774   3.681   6.693  0.9460 -0.3780 -0.1707
 6271SOL    HW130449   0.740   3.719   6.774 -1.7660  1.0045 -1.9786
 6271SOL    HW230450   0.796   3.588   6.699  2.7313  0.2229  2.6329
 6272SOL     OW30451   4.277   4.605   4.279  0.4225  0.4015 -0.2209
 6272SOL    HW130452   4.203   4.661   4.303  2.0659  2.7043 -0.4197
 6272SOL    HW230453   4.330   4.612   4.359 -1.6577 -0.8318  1.2494
 6273SOL     OW30454   1.968   1.568   7.377 -0.0941 -0.4707  0.1815
 6273SOL    HW130455   1.884   1.603   7.406 -1.7847 -4.3428  0.0585
 6273SOL    HW230456   1.965   1.605   7.289 -0.6920  1.4318  1.0022
 6274SOL     OW30457   1.306   3.431   5.339  0.4175 -0.3181  0.2137
 6274SOL    HW130458   1.356   3.353   5.314 -0.9507 -0.7223 -1.3171
 6274SOL    HW230459   1.382   3.487   5.350  2.3168 -2.0799 -3.8479
 6275SOL     OW30460   4.677   1.564  16.729 -0.6671 -0.0076  0.3271
 6275SOL    HW130461   0.000   1.600  16.666 -1.7956  0.5049 -0.4890
 6275SOL    HW230462   4.703   1.600  16.813  2.0959 -0.8071 -0.2026
 6276SOL     OW30463   0.027   3.226  15.447 -0.4244  0.0455  0.5876
 6276SOL    HW130464   0.103   3.284  15.436 -1.8777  1.7353 -0.5450
 6276SOL    HW230465   0.001   3.201  15.358  0.6984  0.7098  0.0717
 6277SOL     OW30466   0.070   1.026   8.427 -0.2826  0.4719 -0.0953
 6277SOL    HW130467   0.064   0.938   8.389  1.3814  0.0514  0.6248
 6277SOL    HW230468   4.719   1.060   8.431 -0.8919 -1.2160  0.8804
 6278SOL     OW30469   4.194   0.018   6.309 -0.3560  0.5005  0.0397
 6278SOL    HW130470   4.153   0.094   6.349  1.6835  0.6365  1.8522
 6278SOL    HW230471   4.126   4.696   6.337  0.7435 -0.8131 -0.1573
 6279SOL     OW30472   2.808   1.888   9.281  0.4982 -0.2841 -0.3201
 6279SOL    HW130473   2.753   1.811   9.294 -0.4854  0.1351 -1.9281
 6279SOL    HW230474   2.890   1.838   9.276  1.2624  0.6095  3.1025
 6280SOL     OW30475   0.654   3.154  14.468 -0.3870 -0.7612  0.2809
 6280SOL    HW130476   0.559   3.150  14.479 -0.4346 -0.8502 -0.1357
 6280SOL    HW230477   0.663   3.134  14.374  0.8863 -1.2730  0.5079
 6281SOL     OW30478   2.657   2.251   7.890 -0.4460 -0.5382  0.0189
 6281SOL    HW130479   2.617   2.338   7.889  1.6542  0.4197  0.2070
 6281SOL    HW230480   2.739   2.270   7.844 -1.6456  2.3127 -0.9525
 6282SOL     OW30481   3.714   2.587   6.366  0.5283 -0.6266 -0.8011
 6282SOL    HW130482   3.648   2.519   6.360 -1.4111  1.3532 -1.7776
 6282SOL    HW230483   3.687   2.658   6.307 -1.5695 -1.7759 -1.2304
 6283SOL     OW30484   2.586   3.759   1.111 -0.1434 -0.6150  0.5428
 6283SOL    HW130485   2.526   3.829   1.138  2.9394  2.3228 -0.2116
 6283SOL    HW230486   2.668   3.783   1.154 -0.2708 -0.4153  0.6782
 6284SOL     OW30487   3.612   2.592   7.005  0.2383  0.3424  0.4779
 6284SOL    HW130488   3.688   2.535   7.000  1.0552  1.5688 -0.9341
 6284SOL    HW230489   3.551   2.551   6.944  3.3112  0.2773 -2.5145
 6285SOL     OW30490   2.815   1.286  11.604  0.2606 -0.4839  0.1882
 6285SOL    HW130491   2.869   1.258  11.530 -2.0160 -0.3716 -1.4804
 6285SOL    HW230492   2.733   1.307  11.561  0.2911 -1.8267 -0.5391
 6286SOL     OW30493   3.609   2.236   6.121 -0.5030  0.3976  0.3951
 6286SOL    HW130494   3.571   2.185   6.049 -0.2690 -1.8310  1.8544
 6286SOL    HW230495   3.698   2.227   6.085  0.3192  1.1655  2.2480
 6287SOL     OW30496   4.683   1.073   3.472 -0.2408  0.0414  0.0553
 6287SOL    HW130497   0.032   1.070   3.434  0.0529  0.0573  0.7320
 6287SOL    HW230498   4.684   1.154   3.523  2.9168 -0.0934  0.2010
 6288SOL     OW30499   3.459   2.857   5.816 -0.2073 -1.0647  0.3470
 6288SOL    HW130500   3.465   2.807   5.735  0.1035  0.4170 -0.5461
 6288SOL    HW230501   3.428   2.783   5.868  1.5910 -1.9682  0.1125
 6289SOL     OW30502   4.012   1.932   5.980  0.0127 -0.3023  0.1039
 6289SOL    HW130503   4.094   1.884   5.994  0.6105  1.1098  1.4855
 6289SOL    HW230504   3.958   1.881   6.040  1.4008 -1.2531  0.5564
 6290SOL     OW30505   3.400   2.446   0.934 -0.7716 -0.2813 -0.4904
 6290SOL    HW130506   3.474   2.505   0.948  0.0008 -1.2117 -0.7168
 6290SOL    HW230507   3.399   2.393   1.014 -0.4315 -1.3717 -1.2196
 6291SOL     OW30508   1.247   2.840  13.501  0.3447 -0.1136 -0.1602
 6291SOL    HW130509   1.228   2.753  13.535 -2.1137  1.7479  3.2748
 6291SOL    HW230510   1.162   2.876  13.475  1.0532  0.5293 -1.5944
 6292SOL     OW30511   2.060   2.343   1.666 -0.3002  0.2704  0.9573
 6292SOL    HW130512   2.068   2.259   1.712 -1.3205  0.4681  1.5026
 6292SOL    HW230513   2.040   2.408   1.733 -2.9829  1.0708 -0.6255
 6293SOL     OW30514   1.585   4.536  10.743  0.4603  0.0575 -0.3717
 6293SOL    HW130515   1.535   4.495  10.814  0.2095  3.5671  1.5078
 6293SOL    HW230516   1.578   4.466  10.678 -2.3233  1.1877 -1.3071
 6294SOL     OW30517   1.649   3.165   3.795 -0.1061 -0.0451 -0.2570
 6294SOL    HW130518   1.682   3.155   3.884 -1.0004  1.1466  0.2052
 6294SOL    HW230519   1.583   3.234   3.808  1.2719  1.3394 -0.5907
 6295SOL     OW30520   0.020   3.871   5.502 -0.0826 -0.5186  0.5879
 6295SOL    HW130521   4.698   3.886   5.429  1.6524 -2.1403 -1.1882
 6295SOL    HW230522   0.033   3.961   5.533  0.7334 -0.6018  0.4679
 6296SOL     OW30523   2.233   3.003   8.109 -0.1523 -0.1673  0.1238
 6296SOL    HW130524   2.320   3.000   8.150  0.7838 -1.6913 -1.9396
 6296SOL    HW230525   2.192   2.946   8.174 -0.5583 -0.9176 -0.7988
 6297SOL     OW30526   1.071   4.397   9.236  0.3882 -0.3811 -0.0222
 6297SOL    HW130527   1.029   4.336   9.297  2.0012  0.3944  1.9070
 6297SOL    HW230528   1.157   4.426   9.269 -0.7450  0.6338  2.0793
 6298SOL     OW30529   0.192   0.062   2.381 -0.6365  0.1275  0.4612
 6298SOL    HW130530   0.220   0.039   2.469  1.9120  0.4086 -0.2671
 6298SOL    HW230531   0.242   0.008   2.320 -2.3643 -1.4575  0.4266
 6299SOL     OW30532   2.545   4.204   8.331 -0.1205  0.3463 -0.6479
 6299SOL    HW130533   2.554   4.218   8.237 -1.5632 -1.0111 -0.9941
 6299SOL    HW230534   2.546   4.295   8.361  0.7209 -0.1790  0.9153
 6300SOL     OW30535   4.422   3.099   1.592 -0.0425  0.1188 -0.7813
 6300SOL    HW130536   4.496   3.154   1.620  0.1266 -1.0951  1.1906
 6300SOL    HW230537   4.458   3.074   1.507  0.4273 -1.3529 -0.1555
 6301SOL     OW30538   4.090   1.521   1.614  0.1759 -0.5084 -0.2833
 6301SOL    HW130539   4.094   1.545   1.522  0.1867 -0.0571 -0.1651
 6301SOL    HW230540   3.997   1.531   1.631  0.2047 -0.2314 -0.2966
 6302SOL     OW30541   3.103   4.025   5.175 -0.1418 -0.0334  0.3544
 6302SOL    HW130542   3.050   3.946   5.186 -0.9855  0.2935 -1.3047
 6302SOL    HW230543   3.107   4.032   5.080  1.3442  1.0805  0.5052
 6303SOL     OW30544   1.296   0.092   6.201 -0.6854  0.2066 -0.2078
 6303SOL    HW130545   1.300   0.068   6.294  0.1972 -0.2190 -0.3634
 6303SOL    HW230546   1.202   0.108   6.192 -0.7939  0.6511  1.5460
 6304SOL     OW30547   0.354   2.699   8.008 -0.1577  0.2238 -0.0744
 6304SOL    HW130548   0.429   2.754   7.983 -0.1611  0.9645  1.5450
 6304SOL    HW230549   0.344   2.715   8.102 -0.1377 -2.3445  0.3399
 6305SOL     OW30550   0.414   4.561   4.169 -0.3991  0.6795 -0.5104
 6305SOL    HW130551   0.363   4.501   4.223 -0.8229  1.8985  0.4544
 6305SOL    HW230552   0.473   4.505   4.119 -0.5145 -0.9318  1.1503
 6306SOL     OW30553   2.360   2.774  15.800  0.3675  0.4200  0.1378
 6306SOL    HW130554   2.430   2.734  15.748  0.4190  0.3378  0.2697
 6306SOL    HW230555   2.288   2.747  15.744 -0.0359  1.2257  0.2709
 6307SOL     OW30556   2.101   1.699   2.018  0.3513  0.5002 -0.3205
 6307SOL    HW130557   2.094   1.767   1.951 -0.5055 -0.1819 -0.9224
 6307SOL    HW230558   2.162   1.641   1.973  0.0399  1.0205 -1.4059
 6308SOL     OW30559   0.009   1.540   3.296 -0.8502 -0.1157  0.5269
 6308SOL    HW130560   0.005   1.475   3.227 -1.9158  1.7016 -1.1137
 6308SOL    HW230561   4.663   1.582   3.283 -0.5661 -0.2181 -1.5346
 6309SOL     OW30562   4.162   4.691   2.953  0.1541 -0.8977  0.4413
 6309SOL    HW130563   4.069   4.684   2.930 -0.0261  1.4781  0.3958
 6309SOL    HW230564   4.200   4.698   2.866  0.0970  1.5408  0.6083
 6310SOL     OW30565   2.562   3.926   9.625  0.3151 -0.3672  0.6230
 6310SOL    HW130566   2.547   3.839   9.664  0.9209 -0.8876 -0.2985
 6310SOL    HW230567   2.596   3.973   9.700 -0.0564 -0.6260  0.9521
 6311SOL     OW30568   3.921   1.979   4.835  0.4223  0.0363  0.0539
 6311SOL    HW130569   3.972   2.018   4.906  0.5458  0.6359 -0.3601
 6311SOL    HW230570   3.849   2.041   4.830  0.4473  0.2165  2.0553
 6312SOL     OW30571   0.559   0.201   2.837 -0.3226  0.6048 -0.4776
 6312SOL    HW130572   0.557   0.159   2.751 -2.5624 -0.5965  0.1823
 6312SOL    HW230573   0.604   0.128   2.879 -3.6416 -0.4849  1.1839
 6313SOL     OW30574   4.102   2.950   2.054 -0.9457 -0.1339  0.2018
 6313SOL    HW130575   4.043   3.019   2.024 -0.8658  0.2252  0.8950
 6313SOL    HW230576   4.074   2.879   1.995  1.3334 -0.5898 -0.3104
 6314SOL     OW30577   0.239   0.548   4.686 -0.3618 -0.1972 -0.0795
 6314SOL    HW130578   0.329   0.523   4.705  0.0885  0.9584 -0.7176
 6314SOL    HW230579   0.215   0.578   4.774  0.4925 -1.6080  0.6302
 6315SOL     OW30580   3.419   2.481   4.371  0.1723 -0.1580 -0.2945
 6315SOL    HW130581   3.463   2.535   4.306  0.8099 -2.4500 -1.7574
 6315SOL    HW230582   3.423   2.394   4.331  1.4728 -0.2649  0.0847
 6316SOL     OW30583   0.592   2.334  14.916  0.0275  0.4903  0.1597
 6316SOL    HW130584   0.511   2.296  14.881 -0.6810  3.1322 -1.0559
 6316SOL    HW230585   0.597   2.285  14.998 -1.5093  0.7130  0.3969
 6317SOL     OW30586   3.730   0.889  11.490  0.0307  0.1139 -0.1036
 6317SOL    HW130587   3.814   0.893  11.445 -0.8824 -0.9984 -1.8772
 6317SOL    HW230588   3.729   0.950  11.564 -0.1359  0.1951 -0.1727
 6318SOL     OW30589   0.027   2.315   1.105 -0.4676 -0.1124  0.7874
 6318SOL    HW130590   0.000   2.249   1.041 -0.9738 -0.2394  1.1314
 6318SOL    HW230591   0.120   2.319   1.079 -0.3103 -2.0423  1.0467
 6319SOL     OW30592   1.410   2.315   9.759  0.1244  0.7397  0.0903
 6319SOL    HW130593   1.355   2.391   9.740 -1.3970 -0.0163  1.5375
 6319SOL    HW230594   1.357   2.240   9.733  2.0305 -0.2799 -0.8884
 6320SOL     OW30595   0.472   2.532   1.065 -0.2321 -0.4291 -0.7552
 6320SOL    HW130596   0.438   2.583   0.991 -0.1746  1.0048  0.2178
 6320SOL    HW230597   0.556   2.505   1.028 -1.2858 -2.5206 -1.6479
 6321SOL     OW30598   3.498   2.137   4.825  0.3607  0.3959  0.0302
 6321SOL    HW130599   3.471   2.225   4.851  1.6941  1.4506 -2.1546
 6321SOL    HW230600   3.416   2.090   4.843  0.3604  0.2990 -0.2385
 6322SOL     OW30601   1.059   0.838   6.117 -0.8698  0.1887 -0.6329
 6322SOL    HW130602   1.066   0.795   6.203  0.0403  0.8454 -0.3722
 6322SOL    HW230603   1.063   0.931   6.140  2.1453 -0.0795 -0.0125
 6323SOL     OW30604   4.569   0.278   6.748 -0.2040 -0.0139 -0.0767
 6323SOL    HW130605   4.662   0.292   6.765 -0.5278  1.1040  0.8050
 6323SOL    HW230606   4.534   0.367   6.753  0.7208  0.4162 -1.3366
 6324SOL     OW30607   3.391   0.560   5.522  0.2522  0.0077 -0.4294
 6324SOL    HW130608   3.418   0.531   5.435 -1.2046 -5.8783  1.0573
 6324SOL    HW230609   3.472   0.584   5.568  0.4651  0.2597 -0.9373
 6325SOL     OW30610   0.107   4.639  11.451  0.8912 -0.5324 -0.2327
 6325SOL    HW130611   0.087   4.710  11.390 -0.8194 -0.5945  0.2577
 6325SOL    HW230612   0.198   4.657  11.474  1.2160  0.4241 -2.2400
 6326SOL     OW30613   3.406   2.069   8.401  0.4070  0.3306 -0.9109
 6326SOL    HW130614   3.453   2.150   8.383  1.3496 -0.1971 -0.8106
 6326SOL    HW230615   3.412   2.061   8.496  2.5059 -0.7789 -1.1556
 6327SOL     OW30616   1.846   3.265   2.440  0.3870 -0.1953 -1.1973
 6327SOL    HW130617   1.844   3.300   2.351  2.0506  2.2993 -0.2764
 6327SOL    HW230618   1.763   3.307   2.463  0.6662 -0.0295 -0.4803
 6328SOL     OW30619   3.677   1.471   6.013 -0.2599 -0.0562  0.2087
 6328SOL    HW130620   3.679   1.525   5.934  0.5860  0.1120  0.3418
 6328SOL    HW230621   3.730   1.395   5.988  1.1969  1.1828 -0.5032
 6329SOL     OW30622   4.035   2.106  14.945 -0.0705 -0.0890  0.2250
 6329SOL    HW130623   3.996   2.043  15.005  1.4015  0.7622  2.1185
 6329SOL    HW230624   3.989   2.184  14.975  0.3539  1.1702 -2.3538
 6330SOL     OW30625   3.182   1.046   8.141  0.0369  0.0973 -0.1187
 6330SOL    HW130626   3.250   1.101   8.101 -0.0507  0.5755  0.3988
 6330SOL    HW230627   3.212   1.057   8.231 -3.2798 -0.1794  0.9887
 6331SOL     OW30628   2.110   1.351  15.333  0.3670 -0.1002 -0.3965
 6331SOL    HW130629   2.052   1.327  15.260  1.1312 -2.7569 -0.1236
 6331SOL    HW230630   2.178   1.414  15.307  1.7397 -1.0913  0.7856
 6332SOL     OW30631   4.361   0.075  15.495  0.3562 -0.0766 -0.0693
 6332SOL    HW130632   4.362   0.001  15.556  0.5050  0.1281  0.1747
 6332SOL    HW230633   4.451   0.102  15.510  0.6507  0.6215 -3.0727
 6333SOL     OW30634   2.062   1.400  12.556  0.7561  0.1131 -0.1041
 6333SOL    HW130635   1.985   1.453  12.539  0.9433  0.1681 -0.7853
 6333SOL    HW230636   2.015   1.317  12.561  0.1018  0.4780 -0.2488
 6334SOL     OW30637   0.783   0.856  11.523  0.1383  0.4659  0.1297
 6334SOL    HW130638   0.867   0.875  11.481  0.4450 -2.0428 -0.3698
 6334SOL    HW230639   0.814   0.844  11.613  1.5656  4.7122  0.2095
 6335SOL     OW30640   3.983   2.529   3.892 -0.2162  0.0073 -0.0587
 6335SOL    HW130641   3.940   2.524   3.807 -0.2988  1.2165 -0.0858
 6335SOL    HW230642   4.055   2.591   3.879  0.6693 -1.4248 -1.9383
 6336SOL     OW30643   3.243   1.008   1.346  0.2630 -0.1386 -0.9898
 6336SOL    HW130644   3.211   0.938   1.402  0.6511  1.4779  1.2476
 6336SOL    HW230645   3.285   0.958   1.276  3.8649 -0.0908  1.1265
 6337SOL     OW30646   2.874   3.780   8.280  0.4731  0.4524 -0.5328
 6337SOL    HW130647   2.800   3.837   8.296 -1.4747 -2.0921 -0.4120
 6337SOL    HW230648   2.845   3.699   8.323  0.6474  0.1419 -0.9945
 6338SOL     OW30649   1.912   3.105  14.795 -0.1927  0.3607  0.4724
 6338SOL    HW130650   2.007   3.120  14.791  0.0433 -0.6988  2.1281
 6338SOL    HW230651   1.891   3.152  14.876 -0.2039  0.7072  0.2681
 6339SOL     OW30652   4.512   0.669   7.860  0.3878  0.3560  0.4153
 6339SOL    HW130653   4.588   0.643   7.912  0.5332  0.9692  0.5098
 6339SOL    HW230654   4.560   0.712   7.789  1.4874  1.7961  2.0527
 6340SOL     OW30655   2.277   1.261   6.010  0.3300 -0.6266  0.4492
 6340SOL    HW130656   2.360   1.227   5.977  0.4971  0.6112 -0.4317
 6340SOL    HW230657   2.281   1.354   5.985  0.7031  0.0399  2.9314
 6341SOL     OW30658   2.940   3.578  13.193  0.3956  0.8308 -0.3193
 6341SOL    HW130659   2.979   3.552  13.110 -1.3809 -0.7488 -0.6484
 6341SOL    HW230660   2.908   3.491  13.218  1.2273  1.0286  1.4901
 6342SOL     OW30661   1.486   1.822   6.461  0.2647 -0.0026  0.6908
 6342SOL    HW130662   1.577   1.831   6.488  0.8911  1.0071 -1.7683
 6342SOL    HW230663   1.455   1.911   6.477  1.8672  0.6360  0.2666
 6343SOL     OW30664   1.901   0.683  17.455  0.3248 -0.6710 -0.0930
 6343SOL    HW130665   1.971   0.662  17.392  0.4991  2.2984 -0.8936
 6343SOL    HW230666   1.836   0.695  17.385  0.9092 -0.9482 -0.6911
 6344SOL     OW30667   2.125   1.920   7.633  0.4748  0.3207  0.0826
 6344SOL    HW130668   2.035   1.890   7.617  0.3235  1.0669 -0.4392
 6344SOL    HW230669   2.129   1.891   7.724  0.8575 -0.2705 -0.1181
 6345SOL     OW30670   3.824   3.133   6.839 -0.1510  0.1317  0.1935
 6345SOL    HW130671   3.778   3.115   6.921 -2.1202 -1.3612 -1.2516
 6345SOL    HW230672   3.888   3.198   6.869 -1.4633  2.0660 -1.2079
 6346SOL     OW30673   2.807   2.681   7.787  1.1463  0.0772  0.1047
 6346SOL    HW130674   2.810   2.745   7.717  0.8642  0.7348  0.6923
 6346SOL    HW230675   2.858   2.612   7.745  1.6032  0.2695  0.3393
 6347SOL     OW30676   2.524   3.426  13.961 -0.0227 -0.3640  0.1991
 6347SOL    HW130677   2.561   3.406  13.875  0.2570  1.7408 -0.1496
 6347SOL    HW230678   2.559   3.511  13.986  2.0498 -0.1220 -3.6052
 6348SOL     OW30679   3.726   0.746  12.448  0.5014  0.2472  0.2694
 6348SOL    HW130680   3.740   0.781  12.359 -0.2821  0.5050  0.2481
 6348SOL    HW230681   3.677   0.815  12.493 -1.9049 -1.8123  0.7948
 6349SOL     OW30682   2.247   4.562   6.572  0.0242  0.6619  0.6889
 6349SOL    HW130683   2.342   4.564   6.587 -0.0308 -0.9846  1.2252
 6349SOL    HW230684   2.216   4.576   6.662 -0.8450  1.5198  0.2556
 6350SOL     OW30685   1.449   3.225  12.317  0.6077  0.7378  0.6088
 6350SOL    HW130686   1.498   3.152  12.280  0.1435  0.7754 -0.0671
 6350SOL    HW230687   1.393   3.167  12.370  2.8527 -2.0410 -0.0991
 6351SOL     OW30688   0.177   0.721   8.721 -0.2766  0.1626  0.2294
 6351SOL    HW130689   0.252   0.723   8.781 -0.5157  3.2803  0.3969
 6351SOL    HW230690   0.120   0.675   8.782 -0.1795 -0.6321 -0.2691
 6352SOL     OW30691   3.044   0.711   4.526 -0.2140 -0.2650 -0.2249
 6352SOL    HW130692   2.987   0.712   4.449  0.9054 -1.8859 -1.0701
 6352SOL    HW230693   3.126   0.674   4.492  0.2991  2.9652 -2.4469
 6353SOL     OW30694   3.863   1.018   8.168 -0.3639  0.0924  0.0399
 6353SOL    HW130695   3.896   1.080   8.233  0.7779 -2.6800  2.0918
 6353SOL    HW230696   3.906   1.052   8.089 -0.2120  0.4386  0.2729
 6354SOL     OW30697   3.906   2.086  14.392 -0.1795 -0.7591  0.1191
 6354SOL    HW130698   3.834   2.024  14.388  0.6182 -1.5854 -1.8902
 6354SOL    HW230699   3.932   2.092  14.484  2.8464 -0.2891 -0.7573
 6355SOL     OW30700   0.954   2.304  10.398  0.5073  0.7016  0.2201
 6355SOL    HW130701   0.870   2.289  10.441  0.9219 -1.2705  0.3223
 6355SOL    HW230702   0.959   2.229  10.339 -1.5146  0.6759  0.0625
 6356SOL     OW30703   2.464   3.142   3.055  0.3641 -0.0865 -0.0510
 6356SOL    HW130704   2.549   3.116   3.091 -0.3797 -2.2921  0.1746
 6356SOL    HW230705   2.410   3.142   3.133 -0.8197 -0.8748 -0.8599
 6357SOL     OW30706   3.467   3.122  17.308  0.0951  0.1544 -0.1241
 6357SOL    HW130707   3.475   3.043  17.255 -0.4314 -0.6836  1.0585
 6357SOL    HW230708   3.476   3.177  17.230 -1.4568  0.5065 -0.0508
 6358SOL     OW30709   2.802   2.933   3.884 -0.2709 -0.6964 -0.8349
 6358SOL    HW130710   2.851   2.974   3.813 -0.7197 -0.4628 -1.0105
 6358SOL    HW230711   2.722   2.986   3.883 -0.2913 -0.7206 -0.6091
 6359SOL     OW30712   1.587   4.117   0.157 -0.4595  0.5226 -0.3278
 6359SOL    HW130713   1.606   4.210   0.171 -1.0348  0.5813  0.0696
 6359SOL    HW230714   1.492   4.117   0.150 -0.3655 -2.2522 -1.6166
 6360SOL     OW30715   4.612   4.396  16.189 -0.2038  0.3250 -0.3385
 6360SOL    HW130716   4.682   4.358  16.243  0.2069 -0.9471 -1.7717
 6360SOL    HW230717   4.653   4.379  16.105  1.8278  1.5014  0.4137
 6361SOL     OW30718   4.324   2.896   1.194 -0.2821 -0.6566 -0.3985
 6361SOL    HW130719   4.291   2.808   1.216 -0.1995 -0.7345 -0.5903
 6361SOL    HW230720   4.355   2.895   1.104  0.2074  2.0837 -0.2637
 6362SOL     OW30721   0.892   2.622   6.933  0.5963  0.7158 -0.2128
 6362SOL    HW130722   0.855   2.708   6.951 -0.7257 -0.0244  0.6022
 6362SOL    HW230723   0.893   2.627   6.838 -1.1638 -0.2949 -0.2911
 6363SOL     OW30724   3.552   1.345   3.591 -0.6181  0.2878  0.0360
 6363SOL    HW130725   3.641   1.377   3.605  0.0421 -1.7759  0.6037
 6363SOL    HW230726   3.551   1.265   3.538  3.0305 -1.2603  2.2941
 6364SOL     OW30727   0.963   4.170   0.231  0.2803  0.4851  0.1700
 6364SOL    HW130728   0.995   4.203   0.314  0.0419 -0.1886  0.5283
 6364SOL    HW230729   1.027   4.099   0.225 -1.1499 -0.8366  0.5358
 6365SOL     OW30730   3.166   2.658   9.317  0.2343 -0.1737 -0.1540
 6365SOL    HW130731   3.231   2.721   9.351  0.3890 -1.0899  1.2551
 6365SOL    HW230732   3.211   2.582   9.355 -0.7139  0.3315  2.0072
 6366SOL     OW30733   0.120   2.437  14.818  0.0259  0.0632  0.1559
 6366SOL    HW130734   0.044   2.494  14.808 -1.3360 -1.6594  0.6095
 6366SOL    HW230735   0.181   2.507  14.842  0.7626 -1.1658  1.8375
 6367SOL     OW30736   0.366   1.333   1.983  0.7164  0.2029  0.9806
 6367SOL    HW130737   0.460   1.350   1.975  0.6403  0.0184 -0.2198
 6367SOL    HW230738   0.349   1.340   2.077 -3.8195 -2.5313  0.3839
 6368SOL     OW30739   3.828   4.376   2.191 -0.7561 -0.0464 -0.3141
 6368SOL    HW130740   3.908   4.345   2.234  0.6392  3.6212 -0.1917
 6368SOL    HW230741   3.851   4.467   2.170 -1.3841  0.3447  0.6966
 6369SOL     OW30742   4.523   4.496   4.957 -0.1348 -0.4517  0.4573
 6369SOL    HW130743   4.577   4.444   5.016 -0.5946 -0.3261  0.9833
 6369SOL    HW230744   4.443   4.459   4.991 -0.7042 -0.3802 -0.7921
 6370SOL     OW30745   0.132   3.728   0.538 -0.0183 -0.4528 -0.2978
 6370SOL    HW130746   0.109   3.677   0.615 -0.7209 -0.3508 -0.4445
 6370SOL    HW230747   0.058   3.788   0.527  1.3625  1.1935 -0.7837
 6371SOL     OW30748   4.306   1.522   0.087  0.0749  0.0018  0.3150
 6371SOL    HW130749   4.299   1.522   0.182 -0.4815 -0.9725  0.2831
 6371SOL    HW230750   4.216   1.524   0.054  0.4333  0.6929 -0.6042
 6372SOL     OW30751   2.348   2.904   5.578  0.3620 -0.0523 -0.1380
 6372SOL    HW130752   2.328   2.958   5.654 -0.3734  1.8558 -1.6922
 6372SOL    HW230753   2.363   2.818   5.618  0.2228  1.0251  2.2342
 6373SOL     OW30754   4.160   1.858   9.798  0.6487  0.3330  0.1037
 6373SOL    HW130755   4.088   1.908   9.836 -1.3979 -0.9524 -2.0886
 6373SOL    HW230756   4.205   1.934   9.764  0.8327 -0.6396 -1.8106
 6374SOL     OW30757   0.737   1.997   4.592  0.6894  0.5020  0.4715
 6374SOL    HW130758   0.686   2.073   4.564 -0.0462 -0.0834  0.2155
 6374SOL    HW230759   0.694   1.928   4.542  1.6668  1.0042 -1.0483
 6375SOL     OW30760   4.643   2.591   4.325  0.1899 -0.1564  0.4599
 6375SOL    HW130761   4.669   2.672   4.281 -0.4055 -0.8128 -1.1164
 6375SOL    HW230762   4.548   2.604   4.327  0.1334 -0.6294  0.8101
 6376SOL     OW30763   0.661   3.653   8.641  0.0542  0.2793  0.0043
 6376SOL    HW130764   0.620   3.579   8.686 -0.0621  0.6258  0.4697
 6376SOL    HW230765   0.583   3.709   8.632  0.4576  0.7789 -0.3538
 6377SOL     OW30766   1.490   2.055  12.949 -0.0981  0.1711  0.5521
 6377SOL    HW130767   1.536   2.086  13.027 -0.3302  0.5528  0.5399
 6377SOL    HW230768   1.415   2.115  12.952 -0.0857  0.1384  1.5709
 6378SOL     OW30769   4.296   0.959   5.685  0.1459 -0.3827  0.0787
 6378SOL    HW130770   4.366   0.898   5.662  0.5078 -0.8865  2.5454
 6378SOL    HW230771   4.285   1.013   5.607  0.2433 -0.8911 -0.2861
 6379SOL     OW30772   2.079   3.221   8.159  0.3810 -0.1694 -0.2173
 6379SOL    HW130773   2.004   3.197   8.105 -0.3788  3.4343 -0.8033
 6379SOL    HW230774   2.142   3.156   8.128  0.7955  0.7497 -1.2969
 6380SOL     OW30775   2.537   1.351  16.374  0.2651 -0.0565  0.0722
 6380SOL    HW130776   2.617   1.359  16.322  1.8303 -0.2700  2.4787
 6380SOL    HW230777   2.546   1.285  16.443 -0.2576  1.4531  1.5848
 6381SOL     OW30778   1.869   4.494   5.053 -0.5137  0.2478 -0.5593
 6381SOL    HW130779   1.811   4.517   5.125  0.9334  0.1549  0.6265
 6381SOL    HW230780   1.846   4.402   5.036 -0.2304  0.0823 -0.0563
 6382SOL     OW30781   3.593   3.968   7.316 -0.1789  0.3047 -0.0862
 6382SOL    HW130782   3.521   3.935   7.262 -0.8363 -0.4076  1.2444
 6382SOL    HW230783   3.654   3.895   7.310  0.9330  1.0647  2.0081
 6383SOL     OW30784   1.260   0.006  12.491 -0.6961 -0.2196 -0.1459
 6383SOL    HW130785   1.299   4.659  12.473  0.7882  0.1908  1.1731
 6383SOL    HW230786   1.185   4.724  12.546 -0.1700  2.2642  1.4636
 6384SOL     OW30787   3.503   3.444   4.990  0.0186 -0.6731  0.4463
 6384SOL    HW130788   3.557   3.513   5.027 -1.5677  0.4174  0.7315
 6384SOL    HW230789   3.524   3.481   4.904  2.7427  1.0089  1.8528
 6385SOL     OW30790   3.570   4.560  13.957  0.0914 -0.4173 -0.0207
 6385SOL    HW130791   3.655   4.540  13.920  0.4467 -0.4302  0.8005
 6385SOL    HW230792   3.594   4.567  14.049 -1.6930  2.9376  0.2029
 6386SOL     OW30793   4.584   0.014  15.974  0.3437 -0.2340  0.3324
 6386SOL    HW130794   4.558   4.669  16.013 -2.9908 -0.1993 -1.8726
 6386SOL    HW230795   4.676   4.734  15.957  0.5870 -1.7906  3.4014
 6387SOL     OW30796   2.702   3.706   6.035  0.5659  0.1128  0.6172
 6387SOL    HW130797   2.754   3.754   6.099  0.2401  0.4740  0.6127
 6387SOL    HW230798   2.763   3.733   5.966  1.5639 -3.1788  0.2191
 6388SOL     OW30799   3.166   1.895   2.553 -0.1861 -0.1609 -0.3342
 6388SOL    HW130800   3.241   1.837   2.563 -1.0263 -1.1009  0.5693
 6388SOL    HW230801   3.098   1.833   2.525 -0.7922 -0.5936  2.1169
 6389SOL     OW30802   3.326   0.154   8.386  0.0506  0.0172  0.0457
 6389SOL    HW130803   3.335   0.074   8.335 -2.1496 -1.6310  2.2159
 6389SOL    HW230804   3.245   0.136   8.435 -0.5691  0.2532 -0.8864
 6390SOL     OW30805   1.601   3.456  12.725 -0.1209  0.3275 -0.2218
 6390SOL    HW130806   1.574   3.368  12.753  0.1148  0.7821  1.4469
 6390SOL    HW230807   1.565   3.455  12.637  3.5301 -1.3979 -1.6879
 6391SOL     OW30808   3.635   1.182   6.859 -0.4506 -0.8637  0.0829
 6391SOL    HW130809   3.549   1.150   6.833 -0.5855  0.2500 -0.8171
 6391SOL    HW230810   3.683   1.186   6.777 -2.0805  0.1416 -0.8233
 6392SOL     OW30811   0.103   3.168   7.754  0.5449 -0.5813  0.5528
 6392SOL    HW130812   0.178   3.226   7.770 -0.4198  0.6122  0.7996
 6392SOL    HW230813   0.078   3.176   7.662 -0.7986  0.3562  0.9957
 6393SOL     OW30814   4.083   1.572   4.041  0.2954 -0.1662  0.0724
 6393SOL    HW130815   4.107   1.505   3.977 -1.6590 -0.6193 -0.1972
 6393SOL    HW230816   3.998   1.540   4.073  0.3723  0.5928  1.0376
 6394SOL     OW30817   1.409   3.998   0.380 -0.1787  0.1499 -0.4612
 6394SOL    HW130818   1.346   4.000   0.453  1.8504 -0.3695  1.3207
 6394SOL    HW230819   1.363   4.029   0.302 -2.7777  0.0417  1.0165
 6395SOL     OW30820   3.638   0.298   7.178  0.2529  0.1505 -0.5199
 6395SOL    HW130821   3.592   0.216   7.160 -1.8940  1.2179  0.1218
 6395SOL    HW230822   3.717   0.255   7.212 -1.4581 -2.1862  0.5214
 6396SOL     OW30823   4.094   2.981   1.403 -0.7176  0.3428  1.3575
 6396SOL    HW130824   4.166   2.931   1.442  0.7754  0.4443 -1.3167
 6396SOL    HW230825   4.030   2.914   1.427  2.0527 -2.4554  0.8061
 6397SOL     OW30826   0.576   4.075   1.896 -0.1822 -0.1549 -0.3287
 6397SOL    HW130827   0.645   4.044   1.837 -0.5846  0.6308 -1.1979
 6397SOL    HW230828   0.502   4.059   1.838  1.1612 -1.5490 -1.6758
 6398SOL     OW30829   3.457   3.713   4.557 -0.7762  0.0493 -0.1660
 6398SOL    HW130830   3.429   3.651   4.490  2.4812 -0.5175 -0.9990
 6398SOL    HW230831   3.476   3.787   4.500 -1.1187 -0.0519 -0.4100
 6399SOL     OW30832   3.343   2.734   1.032 -0.0000  0.6101 -0.7386
 6399SOL    HW130833   3.316   2.642   1.022 -0.6044  0.7220 -0.1138
 6399SOL    HW230834   3.266   2.781   1.065 -0.8850 -0.1753 -1.6770
 6400SOL     OW30835   1.575   0.073   7.192 -0.4855 -0.0965 -0.0775
 6400SOL    HW130836   1.598   0.062   7.285 -2.1300 -1.4380  0.1670
 6400SOL    HW230837   1.485   0.101   7.207 -0.0962  1.5592 -0.8218
 6401SOL     OW30838   4.418   2.912   7.735  0.3089  0.1624  0.1631
 6401SOL    HW130839   4.446   2.972   7.666 -2.4533  0.4460 -0.7160
 6401SOL    HW230840   4.442   2.828   7.695 -2.8050 -0.0008 -1.3556
 6402SOL     OW30841   3.495   1.925   5.245 -0.0963 -0.5474  0.2595
 6402SOL    HW130842   3.467   1.852   5.300  1.7763 -1.0763  0.5249
 6402SOL    HW230843   3.552   1.881   5.181 -1.3222  0.0461 -1.2343
 6403SOL     OW30844   3.400   2.573   5.390 -0.5347  0.1954 -0.0053
 6403SOL    HW130845   3.460   2.498   5.392  0.3660  0.9087  0.1765
 6403SOL    HW230846   3.360   2.559   5.305 -0.5418  0.4600 -0.0458
 6404SOL     OW30847   1.812   0.797   3.864 -0.3287 -0.3367  0.1017
 6404SOL    HW130848   1.719   0.817   3.849 -0.3470 -0.2936  0.2725
 6404SOL    HW230849   1.815   0.777   3.958  1.3456  0.9660  0.3205
 6405SOL     OW30850   1.672   3.129   8.562 -0.5246 -0.2425  0.4558
 6405SOL    HW130851   1.712   3.054   8.605 -4.0274 -2.7944 -0.6952
 6405SOL    HW230852   1.739   3.154   8.499 -0.4944  0.5882  0.8209
 6406SOL     OW30853   1.128   2.650   4.678 -0.3993 -0.1919 -0.2759
 6406SOL    HW130854   1.087   2.574   4.636  0.6736  0.0501 -1.7891
 6406SOL    HW230855   1.064   2.719   4.659  1.3428  1.9361  1.5043
 6407SOL     OW30856   4.512   2.109   2.147 -0.3473 -0.0349 -0.4703
 6407SOL    HW130857   4.480   2.126   2.059 -1.6451 -0.8657 -0.1510
 6407SOL    HW230858   4.538   2.199   2.169  0.3257 -0.6001  1.0755
 6408SOL     OW30859   0.216   2.218   5.060  0.5332  0.3073 -0.1442
 6408SOL    HW130860   0.125   2.204   5.035  1.0867 -0.6104 -1.6453
 6408SOL    HW230861   0.233   2.281   4.991 -1.4060  1.7893  0.7085
 6409SOL     OW30862   0.316   2.882   8.730  0.2422 -0.1144 -0.4195
 6409SOL    HW130863   0.364   2.956   8.768  2.3843 -0.5031 -2.3630
 6409SOL    HW230864   0.288   2.847   8.815 -1.4368  0.6444 -0.6644
 6410SOL     OW30865   0.141   1.808   2.884 -0.3367 -0.1372  0.1862
 6410SOL    HW130866   0.175   1.756   2.811 -1.4671 -0.4313 -0.1276
 6410SOL    HW230867   0.212   1.831   2.943 -0.2690  0.4065 -0.1090
 6411SOL     OW30868   2.089   1.601  16.573  0.1072  0.8243  0.0014
 6411SOL    HW130869   2.178   1.620  16.544  0.3309  0.5841  0.5223
 6411SOL    HW230870   2.094   1.506  16.570  0.4875  0.7431  2.5317
 6412SOL     OW30871   1.890   1.385   4.358 -0.5952  0.5729  0.3033
 6412SOL    HW130872   1.839   1.400   4.278 -0.4869  1.3537  0.3735
 6412SOL    HW230873   1.868   1.294   4.377 -0.0540  0.1472 -1.1186
 6413SOL     OW30874   3.568   3.511  13.150  0.3569 -0.0420 -0.0339
 6413SOL    HW130875   3.590   3.479  13.238 -0.8384 -0.1107  0.2490
 6413SOL    HW230876   3.546   3.599  13.181  0.7139  1.1923 -3.3371
 6414SOL     OW30877   2.394   2.147   7.987  0.3175  0.7452  0.5926
 6414SOL    HW130878   2.354   2.195   7.914  1.1891 -2.0863 -1.7169
 6414SOL    HW230879   2.482   2.144   7.950  0.2208 -0.0250  0.4367
 6415SOL     OW30880   2.461   3.819   3.971  0.0264 -0.3121  0.0936
 6415SOL    HW130881   2.478   3.840   4.063  1.0669  2.0853 -0.6249
 6415SOL    HW230882   2.396   3.886   3.950  2.4021  1.0498 -3.0658
 6416SOL     OW30883   4.257   3.091  11.141  0.0436  0.6164  0.4594
 6416SOL    HW130884   4.172   3.084  11.096 -0.4998 -1.3143  1.8012
 6416SOL    HW230885   4.278   2.998  11.140 -2.7023 -0.0308  3.5578
 6417SOL     OW30886   0.553   3.335  16.504  0.4576 -0.1450 -0.0119
 6417SOL    HW130887   0.587   3.420  16.531  1.9302 -1.0333  0.9424
 6417SOL    HW230888   0.465   3.361  16.476 -0.2201 -0.7058  1.5709
 6418SOL     OW30889   3.491   3.748   4.088  0.5501 -0.5400 -0.1944
 6418SOL    HW130890   3.404   3.711   4.100  0.5437 -0.8182 -1.1044
 6418SOL    HW230891   3.469   3.840   4.075 -2.9700 -1.1505  1.6824
 6419SOL     OW30892   1.630   1.647   9.316 -0.1724 -0.4316 -0.1605
 6419SOL    HW130893   1.689   1.572   9.320  0.6148  0.1053 -1.9106
 6419SOL    HW230894   1.668   1.704   9.383  0.3304 -0.2429 -0.6070
 6420SOL     OW30895   1.483   2.171   3.088 -0.2720  0.6347  0.1639
 6420SOL    HW130896   1.564   2.176   3.038 -1.5056  1.7154 -1.7234
 6420SOL    HW230897   1.511   2.148   3.176  1.1729 -1.3956 -0.8235
 6421SOL     OW30898   0.771   3.918   5.947 -0.1563  0.0629 -0.2094
 6421SOL    HW130899   0.848   3.864   5.961  1.1687  1.7071 -1.2415
 6421SOL    HW230900   0.777   3.932   5.852  2.7581 -0.9431 -0.1557
 6422SOL     OW30901   0.899   2.800   4.586 -0.7019 -0.8934 -0.6132
 6422SOL    HW130902   0.830   2.802   4.652 -0.9565  0.8221 -0.9092
 6422SOL    HW230903   0.849   2.828   4.508 -1.1623  1.1575  0.4127
 6423SOL     OW30904   1.258   2.380   8.722 -0.3911 -0.0752 -0.1680
 6423SOL    HW130905   1.282   2.295   8.757  0.0894  0.1951  0.1682
 6423SOL    HW230906   1.339   2.430   8.736 -1.5790  2.1815 -1.3404
 6424SOL     OW30907   3.706   4.245   2.844  0.2764  0.3866  0.1352
 6424SOL    HW130908   3.677   4.178   2.781 -0.2186  1.4112 -0.7510
 6424SOL    HW230909   3.726   4.181   2.912 -0.7982 -0.4125 -0.2853
 6425SOL     OW30910   2.375   0.985   0.401  0.0223 -0.2611  0.5361
 6425SOL    HW130911   2.392   0.894   0.423 -0.8251 -0.2490  1.2174
 6425SOL    HW230912   2.345   0.961   0.314  0.8903 -0.0440  0.1787
 6426SOL     OW30913   3.109   2.845   4.410 -0.1877 -0.0114 -0.5949
 6426SOL    HW130914   3.201   2.866   4.395  0.3023 -0.8439  1.2852
 6426SOL    HW230915   3.079   2.836   4.319 -2.1023 -1.5233  0.1847
 6427SOL     OW30916   1.574   2.155   2.580  0.2501 -0.3300  0.4755
 6427SOL    HW130917   1.613   2.146   2.668 -1.3400  1.9106  1.4143
 6427SOL    HW230918   1.577   2.250   2.571  0.6805 -0.7025 -3.0356
 6428SOL     OW30919   3.819   0.638   2.391  0.1310  0.2590  0.3525
 6428SOL    HW130920   3.775   0.720   2.412  0.7932  0.9838 -1.0594
 6428SOL    HW230921   3.877   0.663   2.318 -2.6772 -0.3594 -2.1157
 6429SOL     OW30922   3.262   4.613   2.627 -0.4612  0.3036 -0.3419
 6429SOL    HW130923   3.275   4.672   2.701 -1.1800  1.3043 -1.0155
 6429SOL    HW230924   3.342   4.628   2.576 -0.2280  1.8291  0.4835
 6430SOL     OW30925   0.007   0.216  10.191 -0.3533 -0.2356  0.7796
 6430SOL    HW130926   4.671   0.157  10.178  0.1372 -0.5057 -0.8272
 6430SOL    HW230927   4.695   0.296  10.204 -2.0064 -0.9697 -1.0836
 6431SOL     OW30928   0.840   1.524  16.857 -0.2071 -0.5608  0.5386
 6431SOL    HW130929   0.818   1.617  16.856  0.1869 -0.4669  1.1417
 6431SOL    HW230930   0.757   1.478  16.848  0.0828 -1.2708  1.4982
 6432SOL     OW30931   0.359   1.501  13.624  0.5954 -0.3437  0.7597
 6432SOL    HW130932   0.438   1.551  13.644  0.0630  1.1632 -0.9722
 6432SOL    HW230933   0.319   1.553  13.555  1.0059  0.1315  0.8793
 6433SOL     OW30934   0.261   3.259   4.426 -0.5069 -0.3839 -0.1932
 6433SOL    HW130935   0.289   3.177   4.385 -1.8850 -0.5171 -0.8607
 6433SOL    HW230936   0.173   3.239   4.458  0.5735 -1.3961  2.1374
 6434SOL     OW30937   1.380   1.804   9.721  0.2670  0.3450  0.6359
 6434SOL    HW130938   1.289   1.804   9.693  0.1685 -0.4604  0.9313
 6434SOL    HW230939   1.369   1.864   9.795 -1.3996 -0.3012  0.9131
 6435SOL     OW30940   3.054   2.970   5.192 -0.2586 -0.2300 -0.0096
 6435SOL    HW130941   3.001   2.932   5.263 -1.2719 -1.6013 -1.4779
 6435SOL    HW230942   3.059   2.893   5.136  0.3708 -0.2303  0.0522
 6436SOL     OW30943   2.869   3.404   8.009 -0.0270 -0.6478 -0.3439
 6436SOL    HW130944   2.892   3.497   8.007 -2.3730 -0.0714  0.0305
 6436SOL    HW230945   2.917   3.382   7.929  0.3363  1.6361 -0.7610
 6437SOL     OW30946   3.219   1.594  11.719  0.3691 -0.1404 -0.1100
 6437SOL    HW130947   3.227   1.605  11.624 -2.1897 -0.8269 -0.4067
 6437SOL    HW230948   3.268   1.671  11.747  1.8306 -0.7725 -0.9224
 6438SOL     OW30949   0.086   3.406  12.490 -0.0435  0.0454 -0.4920
 6438SOL    HW130950   4.737   3.427  12.459  0.7478  1.5458 -1.7009
 6438SOL    HW230951   0.126   3.382  12.407  0.8865  0.9417 -0.3065
 6439SOL     OW30952   0.404   3.322   5.510  0.4958  0.3436  0.0458
 6439SOL    HW130953   0.355   3.348   5.433  1.3304 -1.2687 -1.0301
 6439SOL    HW230954   0.355   3.379   5.570  0.1646 -0.1128  0.2154
 6440SOL     OW30955   2.605   4.055   4.384  0.0238 -0.7132 -0.1645
 6440SOL    HW130956   2.598   4.073   4.290  0.1280 -0.3874 -0.1093
 6440SOL    HW230957   2.606   4.146   4.413 -1.9417 -1.2302  1.5571
 6441SOL     OW30958   3.547   0.220   8.513 -0.3210 -0.3834  0.4884
 6441SOL    HW130959   3.520   0.172   8.592 -0.8596 -2.1212 -0.7495
 6441SOL    HW230960   3.477   0.194   8.452 -0.4640 -0.9119  0.8745
 6442SOL     OW30961   3.309   3.630   7.439 -0.1190  0.5355 -0.0146
 6442SOL    HW130962   3.262   3.678   7.370 -1.1829 -1.4194 -0.6540
 6442SOL    HW230963   3.350   3.704   7.483 -0.8248  1.1326 -0.3640
 6443SOL     OW30964   3.212   3.283  12.750 -0.4122  0.2869  0.0088
 6443SOL    HW130965   3.237   3.310  12.662 -0.4935 -0.5317 -0.2676
 6443SOL    HW230966   3.296   3.299  12.794 -0.1400 -0.4780 -0.2248
 6444SOL     OW30967   1.299   0.401   1.588 -0.3482  0.2622 -0.1486
 6444SOL    HW130968   1.299   0.434   1.498 -2.2698 -0.6994 -0.5045
 6444SOL    HW230969   1.392   0.379   1.594  0.0563  1.8591 -0.5949
 6445SOL     OW30970   4.458   3.192   3.256 -0.0940  0.4065  0.1773
 6445SOL    HW130971   4.422   3.168   3.171 -2.3146 -1.7494  1.7247
 6445SOL    HW230972   4.386   3.184   3.319 -1.0695  0.8954 -0.8558
 6446SOL     OW30973   1.261   1.965   5.704 -0.3805  0.1269  0.0282
 6446SOL    HW130974   1.311   1.884   5.694 -0.2018 -0.0542  2.2948
 6446SOL    HW230975   1.312   2.028   5.653 -3.2121  1.4640 -1.1318
 6447SOL     OW30976   4.308   2.827  11.106  0.1680  0.0163 -0.1981
 6447SOL    HW130977   4.327   2.736  11.126  2.8839  1.0662  1.9133
 6447SOL    HW230978   4.328   2.823  11.012  1.3735 -2.7822  0.1797
 6448SOL     OW30979   1.526   1.564   4.198 -0.0580  0.5525 -0.7206
 6448SOL    HW130980   1.508   1.639   4.141 -0.6323  1.0696  0.1444
 6448SOL    HW230981   1.464   1.500   4.162  0.3657 -0.2236 -0.0622
 6449SOL     OW30982   3.211   1.494   7.246 -0.9736 -0.1776 -0.3234
 6449SOL    HW130983   3.219   1.461   7.157  0.8855 -0.5237 -0.0234
 6449SOL    HW230984   3.128   1.543   7.242 -0.7662  0.1523 -0.6754
 6450SOL     OW30985   1.635   0.152   8.414 -0.3218  0.2797  0.2485
 6450SOL    HW130986   1.592   0.208   8.350  1.1218 -1.1445 -1.9978
 6450SOL    HW230987   1.640   0.074   8.358 -0.5334  1.6331 -1.6549
 6451SOL     OW30988   0.079   0.298   9.522 -0.2847 -0.0452 -0.2797
 6451SOL    HW130989   0.073   0.391   9.501  0.7369  0.4798  1.7330
 6451SOL    HW230990   4.733   0.263   9.493 -1.3381  1.7841  0.5645
 6452SOL     OW30991   3.526   0.462   1.765 -0.4300  0.3229 -0.5006
 6452SOL    HW130992   3.535   0.393   1.700  1.8456 -1.1667  1.3668
 6452SOL    HW230993   3.432   0.479   1.766 -0.5585 -0.3635  0.4062
 6453SOL     OW30994   0.858   3.908   2.019 -0.6535  0.9212  0.3415
 6453SOL    HW130995   0.919   3.966   2.065 -0.1618  0.0556  0.7671
 6453SOL    HW230996   0.866   3.941   1.930  3.2199 -0.0148  0.3737
 6454SOL     OW30997   0.212   0.086  10.858 -0.2931 -0.0798  0.2841
 6454SOL    HW130998   0.195   0.018  10.793 -0.3121 -1.5478  1.8296
 6454SOL    HW230999   0.164   0.058  10.936 -1.4176  0.7545 -0.1081
 6455SOL     OW31000   2.824   3.607  10.618  0.2322  0.5151  0.1456
 6455SOL    HW131001   2.753   3.583  10.677 -0.9973  2.0609 -0.7226
 6455SOL    HW231002   2.860   3.691  10.646 -0.7152  0.7560  0.6454
 6456SOL     OW31003   0.913   2.395   0.524 -0.0315 -0.0651  0.6907
 6456SOL    HW131004   0.877   2.307   0.530  0.0922 -0.1282  0.5137
 6456SOL    HW231005   0.890   2.410   0.432  0.3892 -0.7295  0.4761
 6457SOL     OW31006   3.847   2.164   6.025  0.4682 -0.1519 -0.3657
 6457SOL    HW131007   3.927   2.216   6.035 -0.6027  2.0315 -3.5897
 6457SOL    HW231008   3.889   2.078   6.018 -0.1025 -0.6198  1.8012
 6458SOL     OW31009   1.624   2.181   2.175  0.5644  0.5119  0.1546
 6458SOL    HW131010   1.533   2.201   2.154  0.5119 -0.5637 -0.6474
 6458SOL    HW231011   1.640   2.247   2.242  1.4722  1.7476 -1.2764
 6459SOL     OW31012   0.557   2.820   8.592 -0.1350  0.2424  0.1389
 6459SOL    HW131013   0.463   2.832   8.604 -0.4581 -1.6380 -0.4153
 6459SOL    HW231014   0.566   2.728   8.616  1.9224 -0.2271 -2.3874
 6460SOL     OW31015   0.723   0.727   0.480  0.1662 -0.3467  0.6217
 6460SOL    HW131016   0.728   0.735   0.575 -2.0746  1.6586  0.5681
 6460SOL    HW231017   0.783   0.655   0.463 -0.6570 -0.2508 -2.7657
 6461SOL     OW31018   2.952   0.640   6.854  0.0685 -0.1368  0.5209
 6461SOL    HW131019   3.020   0.578   6.826 -0.0655 -1.3445  2.9377
 6461SOL    HW231020   2.982   0.724   6.820  1.1243 -0.1600  1.4059
 6462SOL     OW31021   3.677   1.986   5.712  0.0683 -0.0218 -0.1557
 6462SOL    HW131022   3.649   1.913   5.658 -1.8023  1.0639 -0.6813
 6462SOL    HW231023   3.770   1.991   5.692 -0.1117  1.9426 -0.5507
 6463SOL     OW31024   4.656   3.191   2.581 -0.1539 -0.1857 -0.5993
 6463SOL    HW131025   0.007   3.158   2.581 -0.0573  0.0887  0.0975
 6463SOL    HW231026   4.615   3.154   2.503 -0.9379  0.8109 -0.6697
 6464SOL     OW31027   2.001   3.432   1.745 -0.4817 -0.0303  0.0849
 6464SOL    HW131028   2.026   3.414   1.835  0.2425 -0.5104 -0.2103
 6464SOL    HW231029   1.977   3.524   1.748  2.3758  0.7344 -0.1061
 6465SOL     OW31030   4.432   4.078   2.052  0.3066 -0.2750 -0.1820
 6465SOL    HW131031   4.440   3.991   2.012  4.7032 -0.2444  0.6077
 6465SOL    HW231032   4.499   4.080   2.120  2.0944 -0.9432 -1.9041
 6466SOL     OW31033   2.430   0.372  15.603  0.0909  0.2303  0.3242
 6466SOL    HW131034   2.441   0.318  15.524 -1.7722  1.7101 -0.9410
 6466SOL    HW231035   2.347   0.337  15.636 -0.2820  0.9967  0.2003
 6467SOL     OW31036   0.916   4.202   9.361 -0.4154 -0.1744  0.3809
 6467SOL    HW131037   0.823   4.195   9.381 -0.0003  1.4682  2.8984
 6467SOL    HW231038   0.918   4.206   9.266 -0.0793 -3.0771  0.2408
 6468SOL     OW31039   4.383   0.361   8.105 -0.1430  0.0033 -0.1281
 6468SOL    HW131040   4.435   0.439   8.126  1.4531 -1.3805  0.9642
 6468SOL    HW231041   4.299   0.399   8.134  0.2979  1.1733 -0.3613
 6469SOL     OW31042   2.100   1.534   9.168 -0.1810 -0.7861 -0.8399
 6469SOL    HW131043   2.166   1.474   9.202 -0.9802  0.0209  2.0703
 6469SOL    HW231044   2.152   1.603   9.127 -0.8096 -0.4752 -1.1107
 6470SOL     OW31045   1.814   4.041   5.265  0.0498  0.1083  0.0607
 6470SOL    HW131046   1.761   3.993   5.329  0.2238  0.6800  0.6277
 6470SOL    HW231047   1.844   3.970   5.208 -0.4939 -0.1766  0.1266
 6471SOL     OW31048   2.619   4.413   9.171 -0.0515  0.0841  0.3883
 6471SOL    HW131049   2.534   4.415   9.127  0.2315  2.2449 -0.0276
 6471SOL    HW231050   2.678   4.378   9.104 -0.4279 -1.3516  0.7902
 6472SOL     OW31051   3.183   4.535  12.907  0.1179  0.5005  0.2132
 6472SOL    HW131052   3.205   4.508  12.996  0.2636 -0.0533  0.0079
 6472SOL    HW231053   3.089   4.546  12.923 -0.2690 -0.2624 -1.5136
 6473SOL     OW31054   3.817   2.519   5.998 -0.0910  0.4119 -0.1528
 6473SOL    HW131055   3.759   2.543   6.070  0.1587 -2.2169  0.9352
 6473SOL    HW231056   3.755   2.514   5.925  1.7755  1.7497 -1.8422
 6474SOL     OW31057   3.868   3.384   7.781  0.4887  0.0979  0.1490
 6474SOL    HW131058   3.855   3.305   7.834  3.1999  1.3248  2.6373
 6474SOL    HW231059   3.811   3.366   7.706  0.1459 -0.6100  0.5832
 6475SOL     OW31060   3.363   3.323   0.746  1.0067 -0.3108 -0.0014
 6475SOL    HW131061   3.430   3.358   0.804  1.2990  0.3423 -0.7327
 6475SOL    HW231062   3.296   3.391   0.745  1.4236  0.1122  1.0844
 6476SOL     OW31063   1.953   0.492   3.755 -0.2097 -0.3077 -0.0390
 6476SOL    HW131064   1.917   0.575   3.786  0.3858  0.1141 -0.4722
 6476SOL    HW231065   1.883   0.449   3.708 -1.1504  2.8913 -1.5663
 6477SOL     OW31066   0.011   4.574  10.120 -0.1741  0.2449  0.0436
 6477SOL    HW131067   4.663   4.555  10.083  1.2267 -0.3729 -2.8970
 6477SOL    HW231068   0.050   4.643  10.067  0.8724  0.1789  0.7384
 6478SOL     OW31069   4.071   3.177   1.620 -0.0866  0.6487 -0.1794
 6478SOL    HW131070   4.088   3.116   1.548 -0.6719  1.3727 -0.9304
 6478SOL    HW231071   4.146   3.172   1.679 -0.9400 -0.2301  0.8213
 6479SOL     OW31072   4.193   3.206   7.491 -0.0986  0.2611 -0.6354
 6479SOL    HW131073   4.125   3.189   7.426  1.5055  1.0498 -2.5286
 6479SOL    HW231074   4.150   3.173   7.569  1.5009 -0.5225 -0.0747
 6480SOL     OW31075   2.852   3.861   6.220 -0.2173 -0.7726 -0.2334
 6480SOL    HW131076   2.931   3.811   6.199 -0.2138 -0.9694  0.2449
 6480SOL    HW231077   2.869   3.865   6.315 -0.4215 -0.0052 -0.2322
 6481SOL     OW31078   0.506   2.657   7.638  0.4590 -0.1270 -0.1601
 6481SOL    HW131079   0.420   2.624   7.614 -0.2280 -0.4955  2.8012
 6481SOL    HW231080   0.550   2.573   7.649 -1.6723 -1.3485 -1.0281
 6482SOL     OW31081   4.132   1.207  11.016 -0.3782 -1.0630 -0.6110
 6482SOL    HW131082   4.105   1.294  11.045  1.7566 -0.4220 -0.5410
 6482SOL    HW231083   4.175   1.239  10.936  0.6105 -0.6107  0.1073
 6483SOL     OW31084   2.676   1.649   9.382  0.5937 -0.7721  0.6665
 6483SOL    HW131085   2.692   1.677   9.472 -0.0574  1.5296  0.0538
 6483SOL    HW231086   2.677   1.555   9.400  1.7002 -1.1832 -1.5956
 6484SOL     OW31087   2.702   4.074  11.273 -0.1950  0.6756 -0.0940
 6484SOL    HW131088   2.643   4.135  11.317  1.1817  0.7504  1.6716
 6484SOL    HW231089   2.722   4.015  11.345  0.3588 -1.7320 -2.2168
 6485SOL     OW31090   3.319   3.543   8.896 -0.0487  0.0821  0.0877
 6485SOL    HW131091   3.239   3.575   8.855 -0.0542  2.2436  1.7837
 6485SOL    HW231092   3.378   3.554   8.821 -2.2317  3.0117 -1.1726
 6486SOL     OW31093   3.921   1.954  15.295 -0.2173 -0.3447  0.0508
 6486SOL    HW131094   3.842   2.000  15.322 -0.0038 -0.3939  0.7635
 6486SOL    HW231095   3.899   1.945  15.202 -1.9399  0.6421  0.3632
 6487SOL     OW31096   4.150   2.666   8.683 -0.2942 -0.0283 -0.0795
 6487SOL    HW131097   4.133   2.724   8.609 -0.5243 -1.1429 -0.9050
 6487SOL    HW231098   4.218   2.606   8.653  0.3172  0.9755 -0.6762
 6488SOL     OW31099   3.096   0.234   3.074  0.1576 -0.2075 -0.1113
 6488SOL    HW131100   3.015   0.192   3.044 -0.0115 -0.1296  0.2498
 6488SOL    HW231101   3.059   0.314   3.110  1.2645 -0.2205  1.0531
 6489SOL     OW31102   0.650   3.553  17.463  0.2653 -0.5091 -0.7814
 6489SOL    HW131103   0.694   3.627  17.421 -1.2247  2.0448  2.1684
 6489SOL    HW231104   0.601   3.598  17.532  1.1264 -1.0335  0.1633
 6490SOL     OW31105   2.820   1.788   2.177 -0.1159  0.6762 -0.1939
 6490SOL    HW131106   2.908   1.754   2.192  0.2339  2.1008  1.0712
 6490SOL    HW231107   2.819   1.864   2.235  1.9446 -0.3244  1.1606
 6491SOL     OW31108   1.588   2.660   1.900  0.3416 -0.2863 -0.1926
 6491SOL    HW131109   1.567   2.684   1.810 -0.0302  1.8295  0.4639
 6491SOL    HW231110   1.514   2.602   1.916 -1.1228  1.0730 -2.0216
 6492SOL     OW31111   3.204   3.178   3.743  0.3356  0.3095  0.2556
 6492SOL    HW131112   3.224   3.132   3.824 -0.8446 -0.2610  0.2226
 6492SOL    HW231113   3.172   3.265   3.766  0.3490  0.4502 -0.2460
 6493SOL     OW31114   4.516   3.151  11.720  0.0919  0.4736 -0.2512
 6493SOL    HW131115   4.463   3.120  11.646  0.8803  0.3631 -0.7797
 6493SOL    HW231116   4.508   3.087  11.790  1.0397  0.2490 -0.3493
 6494SOL     OW31117   0.137   0.716  17.739 -0.6097  0.2515 -0.1558
 6494SOL    HW131118   0.167   0.806  17.752 -1.9504  0.6878 -0.1066
 6494SOL    HW231119   0.055   0.723  17.690 -1.3583  0.3176  1.1333
 6495SOL     OW31120   4.180   4.032   9.039  0.7811  0.0351 -0.3819
 6495SOL    HW131121   4.117   3.977   8.993  0.0974  0.4091  0.1147
 6495SOL    HW231122   4.248   3.968   9.063  2.1510  2.0375  1.0963
 6496SOL     OW31123   0.122   3.634  10.310 -0.7312  0.1889  0.5854
 6496SOL    HW131124   0.126   3.636  10.215 -0.4745  0.1667  0.5936
 6496SOL    HW231125   0.160   3.719  10.334  2.6925 -1.0721 -0.2984
 6497SOL     OW31126   3.833   1.510  12.007  0.0655 -0.9356 -0.1315
 6497SOL    HW131127   3.853   1.441  11.943  0.1443 -2.0325  1.0834
 6497SOL    HW231128   3.772   1.564  11.956  0.9154  0.2396  0.1048
 6498SOL     OW31129   2.948   1.303   4.279  0.0072  0.1744  0.1773
 6498SOL    HW131130   2.947   1.237   4.349  2.6072  0.4884  0.4938
 6498SOL    HW231131   3.039   1.332   4.278  0.0162  0.1258 -0.6625
 6499SOL     OW31132   3.771   0.821   2.038 -0.0381 -0.4718 -0.1641
 6499SOL    HW131133   3.847   0.864   2.078  0.3377  0.0488 -1.4423
 6499SOL    HW231134   3.705   0.883   2.068 -0.4736 -1.0345  0.0231
 6500SOL     OW31135   4.671   3.262   0.114 -0.6660  0.0510  0.1975
 6500SOL    HW131136   4.633   3.330   0.059 -1.1279  0.8185  1.4424
 6500SOL    HW231137   0.009   3.237   0.064  0.9963  2.4426  1.5873
 6501SOL     OW31138   1.385   2.344   1.136  0.2052  0.5304  0.0144
 6501SOL    HW131139   1.450   2.403   1.098  0.2780 -0.6264 -1.6633
 6501SOL    HW231140   1.315   2.392   1.092  0.1466  1.6524  1.3035
 6502SOL     OW31141   0.131   2.161   8.022 -0.6749  0.3523 -0.2901
 6502SOL    HW131142   0.098   2.170   7.932  2.6143  1.4720 -1.3626
 6502SOL    HW231143   0.178   2.243   8.034 -0.3747  0.2639 -0.8537
 6503SOL     OW31144   3.225   2.412   6.059 -0.3961  0.9514 -0.1694
 6503SOL    HW131145   3.253   2.328   6.094 -0.6089  0.1783 -1.8698
 6503SOL    HW231146   3.210   2.458   6.142  0.9189 -0.7483  1.0028
 6504SOL     OW31147   3.916   3.643   3.757  0.6981  0.0472  0.0951
 6504SOL    HW131148   3.978   3.599   3.815  0.0023 -0.3133  0.5635
 6504SOL    HW231149   3.832   3.626   3.799  0.6325 -0.3778 -0.2108
 6505SOL     OW31150   3.585   3.232  11.158  0.3097 -0.0446  0.0271
 6505SOL    HW131151   3.593   3.178  11.080 -3.1308  0.0944 -0.4215
 6505SOL    HW231152   3.670   3.272  11.175  0.3113 -0.5019  1.0907
 6506SOL     OW31153   4.382   4.604   4.747  0.0529  0.1420 -0.7712
 6506SOL    HW131154   4.457   4.578   4.800 -3.8832 -2.0581  3.6669
 6506SOL    HW231155   4.332   4.666   4.801 -0.4550 -2.0012  1.1744
 6507SOL     OW31156   2.365   0.372   4.021 -0.2260  0.4607 -0.2764
 6507SOL    HW131157   2.273   0.348   4.019 -0.6300  1.8718  1.3540
 6507SOL    HW231158   2.387   0.374   3.928  0.7235  1.7267 -0.0417
 6508SOL     OW31159   2.426   0.851   7.408 -0.5005 -0.0266  0.6664
 6508SOL    HW131160   2.522   0.854   7.408 -0.5307  0.8368  0.5073
 6508SOL    HW231161   2.414   0.896   7.492 -1.6142 -0.3130  0.6563
 6509SOL     OW31162   3.446   2.195   7.719 -0.2243  0.0241  0.0887
 6509SOL    HW131163   3.421   2.156   7.635 -1.7474  2.2618 -0.5295
 6509SOL    HW231164   3.539   2.209   7.702 -0.6504  0.3258 -1.9799
 6510SOL     OW31165   4.651   1.840   3.002 -0.2200  0.0327  0.1165
 6510SOL    HW131166   4.604   1.877   2.927 -0.2362 -0.3510 -0.0613
 6510SOL    HW231167   4.735   1.827   2.958 -1.7234  1.5047 -3.2180
 6511SOL     OW31168   1.839   0.565   7.740 -0.0482  0.1442  0.0870
 6511SOL    HW131169   1.924   0.599   7.768 -1.1219  0.7597  2.6037
 6511SOL    HW231170   1.799   0.561   7.827  1.6151  0.9313  0.8970
 6512SOL     OW31171   1.073   3.277   3.138 -0.1812  0.6575  0.0181
 6512SOL    HW131172   0.997   3.251   3.190  0.4285 -0.8216  0.1874
 6512SOL    HW231173   1.088   3.355   3.191 -0.9632  1.8247 -1.4711
 6513SOL     OW31174   2.515   2.832   8.403 -0.1100 -0.1355  0.0959
 6513SOL    HW131175   2.463   2.789   8.471  0.1149 -1.3276 -0.4949
 6513SOL    HW231176   2.574   2.760   8.381  0.4481 -0.7298  3.6248
 6514SOL     OW31177   0.543   4.375   0.843  0.0183  0.2867  0.3486
 6514SOL    HW131178   0.488   4.446   0.811 -0.0149  0.2003  0.2153
 6514SOL    HW231179   0.538   4.383   0.939 -0.7886 -0.4293  0.3603
 6515SOL     OW31180   3.123   3.280  15.009 -0.0711 -0.5296  0.5841
 6515SOL    HW131181   3.065   3.314  15.077  0.2364  1.5994 -0.2031
 6515SOL    HW231182   3.208   3.284  15.052 -0.3474  0.1936  1.0530
 6516SOL     OW31183   1.561   1.999   4.743 -0.5802 -0.1529 -0.0295
 6516SOL    HW131184   1.632   2.021   4.683 -0.5630 -2.0401 -0.7014
 6516SOL    HW231185   1.558   2.074   4.802 -1.4865 -0.0633 -0.1825
 6517SOL     OW31186   1.377   0.811   4.432  0.0932  0.0861 -0.2608
 6517SOL    HW131187   1.323   0.835   4.356  1.6205 -1.1659 -1.7487
 6517SOL    HW231188   1.314   0.811   4.503  0.2170 -0.5277 -0.1561
 6518SOL     OW31189   2.643   0.031   8.245  0.2173 -0.5116 -0.1455
 6518SOL    HW131190   2.668   4.717   8.321 -1.2443 -0.4203  0.3889
 6518SOL    HW231191   2.657   4.701   8.179 -1.5470 -0.4325 -0.5934
 6519SOL     OW31192   0.211   4.634   5.660 -0.5751 -0.2035  0.5347
 6519SOL    HW131193   0.218   4.627   5.755  0.7305  0.4351  0.4898
 6519SOL    HW231194   0.233   4.727   5.661  0.6717 -0.4862 -1.0061
 6520SOL     OW31195   0.451   0.140   1.681 -0.4051  0.2462 -0.2891
 6520SOL    HW131196   0.431   0.226   1.643 -0.7604 -0.2687 -1.2847
 6520SOL    HW231197   0.545   0.141   1.698 -0.4596 -1.0898  0.0835
 6521SOL     OW31198   1.790   3.483   8.463  0.4463  0.8102  0.0814
 6521SOL    HW131199   1.861   3.497   8.400 -0.3887  0.0449 -1.0475
 6521SOL    HW231200   1.834   3.441   8.536 -1.3567 -0.5822  0.3695
 6522SOL     OW31201   3.614   1.724   5.568 -0.1137 -0.0692  0.4019
 6522SOL    HW131202   3.678   1.718   5.497  1.3131  1.0991  1.5818
 6522SOL    HW231203   3.530   1.724   5.522 -0.4484  1.8301  1.0117
 6523SOL     OW31204   4.233   3.291   2.357  0.2834  0.7493 -0.4756
 6523SOL    HW131205   4.189   3.347   2.421 -0.5069  0.0879 -0.4475
 6523SOL    HW231206   4.255   3.207   2.397 -0.2566  0.8592  0.0400
 6524SOL     OW31207   3.854   4.519  15.429  0.2074 -0.1371 -0.0435
 6524SOL    HW131208   3.799   4.563  15.363 -2.1169 -0.5011  1.6408
 6524SOL    HW231209   3.930   4.496  15.376  0.0757  2.4669 -1.3574
 6525SOL     OW31210   1.558   0.131   3.054 -0.1566  0.1541  0.7779
 6525SOL    HW131211   1.639   0.179   3.040  0.9168 -1.7545  0.4945
 6525SOL    HW231212   1.561   0.094   3.142  1.1465  0.4755  0.8672
 6526SOL     OW31213   4.425   0.537  16.649 -0.4813  0.7644 -0.3051
 6526SOL    HW131214   4.339   0.577  16.637  0.3557  2.4177 -0.7487
 6526SOL    HW231215   4.486   0.563  16.580 -1.4335  2.8129 -0.3850
 6527SOL     OW31216   2.212   4.326   2.538 -0.7502 -0.3869  0.1412
 6527SOL    HW131217   2.281   4.331   2.472 -0.2593 -1.7374  0.5386
 6527SOL    HW231218   2.260   4.290   2.613  0.3983 -2.1112 -1.4236
 6528SOL     OW31219   1.187   0.122   6.818 -0.1609  0.8872  0.1694
 6528SOL    HW131220   1.247   0.058   6.855 -0.3824 -0.4913 -1.8771
 6528SOL    HW231221   1.108   0.100   6.867 -0.2754  0.2406 -0.3177
 6529SOL     OW31222   3.768   1.792   0.287 -0.0654  0.9908  0.0944
 6529SOL    HW131223   3.760   1.697   0.276  0.1813  0.9411  0.3551
 6529SOL    HW231224   3.725   1.805   0.371  0.1088 -0.8006  0.4735
 6530SOL     OW31225   0.327   3.785  15.202  0.2401 -0.1323  0.2721
 6530SOL    HW131226   0.294   3.735  15.128  1.9934 -1.0202  0.1001
 6530SOL    HW231227   0.346   3.875  15.176 -0.5973 -0.2044 -0.5693
 6531SOL     OW31228   2.150   2.992   7.652  0.1853 -0.9904  0.2899
 6531SOL    HW131229   2.101   2.919   7.689 -2.2108  0.8713  0.8474
 6531SOL    HW231230   2.177   3.037   7.733  0.6293 -1.6804  0.5281
 6532SOL     OW31231   2.472   2.702   5.989  0.7372 -0.3711 -0.0450
 6532SOL    HW131232   2.398   2.716   6.049 -0.1996 -0.0299 -1.2860
 6532SOL    HW231233   2.522   2.636   6.037 -2.7460 -2.6318  0.5267
 6533SOL     OW31234   1.061   1.989   5.113 -0.1464 -0.2608  0.1622
 6533SOL    HW131235   1.104   1.908   5.086 -0.5823 -0.1256 -0.9280
 6533SOL    HW231236   0.990   1.997   5.049 -0.8599  1.8601  1.2069
 6534SOL     OW31237   3.237   4.696  11.872 -0.4428  0.2597  1.1064
 6534SOL    HW131238   3.309   4.641  11.903 -0.8650 -0.0262  1.5674
 6534SOL    HW231239   3.247   0.043  11.914  0.2823  0.1857  1.0797
 6535SOL     OW31240   0.867   3.271   2.465  0.3914  0.6836 -0.0583
 6535SOL    HW131241   0.949   3.293   2.421  0.2482  1.0951 -0.1265
 6535SOL    HW231242   0.885   3.322   2.544 -0.3904  0.8859 -0.0016
 6536SOL     OW31243   3.248   4.151   3.104 -0.5502 -0.2821  0.3835
 6536SOL    HW131244   3.270   4.061   3.080  1.5516  0.4618 -0.4936
 6536SOL    HW231245   3.320   4.182   3.159  0.8514 -1.1656 -0.9460
 6537SOL     OW31246   2.283   2.995   6.670  0.3808  0.3000  0.2707
 6537SOL    HW131247   2.193   2.971   6.691  0.5295  0.2875  0.8804
 6537SOL    HW231248   2.264   3.046   6.591 -2.3021 -0.7424  0.2397
 6538SOL     OW31249   3.096   2.175  13.093  0.3008  0.3242  0.2184
 6538SOL    HW131250   3.122   2.097  13.141 -2.0323 -2.0363 -2.3490
 6538SOL    HW231251   3.132   2.170  13.005 -1.2911  0.2030 -0.4259
 6539SOL     OW31252   2.979   3.369   7.749  0.2332  0.2763 -0.1166
 6539SOL    HW131253   3.043   3.413   7.693  0.7692  0.3342  0.5378
 6539SOL    HW231254   2.933   3.324   7.678 -0.3977  1.6860 -0.5960
 6540SOL     OW31255   3.297   3.249  16.620  0.4161 -0.1723  0.4630
 6540SOL    HW131256   3.391   3.234  16.612  0.3906 -0.3417  0.4773
 6540SOL    HW231257   3.288   3.268  16.527 -2.4408 -2.0667  0.3640
 6541SOL     OW31258   0.867   3.537   3.165 -0.3729 -0.6937 -0.0494
 6541SOL    HW131259   0.796   3.589   3.203 -0.6292  0.0976 -1.6281
 6541SOL    HW231260   0.936   3.547   3.231  1.2091 -0.1154 -1.7736
 6542SOL     OW31261   1.245   2.527   6.619 -0.0135  0.0384 -0.8205
 6542SOL    HW131262   1.235   2.444   6.666 -3.0254  1.9601  2.0075
 6542SOL    HW231263   1.311   2.500   6.555  1.1738  1.5300 -0.2117
 6543SOL     OW31264   4.691   4.732   4.357  0.1476 -0.0204 -0.4539
 6543SOL    HW131265   4.697   0.089   4.367 -2.8467  0.5176 -3.9135
 6543SOL    HW231266   4.602   4.722   4.391  0.6259  1.3616  1.2296
 6544SOL     OW31267   4.148   3.549  11.439  0.5054  0.7173 -0.4455
 6544SOL    HW131268   4.214   3.615  11.416  0.4962  0.1639 -2.1161
 6544SOL    HW231269   4.130   3.510  11.353 -0.1537  1.4171 -0.6235
 6545SOL     OW31270   1.012   2.292   5.769  0.0172  0.1029  1.0265
 6545SOL    HW131271   0.999   2.209   5.722  0.6021  1.1406 -0.9967
 6545SOL    HW231272   1.105   2.285   5.794  0.4568 -1.1904 -0.9900
 6546SOL     OW31273   4.125   3.437   0.328  0.2981  0.6494 -0.2331
 6546SOL    HW131274   4.208   3.438   0.280  0.8567  0.9353  0.7267
 6546SOL    HW231275   4.129   3.353   0.374 -1.3663  0.2272 -0.8477
 6547SOL     OW31276   3.761   2.162   2.470  0.0073 -0.2434  0.3128
 6547SOL    HW131277   3.848   2.138   2.438 -0.9223 -2.6852 -0.3968
 6547SOL    HW231278   3.763   2.154   2.565 -0.4173 -0.1626  0.3264
 6548SOL     OW31279   3.560   2.352  12.775  0.0912  0.2753 -0.4321
 6548SOL    HW131280   3.614   2.341  12.853  0.3118  3.3943 -0.1138
 6548SOL    HW231281   3.484   2.398  12.812 -1.5908 -1.8945 -1.1880
 6549SOL     OW31282   0.227   3.468   9.867  0.0918 -0.4748 -0.2943
 6549SOL    HW131283   0.229   3.489   9.774  2.3868  0.0312 -0.1424
 6549SOL    HW231284   0.265   3.380   9.859  1.0993 -0.0876  0.2053
 6550SOL     OW31285   4.085   0.718   3.831  0.4650 -0.3249 -0.2939
 6550SOL    HW131286   4.032   0.640   3.847 -1.5183  1.0248 -0.3478
 6550SOL    HW231287   4.036   0.761   3.761  0.4748 -1.0456 -0.7507
 6551SOL     OW31288   3.219   2.235   2.934 -0.3477 -0.4293 -0.1363
 6551SOL    HW131289   3.205   2.149   2.895  1.6049 -0.9041  0.2005
 6551SOL    HW231290   3.217   2.205   3.025 -1.4107  1.4532  0.4562
 6552SOL     OW31291   2.078   1.993   4.220  0.1839  0.1358  0.0394
 6552SOL    HW131292   2.006   2.025   4.165  0.3892 -1.9151 -1.4292
 6552SOL    HW231293   2.128   1.959   4.145 -0.7296  0.5086 -0.7342
 6553SOL     OW31294   2.868   2.177   9.369 -0.7155  0.4513 -0.2046
 6553SOL    HW131295   2.848   2.083   9.364 -1.2307  0.5290  0.4922
 6553SOL    HW231296   2.795   2.206   9.314 -1.2878  1.0944  0.8999
 6554SOL     OW31297   1.097   3.190  14.263  0.1550  0.7278  0.4818
 6554SOL    HW131298   1.037   3.167  14.334  0.6985 -0.4655  0.5697
 6554SOL    HW231299   1.158   3.251  14.304 -0.4090  1.0136  0.8996
 6555SOL     OW31300   1.567   4.130  16.869  0.1867  0.4114 -0.4406
 6555SOL    HW131301   1.653   4.091  16.854 -0.8458 -2.3455  0.8360
 6555SOL    HW231302   1.519   4.093  16.795  0.6497 -0.2502 -0.4080
 6556SOL     OW31303   4.587   3.429   3.305  0.2853  0.1417  0.0378
 6556SOL    HW131304   4.599   3.417   3.211  1.5241  2.8158 -0.1430
 6556SOL    HW231305   4.524   3.359   3.324  1.2749 -0.1852  2.1411
 6557SOL     OW31306   1.719   1.288   3.716  0.1615  0.4134  0.1179
 6557SOL    HW131307   1.802   1.279   3.669 -0.7920 -0.8219 -1.3432
 6557SOL    HW231308   1.693   1.196   3.720 -0.9794  0.8310  2.7544
 6558SOL     OW31309   3.251   3.359   7.847  0.2969 -0.0523  0.6311
 6558SOL    HW131310   3.165   3.318   7.847  0.4859 -0.4441  0.6914
 6558SOL    HW231311   3.250   3.406   7.931  1.7654  1.6402 -0.2781
 6559SOL     OW31312   2.747   2.247   7.445  0.6653  0.2690  0.2951
 6559SOL    HW131313   2.660   2.252   7.405  0.4411  0.6047  0.8166
 6559SOL    HW231314   2.744   2.162   7.488 -0.4823  0.0313 -0.2461
 6560SOL     OW31315   4.630   2.898   9.767 -0.0907 -0.1820  0.4937
 6560SOL    HW131316   4.591   2.837   9.830 -1.3539  1.3700  1.2174
 6560SOL    HW231317   4.589   2.982   9.788 -3.0551 -1.3148 -0.5877
 6561SOL     OW31318   3.585   1.160   8.658 -0.1009  0.3005 -0.5218
 6561SOL    HW131319   3.583   1.105   8.579 -0.6224  0.9465 -0.9558
 6561SOL    HW231320   3.646   1.228   8.630  2.6816 -2.9688 -2.5488
 6562SOL     OW31321   4.035   1.118  15.865  0.5673 -0.4182 -0.0957
 6562SOL    HW131322   4.096   1.045  15.877  1.5623 -0.0314 -2.7439
 6562SOL    HW231323   3.961   1.078  15.819  0.9237 -1.2625  0.0575
 6563SOL     OW31324   0.532   3.797   2.801  0.5084  0.6728 -0.4677
 6563SOL    HW131325   0.492   3.756   2.725 -2.0765 -0.9857  1.8153
 6563SOL    HW231326   0.452   3.825   2.846 -0.0457 -0.7971 -0.5395
 6564SOL     OW31327   3.662   4.556   7.305  0.2615 -0.3437  0.0245
 6564SOL    HW131328   3.743   4.542   7.352  1.0021  1.9070 -0.5486
 6564SOL    HW231329   3.686   4.519   7.220 -0.9123 -0.3656 -0.3049
 6565SOL     OW31330   2.567   3.838   3.089 -0.0246 -0.1790  0.1294
 6565SOL    HW131331   2.608   3.759   3.123 -1.8158 -1.2079 -0.1025
 6565SOL    HW231332   2.643   3.854   3.033  0.7475 -3.7566  0.2016
 6566SOL     OW31333   2.509   1.305   6.659 -0.2210  0.5241  0.5782
 6566SOL    HW131334   2.543   1.259   6.583 -0.5860  2.1589 -0.5782
 6566SOL    HW231335   2.519   1.244   6.733  1.6091 -0.2572 -0.3191
 6567SOL     OW31336   2.146   0.733   0.940 -0.0041 -0.3955  0.0172
 6567SOL    HW131337   2.206   0.799   0.907 -1.6056  0.7148 -0.7031
 6567SOL    HW231338   2.081   0.791   0.979  0.9306  0.7104 -0.0927
 6568SOL     OW31339   1.655   2.664   5.822 -0.4559  0.0683  0.2634
 6568SOL    HW131340   1.708   2.618   5.757  1.6005  1.8623  0.6690
 6568SOL    HW231341   1.673   2.755   5.797 -0.8354  0.8426  2.8511
 6569SOL     OW31342   3.928   3.560   4.899 -0.0092 -0.2269  0.3566
 6569SOL    HW131343   4.016   3.585   4.869 -0.4068  2.3456  1.3853
 6569SOL    HW231344   3.925   3.472   4.860 -0.1518  0.3558 -0.9515
 6570SOL     OW31345   4.007   3.983   3.930 -0.4417 -0.6142  0.2797
 6570SOL    HW131346   3.989   3.965   3.838 -0.7176  0.7350  0.0810
 6570SOL    HW231347   4.039   3.900   3.966  0.4063 -0.9479 -1.2677
 6571SOL     OW31348   4.309   0.628   6.503  0.1434 -0.0957 -0.7020
 6571SOL    HW131349   4.372   0.606   6.435  1.3215 -0.1123  0.4015
 6571SOL    HW231350   4.331   0.717   6.531 -2.1598 -0.1079  1.1498
 6572SOL     OW31351   1.310   0.359   6.410  0.4875  0.0302 -0.3838
 6572SOL    HW131352   1.235   0.353   6.351  0.6155  0.6126 -0.6089
 6572SOL    HW231353   1.361   0.428   6.367  0.5697  0.8097  0.9767
 6573SOL     OW31354   1.356   1.740   2.260  0.2937 -0.6375  0.0160
 6573SOL    HW131355   1.349   1.786   2.177 -0.2420 -1.3840 -0.3476
 6573SOL    HW231356   1.390   1.812   2.314 -0.5848  1.6903 -2.5326
 6574SOL     OW31357   0.965   4.464   3.241 -0.0769 -0.6710  0.4177
 6574SOL    HW131358   0.976   4.373   3.214  1.1333 -0.2533 -0.4991
 6574SOL    HW231359   0.912   4.442   3.318 -2.3248 -0.6382 -1.1251
 6575SOL     OW31360   3.352   2.634   5.913  0.0787  0.2558 -0.6674
 6575SOL    HW131361   3.319   2.546   5.931  0.1127  0.8738  2.4571
 6575SOL    HW231362   3.343   2.665   6.004  1.6504 -0.9285 -0.1092
 6576SOL     OW31363   4.417   4.388   7.975  0.0311  0.7355  0.0315
 6576SOL    HW131364   4.489   4.400   7.913 -1.0027 -0.6117 -1.4201
 6576SOL    HW231365   4.459   4.386   8.061  1.1754 -3.7836 -0.6593
 6577SOL     OW31366   3.618   0.754   1.808 -0.4899 -0.1579  0.2748
 6577SOL    HW131367   3.667   0.769   1.889  1.0119  0.5457 -0.7751
 6577SOL    HW231368   3.580   0.669   1.829  2.2916 -1.2246  0.8643
 6578SOL     OW31369   3.068   3.448   6.427  0.1814 -0.0936 -0.5417
 6578SOL    HW131370   3.059   3.386   6.354  1.3076 -0.5676 -0.2767
 6578SOL    HW231371   2.991   3.423   6.477  0.2214  0.5378 -0.1668
 6579SOL     OW31372   3.183   4.530   4.823 -0.9666  0.2470  0.2579
 6579SOL    HW131373   3.193   4.514   4.917 -3.4728 -0.8454  0.3353
 6579SOL    HW231374   3.087   4.530   4.818 -0.7940 -0.1748 -3.3629
 6580SOL     OW31375   4.135   4.024   2.113 -0.0852 -0.0369  0.2078
 6580SOL    HW131376   4.208   4.060   2.064 -0.5269 -0.0458 -0.4468
 6580SOL    HW231377   4.097   3.959   2.054  0.0645 -1.6235  1.8563
 6581SOL     OW31378   0.878   3.906   4.715  0.0672 -0.5661 -0.5914
 6581SOL    HW131379   0.969   3.928   4.694 -0.3292  0.2731 -1.4153
 6581SOL    HW231380   0.872   3.813   4.692 -1.3091 -0.3318 -1.1967
 6582SOL     OW31381   2.764   2.167   2.565 -0.4210  0.0326 -0.0895
 6582SOL    HW131382   2.717   2.084   2.551 -0.3820 -0.0031 -0.0070
 6582SOL    HW231383   2.785   2.190   2.474 -2.0800  0.0354 -0.4902
 6583SOL     OW31384   2.616   4.290   2.267  0.0332  0.0900  0.3114
 6583SOL    HW131385   2.578   4.269   2.181 -0.1744 -2.2359  0.9755
 6583SOL    HW231386   2.677   4.216   2.270  1.6759  1.3428 -2.3334
 6584SOL     OW31387   3.023   0.375   9.394  0.1398  0.3659 -0.4473
 6584SOL    HW131388   3.041   0.438   9.464 -0.7864  0.3961 -0.2314
 6584SOL    HW231389   2.946   0.334   9.434 -0.2313  1.1663 -0.3437
 6585SOL     OW31390   3.556   4.475  13.632 -0.3125  0.4405 -0.1499
 6585SOL    HW131391   3.598   4.558  13.653  0.4120 -0.2773  1.2303
 6585SOL    HW231392   3.477   4.520  13.602 -2.0241 -1.5531  1.3876
 6586SOL     OW31393   3.979   1.317   7.233  0.1312 -0.2433 -0.2534
 6586SOL    HW131394   4.061   1.347   7.194 -0.4244  0.9620 -0.4664
 6586SOL    HW231395   3.971   1.237   7.180  0.9176 -0.6172  0.1828
 6587SOL     OW31396   1.011   3.377   4.037  0.2812  0.8451  0.1246
 6587SOL    HW131397   0.970   3.453   4.078 -3.1395  0.0588 -1.8516
 6587SOL    HW231398   1.104   3.399   4.042  0.8120 -1.6461  1.1914
 6588SOL     OW31399   0.200   2.815  17.158  0.2147 -0.1710 -0.6563
 6588SOL    HW131400   0.259   2.739  17.158  3.4655  2.3390 -0.2409
 6588SOL    HW231401   0.115   2.772  17.166  0.1785  0.6128  3.5075
 6589SOL     OW31402   4.177   2.330   5.733 -0.2830  0.0246  0.1873
 6589SOL    HW131403   4.119   2.404   5.716 -1.2239 -0.3112  2.0116
 6589SOL    HW231404   4.158   2.316   5.825  0.4116  2.0353  0.6348
 6590SOL     OW31405   3.718   2.849  15.491 -0.6573  0.4590  0.6297
 6590SOL    HW131406   3.777   2.906  15.442 -0.3556 -0.0832  0.3677
 6590SOL    HW231407   3.648   2.826  15.430 -0.0731  0.5820 -0.0848
 6591SOL     OW31408   2.672   3.683   6.476 -0.2137  0.0968  0.1388
 6591SOL    HW131409   2.722   3.755   6.516 -0.8510  0.3158  0.5593
 6591SOL    HW231410   2.628   3.660   6.558  1.8898  0.4977  1.3929
 6592SOL     OW31411   4.239   2.663   3.908  0.2102 -0.2232 -0.0126
 6592SOL    HW131412   4.312   2.708   3.866  0.2798 -1.6169 -1.3982
 6592SOL    HW231413   4.299   2.609   3.960 -1.9430 -2.9074 -0.3352
 6593SOL     OW31414   1.933   1.546   2.330  0.3123  0.3525 -0.1107
 6593SOL    HW131415   1.880   1.586   2.400  0.1586  0.4985 -0.3083
 6593SOL    HW231416   2.011   1.598   2.345  0.3564  0.7468 -1.7142
 6594SOL     OW31417   3.870   1.823   5.417  0.0166  0.0072  0.5307
 6594SOL    HW131418   3.898   1.914   5.416 -0.4719  0.1630  1.2335
 6594SOL    HW231419   3.913   1.798   5.498  0.5007  2.1252  0.9282
 6595SOL     OW31420   1.736   3.467  15.211 -0.6691  0.4641  0.3929
 6595SOL    HW131421   1.706   3.376  15.201 -1.7220  0.7379  1.1080
 6595SOL    HW231422   1.830   3.455  15.225 -0.4295  1.1707 -0.6290
 6596SOL     OW31423   1.240   2.605   7.851 -0.6743  0.1487 -0.3147
 6596SOL    HW131424   1.234   2.579   7.759  0.0848  2.5219 -1.0679
 6596SOL    HW231425   1.218   2.697   7.835 -1.1347  0.2209  0.7678
 6597SOL     OW31426   0.167   1.083   8.995 -0.4319 -0.2632 -0.8700
 6597SOL    HW131427   0.174   1.156   8.934 -1.6730  0.6245  0.0479
 6597SOL    HW231428   0.259   1.063   9.011 -0.3993 -0.0460 -0.7801
 6598SOL     OW31429   0.956   2.968   7.616 -0.3394  0.1977 -0.2321
 6598SOL    HW131430   1.036   2.919   7.596 -0.2766  0.6797 -1.1683
 6598SOL    HW231431   0.893   2.897   7.612 -0.8407  0.5649  1.3478
 6599SOL     OW31432   3.166   2.038   8.250 -0.3695  0.1769  0.1137
 6599SOL    HW131433   3.256   2.047   8.283 -0.3240 -1.3161  0.3821
 6599SOL    HW231434   3.157   1.943   8.258 -1.7611  0.2512 -0.6828
 6600SOL     OW31435   2.046   3.489   5.663  0.2462 -0.6572  0.0214
 6600SOL    HW131436   2.127   3.466   5.708  0.0474  0.5964  1.0173
 6600SOL    HW231437   1.991   3.465   5.738 -1.1868  4.0626  0.4853
 6601SOL     OW31438   2.197   2.710  16.015 -0.4501  0.3170  0.1989
 6601SOL    HW131439   2.268   2.717  15.951  1.1747  1.0537  2.0801
 6601SOL    HW231440   2.218   2.633  16.068 -2.4142  0.4316  1.1431
 6602SOL     OW31441   3.058   1.242   9.687 -0.6273 -0.1074 -0.1563
 6602SOL    HW131442   3.150   1.262   9.673 -0.8495  0.7589 -0.3905
 6602SOL    HW231443   3.065   1.149   9.710 -2.3057  0.3840  2.3902
 6603SOL     OW31444   2.358   4.660  14.111 -0.0467 -0.2293 -0.1734
 6603SOL    HW131445   2.452   4.647  14.102  0.5753  2.4571  2.3518
 6603SOL    HW231446   2.326   4.642  14.023 -0.8947  1.2597 -0.1763
 6604SOL     OW31447   0.138   3.510   6.017  0.2251 -0.3240  0.4966
 6604SOL    HW131448   0.152   3.574   5.947 -0.6911  0.0219  0.6340
 6604SOL    HW231449   0.217   3.521   6.069  1.0937  0.3881 -0.9672
 6605SOL     OW31450   0.083   1.287   2.428 -0.4131  0.0276  0.3885
 6605SOL    HW131451   0.006   1.236   2.451  0.5432 -0.9843  1.3413
 6605SOL    HW231452   0.120   1.244   2.351  1.0409  0.4585  0.8554
 6606SOL     OW31453   3.644   3.267   4.645  0.0924 -0.2495  0.7508
 6606SOL    HW131454   3.662   3.194   4.705  0.7806 -0.3729  0.3969
 6606SOL    HW231455   3.569   3.314   4.681 -1.2752 -0.2592 -2.0842
 6607SOL     OW31456   3.788   1.503   7.030  0.1593 -0.3954 -0.1319
 6607SOL    HW131457   3.829   1.586   7.056  0.0219 -0.3139 -0.1753
 6607SOL    HW231458   3.720   1.543   6.976 -0.0619  0.7063  0.9508
 6608SOL     OW31459   0.091   2.146   0.832 -0.1170 -0.6740  0.0988
 6608SOL    HW131460   0.174   2.158   0.878 -1.4337  0.9748  2.0201
 6608SOL    HW231461   0.111   2.184   0.747 -0.7367  0.2561  0.3681
 6609SOL     OW31462   2.017   0.273  16.603  0.0408 -0.2280  0.5669
 6609SOL    HW131463   2.014   0.266  16.698 -1.1612 -1.7386  0.4175
 6609SOL    HW231464   2.067   0.193  16.583  0.2745  0.4058 -1.4193
 6610SOL     OW31465   4.562   4.141   3.579 -0.8504  0.2653  0.3862
 6610SOL    HW131466   4.496   4.079   3.547 -1.3684  1.9713 -1.8838
 6610SOL    HW231467   4.511   4.204   3.629  0.7080  0.0053  2.3089
 6611SOL     OW31468   2.229   1.784   3.023  0.1638 -0.4220 -0.9124
 6611SOL    HW131469   2.298   1.834   2.980  0.6694 -0.5413 -0.2376
 6611SOL    HW231470   2.269   1.697   3.029 -0.0500 -0.2842  2.8668
 6612SOL     OW31471   3.264   0.593   2.128 -0.0583 -0.0630 -0.1838
 6612SOL    HW131472   3.283   0.552   2.212 -1.1156  0.6939  0.4373
 6612SOL    HW231473   3.203   0.661   2.157 -1.1112 -1.5875  1.1569
 6613SOL     OW31474   3.409   2.752   6.659  0.0672 -0.4359  0.2517
 6613SOL    HW131475   3.486   2.758   6.715  1.7055 -0.6072 -1.9968
 6613SOL    HW231476   3.361   2.681   6.703  0.6316 -0.7643  0.3351
 6614SOL     OW31477   4.689   3.248   5.173  0.4292 -1.0686 -0.5231
 6614SOL    HW131478   0.005   3.191   5.119 -0.2205 -2.1752 -0.0210
 6614SOL    HW231479   0.023   3.296   5.212 -0.0768  0.7064 -1.8056
 6615SOL     OW31480   0.551   1.650   6.806 -0.2462  0.3241 -0.1759
 6615SOL    HW131481   0.622   1.588   6.790  0.0267  0.0530  2.1905
 6615SOL    HW231482   0.609   1.726   6.807  0.5286 -0.3110  1.7187
 6616SOL     OW31483   1.215   0.597  16.440  0.1736  0.4689  0.0981
 6616SOL    HW131484   1.131   0.554  16.422  1.0367 -1.6274  0.9483
 6616SOL    HW231485   1.263   0.571  16.361  1.3154 -1.3527  1.3799
 6617SOL     OW31486   3.353   2.877   8.546 -0.1982  0.1979  0.0930
 6617SOL    HW131487   3.348   2.817   8.472  0.2442  0.5776 -0.2418
 6617SOL    HW231488   3.314   2.819   8.612 -0.7805 -0.0249 -0.4484
 6618SOL     OW31489   4.276   1.838  15.663  0.1255 -0.1743  0.2217
 6618SOL    HW131490   4.365   1.812  15.687 -0.6266 -1.7829  1.2906
 6618SOL    HW231491   4.212   1.774  15.695  0.8561 -0.2550  1.5073
 6619SOL     OW31492   0.302   4.356   4.300 -0.7864 -0.1929  0.0758
 6619SOL    HW131493   0.224   4.384   4.348 -1.9192 -1.3082 -1.1179
 6619SOL    HW231494   0.329   4.284   4.358 -0.9723  1.2547  1.9879
 6620SOL     OW31495   0.717   1.896  10.070 -0.5990  0.5784  0.1015
 6620SOL    HW131496   0.623   1.889  10.050 -0.9057  0.2883  1.6313
 6620SOL    HW231497   0.710   1.975  10.123 -1.5274  0.3802  0.2856
 6621SOL     OW31498   1.705   1.150   5.445  0.3065 -0.4065  0.6015
 6621SOL    HW131499   1.620   1.157   5.401  1.3124 -0.3633 -1.3360
 6621SOL    HW231500   1.714   1.057   5.462  0.0088 -0.7043 -0.8589
 6622SOL     OW31501   2.226   4.428   5.925  0.0732  0.1716 -0.1438
 6622SOL    HW131502   2.168   4.478   5.982 -0.7947 -0.5762 -0.3792
 6622SOL    HW231503   2.232   4.482   5.846 -1.9401  0.2588 -0.2261
 6623SOL     OW31504   1.525   3.151  14.249  0.1016  0.6971 -0.2148
 6623SOL    HW131505   1.574   3.070  14.229 -2.7882 -0.7848 -1.2915
 6623SOL    HW231506   1.483   3.167  14.165  0.7418  1.3286 -0.4148
 6624SOL     OW31507   1.049   2.211   1.639 -0.1334  0.0880  0.6391
 6624SOL    HW131508   1.022   2.218   1.731  0.0156  0.7110  0.6404
 6624SOL    HW231509   1.023   2.123   1.613 -0.0889  0.5165 -0.8663
 6625SOL     OW31510   4.350   2.781   1.871 -0.1967  0.2234  0.4797
 6625SOL    HW131511   4.270   2.747   1.912 -0.1576 -0.3478  0.0875
 6625SOL    HW231512   4.368   2.712   1.808  1.2742  0.5566  0.5380
 6626SOL     OW31513   0.615   0.350   8.849  0.2307  0.4509 -0.8556
 6626SOL    HW131514   0.619   0.434   8.803  0.5591  0.7000 -0.3689
 6626SOL    HW231515   0.686   0.300   8.809 -0.1474 -2.4029  2.1393
 6627SOL     OW31516   2.102   1.558   9.496 -0.5111 -0.3590 -0.5194
 6627SOL    HW131517   2.196   1.571   9.484 -0.4268 -0.2563  0.2267
 6627SOL    HW231518   2.063   1.643   9.475  0.2711 -0.2923 -1.6274
 6628SOL     OW31519   3.656   3.480   9.094 -0.7803  0.0816 -0.1025
 6628SOL    HW131520   3.665   3.495   9.188  1.4447 -1.5195 -0.0785
 6628SOL    HW231521   3.581   3.535   9.072  0.3476  2.1714  1.1718
 6629SOL     OW31522   2.009   0.853   2.420 -0.4981 -0.1957 -0.0577
 6629SOL    HW131523   2.087   0.884   2.466 -1.5272  0.3983  1.2744
 6629SOL    HW231524   2.030   0.762   2.400  0.9577  0.0099  0.5621
 6630SOL     OW31525   2.503   4.591   6.668  0.1412 -0.1685 -0.6521
 6630SOL    HW131526   2.483   4.669   6.720  1.0622 -1.5955  1.8409
 6630SOL    HW231527   2.575   4.618   6.611  0.2733  0.3718 -0.2339
 6631SOL     OW31528   2.839   3.531   1.240  0.2439  0.0906 -0.0317
 6631SOL    HW131529   2.932   3.554   1.235  1.1601 -3.1601  2.2140
 6631SOL    HW231530   2.839   3.501   1.331  3.5627  0.2073  0.0251
 6632SOL     OW31531   1.850   3.807   3.541 -0.1449 -0.2127 -0.4921
 6632SOL    HW131532   1.825   3.883   3.594  2.4730  0.7150 -0.6014
 6632SOL    HW231533   1.934   3.830   3.502 -1.3699  0.0280 -2.9310
 6633SOL     OW31534   1.825   2.653   3.621  0.4207 -0.5613  0.5660
 6633SOL    HW131535   1.840   2.689   3.533  1.6207 -1.8811  0.2427
 6633SOL    HW231536   1.871   2.717   3.675 -0.7534  0.3891  0.4384
 6634SOL     OW31537   3.381   3.347  11.003 -0.3168 -0.2957 -0.2202
 6634SOL    HW131538   3.296   3.374  11.038 -0.1179  0.2831 -0.1849
 6634SOL    HW231539   3.433   3.317  11.078 -0.6103 -0.3250 -0.0315
 6635SOL     OW31540   4.295   0.378   2.816  0.2896  0.0222  0.2299
 6635SOL    HW131541   4.284   0.396   2.723  0.6228 -0.9244  0.0151
 6635SOL    HW231542   4.215   0.420   2.846  1.3438 -0.5919  3.9265
 6636SOL     OW31543   1.494   0.683  17.211 -0.1030  0.0898 -0.2314
 6636SOL    HW131544   1.444   0.726  17.280  0.2843  1.7053 -0.9629
 6636SOL    HW231545   1.441   0.688  17.132 -1.6069 -0.5470  0.7494
 6637SOL     OW31546   2.870   3.262   9.281  0.1890 -0.0437 -0.2799
 6637SOL    HW131547   2.940   3.198   9.299 -0.3994 -0.3084  0.9874
 6637SOL    HW231548   2.818   3.261   9.360  1.5648  0.0235  0.6349
 6638SOL     OW31549   0.406   3.388   1.466  0.2184  0.9872 -0.1119
 6638SOL    HW131550   0.377   3.379   1.556  0.6147 -1.6506 -0.2499
 6638SOL    HW231551   0.379   3.304   1.429 -0.5293  2.2920 -2.5502
 6639SOL     OW31552   0.670   0.902   3.530  0.0829  0.5452 -0.3895
 6639SOL    HW131553   0.615   0.835   3.572  0.0673  1.9436  1.7932
 6639SOL    HW231554   0.733   0.842   3.489  1.0540  0.0580  1.8183
 6640SOL     OW31555   2.986   0.823   3.151 -0.5907  0.3853 -0.2239
 6640SOL    HW131556   2.978   0.911   3.188  2.2372  1.7205 -2.8201
 6640SOL    HW231557   2.942   0.775   3.222  1.7904 -0.0199  1.0053
 6641SOL     OW31558   2.865   1.335   4.005  0.0105 -0.8032  0.2538
 6641SOL    HW131559   2.864   1.338   4.101  1.7787 -3.6075  0.3610
 6641SOL    HW231560   2.919   1.256   3.999 -0.6954 -1.4437  2.3707
 6642SOL     OW31561   2.038   2.649  13.301 -0.0434  0.5620  0.0166
 6642SOL    HW131562   2.105   2.633  13.233 -0.4004 -3.0128  0.4905
 6642SOL    HW231563   2.012   2.739  13.281 -2.1241 -0.0368  0.1168
 6643SOL     OW31564   3.011   0.594   8.084  0.4329  0.1385 -0.6500
 6643SOL    HW131565   2.997   0.685   8.108  3.1040  0.3398  0.0616
 6643SOL    HW231566   3.036   0.602   7.992 -1.8091  0.8565 -1.2162
 6644SOL     OW31567   1.121   1.044   4.608 -0.5484 -0.5262 -0.3694
 6644SOL    HW131568   1.072   0.981   4.660  2.1297 -1.0843  1.4536
 6644SOL    HW231569   1.076   1.024   4.526 -1.2613  1.5838 -0.5036
 6645SOL     OW31570   3.871   2.912   7.449 -0.2224 -0.2781  0.3280
 6645SOL    HW131571   3.850   2.870   7.533 -0.7012 -3.2159 -1.2735
 6645SOL    HW231572   3.796   2.972   7.448 -0.6421 -0.7792  1.3119
 6646SOL     OW31573   2.980   4.527   6.892  0.3913  0.0675  0.3058
 6646SOL    HW131574   2.899   4.493   6.930  0.8629  0.4611  1.6542
 6646SOL    HW231575   3.049   4.508   6.956 -0.7224 -2.8427  0.6459
 6647SOL     OW31576   0.946   1.371  15.274 -0.8767 -0.2323  0.2925
 6647SOL    HW131577   0.999   1.434  15.224  0.3873 -1.7299 -0.2624
 6647SOL    HW231578   1.015   1.307  15.291 -1.4378 -0.9179 -0.0175
 6648SOL     OW31579   3.991   3.189   3.396  0.0610  0.5219  0.1012
 6648SOL    HW131580   4.005   3.283   3.379  0.1726  0.6123  0.7025
 6648SOL    HW231581   3.942   3.203   3.477 -0.7409  3.5492 -0.8769
 6649SOL     OW31582   2.477   3.052   8.235 -0.1980 -0.6275  0.2619
 6649SOL    HW131583   2.482   2.981   8.298 -1.5482 -1.0993 -0.1803
 6649SOL    HW231584   2.544   3.026   8.171  1.0631 -0.8755  1.6775
 6650SOL     OW31585   2.757   0.983   4.069 -0.3201  0.0001  0.0227
 6650SOL    HW131586   2.741   0.905   4.121  0.3453  0.1416  0.4422
 6650SOL    HW231587   2.702   0.972   3.992  0.2053  0.1886 -0.3799
 6651SOL     OW31588   4.446   1.293   0.072  0.1271 -0.0528  0.8928
 6651SOL    HW131589   4.450   1.295   0.168  1.9198 -0.7087  0.8321
 6651SOL    HW231590   4.401   1.376   0.053  0.8067  0.3741  1.1319
 6652SOL     OW31591   0.565   1.306   6.980 -0.0318 -0.5767 -0.0108
 6652SOL    HW131592   0.489   1.279   6.928 -0.5440  0.1360  0.3717
 6652SOL    HW231593   0.545   1.291   7.072  0.6049  0.3110  0.2714
 6653SOL     OW31594   3.243   3.428   5.529 -0.0807  0.6652 -0.0526
 6653SOL    HW131595   3.335   3.450   5.516  0.0096  0.5306  0.3693
 6653SOL    HW231596   3.231   3.369   5.455  1.9020 -0.6434  0.6715
 6654SOL     OW31597   3.119   1.029   3.751 -0.5424 -0.4173  0.4423
 6654SOL    HW131598   3.212   1.016   3.770 -0.3792  1.3502  0.8412
 6654SOL    HW231599   3.096   1.080   3.828  1.2455 -2.4232  2.3102
 6655SOL     OW31600   3.357   2.954   1.348 -1.0226 -0.0016 -0.2450
 6655SOL    HW131601   3.282   2.962   1.406 -1.2928 -2.1898 -0.2929
 6655SOL    HW231602   3.373   2.861   1.360 -2.3344 -0.3072 -0.8984
 6656SOL     OW31603   0.427   2.667   0.561 -0.2258 -0.2870 -0.1245
 6656SOL    HW131604   0.356   2.606   0.539 -0.5690 -0.1337  0.5386
 6656SOL    HW231605   0.387   2.751   0.538  4.4269  1.6999 -0.8454
 6657SOL     OW31606   1.169   1.346  12.821  0.1856 -0.8013 -0.7019
 6657SOL    HW131607   1.149   1.305  12.737  0.3618  1.0270 -1.6475
 6657SOL    HW231608   1.083   1.378  12.851  0.8744 -1.6873  2.2236
 6658SOL     OW31609   1.799   3.299   8.866 -0.0142  0.1805 -0.0241
 6658SOL    HW131610   1.826   3.212   8.896 -1.3387  0.7286  2.7220
 6658SOL    HW231611   1.706   3.293   8.846  0.0423 -0.2930 -0.1593
 6659SOL     OW31612   2.745   4.071   2.257  0.3199  0.1539 -0.1064
 6659SOL    HW131613   2.821   4.012   2.264 -0.5240 -1.0840 -1.5060
 6659SOL    HW231614   2.739   4.075   2.162  0.0470 -1.9465 -0.1762
 6660SOL     OW31615   1.790   1.771   9.501  0.4152 -0.9711  0.3657
 6660SOL    HW131616   1.882   1.776   9.527 -0.0826 -1.6684  2.2158
 6660SOL    HW231617   1.747   1.724   9.572 -0.4147 -0.3234  0.2932
 6661SOL     OW31618   3.226   4.287   7.393 -0.3287 -0.0841 -0.0244
 6661SOL    HW131619   3.298   4.228   7.413  1.7469  1.0500 -4.2991
 6661SOL    HW231620   3.267   4.364   7.431 -0.2923  1.4829 -3.2534
 6662SOL     OW31621   1.716   0.523   2.308 -0.1242 -0.4519 -0.2715
 6662SOL    HW131622   1.621   0.516   2.298 -0.0596 -1.6461 -0.0510
 6662SOL    HW231623   1.733   0.609   2.269 -0.9947  0.2176  0.8543
 6663SOL     OW31624   3.111   1.248   1.906 -0.1668 -0.0056  0.1156
 6663SOL    HW131625   3.100   1.310   1.834  0.4613 -0.2524 -0.1934
 6663SOL    HW231626   3.054   1.289   1.970  0.9007  0.8282  0.5382
 6664SOL     OW31627   3.025   3.127   9.902  0.7800  0.0753  0.1642
 6664SOL    HW131628   3.120   3.142   9.895  0.6681  1.5697  1.8936
 6664SOL    HW231629   3.023   3.031   9.896  0.4258  0.0500  0.7084
 6665SOL     OW31630   1.347   1.960   9.938  0.6199 -0.6399 -0.3348
 6665SOL    HW131631   1.277   2.008   9.981  1.9702  0.1082  1.0221
 6665SOL    HW231632   1.346   1.875   9.982 -0.1066  0.3354  1.5074
 6666SOL     OW31633   4.584   0.637   6.447 -0.2193 -0.0639  0.1570
 6666SOL    HW131634   4.613   0.605   6.362 -1.7194 -0.6057 -0.1635
 6666SOL    HW231635   4.634   0.587   6.511  0.0512 -1.1839 -0.9454
 6667SOL     OW31636   1.593   0.357   7.623  0.2669  0.4936  0.0472
 6667SOL    HW131637   1.637   0.404   7.695  0.2250 -1.0771  1.0868
 6667SOL    HW231638   1.558   0.433   7.577 -1.8403 -0.6269 -0.1682
 6668SOL     OW31639   3.294   1.980   6.818 -0.1635 -0.3985 -0.2634
 6668SOL    HW131640   3.254   2.065   6.837 -0.5340 -0.4710 -0.7038
 6668SOL    HW231641   3.238   1.951   6.746  0.5269  2.9905 -2.1608
 6669SOL     OW31642   2.565   2.763   2.695  0.7258  0.2367  0.3906
 6669SOL    HW131643   2.563   2.757   2.599 -3.2871  1.3915  0.4128
 6669SOL    HW231644   2.551   2.855   2.716 -3.1957 -0.9109  2.7880
 6670SOL     OW31645   1.718   2.726  10.416 -0.5922 -0.6450 -0.2752
 6670SOL    HW131646   1.644   2.750  10.359  0.1317  1.7696 -0.1962
 6670SOL    HW231647   1.763   2.664  10.359 -0.1672 -1.2304  0.7009
 6671SOL     OW31648   1.067   1.476   3.575 -0.1424  0.5274 -0.1479
 6671SOL    HW131649   0.994   1.414   3.576  0.8848 -0.6184  1.6170
 6671SOL    HW231650   1.023   1.558   3.598 -0.4135  0.1329  0.7358
 6672SOL     OW31651   4.062   4.290   2.651  0.6520 -1.2663 -0.1424
 6672SOL    HW131652   4.041   4.219   2.590  0.9158  0.4945 -2.2874
 6672SOL    HW231653   4.131   4.256   2.707  0.4170 -0.6054  0.5354
 6673SOL     OW31654   2.913   4.372   9.878 -0.1542 -0.0733  0.3197
 6673SOL    HW131655   2.836   4.428   9.867  0.2007  0.5477  1.0109
 6673SOL    HW231656   2.900   4.354   9.971  1.9810 -0.8052  0.4779
 6674SOL     OW31657   4.556   4.389   4.480  0.3090  0.0272  0.1287
 6674SOL    HW131658   4.508   4.336   4.416  0.3536 -1.2265  1.1220
 6674SOL    HW231659   4.512   4.375   4.564  0.6178 -0.3755  0.2289
 6675SOL     OW31660   2.547   1.883   8.833  0.4049 -0.3499 -0.2842
 6675SOL    HW131661   2.470   1.939   8.848  1.1487  0.2357  1.4023
 6675SOL    HW231662   2.599   1.909   8.909  2.9186  0.4967 -2.2741
 6676SOL     OW31663   0.532   0.638   2.315 -0.0835  0.1260 -0.5309
 6676SOL    HW131664   0.612   0.615   2.362  1.3169  1.7507 -2.1693
 6676SOL    HW231665   0.518   0.726   2.348  1.1281  0.6020 -1.2973
 6677SOL     OW31666   3.637   0.260   4.741 -0.3701 -0.6302  0.3063
 6677SOL    HW131667   3.643   0.223   4.829  0.1936  3.0677  1.8131
 6677SOL    HW231668   3.670   0.187   4.689 -1.1969 -0.4814 -0.4365
 6678SOL     OW31669   4.644   2.399   5.253 -0.0173 -0.1001  0.7173
 6678SOL    HW131670   4.690   2.366   5.330 -0.3593  0.1382  1.0264
 6678SOL    HW231671   4.709   2.461   5.220  1.1343 -0.6605  1.9143
 6679SOL     OW31672   3.824   3.097   3.621 -0.3430 -0.3120 -0.1591
 6679SOL    HW131673   3.803   3.090   3.714  1.9965  2.0606  0.5334
 6679SOL    HW231674   3.793   3.010   3.595 -0.3350 -0.4755  0.3674
 6680SOL     OW31675   3.051   3.268  12.959  0.2157 -0.4290  0.0929
 6680SOL    HW131676   3.119   3.266  12.892 -1.1054  2.8529 -1.3388
 6680SOL    HW231677   3.011   3.354  12.951 -0.1633 -0.4499  1.7610
 6681SOL     OW31678   3.909   2.529  17.413  0.3226  0.1205 -0.9424
 6681SOL    HW131679   3.859   2.533  17.331  0.2196 -3.1864 -1.0107
 6681SOL    HW231680   3.860   2.453  17.444 -0.3531  1.9075  2.3363
 6682SOL     OW31681   0.656   3.104   1.639 -0.0665  0.2300 -0.0239
 6682SOL    HW131682   0.668   3.015   1.671 -0.1075  0.4131  0.4909
 6682SOL    HW231683   0.582   3.120   1.697  0.3083  1.6354  0.0688
 6683SOL     OW31684   1.024   0.815   3.674  0.4197  0.1714  0.3843
 6683SOL    HW131685   0.980   0.779   3.596  1.2222 -0.7808  0.3672
 6683SOL    HW231686   1.033   0.735   3.726 -0.9950 -0.1188  0.1777
 6684SOL     OW31687   3.149   0.854   4.891 -0.4512  0.2636  0.3522
 6684SOL    HW131688   3.241   0.858   4.862 -0.3845 -0.9238  0.3994
 6684SOL    HW231689   3.121   0.945   4.896  1.8757  1.1445 -2.7726
 6685SOL     OW31690   2.816   3.721   7.773  0.6274 -0.0284  0.1197
 6685SOL    HW131691   2.871   3.699   7.848 -2.4042  0.4890  2.5026
 6685SOL    HW231692   2.760   3.644   7.780 -1.0043  1.1934  0.5275
 6686SOL     OW31693   3.039   0.706   6.438 -0.5199 -0.1192  0.4101
 6686SOL    HW131694   3.044   0.611   6.438  2.3380  0.0564 -3.6661
 6686SOL    HW231695   3.131   0.728   6.450 -0.2096 -0.8942 -0.5999
 6687SOL     OW31696   0.192   3.266  14.867  0.0774 -0.1809  0.2204
 6687SOL    HW131697   0.212   3.326  14.795 -1.5230  2.5160  2.0159
 6687SOL    HW231698   0.115   3.310  14.903  0.0056 -0.5748  0.5540
 6688SOL     OW31699   4.598   2.147  10.746 -0.4931  0.3057  0.3890
 6688SOL    HW131700   4.602   2.059  10.709 -0.3380  1.1903 -1.6695
 6688SOL    HW231701   4.653   2.204  10.693  0.8749 -1.3029  0.0892
 6689SOL     OW31702   0.253   4.395   2.358  0.3299 -0.0307  0.6190
 6689SOL    HW131703   0.172   4.368   2.401 -0.2678  0.8882  0.0737
 6689SOL    HW231704   0.286   4.462   2.419 -2.2589  0.3738  1.5956
 6690SOL     OW31705   1.050   4.579   3.930 -0.3854 -0.1889  0.0904
 6690SOL    HW131706   0.973   4.561   3.876  0.5462  2.1291 -2.0114
 6690SOL    HW231707   1.114   4.610   3.866 -0.5875  1.9501  0.9152
 6691SOL     OW31708   2.473   4.161   7.172 -0.1914 -0.3285  0.1405
 6691SOL    HW131709   2.453   4.074   7.206 -2.9914 -0.8088 -2.7970
 6691SOL    HW231710   2.430   4.225   7.229  0.3849  0.9514 -0.8556
 6692SOL     OW31711   3.441   1.519   5.698  0.3507 -0.0448 -0.5331
 6692SOL    HW131712   3.400   1.492   5.616 -0.0691  2.1641 -1.0477
 6692SOL    HW231713   3.476   1.604   5.672  0.2195  0.3544  0.5997
 6693SOL     OW31714   1.936   1.521  12.022 -0.3997 -0.7567  0.4827
 6693SOL    HW131715   1.932   1.425  12.024 -1.1718 -0.7287  0.4449
 6693SOL    HW231716   2.006   1.544  12.082 -1.7581 -0.8544  2.1163
 6694SOL     OW31717   4.436   0.414   7.821  0.0092 -0.3429 -0.0044
 6694SOL    HW131718   4.425   0.383   7.911 -2.2377 -0.1982 -0.2454
 6694SOL    HW231719   4.479   0.499   7.834 -0.6360  0.5997 -3.9407
 6695SOL     OW31720   1.473   1.990   3.298 -0.2148  0.2568  0.4480
 6695SOL    HW131721   1.557   1.955   3.267 -0.1660  0.5345  0.2551
 6695SOL    HW231722   1.424   1.908   3.299  0.0609  0.0760 -0.5414
 6696SOL     OW31723   2.070   2.544  11.275  0.3676 -0.0397 -0.4401
 6696SOL    HW131724   2.089   2.525  11.184 -2.3055 -1.7923 -0.6460
 6696SOL    HW231725   2.149   2.595  11.289 -0.6217  0.9484  1.6818
 6697SOL     OW31726   1.152   3.412   6.302 -0.3973 -0.4770 -0.5399
 6697SOL    HW131727   1.129   3.323   6.275  0.2431 -0.5225 -0.9227
 6697SOL    HW231728   1.082   3.458   6.256 -1.7228 -1.5012  0.4464
 6698SOL     OW31729   3.239   0.412   1.927  0.0015  0.3343 -0.6099
 6698SOL    HW131730   3.295   0.348   1.971  1.8702  1.1756 -1.7773
 6698SOL    HW231731   3.215   0.473   1.997 -1.5945 -1.3960  0.3752
 6699SOL     OW31732   2.274   4.356   3.915 -0.1893  0.2729  0.3708
 6699SOL    HW131733   2.350   4.367   3.859 -0.3557  2.4042  0.5857
 6699SOL    HW231734   2.247   4.443   3.944 -1.3387  0.1759 -0.3972
 6700SOL     OW31735   1.395   1.236   8.824 -0.2511 -0.0665 -0.1325
 6700SOL    HW131736   1.332   1.298   8.787  2.5298  2.6481 -0.3268
 6700SOL    HW231737   1.433   1.278   8.902 -2.6810  1.4317  0.2609
 6701SOL     OW31738   3.880   1.705  10.315  0.0887 -0.2268 -0.3663
 6701SOL    HW131739   3.908   1.617  10.292  3.0268  0.4683  0.6179
 6701SOL    HW231740   3.855   1.691  10.406  0.6257  1.0162 -0.0255
 6702SOL     OW31741   2.095   4.051   7.195 -0.4589  0.2120  0.1906
 6702SOL    HW131742   2.158   4.010   7.255 -1.3030 -0.3744  0.6959
 6702SOL    HW231743   2.152   4.089   7.128 -0.6891 -0.8648 -0.6341
 6703SOL     OW31744   4.006   2.071   5.356 -0.1052  0.0896  0.1292
 6703SOL    HW131745   3.979   2.128   5.284 -0.8643 -1.4834 -0.8282
 6703SOL    HW231746   4.067   2.004   5.324  1.3193  0.4992  1.9847
 6704SOL     OW31747   3.682   2.131  11.834 -0.0804 -0.2014 -0.3465
 6704SOL    HW131748   3.776   2.148  11.840  0.3992 -1.8026 -3.0913
 6704SOL    HW231749   3.645   2.156  11.918  0.0033 -2.2240  0.2968
 6705SOL     OW31750   0.983   2.058  16.790 -0.2010  0.6444  0.1834
 6705SOL    HW131751   0.961   2.022  16.704 -0.0103 -0.8109  0.7441
 6705SOL    HW231752   1.053   1.999  16.818 -0.0187  0.0188 -1.5516
 6706SOL     OW31753   0.144   2.961   2.587 -0.6999 -0.1433 -0.1671
 6706SOL    HW131754   0.134   2.878   2.634 -0.3356 -0.0798  0.0196
 6706SOL    HW231755   0.164   2.929   2.499 -2.5591  0.3733 -0.7781
 6707SOL     OW31756   1.898   2.816   5.091 -0.4096  0.7545  0.7018
 6707SOL    HW131757   1.856   2.751   5.147 -1.7754  1.0588  0.0555
 6707SOL    HW231758   1.966   2.854   5.146  2.1493 -0.6149 -1.4730
 6708SOL     OW31759   2.791   3.730   9.494 -0.2737 -0.1145  0.7098
 6708SOL    HW131760   2.839   3.812   9.487 -0.5593 -0.0357 -0.3562
 6708SOL    HW231761   2.796   3.704   9.586  2.2454 -0.3212  0.4976
 6709SOL     OW31762   2.443   2.506   3.106  0.3575  0.1783  0.8425
 6709SOL    HW131763   2.388   2.427   3.101 -0.4096  0.7096  0.8267
 6709SOL    HW231764   2.525   2.471   3.140  0.7316 -1.0807 -1.3100
 6710SOL     OW31765   2.769   3.551   8.369  0.4646 -0.3647 -0.1004
 6710SOL    HW131766   2.735   3.542   8.459  0.9011  0.0593  0.1073
 6710SOL    HW231767   2.747   3.466   8.331 -0.7915  0.2604 -0.7635
 6711SOL     OW31768   2.497   2.335   3.871  0.5531  0.3092  0.4555
 6711SOL    HW131769   2.445   2.316   3.792  1.1461 -0.7074  0.3127
 6711SOL    HW231770   2.454   2.284   3.940  0.6448 -1.1478 -0.5700
 6712SOL     OW31771   0.223   1.537   0.989  0.5144 -0.2914 -0.1452
 6712SOL    HW131772   0.148   1.568   1.039 -0.0012  0.4391 -1.3890
 6712SOL    HW231773   0.225   1.571   0.900 -0.3364  0.0406 -0.0314
 6713SOL     OW31774   0.455   0.718  10.892  0.2660  0.0635  0.0794
 6713SOL    HW131775   0.531   0.777  10.893  0.4260 -0.1281 -0.8708
 6713SOL    HW231776   0.443   0.703  10.985  1.0293 -2.1526 -0.1857
 6714SOL     OW31777   3.472   3.665   5.703  0.0458 -0.1619 -0.2878
 6714SOL    HW131778   3.434   3.619   5.628 -0.9507  3.0310 -1.7376
 6714SOL    HW231779   3.530   3.597   5.738  0.0636  0.2494  0.4653
 6715SOL     OW31780   2.864   0.447   4.097 -0.2572  0.4702  0.0087
 6715SOL    HW131781   2.871   0.500   4.177  0.6460  2.0197 -1.1156
 6715SOL    HW231782   2.804   0.378   4.127  1.9087 -0.5337  2.0390
 6716SOL     OW31783   3.258   2.255   7.198 -0.1738 -0.4845 -0.1343
 6716SOL    HW131784   3.235   2.347   7.204 -1.5945 -1.0036  2.3478
 6716SOL    HW231785   3.342   2.265   7.153  0.5780 -1.4716  1.0320
 6717SOL     OW31786   0.217   2.082   9.454  0.1483  0.3236  0.4262
 6717SOL    HW131787   0.220   2.061   9.547  0.9373 -0.2557  0.2689
 6717SOL    HW231788   0.218   2.178   9.450  0.5178  0.2941 -0.2836
 6718SOL     OW31789   3.814   1.008   0.849  0.0691 -0.1812 -0.1143
 6718SOL    HW131790   3.825   1.100   0.871  1.3183  0.0250 -1.5889
 6718SOL    HW231791   3.875   1.001   0.775 -0.1458 -2.7913 -0.0571
 6719SOL     OW31792   1.134   1.419  15.605 -0.5391  0.1474  0.5859
 6719SOL    HW131793   1.218   1.377  15.585 -0.4769 -0.1410  1.4379
 6719SOL    HW231794   1.082   1.340  15.615 -1.0562  0.3131 -0.7590
 6720SOL     OW31795   0.803   1.514   6.798 -0.1305 -0.8848 -0.4221
 6720SOL    HW131796   0.894   1.532   6.823 -0.3439  1.1911 -1.1006
 6720SOL    HW231797   0.781   1.422   6.813 -2.2818 -0.1791  0.7447
 6721SOL     OW31798   3.779   0.877  12.216 -0.7270 -0.0135 -0.0215
 6721SOL    HW131799   3.809   0.849  12.130 -1.7939  0.5423 -0.5810
 6721SOL    HW231800   3.778   0.971  12.199 -0.9149 -0.1832 -0.9126
 6722SOL     OW31801   3.255   3.852   9.871 -0.3080 -0.4807 -0.7017
 6722SOL    HW131802   3.351   3.852   9.868 -0.3747 -3.1233 -2.3591
 6722SOL    HW231803   3.236   3.892   9.956 -1.4783 -0.0012 -1.1879
 6723SOL     OW31804   3.870   1.644   8.195 -0.2507 -0.0571  0.8381
 6723SOL    HW131805   3.881   1.686   8.281 -0.2303  0.5488  0.5395
 6723SOL    HW231806   3.918   1.702   8.136  0.8004 -1.3464  0.4355
 6724SOL     OW31807   2.467   0.978   6.584 -0.2396  0.2709 -0.5791
 6724SOL    HW131808   2.518   0.959   6.663  0.2427  2.9125 -0.2499
 6724SOL    HW231809   2.522   1.029   6.524 -0.5809  3.5569  1.9201
 6725SOL     OW31810   3.994   2.786   2.955  0.2154 -0.1319 -0.3870
 6725SOL    HW131811   4.000   2.846   2.880  2.0995 -0.3080 -0.3923
 6725SOL    HW231812   3.903   2.798   2.979  0.8014  1.7568  0.8554
 6726SOL     OW31813   1.171   3.600   7.368 -0.3310 -0.0173 -0.2062
 6726SOL    HW131814   1.165   3.548   7.288 -3.0406  0.5294 -0.3331
 6726SOL    HW231815   1.267   3.603   7.376 -0.3168  2.2199 -1.1513
 6727SOL     OW31816   3.115   2.742  11.522  0.1181 -0.1470 -0.0823
 6727SOL    HW131817   3.117   2.793  11.603 -0.1564  0.1386 -0.2534
 6727SOL    HW231818   3.073   2.800  11.458 -2.2850 -0.3968  1.2741
 6728SOL     OW31819   2.539   1.004  12.422  0.0613  0.7362 -0.9911
 6728SOL    HW131820   2.563   0.927  12.371  1.8252  3.2968 -4.0113
 6728SOL    HW231821   2.446   0.994  12.445  0.3050  0.7262  0.0222
 6729SOL     OW31822   2.612   0.541  11.844  0.1288  0.3343  0.2948
 6729SOL    HW131823   2.628   0.463  11.898  2.9999  0.5726 -0.2060
 6729SOL    HW231824   2.697   0.585  11.837  0.3022 -0.2539 -1.3626
 6730SOL     OW31825   2.511   3.834  13.835 -0.4032 -0.2994  0.1172
 6730SOL    HW131826   2.479   3.808  13.748 -1.0483  2.8473 -0.5958
 6730SOL    HW231827   2.536   3.925  13.817 -0.9277 -0.0050  0.8757
 6731SOL     OW31828   3.351   4.674  14.209 -0.0635  0.2123  0.0589
 6731SOL    HW131829   3.436   4.631  14.200  0.2277  0.9178 -0.5936
 6731SOL    HW231830   3.374   0.001  14.143  6.2849 -1.4831  0.6846
 6732SOL     OW31831   2.686   1.443   8.793  0.6014 -0.1620 -0.3865
 6732SOL    HW131832   2.741   1.519   8.773 -0.2803  0.6435  0.2338
 6732SOL    HW231833   2.742   1.398   8.856  0.8455  0.5739 -0.0818
 6733SOL     OW31834   2.643   3.690  14.035 -0.4463  0.0484  0.3004
 6733SOL    HW131835   2.668   3.769  14.083 -2.3110  0.2050  1.0246
 6733SOL    HW231836   2.589   3.736  13.971  1.5662  0.2325 -1.2559
 6734SOL     OW31837   2.174   1.101  13.187 -0.0710 -0.1250  0.1803
 6734SOL    HW131838   2.154   1.020  13.140 -0.4061 -0.5119  0.9730
 6734SOL    HW231839   2.190   1.164  13.117 -1.0283  0.5761  0.5994
 6735SOL     OW31840   1.414   1.711   3.272 -0.2828  0.2400  0.5711
 6735SOL    HW131841   1.439   1.663   3.351 -0.0356  2.0675  1.6055
 6735SOL    HW231842   1.467   1.669   3.204 -0.6012 -1.7035  1.5433
 6736SOL     OW31843   0.297   4.201   2.794 -0.4334  0.9362  0.4663
 6736SOL    HW131844   0.290   4.285   2.747 -0.5803  0.7736  0.2005
 6736SOL    HW231845   0.206   4.172   2.797 -1.1733  3.0818 -1.4900
 6737SOL     OW31846   0.741   0.276   5.543  0.1560  0.1008  0.3055
 6737SOL    HW131847   0.691   0.258   5.623 -0.0131 -1.3269 -0.1291
 6737SOL    HW231848   0.724   0.368   5.523  0.5530  0.2099  0.4744
 6738SOL     OW31849   4.001   1.555  11.337  0.4907  0.2090  0.3100
 6738SOL    HW131850   3.994   1.530  11.428 -2.1789 -0.4202 -0.0964
 6738SOL    HW231851   4.065   1.626  11.349  0.3469  0.0882  1.7776
 6739SOL     OW31852   4.201   1.377   2.059  0.4641 -0.1617  0.3500
 6739SOL    HW131853   4.174   1.371   1.968 -0.9395  0.5884  0.7163
 6739SOL    HW231854   4.116   1.389   2.101  1.0564  0.9987  1.2162
 6740SOL     OW31855   2.263   2.628  14.666  0.3466 -0.3719  0.2625
 6740SOL    HW131856   2.301   2.679  14.595 -1.0858  0.4078  0.0655
 6740SOL    HW231857   2.332   2.634  14.732 -0.0050  2.5571  0.3938
 6741SOL     OW31858   3.365   0.659  12.875 -0.1903  0.5085  0.0023
 6741SOL    HW131859   3.422   0.634  12.948 -1.1132 -0.0118  0.5475
 6741SOL    HW231860   3.356   0.754  12.875  2.4867  0.7798  1.5526
 6742SOL     OW31861   1.210   3.675  16.333  0.1864  0.0697  1.2243
 6742SOL    HW131862   1.157   3.634  16.264  2.2546 -1.3085  0.4626
 6742SOL    HW231863   1.273   3.604  16.336  0.2410  0.1595  2.0359
 6743SOL     OW31864   1.601   0.246   1.313  0.7987 -0.7772  0.2329
 6743SOL    HW131865   1.534   0.253   1.381 -0.3680 -0.4438 -0.9555
 6743SOL    HW231866   1.648   0.329   1.322  1.2032 -1.1765  1.9022
 6744SOL     OW31867   3.176   1.518   8.249 -0.1897 -0.2374  0.5220
 6744SOL    HW131868   3.147   1.559   8.330  0.0811  1.8997 -0.4510
 6744SOL    HW231869   3.135   1.576   8.185  1.3135 -0.4168 -0.5959
 6745SOL     OW31870   0.797   0.765  11.213 -0.0991  0.0009  0.0620
 6745SOL    HW131871   0.875   0.745  11.264 -1.3195 -0.1276  1.8712
 6745SOL    HW231872   0.769   0.674  11.201  1.4956 -0.4283 -0.4236
 6746SOL     OW31873   3.805   4.027   7.520  0.0585  0.2673  0.7622
 6746SOL    HW131874   3.731   3.976   7.485 -0.9977  0.4746  2.7019
 6746SOL    HW231875   3.770   4.115   7.508 -1.6168 -0.3439  1.0588
 6747SOL     OW31876   4.470   3.318  13.309 -0.2453 -0.5983 -0.4566
 6747SOL    HW131877   4.390   3.333  13.359  0.3232 -1.3959  0.7069
 6747SOL    HW231878   4.451   3.386  13.245 -2.1095 -0.3429  0.3484
 6748SOL     OW31879   3.150   4.479   7.964  0.0507  0.1286 -0.2761
 6748SOL    HW131880   3.124   4.403   7.912  0.3004  0.7415 -1.2982
 6748SOL    HW231881   3.221   4.511   7.909  2.1834  1.7144  3.4140
 6749SOL     OW31882   0.250   2.404   6.377 -0.4027 -0.7956  0.0642
 6749SOL    HW131883   0.228   2.417   6.469  0.9469  1.1384  0.1191
 6749SOL    HW231884   0.290   2.317   6.379 -0.6247 -0.9518 -2.1869
 6750SOL     OW31885   0.375   3.093   2.390 -0.6356 -0.4226  0.1804
 6750SOL    HW131886   0.425   3.014   2.371 -0.6492  0.0684 -1.9462
 6750SOL    HW231887   0.349   3.073   2.480  0.7234  0.1862  0.7106
 6751SOL     OW31888   0.297   4.206   5.671 -0.1628 -0.1650  0.0750
 6751SOL    HW131889   0.359   4.243   5.608 -0.9345 -1.1891 -1.2640
 6751SOL    HW231890   0.342   4.202   5.756 -0.1908 -1.9554  0.0073
 6752SOL     OW31891   2.158   0.793  14.873 -0.1365  0.6564 -0.4129
 6752SOL    HW131892   2.220   0.865  14.888 -1.7859  1.7145  1.2728
 6752SOL    HW231893   2.207   0.741  14.809 -0.0859 -0.0826  0.2347
 6753SOL     OW31894   3.605   2.628   4.816  0.4944 -0.3137 -0.0353
 6753SOL    HW131895   3.576   2.548   4.772 -1.0701  1.5618 -2.3973
 6753SOL    HW231896   3.591   2.603   4.907 -0.2739  0.0299 -0.0557
 6754SOL     OW31897   0.009   1.675   5.136  0.3299 -0.0129 -0.5340
 6754SOL    HW131898   4.696   1.697   5.059 -0.2191 -0.2744 -0.2438
 6754SOL    HW231899   0.099   1.658   5.109 -0.0362 -1.5386 -0.8239
 6755SOL     OW31900   1.775   2.480   1.936 -0.3045  0.1024  0.7740
 6755SOL    HW131901   1.702   2.537   1.915 -2.0939 -2.3693  0.2645
 6755SOL    HW231902   1.843   2.524   1.885 -0.3878 -1.4763 -0.7023
 6756SOL     OW31903   0.539   3.374  12.716 -0.4170  0.3640 -0.4750
 6756SOL    HW131904   0.601   3.447  12.712  0.5137 -0.3669  0.8135
 6756SOL    HW231905   0.494   3.388  12.632  1.0134  1.0514 -1.1312
 6757SOL     OW31906   2.190   3.641  10.737  0.0003 -0.0826 -0.3284
 6757SOL    HW131907   2.265   3.684  10.696 -1.1023  0.5807 -1.6637
 6757SOL    HW231908   2.231   3.598  10.812 -0.3895 -2.2870 -1.3788
 6758SOL     OW31909   3.805   2.072   0.922 -0.8742  0.2962  0.4526
 6758SOL    HW131910   3.851   2.095   0.841  0.0358 -0.5490  0.7333
 6758SOL    HW231911   3.713   2.050   0.908 -0.8076 -0.1560  0.7442
 6759SOL     OW31912   4.482   1.878  12.251  0.0383  0.1246  0.1591
 6759SOL    HW131913   4.552   1.831  12.298 -0.4332 -0.1924  0.5470
 6759SOL    HW231914   4.442   1.808  12.199 -0.3578 -1.4851  2.6374
 6760SOL     OW31915   1.404   0.042   8.841 -0.3845 -0.2906 -0.0165
 6760SOL    HW131916   1.449   0.098   8.778 -0.3720 -0.1782  0.0935
 6760SOL    HW231917   1.462   0.066   8.914 -1.4258 -1.3042  1.1479
 6761SOL     OW31918   3.564   3.159   7.315  0.3871 -0.1163 -0.0747
 6761SOL    HW131919   3.589   3.224   7.381 -0.5991 -1.5595  1.6926
 6761SOL    HW231920   3.471   3.163   7.334  0.0297 -0.0958 -1.8828
 6762SOL     OW31921   4.537   0.252   6.313 -0.3713  0.4660 -0.8489
 6762SOL    HW131922   4.545   0.203   6.395  1.4254  1.2977 -0.5245
 6762SOL    HW231923   4.609   0.208   6.268 -0.2101  2.1306 -2.2055
 6763SOL     OW31924   2.432   1.549   8.807 -0.2025 -0.2049  0.1239
 6763SOL    HW131925   2.524   1.539   8.784 -0.0128  0.4376  0.6091
 6763SOL    HW231926   2.399   1.479   8.750 -1.4856  0.9045 -0.5041
 6764SOL     OW31927   4.347   0.492   8.417 -0.2553 -0.2337 -0.4949
 6764SOL    HW131928   4.298   0.565   8.377  2.0328  0.5712 -1.8044
 6764SOL    HW231929   4.438   0.519   8.405  0.1338 -1.6140 -0.5777
 6765SOL     OW31930   2.655   3.850   2.518  0.3209 -0.2783  0.3756
 6765SOL    HW131931   2.743   3.860   2.480 -0.3814  0.7201 -0.9935
 6765SOL    HW231932   2.681   3.809   2.601 -1.0084 -1.3726  0.2397
 6766SOL     OW31933   0.503   0.981   6.951 -0.2618 -0.8891  0.1224
 6766SOL    HW131934   0.503   1.010   7.042 -0.5307 -1.7903  0.4119
 6766SOL    HW231935   0.420   1.019   6.921 -0.0543 -0.7237 -0.2451
 6767SOL     OW31936   1.740   4.016  14.488  0.1760 -0.0475 -0.7645
 6767SOL    HW131937   1.832   4.025  14.464  0.0373  3.7893  0.1113
 6767SOL    HW231938   1.750   3.993  14.581  0.1888  0.3098 -0.6769
 6768SOL     OW31939   3.780   1.965  11.288  0.2181 -0.2465  0.2646
 6768SOL    HW131940   3.854   1.909  11.312  1.1167  0.7202 -0.2623
 6768SOL    HW231941   3.817   2.012  11.213 -1.4222  0.3137 -0.1975
 6769SOL     OW31942   1.851   3.282   4.478 -0.4586  0.1205  0.0090
 6769SOL    HW131943   1.848   3.374   4.452 -2.7061 -0.2335 -0.9645
 6769SOL    HW231944   1.942   3.280   4.509 -1.3714 -0.7762  2.6742
 6770SOL     OW31945   0.393   0.811   4.664  0.3696 -0.0188 -0.0569
 6770SOL    HW131946   0.468   0.754   4.680 -0.4150 -0.5215  1.8052
 6770SOL    HW231947   0.329   0.742   4.648 -0.3878  1.2384 -2.4831
 6771SOL     OW31948   2.943   3.277   7.294 -0.0677  0.3369 -0.1039
 6771SOL    HW131949   2.856   3.312   7.274  0.0922 -0.0004 -1.3782
 6771SOL    HW231950   2.986   3.275   7.208 -2.8262 -1.9816 -1.4549
 6772SOL     OW31951   3.347   4.080   6.906 -0.4677 -0.0840  0.1515
 6772SOL    HW131952   3.366   3.986   6.898  0.4538  0.1744 -0.6167
 6772SOL    HW231953   3.254   4.079   6.929 -0.5694  1.3781 -0.2000
 6773SOL     OW31954   0.693   1.844   9.716  0.5607 -0.1683 -0.3105
 6773SOL    HW131955   0.717   1.933   9.690  0.1302 -0.7352 -2.6561
 6773SOL    HW231956   0.649   1.810   9.638  0.0931 -0.0168 -0.1076
 6774SOL     OW31957   0.899   2.557  16.035  0.2606 -0.3551  0.2582
 6774SOL    HW131958   0.905   2.618  16.108  1.1777  0.1415 -0.2331
 6774SOL    HW231959   0.911   2.477  16.086 -2.1594 -1.3713 -0.7407
 6775SOL     OW31960   2.553   4.242   3.309  0.2378 -0.7309  0.5516
 6775SOL    HW131961   2.606   4.275   3.236 -0.4589 -2.0729 -0.5708
 6775SOL    HW231962   2.485   4.184   3.272 -0.0562  0.2488 -0.4233
 6776SOL     OW31963   0.100   1.493   2.595 -0.0707  0.2654 -0.4705
 6776SOL    HW131964   0.091   1.434   2.520 -3.2249  1.1076 -0.7494
 6776SOL    HW231965   0.042   1.566   2.572 -0.0646 -0.2753 -2.1921
 6777SOL     OW31966   4.644   0.275   4.071  0.5706  0.5031 -0.0769
 6777SOL    HW131967   4.578   0.335   4.035 -0.8097  0.4000  2.3027
 6777SOL    HW231968   4.642   0.208   4.002  2.4513 -0.1374  0.4984
 6778SOL     OW31969   3.592   0.536   8.783 -0.8340  0.1142 -0.0391
 6778SOL    HW131970   3.607   0.575   8.869  1.6023 -1.3469  0.2194
 6778SOL    HW231971   3.682   0.527   8.752 -1.3809 -0.1354 -1.5644
 6779SOL     OW31972   3.117   1.739   5.446  0.2616  0.0335 -0.3522
 6779SOL    HW131973   3.066   1.674   5.494  0.4512  3.2018  4.0843
 6779SOL    HW231974   3.072   1.817   5.478 -0.9109 -0.4124 -0.9046
 6780SOL     OW31975   2.370   4.713   9.295 -0.1337 -0.1414 -0.4871
 6780SOL    HW131976   2.339   4.703   9.205  0.0348  2.6455 -0.8750
 6780SOL    HW231977   2.465   4.715   9.286 -0.0320  1.7681  0.9269
 6781SOL     OW31978   0.945   1.685   8.308  0.2465  0.0970 -0.5103
 6781SOL    HW131979   0.853   1.672   8.285  0.8177  0.5476 -3.0578
 6781SOL    HW231980   0.962   1.617   8.373  2.1283  2.0766  1.0583
 6782SOL     OW31981   4.666   0.027   3.203 -0.1996 -0.0668  0.6263
 6782SOL    HW131982   0.020   0.022   3.180 -0.3909 -1.8501  0.2456
 6782SOL    HW231983   4.664   0.121   3.223  0.6330  0.2199 -0.5912
 6783SOL     OW31984   2.585   4.388  13.873 -0.3055 -0.2597  0.2183
 6783SOL    HW131985   2.570   4.464  13.930 -0.3231 -0.5214  0.5621
 6783SOL    HW231986   2.681   4.384  13.868 -0.3040 -0.5169  0.4352
 6784SOL     OW31987   1.276   0.779   7.365  0.0754  0.2825  0.5641
 6784SOL    HW131988   1.189   0.819   7.357 -0.1195 -0.3833 -0.5886
 6784SOL    HW231989   1.303   0.768   7.274  1.1050  0.1322  0.8879
 6785SOL     OW31990   0.086   0.057  15.841  0.1744 -0.2854  0.0281
 6785SOL    HW131991   0.077   0.152  15.832  2.2104  0.0141  1.3169
 6785SOL    HW231992   0.162   0.052  15.898 -1.1972  1.7346  2.0576
 6786SOL     OW31993   1.438   1.057  16.193 -0.2222 -0.0410  0.1546
 6786SOL    HW131994   1.362   1.071  16.250  0.9420  0.0680  1.6768
 6786SOL    HW231995   1.419   1.118  16.121  1.7897  0.5868  0.1777
 6787SOL     OW31996   3.151   0.590   8.828 -0.3093  0.0637  0.2815
 6787SOL    HW131997   3.225   0.598   8.889  0.1761 -0.1158 -0.2904
 6787SOL    HW231998   3.185   0.538   8.756  1.4439 -0.0981  1.2302
 6788SOL     OW31999   1.676   4.553   5.220 -0.7648 -0.4751 -0.1250
 6788SOL    HW132000   1.593   4.509   5.200 -0.0467 -1.3996 -1.0943
 6788SOL    HW232001   1.689   4.530   5.311  0.8452 -0.3432 -0.3309
 6789SOL     OW32002   1.450   3.278   3.124 -0.2167 -0.3764  0.4432
 6789SOL    HW132003   1.449   3.192   3.166 -0.5697 -0.2465  0.6999
 6789SOL    HW232004   1.399   3.254   3.046  1.3491 -1.6733 -0.2029
 6790SOL     OW32005   1.673   2.070   7.398  0.3062 -0.0728  0.4206
 6790SOL    HW132006   1.693   2.001   7.334 -0.6364  0.6875 -0.6881
 6790SOL    HW232007   1.617   2.022   7.459 -2.3147  1.2414 -0.9269
 6791SOL     OW32008   4.505   4.336   3.943 -0.1960 -0.1128  0.5171
 6791SOL    HW132009   4.483   4.422   3.979 -0.5542  0.3767 -0.9090
 6791SOL    HW232010   4.453   4.322   3.864 -2.2463 -0.0224  1.8530
 6792SOL     OW32011   3.591   2.805   2.986 -0.4904  0.5280  0.0473
 6792SOL    HW132012   3.530   2.874   2.961 -1.3688 -0.4577 -0.5840
 6792SOL    HW232013   3.675   2.848   3.001  0.0240 -0.5565  0.2995
 6793SOL     OW32014   3.752   0.852  12.786  1.1691 -0.3951  0.0168
 6793SOL    HW132015   3.696   0.886  12.716 -0.9872 -0.7346  1.5441
 6793SOL    HW232016   3.837   0.851  12.743  1.3546 -0.7623  0.3994
 6794SOL     OW32017   3.083   3.505   6.761 -0.0669  0.4092 -0.0448
 6794SOL    HW132018   3.052   3.450   6.833  3.4041 -0.2132  0.9503
 6794SOL    HW232019   3.046   3.456   6.687  2.2714 -0.1266 -0.8643
 6795SOL     OW32020   1.371   1.160   1.469  0.0224 -0.3055  0.9995
 6795SOL    HW132021   1.398   1.235   1.522 -0.8198  1.4584 -1.0270
 6795SOL    HW232022   1.371   1.091   1.535  2.9092  0.0919  1.4088
 6796SOL     OW32023   3.196   2.185   7.859  0.1869  0.4704 -0.0945
 6796SOL    HW132024   3.189   2.107   7.804 -0.3070 -0.2891  1.0424
 6796SOL    HW232025   3.279   2.218   7.825  0.5780 -0.5037 -0.0753
 6797SOL     OW32026   2.940   0.183   1.063  0.0716 -0.4778  0.1254
 6797SOL    HW132027   3.025   0.140   1.056  0.7466  0.7634  0.7516
 6797SOL    HW232028   2.934   0.181   1.158  0.7150 -1.5339  0.1430
 6798SOL     OW32029   2.363   0.942   1.888 -0.4154 -0.0844 -0.0246
 6798SOL    HW132030   2.434   0.879   1.890 -0.5332 -0.2014  0.6124
 6798SOL    HW232031   2.395   1.009   1.949 -1.2711 -1.2157  1.6535
 6799SOL     OW32032   3.789   0.072   9.909 -0.5837 -0.2496 -0.1710
 6799SOL    HW132033   3.785   4.732   9.962  0.2808 -0.0991  0.1168
 6799SOL    HW232034   3.713   0.054   9.853  0.1484 -1.5986 -0.7310
 6800SOL     OW32035   3.871   3.383   7.108 -0.1203  0.2380 -0.6599
 6800SOL    HW132036   3.858   3.440   7.184  0.3748  0.5248 -0.7911
 6800SOL    HW232037   3.830   3.300   7.133 -0.0554  0.0378 -1.2097
 6801SOL     OW32038   3.022   3.661   2.084  0.0076  0.0440  0.4868
 6801SOL    HW132039   3.008   3.597   2.153  1.0211 -0.6261  0.0707
 6801SOL    HW232040   3.024   3.608   2.005  1.2410  0.6297  0.1252
 6802SOL     OW32041   3.464   2.835   7.578  0.1283 -0.1980  0.0433
 6802SOL    HW132042   3.545   2.885   7.592  0.6169 -0.9952  0.0681
 6802SOL    HW232043   3.457   2.848   7.484 -2.5970 -0.6294  0.1888
 6803SOL     OW32044   2.251   3.504   9.218 -0.4062  0.4881  0.6506
 6803SOL    HW132045   2.235   3.415   9.252 -2.5425  0.8646  0.6659
 6803SOL    HW232046   2.229   3.481   9.128 -1.0910  0.0657  0.9235
 6804SOL     OW32047   2.326   3.354   6.683 -0.6059  0.0640  0.3637
 6804SOL    HW132048   2.257   3.376   6.621 -0.7231 -1.5370 -0.0739
 6804SOL    HW232049   2.386   3.318   6.619  0.3411  0.4773  1.0228
 6805SOL     OW32050   0.585   1.810   4.462 -0.1813 -0.0227  0.3733
 6805SOL    HW132051   0.579   1.737   4.400  1.7798  0.1452 -0.0053
 6805SOL    HW232052   0.490   1.823   4.466 -0.5182 -2.2012 -0.3719
 6806SOL     OW32053   2.158   1.712   6.599  0.7879  0.2386 -0.0777
 6806SOL    HW132054   2.111   1.715   6.682  0.3713 -0.5140 -0.2914
 6806SOL    HW232055   2.245   1.746   6.623  0.6056  1.2681 -0.9287
 6807SOL     OW32056   0.751   0.280   5.111  0.7514 -0.0314  0.1177
 6807SOL    HW132057   0.702   0.208   5.150  2.0938 -0.5887  0.7686
 6807SOL    HW232058   0.824   0.279   5.173  1.1218  0.7047 -0.3115
 6808SOL     OW32059   1.397   0.848   6.398 -0.1814  0.2253 -0.1079
 6808SOL    HW132060   1.358   0.905   6.332 -0.3436  0.7116  0.4176
 6808SOL    HW232061   1.489   0.866   6.379  0.0744  0.1335  1.0652
 6809SOL     OW32062   2.386   4.076   2.280 -0.4377  0.3255 -0.0141
 6809SOL    HW132063   2.447   4.087   2.352 -0.0110 -1.1966 -0.1421
 6809SOL    HW232064   2.373   4.165   2.246 -0.8563  1.3643  2.8583
 6810SOL     OW32065   2.060   3.283   0.693 -0.6050  0.5791  0.1221
 6810SOL    HW132066   2.134   3.222   0.690 -0.8391  0.2281  1.2954
 6810SOL    HW232067   2.029   3.274   0.603 -2.6231 -0.8157  0.9325
 6811SOL     OW32068   2.137   3.308  11.005  0.6335 -0.1316  0.6230
 6811SOL    HW132069   2.077   3.234  11.016  1.6698 -0.9736  0.6093
 6811SOL    HW232070   2.157   3.326  11.097  1.1566  0.5106  0.3900
 6812SOL     OW32071   0.404   3.068   8.376 -0.0556  0.6918 -0.0860
 6812SOL    HW132072   0.488   3.114   8.381  1.3742 -1.9327 -0.3437
 6812SOL    HW232073   0.369   3.092   8.462  1.7383 -3.6888  1.8406
 6813SOL     OW32074   3.225   1.148   5.708 -0.1145  0.0486 -0.3312
 6813SOL    HW132075   3.291   1.088   5.745 -0.6873 -0.0160  0.5785
 6813SOL    HW232076   3.270   1.166   5.626 -0.9773 -0.0779 -0.8283
 6814SOL     OW32077   4.147   3.091   6.545 -0.4474  0.2907 -0.3071
 6814SOL    HW132078   4.068   3.045   6.516 -0.5246  1.0202 -1.2421
 6814SOL    HW232079   4.166   3.162   6.485 -0.3513  1.4044  1.0493
 6815SOL     OW32080   2.443   2.827  10.258  0.2547 -0.4437 -0.1916
 6815SOL    HW132081   2.397   2.903  10.224  1.2285  0.1140 -0.2704
 6815SOL    HW232082   2.396   2.799  10.336 -0.2680 -1.1360 -0.7525
 6816SOL     OW32083   4.430   3.726  11.560 -0.0022  0.2116  0.3948
 6816SOL    HW132084   4.464   3.637  11.548 -1.0798 -0.1731  0.2408
 6816SOL    HW232085   4.369   3.733  11.487  0.4299 -1.9166 -0.1723
 6817SOL     OW32086   0.321   3.370   7.154 -0.6310 -0.0780  0.1521
 6817SOL    HW132087   0.403   3.340   7.194 -0.1170 -0.8347 -1.4707
 6817SOL    HW232088   0.267   3.293   7.173 -2.2773  1.2017  0.6483
 6818SOL     OW32089   1.944   3.921   6.984  0.2210  0.3668 -0.5659
 6818SOL    HW132090   2.022   3.950   7.030 -0.7219  2.2455 -0.1779
 6818SOL    HW232091   1.932   4.012   6.957 -0.9845  0.9329  1.8475
 6819SOL     OW32092   2.722   1.125  10.353 -0.1323 -0.6671  0.3874
 6819SOL    HW132093   2.727   1.200  10.413 -1.1035 -0.2878 -0.0039
 6819SOL    HW232094   2.813   1.100  10.364  0.4448  0.9128 -0.7219
 6820SOL     OW32095   1.284   4.097   6.625  0.3683  0.3542 -0.3246
 6820SOL    HW132096   1.357   4.057   6.577  1.6505  1.5187  0.6486
 6820SOL    HW232097   1.261   4.026   6.684  0.4881  0.3518 -0.2804
 6821SOL     OW32098   4.694   2.221   6.671 -0.2752 -0.4205  0.0042
 6821SOL    HW132099   4.724   2.204   6.582 -0.0002 -3.3061  0.6438
 6821SOL    HW232100   4.623   2.157   6.683  0.3297 -1.3132 -1.1026
 6822SOL     OW32101   2.517   0.360   4.781 -0.1179  0.8888  0.5259
 6822SOL    HW132102   2.451   0.397   4.723 -2.0194 -1.5228  1.1536
 6822SOL    HW232103   2.591   0.364   4.720 -1.1679  1.0935 -0.7343
 6823SOL     OW32104   0.706   2.454  11.172  0.1932  0.1615  0.7442
 6823SOL    HW132105   0.656   2.419  11.099 -0.2774  0.7139  0.7972
 6823SOL    HW232106   0.774   2.496  11.119 -0.8584  1.0416  0.0830
 6824SOL     OW32107   3.479   0.843   4.411 -0.6253 -0.1732 -0.4670
 6824SOL    HW132108   3.413   0.823   4.478  0.6908  1.3895  1.2899
 6824SOL    HW232109   3.470   0.936   4.392  0.0706 -0.3361 -1.6202
 6825SOL     OW32110   3.391   0.890   5.719 -0.5940 -0.3901 -0.2924
 6825SOL    HW132111   3.473   0.875   5.766 -0.1182 -1.0049 -1.3115
 6825SOL    HW232112   3.330   0.830   5.761 -0.7626 -2.0074 -2.8446
 6826SOL     OW32113   0.650   2.346   8.596 -0.2427  0.5891  0.1422
 6826SOL    HW132114   0.662   2.314   8.507 -0.9904  0.1974  0.1769
 6826SOL    HW232115   0.556   2.360   8.605 -0.4000  0.7242 -1.7015
 6827SOL     OW32116   4.527   1.125   6.758  0.2784 -0.4224  0.3310
 6827SOL    HW132117   4.495   1.184   6.690  0.2663  0.0081  0.7098
 6827SOL    HW232118   4.445   1.118   6.807  1.0860  1.8242  2.0555
 6828SOL     OW32119   3.813   4.257   8.912 -0.2079 -0.3338  0.0607
 6828SOL    HW132120   3.749   4.211   8.857 -2.1094 -1.4048  3.2047
 6828SOL    HW232121   3.769   4.341   8.915 -0.5081 -0.4602 -0.8617
 6829SOL     OW32122   3.297   2.888   0.615  0.1287 -0.3936 -0.3108
 6829SOL    HW132123   3.334   2.936   0.689 -0.5539  0.8102 -0.7603
 6829SOL    HW232124   3.280   2.955   0.549  0.0362  0.4038  0.5214
 6830SOL     OW32125   2.235   2.178   2.413  0.1249  0.0698 -0.4293
 6830SOL    HW132126   2.141   2.169   2.398 -0.1202 -0.9041  1.6972
 6830SOL    HW232127   2.255   2.267   2.383 -0.7494  0.7224  0.9500
 6831SOL     OW32128   3.577   3.692   6.332  0.1174 -0.0468 -0.0135
 6831SOL    HW132129   3.567   3.730   6.420 -3.3652  2.7147 -1.5994
 6831SOL    HW232130   3.532   3.608   6.344  1.5210 -0.7782  0.1697
 6832SOL     OW32131   1.933   1.968   2.444 -0.0119  0.2054  1.2892
 6832SOL    HW132132   1.875   1.923   2.382 -0.1018 -0.2285  1.6944
 6832SOL    HW232133   2.014   1.917   2.433 -0.1229  0.1072  0.9161
 6833SOL     OW32134   1.756   0.305   2.997  0.6475  0.0790 -0.3223
 6833SOL    HW132135   1.697   0.378   2.978 -1.0954 -1.0573  0.6857
 6833SOL    HW232136   1.822   0.347   3.052 -0.0074  1.5669 -0.6690
 6834SOL     OW32137   0.204   2.153   8.719 -0.2731 -0.3400 -0.1118
 6834SOL    HW132138   0.222   2.234   8.672  1.7173  0.2327  1.6659
 6834SOL    HW232139   0.280   2.151   8.776  0.2088  0.2183 -0.7373
 6835SOL     OW32140   0.827   1.495  15.789  0.2691  0.6766 -1.1228
 6835SOL    HW132141   0.905   1.504  15.734 -0.9506  2.5567 -2.5520
 6835SOL    HW232142   0.776   1.570  15.758 -0.1689 -0.5148 -3.2948
 6836SOL     OW32143   0.042   2.378   4.183 -0.3915  0.0309  0.5974
 6836SOL    HW132144   0.053   2.309   4.248 -1.9016 -1.2914 -0.5671
 6836SOL    HW232145   0.008   2.443   4.245  2.3538  0.4221  1.6918
 6837SOL     OW32146   2.661   1.727  14.344 -0.3760 -0.0477 -0.2522
 6837SOL    HW132147   2.578   1.752  14.386 -0.4703  0.2946 -0.6342
 6837SOL    HW232148   2.631   1.657  14.286 -1.0170 -0.8283  1.0141
 6838SOL     OW32149   1.824   1.144   2.651 -0.5521 -0.0900  0.6362
 6838SOL    HW132150   1.798   1.057   2.682  1.3562 -1.6663 -2.2199
 6838SOL    HW232151   1.778   1.143   2.567 -2.0509 -0.1876  1.4487
 6839SOL     OW32152   1.700   3.635  11.884  0.5285  0.0429  0.2002
 6839SOL    HW132153   1.707   3.542  11.908  4.2418  0.5428  1.0263
 6839SOL    HW232154   1.735   3.631  11.795 -1.0732  2.8198 -0.5234
 6840SOL     OW32155   1.537   2.281  15.842  0.0463  0.4627 -0.9838
 6840SOL    HW132156   1.587   2.362  15.848  1.9371 -0.8584  0.9222
 6840SOL    HW232157   1.592   2.232  15.782 -0.2092  0.8220 -1.5135
 6841SOL     OW32158   2.265   0.568   5.707  0.4475 -0.3086 -0.6958
 6841SOL    HW132159   2.274   0.661   5.726  2.2208 -0.3364 -1.4039
 6841SOL    HW232160   2.223   0.532   5.785 -0.7327  1.6892 -0.4204
 6842SOL     OW32161   2.384   0.707   3.303  0.1869  0.1646  0.2388
 6842SOL    HW132162   2.370   0.619   3.336  1.6746  0.1644  0.8453
 6842SOL    HW232163   2.313   0.753   3.349 -0.1897  0.2853 -0.4521
 6843SOL     OW32164   0.254   4.149   1.562 -0.1195 -0.7220  0.5282
 6843SOL    HW132165   0.300   4.231   1.545 -0.4260 -0.8754 -1.0795
 6843SOL    HW232166   0.218   4.129   1.476 -0.1659 -0.8183  0.5700
 6844SOL     OW32167   1.225   0.859   1.346  0.1492 -0.1909  0.0369
 6844SOL    HW132168   1.307   0.889   1.306  0.5809 -1.3318  0.0525
 6844SOL    HW232169   1.260   0.851   1.435 -0.6428 -1.0460  0.2749
 6845SOL     OW32170   1.488   1.881  16.920 -0.8966 -0.3879 -0.0545
 6845SOL    HW132171   1.548   1.867  16.994 -2.1929 -0.5157  0.9732
 6845SOL    HW232172   1.404   1.879  16.966 -2.2270  0.4890 -2.4534
 6846SOL     OW32173   2.531   2.449   9.054 -0.2077 -0.2270  0.2124
 6846SOL    HW132174   2.596   2.518   9.069 -1.7777  1.8586 -2.4997
 6846SOL    HW232175   2.448   2.497   9.046 -0.4871 -0.2392  2.9960
 6847SOL     OW32176   3.367   3.518   4.389 -0.2307 -0.9220  0.2320
 6847SOL    HW132177   3.432   3.469   4.339  1.2617  1.2747  0.0135
 6847SOL    HW232178   3.288   3.468   4.368  1.4600 -3.5794  0.2446
 6848SOL     OW32179   3.325   2.351   1.205 -0.0082  0.2011  0.0850
 6848SOL    HW132180   3.347   2.260   1.226  0.7375  0.3455 -0.0652
 6848SOL    HW232181   3.327   2.392   1.292 -0.8867  0.4228  0.0007
 6849SOL     OW32182   0.055   4.666   6.870 -0.8632 -0.4078  0.3686
 6849SOL    HW132183   0.036   4.706   6.785 -0.0359  1.3083  0.9922
 6849SOL    HW232184   0.012   4.583   6.847 -0.1502 -0.4850 -0.7350
 6850SOL     OW32185   2.709   2.641   1.061  0.5775 -0.0179  0.1050
 6850SOL    HW132186   2.703   2.585   1.139 -0.4017 -0.6889 -0.4614
 6850SOL    HW232187   2.635   2.698   1.078  0.3329  0.2460 -1.9122
 6851SOL     OW32188   3.729   2.847   2.377 -0.0194 -0.1349 -0.2077
 6851SOL    HW132189   3.821   2.865   2.395 -0.5375 -0.1037  2.3193
 6851SOL    HW232190   3.693   2.931   2.349  1.3700  1.2052  2.0260
 6852SOL     OW32191   3.562   2.212  12.559  0.6342  0.0443  0.3144
 6852SOL    HW132192   3.570   2.284  12.621 -1.9784  0.5880  0.0203
 6852SOL    HW232193   3.543   2.140  12.620  2.3180 -0.7408 -0.0841
 6853SOL     OW32194   0.290   0.615   1.972 -0.4679 -0.6255 -0.5854
 6853SOL    HW132195   0.372   0.579   2.008  1.4796  1.4814 -2.9249
 6853SOL    HW232196   0.315   0.636   1.882  3.1006 -2.6404 -0.0713
 6854SOL     OW32197   0.861   4.076   5.190  0.3202  0.2433 -0.3146
 6854SOL    HW132198   0.804   4.035   5.256  1.0800 -0.1721  0.0851
 6854SOL    HW232199   0.828   4.028   5.114  1.0614  1.6417 -1.4854
 6855SOL     OW32200   0.576   3.645   4.319  0.3988 -0.6726 -0.3647
 6855SOL    HW132201   0.495   3.643   4.269  0.1661 -0.3607  0.0112
 6855SOL    HW232202   0.595   3.739   4.322  1.8498 -0.9242 -1.4770
 6856SOL     OW32203   3.391   1.958   1.191  0.1085 -0.6657 -0.1345
 6856SOL    HW132204   3.311   1.991   1.150 -0.9151 -3.8562 -0.7481
 6856SOL    HW232205   3.377   2.000   1.276  0.6827  2.0340 -1.3907
 6857SOL     OW32206   2.644   1.841   5.714 -0.1066  0.1139  0.1321
 6857SOL    HW132207   2.613   1.931   5.717  0.3924  0.2170  2.0092
 6857SOL    HW232208   2.737   1.858   5.732  0.2760 -1.7647 -0.0494
 6858SOL     OW32209   1.342   4.377   0.225  0.1638 -0.4750 -0.0992
 6858SOL    HW132210   1.332   4.287   0.193 -1.1466 -0.3247 -0.1135
 6858SOL    HW232211   1.275   4.383   0.293  1.3290 -2.3120  1.1913
 6859SOL     OW32212   1.457   3.974   1.496  0.5097 -0.1711  0.5902
 6859SOL    HW132213   1.445   3.984   1.591 -0.4927  0.9011  0.3441
 6859SOL    HW232214   1.419   3.888   1.475  0.9997 -0.7931  2.2142
 6860SOL     OW32215   3.723   0.215  16.204  0.1436 -0.0249  0.0880
 6860SOL    HW132216   3.751   0.214  16.296  0.7648 -1.1687 -0.1195
 6860SOL    HW232217   3.635   0.253  16.199  0.5553  0.8162 -0.8057
 6861SOL     OW32218   4.580   0.161   1.676 -0.8828  0.0522 -0.0782
 6861SOL    HW132219   4.553   0.248   1.704 -0.4472  0.1173  0.1487
 6861SOL    HW232220   4.545   0.159   1.588 -1.2198  0.9476  0.0364
 6862SOL     OW32221   3.399   0.450   7.544  0.3265  0.5478 -0.3121
 6862SOL    HW132222   3.392   0.518   7.611  1.5191 -0.5833  0.9607
 6862SOL    HW232223   3.311   0.432   7.512  0.1118  0.6641  0.2243
 6863SOL     OW32224   0.349   2.916  14.383 -0.4085  0.8931  0.9789
 6863SOL    HW132225   0.355   2.838  14.437 -0.0711  1.1388  1.2932
 6863SOL    HW232226   0.393   2.884  14.305 -0.2442 -1.1882  1.9248
 6864SOL     OW32227   2.842   2.703  12.385  0.0308  0.3592 -0.2057
 6864SOL    HW132228   2.898   2.738  12.454 -0.8346 -0.8786  1.1333
 6864SOL    HW232229   2.900   2.636  12.346  1.1915  0.0621  2.0410
 6865SOL     OW32230   4.649   1.454   5.569 -0.2797  0.5278  0.1185
 6865SOL    HW132231   4.718   1.419   5.626 -0.7584  2.0748  1.6512
 6865SOL    HW232232   4.564   1.432   5.607 -0.9787  0.8569 -1.2304
 6866SOL     OW32233   1.587   0.656   9.329  0.0707 -0.0920  0.0800
 6866SOL    HW132234   1.661   0.714   9.307 -0.9644 -0.3568 -4.1218
 6866SOL    HW232235   1.576   0.668   9.423  1.6080  0.8242  0.1478
 6867SOL     OW32236   1.327   2.269   3.870 -0.4407 -0.3603  0.3339
 6867SOL    HW132237   1.320   2.275   3.965  1.9923  0.0262  0.4798
 6867SOL    HW232238   1.323   2.175   3.854  3.5566 -0.1924 -1.6636
 6868SOL     OW32239   4.200   1.605  11.829 -0.3770  0.3936  0.1981
 6868SOL    HW132240   4.285   1.567  11.852 -0.5775 -0.0929  0.1348
 6868SOL    HW232241   4.234   1.695  11.827  0.3183  0.1339  0.2872
 6869SOL     OW32242   3.844   2.544   3.179  0.3206 -0.5940 -0.6793
 6869SOL    HW132243   3.805   2.516   3.096  0.8947  1.0129 -1.4913
 6869SOL    HW232244   3.911   2.475   3.181  1.5124  0.5935  0.5706
 6870SOL     OW32245   2.431   0.053   4.795  0.1612  0.0179 -0.3770
 6870SOL    HW132246   2.368   0.118   4.824  0.8191  0.4263  0.1479
 6870SOL    HW232247   2.364   4.727   4.773 -0.3697  0.8337 -1.1322
 6871SOL     OW32248   0.367   4.027   8.290  0.3621  0.2807  0.0195
 6871SOL    HW132249   0.357   4.048   8.197  1.3268  1.8395  0.2756
 6871SOL    HW232250   0.275   4.010   8.310  1.0008 -0.7594  2.1434
 6872SOL     OW32251   1.184   4.392   7.891  0.0486  0.7542  0.5379
 6872SOL    HW132252   1.278   4.402   7.878  0.1249  0.4798  0.8953
 6872SOL    HW232253   1.171   4.370   7.799 -0.7143 -0.2929  0.8909
 6873SOL     OW32254   2.609   1.053   3.088  0.5385 -0.5583 -0.0456
 6873SOL    HW132255   2.642   1.071   3.176  0.3797 -0.7384  0.0493
 6873SOL    HW232256   2.680   1.095   3.038  1.2321 -0.4328  1.0485
 6874SOL     OW32257   3.216   2.749  11.122  0.3154 -0.2523  0.6626
 6874SOL    HW132258   3.214   2.680  11.188  0.7748  0.2481  1.1912
 6874SOL    HW232259   3.258   2.816  11.175 -1.1475  1.4105 -0.2833
 6875SOL     OW32260   3.306   4.057   6.482  0.4109  0.2226 -0.0862
 6875SOL    HW132261   3.364   4.085   6.411 -0.6131 -0.0323 -1.0079
 6875SOL    HW232262   3.223   4.088   6.446  0.9536  1.5924 -0.1636
 6876SOL     OW32263   0.002   2.847   1.783  0.0851 -0.2152 -0.1207
 6876SOL    HW132264   4.703   2.831   1.870 -0.1162 -0.5327 -0.2627
 6876SOL    HW232265   4.679   2.805   1.724  0.9925 -1.9586  0.1639
 6877SOL     OW32266   4.721   2.238   5.762 -0.2546  0.6974 -0.1729
 6877SOL    HW132267   4.728   2.272   5.851  1.6596  1.0144 -0.4434
 6877SOL    HW232268   0.061   2.185   5.755 -1.0135 -0.5465  0.5932
 6878SOL     OW32269   0.405   2.736   0.271 -0.2204  0.6287 -0.0092
 6878SOL    HW132270   0.356   2.706   0.194  0.0671  0.4268 -0.1126
 6878SOL    HW232271   0.357   2.689   0.339 -1.1995  0.1566 -1.0234
 6879SOL     OW32272   0.460   0.555   8.062 -0.4394 -0.4810  0.3218
 6879SOL    HW132273   0.486   0.582   8.150 -0.6080 -3.0190  1.1326
 6879SOL    HW232274   0.424   0.637   8.027  0.6665 -0.5291 -0.9337
 6880SOL     OW32275   2.794   4.459   7.168  0.3379  0.4331  0.1188
 6880SOL    HW132276   2.771   4.472   7.260  1.9326 -1.5961  0.7838
 6880SOL    HW232277   2.785   4.365   7.157  0.1146  0.2099  2.2584
 6881SOL     OW32278   1.587   0.558   4.229  0.2796  0.1509  0.2881
 6881SOL    HW132279   1.639   0.606   4.164 -1.2928  3.9976  1.8514
 6881SOL    HW232280   1.654   0.565   4.297 -1.1246  0.3904  1.6358
 6882SOL     OW32281   4.540   4.171  11.668  0.0297 -0.5341 -0.2499
 6882SOL    HW132282   4.463   4.173  11.612  0.0274 -1.7612 -0.2921
 6882SOL    HW232283   4.587   4.096  11.631 -1.8337 -1.7299 -0.1987
 6883SOL     OW32284   2.409   2.343  15.509 -0.1842 -0.4206 -0.0757
 6883SOL    HW132285   2.446   2.396  15.580 -2.2292 -0.7274  1.2117
 6883SOL    HW232286   2.487   2.300  15.474  0.9144  1.1959  0.3748
 6884SOL     OW32287   0.178   2.620   9.088  0.0184 -0.3035 -0.0804
 6884SOL    HW132288   0.258   2.601   9.137 -0.1963  1.5092  0.9569
 6884SOL    HW232289   0.110   2.624   9.156  0.8535 -0.5709  0.7705
 6885SOL     OW32290   1.935   0.998  11.131 -0.4225  0.1994  0.0260
 6885SOL    HW132291   1.935   0.986  11.226  1.0721 -1.3288 -0.1712
 6885SOL    HW232292   2.013   1.052  11.118  0.1159 -0.3334  1.1100
 6886SOL     OW32293   0.450   2.845  11.908 -0.6137  0.6169 -0.1455
 6886SOL    HW132294   0.397   2.909  11.956  0.7571 -0.3314  2.6207
 6886SOL    HW232295   0.502   2.913  11.866  0.4201 -0.8699 -1.2683
 6887SOL     OW32296   0.693   1.425  15.419  0.2303  0.1800  0.5801
 6887SOL    HW132297   0.700   1.383  15.505  1.0854  0.6886  0.7684
 6887SOL    HW232298   0.783   1.408  15.390  0.2980 -0.0999  0.9466
 6888SOL     OW32299   2.703   2.200   6.619 -0.1396 -0.1941  0.0409
 6888SOL    HW132300   2.609   2.196   6.603  0.3107 -0.6241 -2.6099
 6888SOL    HW232301   2.743   2.249   6.547  3.5461 -1.2347  1.3710
 6889SOL     OW32302   4.686   2.168   8.275  0.1914 -0.2201 -0.5048
 6889SOL    HW132303   4.727   2.163   8.189  1.1865  1.1025 -0.1117
 6889SOL    HW232304   4.595   2.149   8.251 -0.1559  0.0909  0.5742
 6890SOL     OW32305   4.327   3.070   7.019 -0.5724  0.4392  0.2454
 6890SOL    HW132306   4.353   3.089   6.929  2.3199 -3.3482  0.2648
 6890SOL    HW232307   4.331   3.155   7.063 -2.3557  1.2482 -1.1604
 6891SOL     OW32308   4.063   3.386   8.380 -0.2608  0.1879 -0.5428
 6891SOL    HW132309   4.150   3.402   8.416  0.4930 -2.3604 -1.3031
 6891SOL    HW232310   4.092   3.350   8.296 -0.2932 -0.6615 -0.1786
 6892SOL     OW32311   3.012   3.194  15.693 -0.0441  0.1441 -0.3655
 6892SOL    HW132312   2.957   3.243  15.754 -0.8027 -0.4417 -0.5778
 6892SOL    HW232313   3.079   3.162  15.753  1.8102  0.7549 -2.1359
 6893SOL     OW32314   3.717   2.771  10.495 -0.2740  0.0956  0.0292
 6893SOL    HW132315   3.621   2.775  10.492 -0.2347  0.1484 -1.1737
 6893SOL    HW232316   3.741   2.864  10.504 -0.3986 -0.0287  1.6806
 6894SOL     OW32317   4.617   2.734  15.704 -0.1590  0.1405 -0.1089
 6894SOL    HW132318   4.664   2.817  15.710 -0.0298  0.1630 -1.4468
 6894SOL    HW232319   4.691   2.678  15.725 -1.2914 -1.2572  0.1625
 6895SOL     OW32320   0.138   1.141  14.749 -0.0968 -0.0630 -0.0066
 6895SOL    HW132321   0.198   1.161  14.677  1.7019  4.1428  2.6676
 6895SOL    HW232322   0.063   1.177  14.702 -1.1636 -2.2069  0.0502
 6896SOL     OW32323   3.381   1.237   7.507 -0.3457 -0.6370  0.0888
 6896SOL    HW132324   3.379   1.328   7.477  1.7613 -0.7450 -0.3611
 6896SOL    HW232325   3.348   1.192   7.430  0.3806  0.7541 -1.0431
 6897SOL     OW32326   4.661   1.122  14.585  0.7533  0.2491  0.3938
 6897SOL    HW132327   4.621   1.076  14.512  0.0397  2.1482 -0.4060
 6897SOL    HW232328   4.598   1.190  14.612 -0.7665 -0.7869 -0.5784
 6898SOL     OW32329   0.328   2.342   2.167 -0.0666  0.4487 -0.2123
 6898SOL    HW132330   0.299   2.390   2.089 -0.8179 -0.5625 -0.5465
 6898SOL    HW232331   0.423   2.343   2.153  0.2478 -0.7184  1.8967
 6899SOL     OW32332   2.678   0.653   6.612  0.9165 -0.2705 -0.2122
 6899SOL    HW132333   2.601   0.657   6.556  0.9910  0.6009 -0.2527
 6899SOL    HW232334   2.728   0.717   6.562 -0.5173  1.5388  0.6701
 6900SOL     OW32335   1.092   3.359   1.948 -0.0202 -0.4262  0.0652
 6900SOL    HW132336   1.152   3.287   1.966 -0.8764 -0.8228  1.3374
 6900SOL    HW232337   1.029   3.318   1.889  1.4150  0.4077 -2.0511
 6901SOL     OW32338   0.747   3.353   6.189  0.0951 -0.3366  0.4278
 6901SOL    HW132339   0.786   3.440   6.187 -0.4379 -0.1390 -0.8109
 6901SOL    HW232340   0.683   3.355   6.119  1.8378  1.5980 -1.0818
 6902SOL     OW32341   3.413   1.054  11.668 -0.8140  0.4841  0.3628
 6902SOL    HW132342   3.351   1.094  11.728 -2.0072 -1.4705  0.4453
 6902SOL    HW232343   3.377   0.966  11.680 -0.2920  0.2075 -0.0963
 6903SOL     OW32344   2.579   2.629   4.097 -0.0596 -0.2044  0.2321
 6903SOL    HW132345   2.592   2.723   4.111  1.9264 -0.5499  0.6764
 6903SOL    HW232346   2.535   2.603   4.178 -0.3332 -0.7596 -0.0981
 6904SOL     OW32347   4.077   0.636   4.182  0.0267  0.2441 -0.6351
 6904SOL    HW132348   4.026   0.561   4.210  2.3318 -0.6989  0.9777
 6904SOL    HW232349   4.001   0.684   4.149  0.3374  1.1673 -0.0003
 6905SOL     OW32350   4.036   3.758   2.418 -0.0252  0.0675  0.0158
 6905SOL    HW132351   4.089   3.837   2.427 -1.5052  1.0044  0.5171
 6905SOL    HW232352   3.972   3.785   2.351  0.2457  1.6952  0.4061
 6906SOL     OW32353   0.217   3.863   6.821 -0.0218  0.6820 -0.1827
 6906SOL    HW132354   0.264   3.781   6.834  1.6648  1.2853 -2.4525
 6906SOL    HW232355   0.132   3.835   6.786  0.0034 -0.1525  0.4241
 6907SOL     OW32356   1.043   1.637  10.808  0.3693 -0.2250 -0.6177
 6907SOL    HW132357   1.099   1.607  10.879  3.0806  2.2538 -1.7216
 6907SOL    HW232358   1.026   1.548  10.776 -0.1535 -0.2028 -0.4079
 6908SOL     OW32359   2.249   1.200   9.949  0.3730 -0.0250 -0.4597
 6908SOL    HW132360   2.322   1.139   9.962  0.2829 -0.1413 -0.4917
 6908SOL    HW232361   2.289   1.263   9.889 -0.5320  0.3927 -0.6240
 6909SOL     OW32362   2.028   1.748   6.831 -0.1277  0.4874  0.6769
 6909SOL    HW132363   2.013   1.842   6.828  0.4667  0.5039 -1.2342
 6909SOL    HW232364   1.936   1.723   6.824  0.1148  0.1670 -1.3880
 6910SOL     OW32365   1.924   3.330  14.942 -0.3980  0.2502 -0.2943
 6910SOL    HW132366   1.948   3.389  15.013  0.3289  0.2074 -0.5046
 6910SOL    HW232367   1.993   3.351  14.879 -2.1954  0.0802 -2.2971
 6911SOL     OW32368   4.258   2.187   4.546  0.6011 -0.1199  0.1312
 6911SOL    HW132369   4.250   2.130   4.469  0.8629  0.4416 -0.3119
 6911SOL    HW232370   4.221   2.266   4.506 -3.3784 -1.4998  1.1138
 6912SOL     OW32371   3.839   4.633  17.461  0.1302 -0.2415  0.4506
 6912SOL    HW132372   3.751   4.596  17.459 -0.5203  1.3888 -1.6514
 6912SOL    HW232373   3.834   4.676  17.547 -1.0418  0.0108  0.2500
 6913SOL     OW32374   1.975   0.407  11.409  0.2859  0.4977 -0.9646
 6913SOL    HW132375   2.044   0.428  11.472 -1.8647 -0.3528  1.6910
 6913SOL    HW232376   1.998   0.470  11.341  1.1508  0.8942 -0.3072
 6914SOL     OW32377   3.870   4.655   7.594  0.5592  0.1517  0.3621
 6914SOL    HW132378   3.922   4.603   7.533  1.1975  0.0667  0.9718
 6914SOL    HW232379   3.909   0.003   7.583 -1.3365  0.7764 -1.3127
 6915SOL     OW32380   1.866   4.501  10.571  0.1011  0.1640 -0.0660
 6915SOL    HW132381   1.882   4.416  10.613 -1.2764 -1.1670 -2.2193
 6915SOL    HW232382   1.944   4.516  10.518 -1.5444  1.3550 -2.1419
 6916SOL     OW32383   3.188   3.431   3.821 -1.2707 -0.2271  0.2772
 6916SOL    HW132384   3.262   3.490   3.838 -0.2578 -1.6829  0.8762
 6916SOL    HW232385   3.121   3.493   3.847 -0.1218  1.3091 -0.3806
 6917SOL     OW32386   3.711   1.821  13.534 -0.6193 -0.2862 -0.1423
 6917SOL    HW132387   3.775   1.889  13.555  1.0945 -1.3821 -1.8196
 6917SOL    HW232388   3.763   1.742  13.525 -1.7126 -0.9754 -0.4085
 6918SOL     OW32389   4.325   4.284   3.727 -0.4648 -0.4145  0.2290
 6918SOL    HW132390   4.232   4.305   3.724 -0.9333 -2.5762 -0.5849
 6918SOL    HW232391   4.315   4.198   3.769 -0.1669 -1.0175 -0.9264
 6919SOL     OW32392   2.970   0.895  10.712  0.5475 -0.2419  0.3533
 6919SOL    HW132393   2.951   0.873  10.803  0.7683 -0.1759  0.4146
 6919SOL    HW232394   3.005   0.983  10.723  0.1597  0.0357 -0.6517
 6920SOL     OW32395   3.285   3.555   6.551  0.1961  0.0576 -0.3137
 6920SOL    HW132396   3.205   3.526   6.507 -0.7482  0.4448  1.1833
 6920SOL    HW232397   3.251   3.563   6.640  2.8205  1.3309  0.5868
 6921SOL     OW32398   4.311   4.650  14.946  0.1244 -0.0002  0.2765
 6921SOL    HW132399   4.388   4.707  14.944  0.1730 -0.0307  1.2216
 6921SOL    HW232400   4.351   4.572  14.986  0.3078 -0.3973 -0.6797
 6922SOL     OW32401   1.868   2.175   1.547 -0.1449  0.1035  0.1287
 6922SOL    HW132402   1.801   2.229   1.589 -0.3970 -0.5650  0.5792
 6922SOL    HW232403   1.929   2.249   1.548 -0.1589  0.0654  4.2673
 6923SOL     OW32404   4.528   3.655  15.820  0.5797  0.2925 -0.4663
 6923SOL    HW132405   4.607   3.641  15.872  0.2928  0.8626  0.1140
 6923SOL    HW232406   4.491   3.567  15.813  0.8257  0.2145 -0.8548
 6924SOL     OW32407   4.452   0.262   7.589 -0.3861  0.7598 -0.0716
 6924SOL    HW132408   4.450   0.190   7.652  0.2988  0.9176  0.1302
 6924SOL    HW232409   4.438   0.333   7.651 -3.2595  1.2229 -1.2785
 6925SOL     OW32410   2.331   2.407  15.078  0.1914 -0.5266 -0.3843
 6925SOL    HW132411   2.384   2.395  15.000 -0.0637 -2.1155 -0.2984
 6925SOL    HW232412   2.385   2.459  15.138 -2.1081 -1.4075  2.4616
 6926SOL     OW32413   2.202   2.256   2.907 -0.0581 -0.0885  0.4115
 6926SOL    HW132414   2.160   2.192   2.965  0.0952  0.3035  0.9543
 6926SOL    HW232415   2.166   2.327   2.960  2.2641  0.3870  1.3391
 6927SOL     OW32416   1.681   0.131   9.814 -0.3173 -0.3928 -0.2294
 6927SOL    HW132417   1.717   0.068   9.752  1.3344 -1.3293  1.7058
 6927SOL    HW232418   1.722   0.217   9.800 -1.4734  0.1711 -0.1271
 6928SOL     OW32419   2.105   2.344   9.038 -0.1898  0.7218 -0.0411
 6928SOL    HW132420   2.060   2.264   9.013  0.0446  0.8874 -0.9714
 6928SOL    HW232421   2.082   2.364   9.129  1.5269  3.5653 -0.2253
 6929SOL     OW32422   4.436   4.018  16.376  0.5733 -0.5095 -0.7740
 6929SOL    HW132423   4.525   4.051  16.392 -0.1450  1.2464 -0.4040
 6929SOL    HW232424   4.384   4.085  16.420  0.3175 -0.7716 -0.6781
 6930SOL     OW32425   2.264   2.454   2.349 -0.2640 -0.3872  0.2808
 6930SOL    HW132426   2.180   2.490   2.319 -0.9458 -0.6515  1.8506
 6930SOL    HW232427   2.320   2.519   2.309 -2.3869  3.3658  3.3903
 6931SOL     OW32428   2.531   1.932   6.906  0.4259 -0.2610  0.0417
 6931SOL    HW132429   2.610   1.958   6.858 -0.5774 -1.9990 -2.5741
 6931SOL    HW232430   2.527   1.979   6.989 -1.1444 -0.1294 -0.1240
 6932SOL     OW32431   0.451   3.629   7.889  0.2597  0.3193  0.3797
 6932SOL    HW132432   0.427   3.571   7.962 -0.4274  0.2596  0.1088
 6932SOL    HW232433   0.513   3.690   7.929  1.0870  0.5919 -1.3076
 6933SOL     OW32434   2.571   4.367   4.004 -0.1146  0.3540 -0.8989
 6933SOL    HW132435   2.555   4.432   3.935 -0.0778  1.2374 -0.0603
 6933SOL    HW232436   2.660   4.386   4.033  0.1748 -0.4411 -1.2655
 6934SOL     OW32437   3.397   2.072  12.983  0.2219  0.3141 -0.4860
 6934SOL    HW132438   3.416   2.011  12.912 -2.0595  0.0496 -0.8882
 6934SOL    HW232439   3.336   2.130  12.938  1.2554  0.5403 -1.5746
 6935SOL     OW32440   3.358   4.022   1.686 -0.9542  0.3645 -0.0458
 6935SOL    HW132441   3.350   3.939   1.640 -1.1036  0.1402  0.3784
 6935SOL    HW232442   3.281   4.020   1.742 -0.6271  1.2672  0.4442
 6936SOL     OW32443   2.741   0.793  15.320  0.4569 -0.4731 -0.0444
 6936SOL    HW132444   2.670   0.839  15.276  0.5006 -1.9654 -1.6876
 6936SOL    HW232445   2.821   0.806  15.270  0.3395  2.0511  0.4578
 6937SOL     OW32446   0.068   4.078  11.823 -0.3011 -0.5677 -0.4896
 6937SOL    HW132447   0.014   4.012  11.779  0.1055 -0.8206 -0.6142
 6937SOL    HW232448   0.135   4.103  11.760  0.5024 -0.3063  0.4720
 6938SOL     OW32449   4.650   1.293   8.809  0.3681 -0.1406  0.1794
 6938SOL    HW132450   4.734   1.311   8.850  0.0983  0.2874  0.5476
 6938SOL    HW232451   4.658   1.366   8.749  0.2017  0.3734  0.7801
 6939SOL     OW32452   2.020   1.520   9.815 -0.1233 -0.0969  0.3660
 6939SOL    HW132453   2.095   1.569   9.849  0.1174 -0.3597  0.2167
 6939SOL    HW232454   1.952   1.583   9.837 -1.1393 -0.9164 -0.3909
 6940SOL     OW32455   1.018   3.708  13.038  0.1566  0.1391  0.0111
 6940SOL    HW132456   1.079   3.763  13.087  0.2752  0.4910 -0.5291
 6940SOL    HW232457   0.933   3.747  13.058  0.6707  0.6246  1.2235
 6941SOL     OW32458   1.821   2.508   5.657 -0.4620  0.3024  0.0717
 6941SOL    HW132459   1.772   2.531   5.579  1.6611 -0.7416 -1.5642
 6941SOL    HW232460   1.909   2.541   5.637 -1.4284  2.0779 -1.2065
 6942SOL     OW32461   2.260   2.102  15.585  0.0708 -0.1833 -0.3061
 6942SOL    HW132462   2.316   2.172  15.553  1.4510 -0.1417  2.1841
 6942SOL    HW232463   2.242   2.138  15.672 -1.0278  0.2541 -0.7122
 6943SOL     OW32464   3.313   0.714  11.187  0.2202  0.2796 -0.0335
 6943SOL    HW132465   3.297   0.796  11.141  2.0806  0.8496  0.3535
 6943SOL    HW232466   3.400   0.739  11.217 -0.3132 -0.0835  1.8215
 6944SOL     OW32467   2.552   1.158   4.201 -0.1772  0.0734  0.1264
 6944SOL    HW132468   2.568   1.223   4.132  1.7735 -1.1253 -0.5374
 6944SOL    HW232469   2.626   1.101   4.182  0.3146 -0.1605  2.8717
 6945SOL     OW32470   2.438   4.052   3.008  0.1860 -0.3083 -0.0787
 6945SOL    HW132471   2.484   3.973   3.037 -1.2288 -0.4988  1.6730
 6945SOL    HW232472   2.367   4.015   2.957 -1.4627  1.4342  0.9601
 6946SOL     OW32473   4.451   1.662   5.436  0.3509  0.0959  0.0711
 6946SOL    HW132474   4.428   1.663   5.529 -0.2619 -0.5368 -0.0785
 6946SOL    HW232475   4.528   1.607   5.453 -0.0788 -0.6656 -0.4397
 6947SOL     OW32476   3.896   2.003   8.640  0.0459  0.2519 -0.5657
 6947SOL    HW132477   3.849   1.952   8.706 -0.3394  2.3983  0.8259
 6947SOL    HW232478   3.959   2.048   8.697  0.7910  0.4884 -1.5753
 6948SOL     OW32479   3.799   0.355   1.650 -0.4089  0.1299  0.3849
 6948SOL    HW132480   3.777   0.268   1.617  0.9722  0.1270 -0.5317
 6948SOL    HW232481   3.797   0.344   1.745  0.6125  0.1360  0.4105
 6949SOL     OW32482   3.012   4.309   5.713  0.3248  0.0329  0.1943
 6949SOL    HW132483   2.988   4.220   5.737 -1.3345  0.5217  0.3452
 6949SOL    HW232484   3.104   4.299   5.687  0.6930 -1.0070  1.9274
 6950SOL     OW32485   1.421   0.381   6.010  0.0696 -0.3544  0.6390
 6950SOL    HW132486   1.474   0.329   5.950 -1.7864 -0.7110 -0.6663
 6950SOL    HW232487   1.441   0.470   5.982  0.8527 -0.6608  0.2344
 6951SOL     OW32488   3.502   1.950  16.351 -0.2771  0.3230 -0.1251
 6951SOL    HW132489   3.452   1.913  16.278  2.1654  0.7132 -1.9795
 6951SOL    HW232490   3.517   1.873  16.407  0.5288  0.0574 -0.7105
 6952SOL     OW32491   1.645   1.923  11.734  0.2391  0.2147  0.1711
 6952SOL    HW132492   1.624   2.015  11.719  0.6410  0.2615 -0.0947
 6952SOL    HW232493   1.593   1.876  11.669 -0.8442  1.9245 -0.1848
 6953SOL     OW32494   3.362   0.716   8.165 -0.2423  0.4019 -0.5262
 6953SOL    HW132495   3.440   0.768   8.148 -0.3466  1.1213  1.1812
 6953SOL    HW232496   3.332   0.755   8.248 -2.7464 -3.3695  0.3401
 6954SOL     OW32497   3.027   0.292  17.652  0.6628  0.3532 -0.2962
 6954SOL    HW132498   3.043   0.375  17.697 -1.1595 -1.1220  3.0884
 6954SOL    HW232499   2.933   0.299  17.636 -0.0474 -4.3327  1.7716
 6955SOL     OW32500   1.088   4.634   1.744 -0.1012 -0.0016  0.1480
 6955SOL    HW132501   1.164   4.638   1.685 -1.4587 -0.9420 -1.6460
 6955SOL    HW232502   1.023   4.682   1.692  1.9282  1.8776 -0.6697
 6956SOL     OW32503   0.861   0.751   1.840 -0.1543  0.2291  0.4632
 6956SOL    HW132504   0.869   0.676   1.898  0.2134  1.4169  1.9528
 6956SOL    HW232505   0.892   0.832   1.881  1.2841 -0.1968  0.2227
 6957SOL     OW32506   3.974   3.652   7.459  0.1632 -0.8366  0.6123
 6957SOL    HW132507   4.013   3.599   7.529 -0.2808 -1.3898  0.4387
 6957SOL    HW232508   4.055   3.691   7.426 -0.3945  0.5340  0.8988
 6958SOL     OW32509   2.564   0.763   0.719 -0.7024  0.0033  0.3925
 6958SOL    HW132510   2.577   0.696   0.786  1.3346 -1.4079 -1.4260
 6958SOL    HW232511   2.624   0.730   0.652 -2.1980 -0.7173 -0.5991
 6959SOL     OW32512   3.913   4.355   5.109  0.2933 -0.4969 -0.2336
 6959SOL    HW132513   3.830   4.395   5.085 -0.1870 -0.0172  2.3095
 6959SOL    HW232514   3.969   4.423   5.072 -0.3285  0.7779  1.2047
 6960SOL     OW32515   4.353   1.304  14.387  0.0868  0.1334  0.5451
 6960SOL    HW132516   4.279   1.361  14.365 -1.9117 -2.5626  0.2239
 6960SOL    HW232517   4.352   1.289  14.481  0.2251 -0.1819  0.4977
 6961SOL     OW32518   4.737   3.239   8.128 -0.0357  0.0399  0.5492
 6961SOL    HW132519   4.695   3.183   8.193  0.1085 -1.3941 -0.5925
 6961SOL    HW232520   0.090   3.211   8.133  0.0316 -0.1742 -1.7624
 6962SOL     OW32521   0.831   3.248  13.243  0.1054  0.0526 -0.0984
 6962SOL    HW132522   0.793   3.253  13.156  3.2769 -3.0512 -1.6911
 6962SOL    HW232523   0.864   3.337  13.258  0.2371 -0.4224  2.5771
 6963SOL     OW32524   3.097   1.735   2.201 -0.0347 -0.0389  0.6922
 6963SOL    HW132525   3.166   1.699   2.257 -1.9421 -1.8823  1.8517
 6963SOL    HW232526   3.142   1.777   2.127  0.0987  2.0363  1.9400
 6964SOL     OW32527   1.248   1.768  10.471  0.2358 -0.1533  0.4327
 6964SOL    HW132528   1.193   1.823  10.526 -0.4224 -0.2619 -0.1215
 6964SOL    HW232529   1.181   1.712  10.433  0.0984 -0.2798  0.8718
 6965SOL     OW32530   0.520   0.457   6.191  0.2802 -0.5085  0.0854
 6965SOL    HW132531   0.601   0.473   6.142 -0.4731  2.1602 -0.2744
 6965SOL    HW232532   0.451   0.500   6.140  0.1115  0.3574  1.0575
 6966SOL     OW32533   2.032   1.378   3.883  0.0423  0.0033 -0.0760
 6966SOL    HW132534   1.999   1.463   3.853 -0.8285  0.0678  1.0668
 6966SOL    HW232535   2.082   1.416   3.955  0.2353 -0.0704 -0.1692
 6967SOL     OW32536   3.125   3.660   8.744  0.4476 -0.2543 -0.2013
 6967SOL    HW132537   3.062   3.589   8.757  0.9873 -0.4480  1.3369
 6967SOL    HW232538   3.062   3.730   8.725  1.2811 -0.2017 -2.7450
 6968SOL     OW32539   1.818   0.771   0.365 -0.2195 -0.2784 -0.2641
 6968SOL    HW132540   1.725   0.749   0.369 -1.1363  3.4494 -1.5659
 6968SOL    HW232541   1.860   0.696   0.323  0.1126 -0.2061 -0.0694
 6969SOL     OW32542   2.908   3.768   3.428 -0.0487 -0.5160  0.5016
 6969SOL    HW132543   2.951   3.699   3.478  0.3092 -2.5441 -2.5925
 6969SOL    HW232544   2.921   3.733   3.339 -3.1054  0.2554 -0.2377
 6970SOL     OW32545   3.588   0.847   4.698 -0.4614 -0.0614 -0.0155
 6970SOL    HW132546   3.545   0.874   4.779  1.0075  1.4919  0.2587
 6970SOL    HW232547   3.513   0.805   4.657 -0.8363  0.2755  0.3288
 6971SOL     OW32548   0.677   1.670   5.714  0.4151  0.5917  0.3160
 6971SOL    HW132549   0.762   1.703   5.685  0.9067  0.6814  1.8959
 6971SOL    HW232550   0.628   1.706   5.640 -1.2909  0.8983  1.6069
 6972SOL     OW32551   0.960   2.198  13.527 -0.0319 -0.0234 -0.6197
 6972SOL    HW132552   1.008   2.217  13.447 -0.2915  0.1477 -0.7349
 6972SOL    HW232553   1.020   2.143  13.578 -1.3137 -0.3874  0.4826
 6973SOL     OW32554   0.568   0.659  17.092  0.3458 -0.1936  0.6612
 6973SOL    HW132555   0.500   0.596  17.119 -0.3427  0.6145  0.8338
 6973SOL    HW232556   0.607   0.600  17.029 -2.8283 -0.1530 -1.3709
 6974SOL     OW32557   3.287   2.436   2.330  0.4531 -0.2923 -0.0017
 6974SOL    HW132558   3.360   2.495   2.349 -0.1897  0.5008  0.0054
 6974SOL    HW232559   3.292   2.366   2.395  0.1496  0.8174  1.1999
 6975SOL     OW32560   3.009   3.171   1.825  0.1268 -0.5881  0.0340
 6975SOL    HW132561   2.919   3.195   1.804 -0.2702 -1.8468  0.2454
 6975SOL    HW232562   3.015   3.075   1.822  0.7439 -0.4876 -2.4385
 6976SOL     OW32563   4.383   3.544   0.204 -0.4539 -0.3805  0.2200
 6976SOL    HW132564   4.386   3.464   0.150 -1.5154 -2.3183  3.0489
 6976SOL    HW232565   4.455   3.530   0.266  0.2840  0.2598 -0.4843
 6977SOL     OW32566   1.726   2.002   1.796  0.1385  0.0200  0.1632
 6977SOL    HW132567   1.639   2.023   1.761  0.5498 -0.0963 -0.9423
 6977SOL    HW232568   1.756   2.088   1.824  1.8086 -0.6302  0.3566
 6978SOL     OW32569   4.586   2.463   6.750  0.4789 -0.1360  0.2666
 6978SOL    HW132570   4.646   2.467   6.825 -0.8903 -0.4041  1.3866
 6978SOL    HW232571   4.623   2.381   6.718  0.6161  0.5001 -1.2070
 6979SOL     OW32572   1.974   2.233   2.604  0.6115  0.1373  0.4434
 6979SOL    HW132573   2.068   2.219   2.601  0.6867  0.8104 -0.1910
 6979SOL    HW232574   1.945   2.162   2.662 -2.0874  1.0676  0.2439
 6980SOL     OW32575   0.565   2.572  15.365 -0.4658  0.0778 -0.2340
 6980SOL    HW132576   0.589   2.547  15.454 -1.3967 -1.9080 -0.5482
 6980SOL    HW232577   0.550   2.482  15.336 -1.2866  0.3170 -0.5476
 6981SOL     OW32578   4.639   2.130   9.577  0.7116  0.1505  0.5225
 6981SOL    HW132579   4.548   2.160   9.566  0.5120 -0.7126 -0.1995
 6981SOL    HW232580   4.646   2.071   9.501  3.5191  0.7277  0.3295
 6982SOL     OW32581   2.504   0.985   9.296  0.3831 -0.2934  0.1319
 6982SOL    HW132582   2.426   1.039   9.286  0.5373  0.0220  0.6117
 6982SOL    HW232583   2.466   0.915   9.350  2.0680 -0.5341  1.0274
 6983SOL     OW32584   1.768   3.992   1.274  0.7220  0.2146  0.2861
 6983SOL    HW132585   1.782   4.037   1.358  0.1956  1.8393 -0.4917
 6983SOL    HW232586   1.673   3.988   1.282  0.7961  1.0815  1.6397
 6984SOL     OW32587   3.154   4.333   8.666  0.1314  0.1487  0.9384
 6984SOL    HW132588   3.076   4.278   8.657  0.8665 -1.0246  1.6152
 6984SOL    HW232589   3.198   4.312   8.584  1.3334 -1.8016  2.0500
 6985SOL     OW32590   4.047   1.035   7.924  0.3444 -0.2002 -0.5446
 6985SOL    HW132591   4.051   1.128   7.948  0.3570 -0.6823  1.3296
 6985SOL    HW232592   4.138   1.022   7.896  0.3160 -1.1381 -0.1870
 6986SOL     OW32593   3.003   3.823  11.166 -0.0389 -0.2732 -0.3339
 6986SOL    HW132594   3.037   3.904  11.203  0.6545 -1.5152  1.7333
 6986SOL    HW232595   3.060   3.757  11.205  2.3436  0.8008 -2.0586
 6987SOL     OW32596   0.761   1.445  10.599  0.1028  0.6119 -0.3520
 6987SOL    HW132597   0.757   1.423  10.692  2.5182  0.8019 -0.2061
 6987SOL    HW232598   0.803   1.374  10.551  0.0776  0.3779 -0.0273
 6988SOL     OW32599   1.565   4.488  12.730  0.2542  0.7973  0.0986
 6988SOL    HW132600   1.477   4.452  12.741  0.5050 -0.8501 -3.1988
 6988SOL    HW232601   1.547   4.581  12.740 -1.4628  0.4907 -0.2062
 6989SOL     OW32602   2.237   0.172  11.565  0.0142  0.8860 -0.0782
 6989SOL    HW132603   2.285   0.250  11.593 -0.0538  0.6268  0.7597
 6989SOL    HW232604   2.229   0.121  11.645  0.2715 -0.6059 -0.9981
 6990SOL     OW32605   2.341   0.619   9.042 -0.2510  0.4670  0.5734
 6990SOL    HW132606   2.385   0.613   9.127  2.9228  3.5686 -0.8738
 6990SOL    HW232607   2.282   0.693   9.057 -1.2898 -0.3261  0.4726
 6991SOL     OW32608   1.706   3.003   7.232 -0.1915  0.1591  0.3515
 6991SOL    HW132609   1.685   3.095   7.250  0.1042  0.2397  0.2802
 6991SOL    HW232610   1.623   2.956   7.239  0.1112 -0.4763 -0.3313
 6992SOL     OW32611   0.028   2.622   9.718  0.6529  0.0562  0.1348
 6992SOL    HW132612   0.084   2.630   9.640 -0.7386  0.5668 -0.8119
 6992SOL    HW232613   4.715   2.701   9.701  0.1370 -0.5450 -1.0783
 6993SOL     OW32614   0.711   2.084  10.285 -0.2459  0.0765  0.1480
 6993SOL    HW132615   0.771   2.030  10.336 -1.0290 -0.0309  0.9391
 6993SOL    HW232616   0.633   2.093  10.339 -1.1292 -0.3177 -1.0590
 6994SOL     OW32617   2.848   1.297  15.057  0.5530  0.1214  0.4220
 6994SOL    HW132618   2.925   1.342  15.091 -0.7742  0.5685  2.8427
 6994SOL    HW232619   2.819   1.270  15.144 -2.1388  0.6273 -0.3246
 6995SOL     OW32620   0.074   4.363   3.275 -0.0683 -0.4599 -0.5642
 6995SOL    HW132621   0.135   4.294   3.301 -1.9416 -2.3694 -1.2157
 6995SOL    HW232622   0.101   4.424   3.343  0.9682 -1.7054  0.1503
 6996SOL     OW32623   2.966   1.534   6.717  0.7649  0.3580 -0.0726
 6996SOL    HW132624   2.891   1.485   6.681 -0.6755  0.5279  2.7161
 6996SOL    HW232625   2.988   1.573   6.632  1.4524 -1.3635 -0.6637
 6997SOL     OW32626   0.368   0.399   7.583  0.2905  0.0616  0.2463
 6997SOL    HW132627   0.323   0.472   7.541 -0.3611 -1.5273 -1.8198
 6997SOL    HW232628   0.457   0.431   7.571 -0.1742  0.3472 -2.3294
 6998SOL     OW32629   4.421   4.433  16.380  0.7552  0.4558 -0.1654
 6998SOL    HW132630   4.472   4.450  16.301  0.4911  0.0201 -0.4302
 6998SOL    HW232631   4.473   4.361  16.416 -0.5999 -0.2211  0.4356
 6999SOL     OW32632   4.127   2.157   1.130  0.6403  0.2527  0.3361
 6999SOL    HW132633   4.048   2.117   1.163  0.7620  0.2867  0.6627
 6999SOL    HW232634   4.114   2.182   1.038  0.5631  0.0845  0.3030
 7000SOL     OW32635   4.202   0.951   0.872  0.2152 -0.3865 -0.1983
 7000SOL    HW132636   4.151   0.874   0.848 -0.0931 -0.8790  2.0914
 7000SOL    HW232637   4.283   0.902   0.884  0.3050 -0.7075 -2.1363
 7001SOL     OW32638   3.470   4.004   4.027 -0.5343  0.2160  0.1451
 7001SOL    HW132639   3.387   4.022   4.072 -1.0958  3.0128 -2.0496
 7001SOL    HW232640   3.473   4.058   3.948 -2.0377  0.4304  0.2231
 7002SOL     OW32641   1.479   1.467  10.417  0.3613  0.0881 -0.0348
 7002SOL    HW132642   1.482   1.542  10.477  0.1443 -0.0791  0.1854
 7002SOL    HW232643   1.453   1.400  10.480  0.2227 -0.9694 -1.2296
 7003SOL     OW32644   4.451   3.105   0.635  0.0530  0.4791  0.4736
 7003SOL    HW132645   4.406   3.098   0.551  0.0934 -1.0353  0.5861
 7003SOL    HW232646   4.529   3.052   0.620 -1.2063 -2.0012  2.6014
 7004SOL     OW32647   2.063   0.190   6.358 -0.5595  0.0057  0.4356
 7004SOL    HW132648   2.018   0.116   6.399 -0.1892 -0.6251 -0.3015
 7004SOL    HW232649   2.140   0.150   6.318 -1.3228 -3.9587  2.9359
 7005SOL     OW32650   3.191   3.688  11.310 -0.3043 -0.0032 -0.0351
 7005SOL    HW132651   3.255   3.626  11.276  0.5932  0.3468  1.0320
 7005SOL    HW232652   3.252   3.759  11.329  0.0547 -0.4601  0.4985
 7006SOL     OW32653   3.476   4.287   0.674 -0.2066 -0.2170  0.6728
 7006SOL    HW132654   3.517   4.361   0.630 -0.8960 -1.0174 -1.3253
 7006SOL    HW232655   3.548   4.256   0.729  1.9590  0.5812 -1.7114
 7007SOL     OW32656   0.667   3.631   2.180  0.2523 -0.0773 -0.0549
 7007SOL    HW132657   0.607   3.558   2.167  2.8321 -1.7873 -2.1226
 7007SOL    HW232658   0.603   3.702   2.191 -0.5807 -0.6278 -1.4384
 7008SOL     OW32659   4.258   2.306   8.386  0.2477 -0.1778 -0.6126
 7008SOL    HW132660   4.163   2.315   8.383  0.4051  1.2218 -1.6980
 7008SOL    HW232661   4.271   2.223   8.339 -1.1554 -0.6693 -0.1360
 7009SOL     OW32662   3.991   4.124   7.171 -0.2369  0.3649  0.3407
 7009SOL    HW132663   3.962   4.034   7.158  1.5547 -0.2966  0.9330
 7009SOL    HW232664   4.083   4.099   7.160 -0.1660 -0.5981  2.9823
 7010SOL     OW32665   3.761   3.218   5.204  0.0758  0.0287  0.2772
 7010SOL    HW132666   3.711   3.205   5.285 -0.7488  1.0100 -0.0785
 7010SOL    HW232667   3.803   3.304   5.208  1.1617 -0.6143  2.8704
 7011SOL     OW32668   1.744   0.301  13.043  0.0956 -0.2357  0.1936
 7011SOL    HW132669   1.694   0.253  12.977 -0.1867  1.9768 -1.1780
 7011SOL    HW232670   1.752   0.386  13.000  0.6985  0.0658  0.8963
 7012SOL     OW32671   4.397   2.435   0.044  0.5933  0.1763 -0.1584
 7012SOL    HW132672   4.433   2.350   0.071  0.8140  1.2178  2.8138
 7012SOL    HW232673   4.332   2.402  17.735 -0.4520 -1.7081  1.9006
 7013SOL     OW32674   4.012   3.105  13.852 -0.1267 -0.6165 -0.1283
 7013SOL    HW132675   4.022   3.200  13.851  0.9154 -0.7740 -4.1092
 7013SOL    HW232676   4.082   3.073  13.909  1.3411 -0.6646 -1.9508
 7014SOL     OW32677   1.383   1.972   5.277  0.2412 -0.0658 -0.4659
 7014SOL    HW132678   1.420   1.884   5.273 -0.2043 -0.4225  3.0876
 7014SOL    HW232679   1.390   2.012   5.190 -1.3172  1.8091  0.2706
 7015SOL     OW32680   3.116   0.375   4.556 -0.2911  0.2780 -0.3670
 7015SOL    HW132681   3.205   0.355   4.585  0.0786  2.3737 -0.0434
 7015SOL    HW232682   3.071   0.355   4.638  0.5656  1.3505  0.3740
 7016SOL     OW32683   3.025   3.598   4.520  0.6131  0.2392 -0.3205
 7016SOL    HW132684   3.090   3.634   4.580 -1.0336 -0.1785  1.7085
 7016SOL    HW232685   3.034   3.506   4.544  0.4996  0.1392 -0.6523
 7017SOL     OW32686   4.330   0.240  16.420 -0.3074 -0.1195 -0.4780
 7017SOL    HW132687   4.259   0.291  16.382  0.7857  2.0422  0.3949
 7017SOL    HW232688   4.366   0.201  16.341  1.9310 -0.1628  0.5673
 7018SOL     OW32689   3.613   0.397   5.616  0.1022 -0.1241  0.2027
 7018SOL    HW132690   3.675   0.450   5.667 -0.6257  1.0011 -0.0729
 7018SOL    HW232691   3.663   0.367   5.541 -0.4945 -0.4931 -0.0529
 7019SOL     OW32692   4.286   0.375   6.925 -0.3065 -0.0875 -0.4024
 7019SOL    HW132693   4.324   0.417   6.849 -0.8640  0.7676 -0.2015
 7019SOL    HW232694   4.366   0.383   6.978 -1.6907  0.2496  1.6209
 7020SOL     OW32695   4.660   2.695   4.714 -0.0058  0.8647  0.3086
 7020SOL    HW132696   4.611   2.635   4.657  1.4486  1.7327 -1.8804
 7020SOL    HW232697   4.715   2.630   4.758 -2.2508 -1.3606 -0.1133
 7021SOL     OW32698   4.677   3.664   3.419 -0.8904 -0.5538 -0.6811
 7021SOL    HW132699   4.649   3.598   3.356 -2.6146  0.8436 -1.3814
 7021SOL    HW232700   4.648   3.737   3.364  1.2456 -0.9103 -2.2411
 7022SOL     OW32701   3.139   1.058   6.186 -0.2788  0.0975 -0.0476
 7022SOL    HW132702   3.188   1.070   6.105 -1.6848 -0.0541 -0.9197
 7022SOL    HW232703   3.206   1.038   6.252 -0.1963  1.6993  0.3577
 7023SOL     OW32704   2.625   1.158   6.439 -0.0603 -0.4682 -0.4049
 7023SOL    HW132705   2.616   1.117   6.353 -0.0122 -0.1116 -0.5836
 7023SOL    HW232706   2.672   1.238   6.414 -0.8221  0.2703  0.5380
 7024SOL     OW32707   0.077   2.969   3.451  0.1054 -0.3313 -0.4355
 7024SOL    HW132708   4.727   2.980   3.484  0.7882  2.7005  0.4066
 7024SOL    HW232709   0.063   2.890   3.399 -0.6827 -1.1777  1.0695
 7025SOL     OW32710   1.418   0.726   9.079  0.1895 -0.4391 -0.4015
 7025SOL    HW132711   1.450   0.704   9.166  1.1330 -2.7580 -1.3133
 7025SOL    HW232712   1.502   0.738   9.033  0.2345  0.8146  0.0289
 7026SOL     OW32713   2.343   2.592   5.487 -0.0089 -0.0089  0.0688
 7026SOL    HW132714   2.395   2.605   5.566 -1.1284 -0.5844  0.9148
 7026SOL    HW232715   2.396   2.539   5.427 -1.9555 -0.6815 -1.0720
 7027SOL     OW32716   0.341   2.983   3.352 -0.0974  0.0451  0.1172
 7027SOL    HW132717   0.257   3.028   3.349 -0.5011 -0.6867  0.5123
 7027SOL    HW232718   0.330   2.933   3.433  2.1691  1.0756  1.0692
 7028SOL     OW32719   1.814   4.187   9.219 -0.0465 -0.1309  0.3749
 7028SOL    HW132720   1.731   4.209   9.179 -1.4754 -2.0551  2.2759
 7028SOL    HW232721   1.797   4.204   9.312 -2.2483 -0.5684  0.0365
 7029SOL     OW32722   4.077   1.293   5.729 -0.4511  0.0203  0.0695
 7029SOL    HW132723   4.106   1.342   5.652  2.3919  1.8067  2.2815
 7029SOL    HW232724   4.098   1.205   5.696  0.2133  0.3701 -0.4432
 7030SOL     OW32725   0.214   2.241  15.932 -0.0394 -0.4310 -0.1478
 7030SOL    HW132726   0.237   2.167  15.988  2.2891  0.5823  0.2674
 7030SOL    HW232727   0.146   2.205  15.876  1.6508 -0.2736 -2.3143
 7031SOL     OW32728   0.594   1.936   1.348  0.3518 -0.4116 -0.0709
 7031SOL    HW132729   0.579   1.985   1.428  1.3977  1.3795 -0.9896
 7031SOL    HW232730   0.687   1.915   1.350  0.3644 -0.3240  0.2146
 7032SOL     OW32731   2.106   3.103   3.768  0.3318 -0.2219  0.3898
 7032SOL    HW132732   2.107   3.119   3.862  3.5112 -1.5322  0.5855
 7032SOL    HW232733   2.021   3.130   3.733 -0.0300 -2.5648 -0.5253
 7033SOL     OW32734   2.953   4.715  16.720 -0.0504  0.2710  0.0233
 7033SOL    HW132735   2.964   4.708  16.815  0.5544  0.0667 -0.0637
 7033SOL    HW232736   2.860   0.000  16.717 -0.4412 -1.2871 -0.6611
 7034SOL     OW32737   3.494   3.442   6.437 -0.1662  0.0478 -0.4426
 7034SOL    HW132738   3.424   3.491   6.482  1.4107  0.9046  1.0716
 7034SOL    HW232739   3.444   3.360   6.431 -3.9376  2.2548  0.7647
 7035SOL     OW32740   2.496   0.676   4.097  0.0157 -0.7077 -0.1629
 7035SOL    HW132741   2.437   0.611   4.060  0.8792  0.0795 -2.9366
 7035SOL    HW232742   2.558   0.681   4.024 -0.1512  0.7257 -0.2039
 7036SOL     OW32743   0.137   2.672   5.771  0.1102  0.0273 -1.1172
 7036SOL    HW132744   0.075   2.727   5.722 -1.1053 -1.0853 -0.8214
 7036SOL    HW232745   0.157   2.603   5.708  3.1006 -1.5296  1.5777
 7037SOL     OW32746   4.448   3.743   9.438  0.2108  0.2620  0.4661
 7037SOL    HW132747   4.505   3.805   9.484  0.0239  1.3719 -0.7801
 7037SOL    HW232748   4.366   3.770   9.479 -0.5788  0.0853 -0.9897
 7038SOL     OW32749   3.717   0.880   2.507  0.3259 -0.6398  0.1893
 7038SOL    HW132750   3.755   0.836   2.583 -1.4030  1.1069  2.0516
 7038SOL    HW232751   3.630   0.847   2.531 -0.3810  1.4869  0.5268
 7039SOL     OW32752   4.242   0.744  11.746  0.0697 -0.2475 -0.7814
 7039SOL    HW132753   4.169   0.806  11.743  1.8014  1.8426 -0.2812
 7039SOL    HW232754   4.291   0.752  11.663  1.1904 -0.2853 -0.1275
 7040SOL     OW32755   3.626   2.785  13.466 -0.0838  0.0584 -0.9695
 7040SOL    HW132756   3.614   2.710  13.408 -1.0698 -0.0552 -0.6220
 7040SOL    HW232757   3.658   2.743  13.546 -0.1580 -2.6743 -2.3641
 7041SOL     OW32758   1.991   3.847   1.516  0.1150 -0.2018  0.9505
 7041SOL    HW132759   2.008   3.941   1.511  1.6449 -0.4841  0.9116
 7041SOL    HW232760   1.939   3.836   1.595 -1.7247  2.5662  0.1053
 7042SOL     OW32761   1.160   3.782   4.796  0.5372  0.0299  0.2905
 7042SOL    HW132762   1.195   3.845   4.858  1.7912 -0.3938  0.0120
 7042SOL    HW232763   1.096   3.741   4.854 -0.9940  3.2409  0.8615
 7043SOL     OW32764   1.137   1.532   3.319 -0.1220  0.1776  0.0699
 7043SOL    HW132765   1.195   1.604   3.344  1.2438 -0.7000 -0.5886
 7043SOL    HW232766   1.102   1.511   3.406 -0.3710 -0.9260 -0.2940
 7044SOL     OW32767   0.774   2.628   2.142 -0.1876  0.2667 -0.1821
 7044SOL    HW132768   0.839   2.579   2.193 -0.5698  0.6479  0.6612
 7044SOL    HW232769   0.773   2.715   2.182  1.7940  0.6450 -0.9604
 7045SOL     OW32770   0.977   3.520  12.773  0.6483  0.0641 -0.3923
 7045SOL    HW132771   0.989   3.555  12.862 -1.2012  2.4575 -1.0874
 7045SOL    HW232772   1.050   3.459  12.771 -0.9267 -1.7651 -1.4043
 7046SOL     OW32773   0.614   0.578   8.701 -0.2944 -0.2912  0.2163
 7046SOL    HW132774   0.670   0.623   8.637 -0.1245 -0.5199  0.2035
 7046SOL    HW232775   0.570   0.654   8.738 -0.9504 -0.4931 -0.1542
 7047SOL     OW32776   3.703   0.144  11.643 -0.1816  0.2237  0.6837
 7047SOL    HW132777   3.747   0.125  11.559 -1.8296  0.0389 -0.1508
 7047SOL    HW232778   3.612   0.154  11.615 -0.7183 -1.3843  1.8555
 7048SOL     OW32779   0.421   3.959   8.864 -0.2672 -0.3901 -0.2787
 7048SOL    HW132780   0.498   3.974   8.810  0.5839 -1.7461  0.5565
 7048SOL    HW232781   0.360   4.028   8.836  0.3188  0.5883  0.8795
 7049SOL     OW32782   3.208   3.966   6.190 -0.6919  0.5086 -0.0871
 7049SOL    HW132783   3.193   3.889   6.243 -1.7189  0.1245 -0.9367
 7049SOL    HW232784   3.303   3.957   6.190 -0.6682  0.8793  4.5757
 7050SOL     OW32785   3.667   0.722   5.659  0.3135 -0.6390 -0.2659
 7050SOL    HW132786   3.688   0.806   5.618 -1.2655 -0.3896 -0.5732
 7050SOL    HW232787   3.723   0.672   5.600  0.6560  0.9786 -1.3285
 7051SOL     OW32788   2.683   2.232   3.587  0.2112 -0.0871  0.3062
 7051SOL    HW132789   2.706   2.203   3.675 -0.5172  0.6257  0.7391
 7051SOL    HW232790   2.614   2.170   3.561 -0.2758 -0.0172  1.4051
 7052SOL     OW32791   4.054   0.350  12.800 -0.1489 -0.3398 -0.5524
 7052SOL    HW132792   4.034   0.425  12.744 -0.0956 -1.3501 -1.9305
 7052SOL    HW232793   4.067   0.398  12.882 -0.5993 -0.3835 -0.4525
 7053SOL     OW32794   1.060   4.532   6.653  0.0086 -0.6837  0.0262
 7053SOL    HW132795   1.066   4.499   6.563  0.5588 -1.0958  0.2078
 7053SOL    HW232796   1.125   4.471   6.690  0.7241 -0.7060 -1.2703
 7054SOL     OW32797   2.519   1.318  11.917  0.2534  0.3590 -0.8470
 7054SOL    HW132798   2.613   1.332  11.909 -0.0913  1.4930 -2.6600
 7054SOL    HW232799   2.486   1.286  11.833  0.3603 -0.8739 -0.4169
 7055SOL     OW32800   1.611   0.804   8.894  0.0268 -0.2614 -0.1353
 7055SOL    HW132801   1.581   0.853   8.817  1.7997  0.0245 -0.6497
 7055SOL    HW232802   1.596   0.714   8.865 -0.4974 -0.5062  0.9092
 7056SOL     OW32803   2.877   1.939   5.865 -0.1478 -0.0344  0.0643
 7056SOL    HW132804   2.863   2.010   5.928  1.8176 -1.4980  2.1442
 7056SOL    HW232805   2.898   1.863   5.919 -1.0774 -2.6521 -3.2971
 7057SOL     OW32806   3.118   2.331   4.028  0.2334 -0.2144 -0.6967
 7057SOL    HW132807   3.061   2.361   4.099  1.7976  1.4133 -0.1090
 7057SOL    HW232808   3.148   2.413   3.988 -1.1918 -0.6950 -2.7540
 7058SOL     OW32809   4.154   4.723   6.039 -0.5602  0.2920 -0.2844
 7058SOL    HW132810   4.090   0.054   6.031  0.8176  1.5626 -0.1607
 7058SOL    HW232811   4.157   4.708   6.134 -1.6122  0.9441 -0.1566
 7059SOL     OW32812   4.323   4.214  12.347 -0.0832 -0.4847  0.2620
 7059SOL    HW132813   4.243   4.163  12.331 -1.3306  2.1793 -1.9473
 7059SOL    HW232814   4.290   4.292  12.392  0.2055 -0.3035  0.1576
 7060SOL     OW32815   3.144   2.458  17.625  1.1970  0.2915 -0.3993
 7060SOL    HW132816   3.079   2.469  17.556  0.6787 -0.0637  0.0322
 7060SOL    HW232817   3.100   2.506  17.695 -0.7591 -2.1951  0.0677
 7061SOL     OW32818   0.826   3.533   7.715  0.1248  0.0552  0.9932
 7061SOL    HW132819   0.799   3.565   7.629  1.8167  0.3803  0.5806
 7061SOL    HW232820   0.916   3.562   7.725  0.3150 -0.7854  1.7734
 7062SOL     OW32821   1.846   3.451  12.632  0.1140  0.7012  0.1689
 7062SOL    HW132822   1.765   3.452  12.684 -0.8945 -0.4571 -1.3728
 7062SOL    HW232823   1.906   3.410  12.694  0.6548  0.6520 -0.3860
 7063SOL     OW32824   2.823   2.273  14.604  0.4220  0.1789 -0.0682
 7063SOL    HW132825   2.817   2.183  14.572  0.3572  0.3976 -0.6744
 7063SOL    HW232826   2.919   2.277  14.609  0.3153 -0.7124  2.2518
 7064SOL     OW32827   1.533   2.903   2.257 -0.0650  0.3130  0.1332
 7064SOL    HW132828   1.607   2.878   2.201 -0.8386 -0.1671 -0.6846
 7064SOL    HW232829   1.575   2.914   2.342  2.6420 -3.8856 -0.6439
 7065SOL     OW32830   3.215   2.227  14.068  0.3329  0.4691  0.1908
 7065SOL    HW132831   3.203   2.138  14.103 -0.4391  0.9376  1.1269
 7065SOL    HW232832   3.125   2.260  14.073 -1.0523 -3.1101 -0.9747
 7066SOL     OW32833   2.743   0.183   1.616  0.8421 -0.1839  0.0745
 7066SOL    HW132834   2.649   0.170   1.611  0.5101  1.2655  2.5861
 7066SOL    HW232835   2.768   0.166   1.525 -0.9282 -0.0036 -0.4339
 7067SOL     OW32836   4.140   4.176   8.561  0.2259 -0.6688  0.2179
 7067SOL    HW132837   4.101   4.134   8.638 -0.4213 -0.6373 -0.0885
 7067SOL    HW232838   4.228   4.139   8.552  0.4873  0.8294 -3.4066
 7068SOL     OW32839   0.772   3.400   4.607 -0.2851 -0.2658  0.0979
 7068SOL    HW132840   0.758   3.306   4.619 -0.3047 -0.1829  0.7454
 7068SOL    HW232841   0.696   3.431   4.558  0.6977 -0.3949 -1.4990
 7069SOL     OW32842   2.256   2.921  11.914  0.0459  0.1151  0.2605
 7069SOL    HW132843   2.334   2.926  11.970 -0.9866  0.8952  1.6040
 7069SOL    HW232844   2.258   2.829  11.887  2.4584 -0.1777  1.4303
 7070SOL     OW32845   2.779   3.107   5.459  0.6757  0.1284  0.4326
 7070SOL    HW132846   2.748   3.117   5.549  2.2830  2.2013  0.7518
 7070SOL    HW232847   2.824   3.191   5.452 -1.2698  1.2129  0.9935
 7071SOL     OW32848   3.925   3.655  10.006  0.1447 -0.5422 -0.1623
 7071SOL    HW132849   3.878   3.706  10.073 -1.1913  2.0316 -3.0629
 7071SOL    HW232850   4.007   3.655  10.054  0.3008  1.6819 -0.4371
 7072SOL     OW32851   1.094   1.308   4.257 -0.2914  0.0768  0.0205
 7072SOL    HW132852   1.119   1.226   4.300  2.5070  0.9474  0.0592
 7072SOL    HW232853   1.056   1.356   4.331  2.5626  2.4746 -0.0633
 7073SOL     OW32854   3.788   1.438  11.174 -0.3415 -0.0935 -0.3610
 7073SOL    HW132855   3.759   1.348  11.163  0.4367 -0.2830 -0.8912
 7073SOL    HW232856   3.867   1.424  11.227  1.0346  0.3685 -2.2710
 7074SOL     OW32857   0.018   2.068   0.171 -0.2869 -0.3641 -0.2668
 7074SOL    HW132858   0.103   2.024   0.164 -0.3558 -0.6172  0.4866
 7074SOL    HW232859   4.711   2.009   0.112 -0.8287 -0.5112  0.2934
 7075SOL     OW32860   4.533   4.130   1.438  0.6396  0.0597  0.1209
 7075SOL    HW132861   4.581   4.211   1.419 -1.3547  1.3095  0.4499
 7075SOL    HW232862   4.486   4.147   1.520  1.9860  0.3213  0.8407
 7076SOL     OW32863   0.258   3.710  14.721 -0.1596 -0.0151 -0.5613
 7076SOL    HW132864   0.243   3.616  14.713 -0.0608 -0.1296  0.6352
 7076SOL    HW232865   0.262   3.709  14.817  0.8846  0.1655 -0.6019
 7077SOL     OW32866   4.147   2.773   6.586 -0.0914 -0.7428 -0.2755
 7077SOL    HW132867   4.202   2.754   6.510 -1.4049  1.0885 -1.6760
 7077SOL    HW232868   4.104   2.854   6.560  1.4334  0.2861  0.3914
 7078SOL     OW32869   3.946   4.677   5.621 -0.5461 -0.1472 -0.0071
 7078SOL    HW132870   4.029   4.640   5.652 -0.1915  1.4712  0.9843
 7078SOL    HW232871   3.950   0.025   5.662  3.2946 -2.1713  3.8298
 7079SOL     OW32872   0.031   4.289   2.140 -0.0852 -0.5815 -0.3557
 7079SOL    HW132873   0.032   4.332   2.055 -0.3039  0.0656 -0.0295
 7079SOL    HW232874   0.114   4.241   2.134  0.2853 -0.1745  1.4260
 7080SOL     OW32875   0.333   3.407  15.193 -0.4641 -0.5248  0.0875
 7080SOL    HW132876   0.322   3.320  15.155 -2.4452 -0.1552 -0.1556
 7080SOL    HW232877   0.394   3.383  15.263 -0.1103  1.2818  0.4116
 7081SOL     OW32878   4.647   0.373   5.446  1.0537 -0.4107  0.5831
 7081SOL    HW132879   4.682   0.292   5.410  0.8688 -0.2473  0.0277
 7081SOL    HW232880   4.609   0.329   5.522 -1.9348 -0.1735 -0.7493
 7082SOL     OW32881   2.047   4.134   3.532 -0.0615  0.0507 -0.0047
 7082SOL    HW132882   2.000   4.154   3.451  0.3908  1.5273  0.0941
 7082SOL    HW232883   2.088   4.048   3.524 -0.6131 -0.2700  0.6049
 7083SOL     OW32884   1.793   1.723  12.740  0.7239 -0.4346  0.4147
 7083SOL    HW132885   1.858   1.668  12.784  1.0189 -0.9719 -0.7190
 7083SOL    HW232886   1.793   1.799  12.798  1.1972 -2.2435  2.8217
 7084SOL     OW32887   3.719   0.379   0.936 -0.0957 -0.0240 -0.0319
 7084SOL    HW132888   3.639   0.333   0.961  1.5252 -3.2350 -0.8418
 7084SOL    HW232889   3.778   0.310   0.907 -0.5384 -0.0947 -0.7501
 7085SOL     OW32890   0.516   4.589   8.401  0.1300  0.4714 -0.3850
 7085SOL    HW132891   0.505   4.614   8.492 -0.6867 -2.4597  0.3102
 7085SOL    HW232892   0.443   4.529   8.387  1.2424 -0.7569 -0.8543
 7086SOL     OW32893   4.099   2.207   9.344  0.2218  0.0418  0.2420
 7086SOL    HW132894   4.173   2.148   9.351  2.0484  2.5716  2.4553
 7086SOL    HW232895   4.150   2.287   9.361 -0.4347  1.0175 -2.4486
 7087SOL     OW32896   0.432   2.185   6.302 -0.8599 -0.0297 -0.1307
 7087SOL    HW132897   0.495   2.127   6.345 -1.0058  0.6915  1.0581
 7087SOL    HW232898   0.490   2.228   6.240  0.3331 -1.1217  0.2194
 7088SOL     OW32899   1.956   1.162   7.936  0.1526 -0.1559 -0.4994
 7088SOL    HW132900   1.894   1.089   7.924  0.9188 -1.1200  1.3410
 7088SOL    HW232901   2.008   1.124   8.007 -0.9227 -2.1764 -0.7762
 7089SOL     OW32902   3.974   2.959   3.271  0.0887 -0.1299 -0.1675
 7089SOL    HW132903   4.010   2.909   3.345  0.4165  0.5283  0.1190
 7089SOL    HW232904   3.976   3.046   3.310 -1.7948 -0.7414  1.3261
 7090SOL     OW32905   2.519   2.076  16.152 -0.3923 -0.3498 -0.3313
 7090SOL    HW132906   2.552   2.055  16.065  0.8074  0.4162 -0.0655
 7090SOL    HW232907   2.598   2.059  16.204  1.3805  1.7061 -2.3630
 7091SOL     OW32908   3.889   2.672  10.314 -0.1629  0.3258 -0.4271
 7091SOL    HW132909   3.980   2.680  10.343 -0.2242 -2.3469  0.4025
 7091SOL    HW232910   3.838   2.717  10.382 -0.4047  0.7417 -0.8807
 7092SOL     OW32911   2.730   3.398   3.992  0.1809  0.1778 -0.1697
 7092SOL    HW132912   2.799   3.456   3.962  3.2571 -3.1055  0.5204
 7092SOL    HW232913   2.708   3.348   3.913  1.5536  2.0310 -1.7032
 7093SOL     OW32914   3.062   3.802   9.071  0.2503  0.2004  0.4511
 7093SOL    HW132915   3.047   3.710   9.092 -1.3698  0.4665  0.4594
 7093SOL    HW232916   2.989   3.845   9.117  0.9223 -0.8808  2.5354
 7094SOL     OW32917   0.935   0.585   9.116 -0.2451  0.1634  0.4331
 7094SOL    HW132918   0.982   0.668   9.129 -2.2372  1.1981  1.0501
 7094SOL    HW232919   1.004   0.523   9.140 -0.3765 -1.1753 -2.6654
 7095SOL     OW32920   2.068   2.820   6.496  0.2994 -0.1581 -0.0827
 7095SOL    HW132921   2.042   2.770   6.418  0.8030 -1.1930  0.4101
 7095SOL    HW232922   2.161   2.801   6.480  0.2034 -0.7071  0.0097
 7096SOL     OW32923   4.172   4.319   1.959 -0.1540  0.1506 -0.6729
 7096SOL    HW132924   4.128   4.378   2.020  0.4576 -1.9466  1.7941
 7096SOL    HW232925   4.259   4.358   1.948  1.2156 -2.0129  2.3661
 7097SOL     OW32926   3.670   0.046   4.557  0.5074  0.3551 -0.3845
 7097SOL    HW132927   3.681   4.698   4.596 -0.7657  0.8794  1.1576
 7097SOL    HW232928   3.591   0.029   4.505 -0.4886  1.8015  0.6306
 7098SOL     OW32929   0.516   1.314   2.270  0.4941 -0.3165  0.2168
 7098SOL    HW132930   0.480   1.292   2.356 -1.6462 -0.6441 -0.7554
 7098SOL    HW232931   0.576   1.243   2.246  1.4429  1.0401 -1.4111
 7099SOL     OW32932   1.103   3.941   0.229 -0.4320  0.0890 -0.2635
 7099SOL    HW132933   1.084   3.852   0.201  1.1109 -0.3216  0.0311
 7099SOL    HW232934   1.064   3.930   0.316  1.2969 -1.6826  0.2648
 7100SOL     OW32935   0.193   3.782  12.353  0.2555  0.3031  0.0819
 7100SOL    HW132936   0.116   3.780  12.296  1.6818 -0.1094 -1.7872
 7100SOL    HW232937   0.242   3.704  12.328  2.0030  0.9431  1.4956
 7101SOL     OW32938   2.247   1.022   5.038 -0.6437  0.1677 -0.6168
 7101SOL    HW132939   2.207   1.106   5.059  0.2062  0.6634 -1.0274
 7101SOL    HW232940   2.164   0.975   5.049  0.2517 -1.5753 -1.2954
 7102SOL     OW32941   1.939   2.846   7.250  0.8656  0.1001  0.0866
 7102SOL    HW132942   1.915   2.764   7.293 -1.3412  0.3663 -0.6106
 7102SOL    HW232943   1.856   2.895   7.247  0.3693 -0.7735 -0.4389
 7103SOL     OW32944   2.957   1.734   6.905 -0.2685  0.3472  0.1343
 7103SOL    HW132945   2.926   1.658   6.856 -3.7217  3.1797 -2.0037
 7103SOL    HW232946   2.882   1.792   6.918 -1.8516 -1.7269  0.1695
 7104SOL     OW32947   1.762   3.331   6.757 -0.0138 -0.5771  0.5418
 7104SOL    HW132948   1.830   3.392   6.730 -0.5974 -0.7550 -1.3243
 7104SOL    HW232949   1.784   3.330   6.851  1.7402  2.2129  0.1638
 7105SOL     OW32950   2.496   3.480   1.097  0.6650 -0.2381  0.3984
 7105SOL    HW132951   2.517   3.572   1.112  0.1531  0.1694 -1.2975
 7105SOL    HW232952   2.460   3.464   1.184  0.9863  1.8271  0.9060
 7106SOL     OW32953   1.237   2.128   1.123 -0.1638  0.1005  0.4882
 7106SOL    HW132954   1.300   2.200   1.121 -1.2336  0.9527 -2.1760
 7106SOL    HW232955   1.159   2.165   1.165 -1.3682 -0.2249 -1.4382
 7107SOL     OW32956   0.338   0.588   3.036 -0.6372  0.7210 -0.8193
 7107SOL    HW132957   0.360   0.500   3.064 -1.2605  1.7407  2.8578
 7107SOL    HW232958   0.245   0.589   3.058 -0.6173  2.6111 -0.7768
 7108SOL     OW32959   2.763   4.416   3.137 -0.8207  0.1341  0.1078
 7108SOL    HW132960   2.731   4.498   3.100 -0.3164  0.7875  1.1364
 7108SOL    HW232961   2.718   4.352   3.081  2.7999 -2.6351  0.3658
 7109SOL     OW32962   3.887   4.640   2.973 -0.5770 -0.1299 -0.3646
 7109SOL    HW132963   3.885   4.552   2.935  0.0711  0.8736 -2.7308
 7109SOL    HW232964   3.843   4.688   2.903 -0.9677 -0.9741 -0.7020
 7110SOL     OW32965   2.111   2.478   1.437  0.3881 -0.6684  0.3271
 7110SOL    HW132966   2.054   2.432   1.376 -2.5804  1.1300  1.7720
 7110SOL    HW232967   2.110   2.409   1.504 -0.0804 -0.5831  0.4091
 7111SOL     OW32968   0.270   2.845   7.658  0.4344  0.0041 -0.3885
 7111SOL    HW132969   0.324   2.770   7.633 -1.3530 -1.2171 -0.5784
 7111SOL    HW232970   0.232   2.865   7.573 -0.0820  1.2086  0.1279
 7112SOL     OW32971   3.745   0.047   4.904 -0.6068  0.1595  0.1071
 7112SOL    HW132972   3.839   0.037   4.889 -0.6183 -0.6698  0.5831
 7112SOL    HW232973   3.748   0.067   4.998  2.1422  1.9329 -0.3487
 7113SOL     OW32974   4.608   2.905  17.353 -0.1072 -0.1917  0.2278
 7113SOL    HW132975   4.520   2.883  17.383 -0.6012 -1.6628 -2.2310
 7113SOL    HW232976   4.644   2.966  17.417  2.2499 -0.1172 -1.1423
 7114SOL     OW32977   3.728   0.747  16.130  0.5400  0.2646  0.1733
 7114SOL    HW132978   3.674   0.673  16.103 -0.5600  1.5586 -1.1547
 7114SOL    HW232979   3.705   0.759  16.222  0.1420 -1.1715  0.2631
 7115SOL     OW32980   2.093   0.429   1.269 -0.0572  1.1117 -0.0157
 7115SOL    HW132981   2.017   0.474   1.233  0.5147  2.9649  1.0519
 7115SOL    HW232982   2.159   0.449   1.203  0.2301 -2.8945 -0.9424
 7116SOL     OW32983   0.160   2.060   1.591  0.5352  0.4030 -0.4814
 7116SOL    HW132984   0.156   2.054   1.686 -0.8457  0.2381 -0.5588
 7116SOL    HW232985   0.111   2.141   1.580  1.6360  0.9618 -1.3036
 7117SOL     OW32986   4.337   0.637   3.939  0.1223  0.0608 -0.5988
 7117SOL    HW132987   4.371   0.701   3.877 -1.4671  0.7964 -0.7085
 7117SOL    HW232988   4.243   0.657   3.935 -0.0684 -0.5783  0.5250
 7118SOL     OW32989   2.183   1.198   6.718  0.1139  0.0420 -0.4678
 7118SOL    HW132990   2.237   1.268   6.753 -0.1678  0.2507 -0.4504
 7118SOL    HW232991   2.249   1.136   6.688 -0.8236 -0.0316 -2.3740
 7119SOL     OW32992   0.888   0.249   4.862  0.3975 -0.2013 -0.5046
 7119SOL    HW132993   0.903   0.339   4.834  0.5829 -0.1931 -0.3865
 7119SOL    HW232994   0.866   0.270   4.953  0.9160  3.1165 -1.1477
 7120SOL     OW32995   3.973   1.279   0.444  0.2124  0.1950 -0.0701
 7120SOL    HW132996   3.976   1.370   0.415 -2.3207  0.5661  0.7437
 7120SOL    HW232997   4.000   1.281   0.536  0.6077 -2.1706 -0.1355
 7121SOL     OW32998   4.208   1.255   8.703  0.1178 -0.0471  0.4317
 7121SOL    HW132999   4.301   1.231   8.706  0.5825  1.7165  0.0168
 7121SOL    HW233000   4.170   1.168   8.691  0.3725 -0.3992  2.1053
 7122SOL     OW33001   3.178   2.291  12.341  0.1548 -0.0351  0.0514
 7122SOL    HW133002   3.169   2.257  12.252 -2.0697 -0.4036  0.4177
 7122SOL    HW233003   3.239   2.364  12.327  2.5614 -1.6636  2.0596
 7123SOL     OW33004   1.661   3.198   8.178 -0.3868  0.0109 -0.9133
 7123SOL    HW133005   1.583   3.190   8.124 -0.5447 -0.4131 -0.6333
 7123SOL    HW233006   1.675   3.292   8.185  0.6501 -0.1389 -0.8410
 7124SOL     OW33007   3.169   3.073   9.354 -0.0077 -0.2165 -0.1355
 7124SOL    HW133008   3.257   3.086   9.388  0.2584  0.5229 -1.1462
 7124SOL    HW233009   3.126   3.098   9.437 -0.7756 -1.4502 -0.1554
 7125SOL     OW33010   1.756   3.030  11.845  0.4572 -0.2356 -0.0663
 7125SOL    HW133011   1.762   3.117  11.806 -0.3275 -1.3311 -2.6847
 7125SOL    HW233012   1.846   3.021  11.874  1.2613 -0.5286 -2.6710
 7126SOL     OW33013   3.524   3.846  14.195 -0.1827 -0.7150  0.3781
 7126SOL    HW133014   3.484   3.839  14.108 -2.3447  0.7216  1.2616
 7126SOL    HW233015   3.509   3.939  14.215  0.1044 -0.4995 -0.3962
 7127SOL     OW33016   0.941   1.947   1.680  0.5943  0.1341 -0.4971
 7127SOL    HW133017   0.910   1.857   1.676 -0.4509  0.5238 -1.1611
 7127SOL    HW233018   0.860   1.996   1.689  1.2688  1.3193 -0.8677
 7128SOL     OW33019   1.257   4.352   6.711 -0.4795 -0.0957  0.6081
 7128SOL    HW133020   1.301   4.388   6.634  0.4161 -2.8060 -0.1515
 7128SOL    HW233021   1.275   4.258   6.706  0.6996  0.1111  1.2063
 7129SOL     OW33022   3.215   4.671   5.559  0.5822  0.2337  0.3843
 7129SOL    HW133023   3.122   4.650   5.566  1.2915 -2.7247  1.0315
 7129SOL    HW233024   3.242   4.669   5.650  2.9362  0.8062 -0.3037
 7130SOL     OW33025   4.250   1.631   5.241  0.4170 -0.1720 -0.1569
 7130SOL    HW133026   4.273   1.611   5.150  0.0346  1.9903 -0.7435
 7130SOL    HW233027   4.341   1.637   5.268  0.6512 -0.8500 -0.7880
 7131SOL     OW33028   2.552   4.166   0.948  0.3921 -0.0253  0.2557
 7131SOL    HW133029   2.458   4.148   0.948  0.1494  1.2693  0.8030
 7131SOL    HW233030   2.576   4.154   1.039  0.5996 -0.3615  0.1550
 7132SOL     OW33031   4.685   2.807   6.466  0.1489 -0.4610  0.3975
 7132SOL    HW133032   0.013   2.871   6.439 -1.6629  1.3818  0.2891
 7132SOL    HW233033   4.655   2.778   6.380  0.2909  0.6374 -0.0217
 7133SOL     OW33034   4.555   4.444   8.195  0.0549  1.1924  0.5644
 7133SOL    HW133035   4.618   4.507   8.229 -0.5921  1.9613  0.3402
 7133SOL    HW233036   4.529   4.404   8.278  0.6524  1.1997  0.7481
 7134SOL     OW33037   1.974   2.734   7.646 -0.2339  0.4251  0.8432
 7134SOL    HW133038   1.889   2.718   7.688 -0.9165  0.5179 -0.5105
 7134SOL    HW233039   1.957   2.718   7.553 -0.1781  1.2526  0.6850
 7135SOL     OW33040   0.205   1.874   8.049 -0.4979 -0.0487  0.2273
 7135SOL    HW133041   0.185   1.966   8.032  0.0333 -0.3372 -1.8816
 7135SOL    HW233042   0.130   1.831   8.008  0.1839 -0.2878 -0.7556
 7136SOL     OW33043   3.588   2.586   7.647  0.2357  0.6512 -0.3167
 7136SOL    HW133044   3.533   2.658   7.617 -1.4059 -0.4866 -0.0430
 7136SOL    HW233045   3.572   2.584   7.741  0.4805 -0.2088 -0.2955
 7137SOL     OW33046   1.109   0.476   4.627  0.1587  0.2647  0.6559
 7137SOL    HW133047   1.100   0.495   4.534 -2.0694 -0.3085  0.7395
 7137SOL    HW233048   1.200   0.449   4.636  0.5847  1.1050 -1.0672
 7138SOL     OW33049   2.351   4.032   0.010  0.4221 -0.4271  0.3202
 7138SOL    HW133050   2.266   4.076   0.011 -0.5984 -2.3756 -0.4777
 7138SOL    HW233051   2.346   3.965   0.079  3.3567  0.6499  1.5626
 7139SOL     OW33052   3.727   2.256   6.660  1.0239 -0.1276  0.3393
 7139SOL    HW133053   3.636   2.287   6.667 -0.2810 -4.0553  0.7452
 7139SOL    HW233054   3.720   2.163   6.679  0.5289 -0.0888  0.3406
 7140SOL     OW33055   0.393   2.093   4.785 -0.0200 -0.0017  0.1360
 7140SOL    HW133056   0.334   2.167   4.796  1.6065  1.1011  1.5760
 7140SOL    HW233057   0.483   2.126   4.795  0.7011 -1.6525 -0.9007
 7141SOL     OW33058   1.991   4.675   6.478 -0.1725  0.2794  0.0420
 7141SOL    HW133059   2.048   4.618   6.529  2.0607  1.2322 -1.3944
 7141SOL    HW233060   1.911   4.624   6.463 -0.0789 -0.1095  0.8769
 7142SOL     OW33061   3.171   3.734   1.785  0.3312  0.7101 -0.2852
 7142SOL    HW133062   3.226   3.727   1.707  0.9499 -2.2683  0.3875
 7142SOL    HW233063   3.132   3.646   1.787 -1.5519  1.5545 -0.6338
 7143SOL     OW33064   4.693   4.086  14.632 -0.3392  0.2632 -0.0024
 7143SOL    HW133065   4.609   4.042  14.649  0.0286  0.1388  1.5477
 7143SOL    HW233066   4.701   4.065  14.539 -0.5670 -1.6093  0.3863
 7144SOL     OW33067   3.120   2.140   5.371 -0.2020  0.4571  0.0738
 7144SOL    HW133068   3.046   2.126   5.429 -2.0243 -0.1926 -2.3951
 7144SOL    HW233069   3.160   2.219   5.408  2.3488 -0.4733 -0.7026
 7145SOL     OW33070   0.244   0.878   3.217  0.0700  0.3676 -0.1094
 7145SOL    HW133071   0.175   0.818   3.190  0.9998 -0.2191 -1.1616
 7145SOL    HW233072   0.234   0.948   3.152 -0.3440 -0.9711 -1.5010
 7146SOL     OW33073   4.146   2.052  11.268 -0.0005  0.2891  0.1185
 7146SOL    HW133074   4.147   2.032  11.361 -0.0229  0.2079  0.1012
 7146SOL    HW233075   4.096   1.982  11.227 -1.6958  2.2267 -1.1340
 7147SOL     OW33076   2.780   2.469   8.121 -0.1037  0.0075  0.0584
 7147SOL    HW133077   2.697   2.425   8.101  0.1124 -0.8705  1.0995
 7147SOL    HW233078   2.819   2.395   8.168 -1.4440 -1.1403 -0.6323
 7148SOL     OW33079   1.125   4.598   8.052 -0.4757 -0.1860  0.0626
 7148SOL    HW133080   1.126   4.524   7.991  1.5274 -0.0059 -0.1318
 7148SOL    HW233081   1.069   4.660   8.007  0.6660 -1.4977 -3.1892
 7149SOL     OW33082   2.423   0.802   8.035  0.2655 -0.4095 -0.1178
 7149SOL    HW133083   2.471   0.772   7.958 -1.5246  0.4366 -1.5774
 7149SOL    HW233084   2.489   0.862   8.070 -0.5529 -1.5060  3.3205
 7150SOL     OW33085   0.370   1.912   4.079  0.0886  0.7731  0.0318
 7150SOL    HW133086   0.392   1.820   4.096 -2.1285  0.5293  1.5105
 7150SOL    HW233087   0.455   1.951   4.099  1.0757 -1.3644  0.1151
 7151SOL     OW33088   0.760   1.359  14.910 -0.4023  0.5781  0.6132
 7151SOL    HW133089   0.754   1.436  14.967 -0.1438  1.0717 -0.0302
 7151SOL    HW233090   0.671   1.357  14.877  0.4415  0.5173 -1.6517
 7152SOL     OW33091   1.339   2.686  15.684 -0.2548  0.5006 -0.5728
 7152SOL    HW133092   1.381   2.614  15.637  1.4242  0.3651  1.1279
 7152SOL    HW233093   1.274   2.707  15.617 -1.8058  0.2960  0.8822
 7153SOL     OW33094   1.396   2.092   5.049  0.0604  0.8815  0.2076
 7153SOL    HW133095   1.310   2.135   5.050 -0.2535  0.2642 -0.0948
 7153SOL    HW233096   1.454   2.151   5.001  1.7427 -1.4031 -0.5731
 7154SOL     OW33097   1.621   2.994   3.587 -0.2062  0.2108  0.1108
 7154SOL    HW133098   1.649   3.047   3.662 -0.7813  0.7492 -0.0528
 7154SOL    HW233099   1.703   2.970   3.544 -0.0782  1.4106 -0.3338
 7155SOL     OW33100   1.232   3.153   5.784  0.2633  0.0167 -0.4997
 7155SOL    HW133101   1.287   3.084   5.820  0.2224  0.0491 -0.3733
 7155SOL    HW233102   1.233   3.139   5.689 -0.5159  2.5027 -0.8918
 7156SOL     OW33103   2.801   0.828  16.092  0.0931  0.6551 -0.3957
 7156SOL    HW133104   2.868   0.806  16.156  0.6043  2.1983 -0.3908
 7156SOL    HW233105   2.847   0.823  16.008 -1.5965 -0.1732 -1.2828
 7157SOL     OW33106   3.537   4.487   2.819  0.9796 -0.4012 -0.4215
 7157SOL    HW133107   3.540   4.532   2.903 -0.4759 -0.6527 -0.2318
 7157SOL    HW233108   3.624   4.447   2.822  0.4536 -1.4348  1.1396
 7158SOL     OW33109   4.080   3.814   3.271 -0.7162 -0.0601  0.0929
 7158SOL    HW133110   4.105   3.902   3.298 -1.8879  0.0087  0.9814
 7158SOL    HW233111   4.068   3.755   3.346 -2.9122  1.4682  0.9386
 7159SOL     OW33112   1.065   1.169   1.075 -0.3673 -0.1751 -0.7242
 7159SOL    HW133113   0.982   1.141   1.113  0.2918 -0.4166  0.5186
 7159SOL    HW233114   1.040   1.243   1.019  0.0702  1.8792  1.7591
 7160SOL     OW33115   3.865   1.622  10.719 -0.1243  0.4862  0.4042
 7160SOL    HW133116   3.876   1.716  10.736  1.0744  0.0801  1.9620
 7160SOL    HW233117   3.786   1.628  10.666  0.4464 -2.2836 -0.7798
 7161SOL     OW33118   4.006   3.101   7.309  0.3982  0.1147  0.1364
 7161SOL    HW133119   3.923   3.105   7.357 -0.6334  1.6001 -1.8102
 7161SOL    HW233120   4.021   3.007   7.311  1.8757  0.3707  1.8235
 7162SOL     OW33121   3.661   1.950   6.303 -0.3559 -0.7190 -0.4444
 7162SOL    HW133122   3.674   2.020   6.239  1.2911  1.2327  1.9852
 7162SOL    HW233123   3.568   1.938   6.286 -1.0960  2.1730  1.5042
 7163SOL     OW33124   4.637   1.134   5.980 -0.0091 -0.3241 -0.4068
 7163SOL    HW133125   4.731   1.121   5.964  0.9503  2.3770  2.9937
 7163SOL    HW233126   4.630   1.228   5.960  0.8115 -0.4109 -1.1117
 7164SOL     OW33127   2.168   0.125   9.700 -0.5155 -0.2342  0.2638
 7164SOL    HW133128   2.261   0.108   9.688 -0.6522 -1.9663  1.6765
 7164SOL    HW233129   2.169   0.218   9.677  2.1571  0.1546  2.0135
 7165SOL     OW33130   3.407   2.664  14.132  0.7500  0.2119 -0.5424
 7165SOL    HW133131   3.489   2.618  14.116  0.0721 -0.9669 -0.6439
 7165SOL    HW233132   3.371   2.614  14.206 -1.4666 -0.2570 -1.9286
 7166SOL     OW33133   1.622   0.143   7.787 -0.2873 -0.6393  0.3183
 7166SOL    HW133134   1.674   0.088   7.728 -0.7598 -0.0209 -0.6699
 7166SOL    HW233135   1.608   0.218   7.728 -0.0178 -0.0991  0.9366
 7167SOL     OW33136   0.250   3.755   7.763 -0.4005 -0.5034 -0.0778
 7167SOL    HW133137   0.313   3.694   7.802 -0.1159 -0.9418 -1.2418
 7167SOL    HW233138   0.210   3.793   7.842  2.1022  0.3058  0.8134
 7168SOL     OW33139   1.915   3.828  10.347  0.4063  0.3971 -0.0658
 7168SOL    HW133140   1.893   3.750  10.398 -1.2121 -0.0347 -1.4257
 7168SOL    HW233141   1.927   3.885  10.423 -0.8556 -1.5446  1.5774
 7169SOL     OW33142   3.597   1.870   4.765 -0.0146  0.1449  0.1226
 7169SOL    HW133143   3.616   1.881   4.672 -2.9133  2.4510 -0.1863
 7169SOL    HW233144   3.546   1.946   4.792  1.8516  1.1978  0.6425
 7170SOL     OW33145   3.523   1.749   8.460  0.2243  0.8181  0.2583
 7170SOL    HW133146   3.434   1.721   8.481  0.2059  1.2741  0.7860
 7170SOL    HW233147   3.518   1.783   8.370  0.2837 -1.6380 -0.6652
 7171SOL     OW33148   1.539   3.390   3.940 -0.1365  0.2256 -0.0156
 7171SOL    HW133149   1.544   3.409   4.034  0.9003  0.0698 -0.0356
 7171SOL    HW233150   1.556   3.476   3.901 -3.3710  0.6114 -0.5673
 7172SOL     OW33151   3.182   0.977   9.934  0.2896  0.1686 -0.0211
 7172SOL    HW133152   3.219   1.064   9.924  3.1695 -0.9219  1.2926
 7172SOL    HW233153   3.139   0.963   9.849  1.2605 -1.8797 -0.1702
 7173SOL     OW33154   2.289   0.467   4.962 -0.2805  0.4918  0.2230
 7173SOL    HW133155   2.379   0.448   4.937 -1.0274  1.0909 -2.9359
 7173SOL    HW233156   2.294   0.519   5.042  0.6793  1.3478 -0.4087
 7174SOL     OW33157   2.307   3.062   5.826  0.6415 -0.4188 -0.0865
 7174SOL    HW133158   2.290   3.001   5.897 -0.2138  0.6170  0.5814
 7174SOL    HW233159   2.277   3.147   5.857 -0.5973 -0.7895 -0.2559
 7175SOL     OW33160   4.703   3.071   4.081  0.3032  0.2339 -0.0719
 7175SOL    HW133161   4.662   3.146   4.125 -0.3040 -0.3946  0.4342
 7175SOL    HW233162   4.635   3.005   4.071  2.2101 -1.9800  1.3884
 7176SOL     OW33163   3.319   3.985  13.247 -0.2355 -0.2157  0.8700
 7176SOL    HW133164   3.248   3.941  13.294  0.7144 -1.8433  0.7966
 7176SOL    HW233165   3.268   4.041  13.188 -1.0847 -1.1489  0.7195
 7177SOL     OW33166   1.416   3.112   2.128  1.1659  0.0041  0.6286
 7177SOL    HW133167   1.420   3.175   2.200  0.5586  2.1157 -1.1902
 7177SOL    HW233168   1.471   3.040   2.162  0.8710  0.1985  1.5234
 7178SOL     OW33169   1.869   2.363   3.446 -0.3537 -0.0615  0.1586
 7178SOL    HW133170   1.941   2.324   3.495  1.2756  0.6686 -1.6252
 7178SOL    HW233171   1.875   2.456   3.471  1.6088 -0.8916  2.6658
 7179SOL     OW33172   2.997   4.520  12.545  0.1872  0.3146 -0.2246
 7179SOL    HW133173   2.957   4.469  12.615 -0.8138 -0.2030 -1.1818
 7179SOL    HW233174   2.947   4.495  12.468 -0.7810 -0.8465  0.7656
 7180SOL     OW33175   4.681   3.687   6.170  0.2045  0.1357 -0.1850
 7180SOL    HW133176   4.736   3.610   6.159 -2.3164 -1.8168  0.7562
 7180SOL    HW233177   4.686   3.732   6.086 -0.4423  1.6267  0.5659
 7181SOL     OW33178   3.163   4.273   1.861 -0.6286 -0.1236  0.6132
 7181SOL    HW133179   3.124   4.269   1.949  0.2513  0.5958  1.0308
 7181SOL    HW233180   3.120   4.195   1.826 -0.1680 -0.1789  0.1697
 7182SOL     OW33181   2.619   0.122   0.707  0.1995 -0.1501 -0.4416
 7182SOL    HW133182   2.657   0.106   0.793 -0.2974  1.5947  0.0912
 7182SOL    HW233183   2.653   0.049   0.656 -0.7499 -1.4895  0.8210
 7183SOL     OW33184   2.251   4.355   4.501 -0.0074 -0.1960  0.6878
 7183SOL    HW133185   2.266   4.324   4.590  0.5288 -0.0839  0.6367
 7183SOL    HW233186   2.216   4.277   4.458  0.4174 -0.5807  1.0465
 7184SOL     OW33187   2.395   3.495   7.123 -0.5460 -0.3849  0.1626
 7184SOL    HW133188   2.363   3.431   7.060  1.0299  1.8830 -2.9825
 7184SOL    HW233189   2.487   3.473   7.134 -0.4003 -0.0811 -0.4642
 7185SOL     OW33190   4.020   0.348   8.380  0.3057  0.0394 -0.2364
 7185SOL    HW133191   3.948   0.291   8.405  1.9273 -2.0668 -0.4166
 7185SOL    HW233192   4.095   0.326   8.436  0.0815  1.7945  0.7850
 7186SOL     OW33193   4.322   0.794  10.052 -0.3312  0.8306 -1.0909
 7186SOL    HW133194   4.328   0.867  10.112  2.3439  0.7069 -1.2005
 7186SOL    HW233195   4.354   0.722  10.106 -3.8649  0.7346  0.8620
 7187SOL     OW33196   1.716   2.893  16.080 -0.1068  0.1128 -0.0812
 7187SOL    HW133197   1.810   2.887  16.099  0.1462  3.5781 -0.2932
 7187SOL    HW233198   1.723   2.974  16.029 -0.0705  0.8470  1.1029
 7188SOL     OW33199   2.671   0.282   8.107 -0.1642  0.4463  1.0552
 7188SOL    HW133200   2.766   0.282   8.091 -0.1786 -2.0355  0.8915
 7188SOL    HW233201   2.667   0.198   8.153  0.3749 -1.0873 -1.7382
 7189SOL     OW33202   3.531   2.640   2.384  0.0858 -0.2579 -0.4600
 7189SOL    HW133203   3.595   2.711   2.377  0.1758 -0.1844  1.1406
 7189SOL    HW233204   3.523   2.635   2.479  0.2062 -1.4555 -0.5151
 7190SOL     OW33205   3.990   2.042   4.134 -0.0797  0.0896 -0.1487
 7190SOL    HW133206   4.008   2.097   4.058 -0.9725 -1.0157 -1.1599
 7190SOL    HW233207   3.989   1.958   4.088  0.0270 -0.1079  0.2124
 7191SOL     OW33208   4.166   0.715  15.639  0.3851  0.2508  0.4013
 7191SOL    HW133209   4.137   0.715  15.730  2.6611 -3.2896  1.0792
 7191SOL    HW233210   4.181   0.622  15.621  2.5149  0.4692  1.1900
 7192SOL     OW33211   0.575   1.038   2.882  0.1203  0.1292 -0.6368
 7192SOL    HW133212   0.563   0.956   2.931  1.5412 -0.4076 -1.1670
 7192SOL    HW233213   0.487   1.053   2.849 -0.6456 -0.9827  0.9277
 7193SOL     OW33214   4.592   2.566   8.798  0.4714  0.4253  0.2504
 7193SOL    HW133215   4.540   2.547   8.720  0.7486  0.8932 -0.0477
 7193SOL    HW233216   4.552   2.649   8.823 -0.3500  0.1688 -0.2304
 7194SOL     OW33217   1.975   1.417   5.946  0.5432 -0.5321 -0.1361
 7194SOL    HW133218   1.942   1.487   5.889 -1.6405  0.5265  2.4055
 7194SOL    HW233219   1.941   1.434   6.034 -1.0232 -2.6570 -0.3115
 7195SOL     OW33220   4.414   0.872   7.605  0.1095 -0.4868 -0.2357
 7195SOL    HW133221   4.352   0.859   7.676 -0.6609  0.1396 -0.7944
 7195SOL    HW233222   4.358   0.929   7.553 -0.1526 -2.1652 -1.7748
 7196SOL     OW33223   0.037   0.710   9.182  0.3526  0.1996 -0.4491
 7196SOL    HW133224   0.067   0.679   9.097  1.9256  1.4834 -0.3613
 7196SOL    HW233225   0.059   0.803   9.188  0.3146  0.1984 -0.2819
 7197SOL     OW33226   2.133   4.572   6.811  0.3635 -0.1375  0.2688
 7197SOL    HW133227   2.089   4.655   6.829  0.8371  0.4354 -1.2087
 7197SOL    HW233228   2.192   4.560   6.886  2.3753 -0.9957 -1.4307
 7198SOL     OW33229   0.357   3.838  16.829  0.4318 -0.5971  0.0666
 7198SOL    HW133230   0.432   3.784  16.805  2.2606  1.4457  1.1662
 7198SOL    HW233231   0.390   3.888  16.904 -0.2558  1.3089 -0.8867
 7199SOL     OW33232   3.990   0.447   3.860  0.0597  0.4564  0.2228
 7199SOL    HW133233   3.911   0.393   3.863  0.3877 -0.0726 -0.7493
 7199SOL    HW233234   4.056   0.404   3.914  0.9620 -1.2913 -2.2706
 7200SOL     OW33235   1.630   1.593   6.183  0.0572 -0.2963 -0.1454
 7200SOL    HW133236   1.575   1.542   6.242 -2.4029  0.7810 -1.4582
 7200SOL    HW233237   1.591   1.561   6.102  1.9408  2.8289 -2.3139
 7201SOL     OW33238   2.143   4.319   8.520  0.2872  0.3243  0.0464
 7201SOL    HW133239   2.189   4.315   8.436 -0.0134  1.3791 -0.1745
 7201SOL    HW233240   2.112   4.409   8.522 -2.5867 -0.6495 -0.7855
 7202SOL     OW33241   2.803   2.855   6.116  0.5631  0.3878  0.0002
 7202SOL    HW133242   2.746   2.819   6.184  2.2754  0.2879  1.3851
 7202SOL    HW233243   2.827   2.774   6.071  0.8734  0.1059  0.6722
 7203SOL     OW33244   1.494   4.032   0.763  0.4255 -0.1996  0.1467
 7203SOL    HW133245   1.546   3.985   0.698 -1.4899 -1.4898 -0.4488
 7203SOL    HW233246   1.560   4.056   0.827 -1.3835  0.9976  1.5670
 7204SOL     OW33247   0.481   2.091   5.861 -0.0798  0.0865  0.3957
 7204SOL    HW133248   0.516   2.124   5.943 -2.1848  0.3597  1.1735
 7204SOL    HW233249   0.542   2.116   5.792 -1.8173  1.5413 -0.5985
 7205SOL     OW33250   4.497   2.087   5.702  0.6781  0.1723  0.1242
 7205SOL    HW133251   4.580   2.129   5.721  0.2311  0.5988  1.1191
 7205SOL    HW233252   4.474   2.063   5.792  0.0782 -2.4960 -0.7138
 7206SOL     OW33253   1.985   3.595   2.238  0.0100 -0.4303 -0.2125
 7206SOL    HW133254   1.925   3.523   2.255 -0.1217 -0.3555 -0.3533
 7206SOL    HW233255   2.015   3.622   2.324  1.5870  1.5383 -1.3749
 7207SOL     OW33256   2.487   4.187  16.889  0.2525 -0.0397 -0.0766
 7207SOL    HW133257   2.527   4.252  16.947 -1.9084  1.0405  0.2087
 7207SOL    HW233258   2.564   4.167  16.836  1.6095 -0.6972  2.1477
 7208SOL     OW33259   3.879   0.441   4.229 -0.0173  0.3082 -0.1586
 7208SOL    HW133260   3.870   0.378   4.300 -2.4024 -2.1162 -2.5818
 7208SOL    HW233261   3.837   0.510   4.280  1.0092  1.3474 -0.7240
 7209SOL     OW33262   2.105   2.253   3.460 -0.0661 -0.3428  0.9524
 7209SOL    HW133263   2.182   2.307   3.441  0.5429 -1.5949 -0.1576
 7209SOL    HW233264   2.143   2.166   3.462 -1.0194 -0.8063 -0.9151
 7210SOL     OW33265   0.101   4.385  11.712  0.6415 -0.0752  0.2063
 7210SOL    HW133266   0.133   4.471  11.740 -1.6010  0.5183  0.9573
 7210SOL    HW233267   0.176   4.354  11.660  2.0801  0.1248  2.1465
 7211SOL     OW33268   0.646   1.396  15.973 -0.9678 -0.0589  0.0092
 7211SOL    HW133269   0.713   1.435  15.917 -0.2863 -0.6248  0.4422
 7211SOL    HW233270   0.590   1.473  15.979 -2.0087 -0.7566 -0.5657
 7212SOL     OW33271   1.908   0.135  11.488 -0.5995 -0.2293  0.2340
 7212SOL    HW133272   1.938   0.224  11.468 -0.2958 -0.2915  0.4211
 7212SOL    HW233273   1.948   0.114  11.572 -0.7067 -1.2301  0.0381
 7213SOL     OW33274   2.656   2.948   3.196 -0.0230  0.1042  0.4080
 7213SOL    HW133275   2.645   2.853   3.197  2.1517 -0.1935 -2.7903
 7213SOL    HW233276   2.620   2.956   3.284 -1.1413  1.3310 -0.1658
 7214SOL     OW33277   4.345   3.067   6.732  0.1615 -0.3190 -0.2887
 7214SOL    HW133278   4.254   3.076   6.704  0.1261  0.2089 -0.0106
 7214SOL    HW233279   4.355   2.974   6.712 -0.6414 -0.8103  1.5806
 7215SOL     OW33280   2.916   2.209   9.980 -0.3242  0.0582  0.2050
 7215SOL    HW133281   2.850   2.275   9.959  0.6770  0.3179 -2.1410
 7215SOL    HW233282   2.930   2.225  10.073  0.9686  0.0866  0.0068
 7216SOL     OW33283   1.723   4.631   2.727  0.0720 -0.1972  0.0935
 7216SOL    HW133284   1.794   4.695   2.725 -0.0874 -0.1242 -3.3658
 7216SOL    HW233285   1.648   4.679   2.691  0.1662  0.3006  0.5613
 7217SOL     OW33286   3.177   1.430   4.088  0.1082  0.5925 -0.9447
 7217SOL    HW133287   3.165   1.516   4.129  0.3434 -0.6095  1.6169
 7217SOL    HW233288   3.185   1.462   3.998 -2.5208 -0.4244 -1.5489
 7218SOL     OW33289   0.636   1.935   4.189  0.3479 -0.1368  0.3631
 7218SOL    HW133290   0.715   1.987   4.176  1.1347 -1.0947  1.2997
 7218SOL    HW233291   0.629   1.941   4.284 -2.0882  1.7722  0.0542
 7219SOL     OW33292   3.135   1.528   0.365  0.5792 -0.0850  0.3596
 7219SOL    HW133293   3.089   1.558   0.444 -0.5661  0.8087 -0.6474
 7219SOL    HW233294   3.063   1.519   0.303  0.4202  0.4596  0.4592
 7220SOL     OW33295   4.164   4.490   2.521  0.0282  0.1053 -0.2955
 7220SOL    HW133296   4.138   4.406   2.559  3.5577  0.1426  2.2073
 7220SOL    HW233297   4.200   4.459   2.438 -0.4389  0.5108 -0.6477
 7221SOL     OW33298   0.953   1.555  12.081 -0.2525  0.2704 -0.3597
 7221SOL    HW133299   0.942   1.647  12.055  0.4050  0.5839  0.4550
 7221SOL    HW233300   1.036   1.533  12.039  0.1467  2.3323 -0.6744
 7222SOL     OW33301   3.486   3.601  15.110 -0.2896 -0.0982  0.0400
 7222SOL    HW133302   3.490   3.615  15.204  0.1299  0.5872 -0.0775
 7222SOL    HW233303   3.566   3.551  15.089  0.4514  1.8341 -1.7763
 7223SOL     OW33304   1.881   4.631   6.008 -0.0010 -0.3301  0.5562
 7223SOL    HW133305   1.943   4.582   6.062  0.5924 -0.9490 -0.6801
 7223SOL    HW233306   1.801   4.598   6.049  0.5429  0.0396  1.9223
 7224SOL     OW33307   3.538   4.146  13.370 -0.4479 -0.1400 -0.0189
 7224SOL    HW133308   3.552   4.078  13.436 -0.8263 -1.3317 -1.1641
 7224SOL    HW233309   3.465   4.108  13.320 -0.7653 -0.8534  0.9910
 7225SOL     OW33310   0.570   2.093  10.895  0.0580 -0.4617  0.7718
 7225SOL    HW133311   0.523   2.062  10.817  0.5833 -0.4274  0.4375
 7225SOL    HW233312   0.663   2.078  10.876  0.0569 -0.4645  0.7685
 7226SOL     OW33313   1.065   0.512   2.569  0.4046 -0.4387 -0.4672
 7226SOL    HW133314   1.044   0.468   2.651 -0.5777  1.4035  0.2892
 7226SOL    HW233315   1.139   0.456   2.549 -0.3353 -2.2892  1.8919
 7227SOL     OW33316   2.073   3.728   4.394 -0.0905  0.3296  0.0553
 7227SOL    HW133317   2.083   3.816   4.359 -1.1927  0.1759 -0.6403
 7227SOL    HW233318   2.133   3.729   4.469  0.7120 -0.9696 -0.5557
 7228SOL     OW33319   3.419   3.857   5.119  0.3995  0.4849  0.4956
 7228SOL    HW133320   3.347   3.879   5.059  0.2648 -0.9157  0.1396
 7228SOL    HW233321   3.454   3.940   5.149  1.0000  0.0523  0.9876
 7229SOL     OW33322   1.814   1.263  12.792  0.0799 -0.2049  0.1772
 7229SOL    HW133323   1.725   1.286  12.820  0.3048  1.7681 -0.7527
 7229SOL    HW233324   1.833   1.194  12.856 -0.7491 -0.0480  0.6085
 7230SOL     OW33325   3.725   1.336   8.498  0.2826  0.2514  0.0641
 7230SOL    HW133326   3.649   1.381   8.462  0.8914  0.2164 -1.2824
 7230SOL    HW233327   3.783   1.404   8.531 -1.3575  1.2347  0.8776
 7231SOL     OW33328   4.408   2.593   6.572  0.1760 -0.0019 -0.5176
 7231SOL    HW133329   4.452   2.588   6.487  1.1792 -1.6776  0.1131
 7231SOL    HW233330   4.466   2.539   6.625  0.4830 -0.2065 -1.0620
 7232SOL     OW33331   3.961   2.916   6.436  0.7863 -0.8967  0.3340
 7232SOL    HW133332   3.989   2.875   6.354 -0.2088  0.7323 -0.7968
 7232SOL    HW233333   3.869   2.940   6.430  0.9971 -0.4743 -0.9948
 7233SOL     OW33334   1.390   0.249   5.408 -0.1893  0.2846 -0.0337
 7233SOL    HW133335   1.330   0.187   5.449  0.8036 -0.4368  0.3326
 7233SOL    HW233336   1.379   0.237   5.314  0.4259 -1.4230  0.1075
 7234SOL     OW33337   1.776   3.698   7.298  0.2115  0.3199  0.4522
 7234SOL    HW133338   1.803   3.788   7.281 -0.1310  0.3927  0.2922
 7234SOL    HW233339   1.865   3.664   7.313  0.8740  0.4626 -3.0943
 7235SOL     OW33340   0.011   1.871   6.432 -0.1413 -0.3156  0.0116
 7235SOL    HW133341   0.063   1.843   6.357  1.0653  2.1464 -0.0440
 7235SOL    HW233342   0.025   1.964   6.419  1.0242 -0.3836  0.7346
 7236SOL     OW33343   3.159   0.642   1.263 -0.5635  0.0595  0.5443
 7236SOL    HW133344   3.153   0.612   1.172  2.1558  0.9655  0.0885
 7236SOL    HW233345   3.187   0.726   1.226 -0.8057  0.6282  1.6598
 7237SOL     OW33346   0.742   1.518  14.141 -0.5836 -1.0080 -0.0756
 7237SOL    HW133347   0.800   1.455  14.099 -0.9914 -0.3966 -1.5509
 7237SOL    HW233348   0.684   1.459  14.189 -1.1030  0.1587  0.7100
 7238SOL     OW33349   3.514   2.165  15.086 -0.1836 -0.1235  0.5602
 7238SOL    HW133350   3.418   2.169  15.092 -0.0567  1.0742  1.7257
 7238SOL    HW233351   3.547   2.244  15.129 -1.3739  1.6119 -1.6573
 7239SOL     OW33352   1.204   3.165   8.944 -0.7400  0.5624  0.0907
 7239SOL    HW133353   1.175   3.223   9.015 -0.7669 -1.2772  1.5902
 7239SOL    HW233354   1.143   3.095   8.965 -0.8358  0.5781 -0.1369
 7240SOL     OW33355   2.735   2.374   4.558  0.2247 -0.4644  0.1801
 7240SOL    HW133356   2.828   2.370   4.535  0.6762  0.3148  1.8876
 7240SOL    HW233357   2.712   2.285   4.529 -0.1251 -0.1761 -0.4218
 7241SOL     OW33358   0.256   4.140   8.694 -0.2003 -0.3429 -0.3608
 7241SOL    HW133359   0.167   4.170   8.674 -0.3655 -1.1824 -0.9116
 7241SOL    HW233360   0.298   4.221   8.721 -2.5898  0.7191  0.1271
 7242SOL     OW33361   1.784   3.811   8.374  0.2185  0.7248 -0.4181
 7242SOL    HW133362   1.876   3.835   8.368 -0.0896  1.3189 -2.6037
 7242SOL    HW233363   1.784   3.721   8.407 -1.2278  0.9271  0.1586
 7243SOL     OW33364   1.333   2.974   0.615 -0.2508 -0.3363  0.0014
 7243SOL    HW133365   1.408   2.964   0.557  1.7410 -0.9308  2.6919
 7243SOL    HW233366   1.297   3.047   0.564  1.0130 -0.2604 -0.7623
 7244SOL     OW33367   4.697   0.846   1.881  0.2229 -0.8532 -0.5971
 7244SOL    HW133368   0.049   0.836   1.851  0.1255 -1.9537 -0.5034
 7244SOL    HW233369   4.707   0.913   1.948  0.0247  0.2953 -1.7142
 7245SOL     OW33370   4.078   2.711   1.932  0.6425  0.5062  0.3621
 7245SOL    HW133371   4.061   2.668   1.849  1.9622  1.2667 -0.3116
 7245SOL    HW233372   4.095   2.633   1.985  0.8021 -0.5159 -1.2164
 7246SOL     OW33373   4.627   2.463  11.028 -0.0315  0.3670 -0.0155
 7246SOL    HW133374   4.713   2.488  11.060 -0.8947  0.9622  1.8239
 7246SOL    HW233375   4.641   2.368  11.028  0.4937  0.4470 -0.0532
 7247SOL     OW33376   1.128   4.016   1.379 -0.3369 -0.2012 -0.3763
 7247SOL    HW133377   1.130   3.940   1.436  0.0802 -1.0223 -1.5030
 7247SOL    HW233378   1.220   4.043   1.376  0.2967 -2.1006  2.5689
 7248SOL     OW33379   4.431   2.025   5.401 -0.2558 -0.5197  0.2184
 7248SOL    HW133380   4.474   2.020   5.486 -0.7493  0.0421  0.5016
 7248SOL    HW233381   4.496   1.993   5.339  0.8385  1.2376  0.4817
 7249SOL     OW33382   2.863   2.997   4.363 -0.1787 -0.1476 -0.4766
 7249SOL    HW133383   2.863   2.924   4.301  2.8347  0.9179 -1.7344
 7249SOL    HW233384   2.933   2.977   4.425  0.1869 -0.4558 -0.9961
 7250SOL     OW33385   4.502   0.599   3.544 -0.5204  0.1214 -0.1220
 7250SOL    HW133386   4.556   0.630   3.471  0.0864 -0.6871 -0.0256
 7250SOL    HW233387   4.420   0.646   3.535 -0.2211  0.5856 -0.4217
 7251SOL     OW33388   3.507   2.377   6.317 -0.4220  0.3234 -0.1257
 7251SOL    HW133389   3.417   2.350   6.298 -0.5510  0.6452  0.0162
 7251SOL    HW233390   3.551   2.327   6.249 -0.9971 -0.3327 -0.0141
 7252SOL     OW33391   3.417   1.152   5.511 -0.1339  0.0389 -0.5430
 7252SOL    HW133392   3.389   1.064   5.484  1.0202 -0.8276  1.0239
 7252SOL    HW233393   3.476   1.132   5.584  0.0770 -1.4126 -1.1080
 7253SOL     OW33394   4.073   2.629   5.164 -0.2111 -0.6200  0.4359
 7253SOL    HW133395   4.091   2.710   5.116  0.6682 -0.5166  0.9454
 7253SOL    HW233396   4.134   2.638   5.237  1.7369  1.8372 -1.4955
 7254SOL     OW33397   3.932   3.605   4.412 -1.0265  0.5640  0.8145
 7254SOL    HW133398   3.857   3.608   4.352  0.6378 -1.3362 -1.3511
 7254SOL    HW233399   3.996   3.575   4.348 -1.7761 -1.2015  0.8868
 7255SOL     OW33400   3.562   1.114   2.605  0.7232 -0.0361  0.4954
 7255SOL    HW133401   3.473   1.096   2.632  0.3894  0.4795 -0.2532
 7255SOL    HW233402   3.603   1.034   2.638  0.5247 -0.3871 -0.1082
 7256SOL     OW33403   3.746   2.222   3.398 -0.0944  0.5532  0.2309
 7256SOL    HW133404   3.841   2.231   3.413 -0.3644  0.5380  1.9719
 7256SOL    HW233405   3.713   2.311   3.385  0.1862  0.4913 -0.8825
 7257SOL     OW33406   2.654   3.054   7.123  0.1663  0.1430 -0.1087
 7257SOL    HW133407   2.650   2.979   7.183 -2.7669 -0.3377 -0.9007
 7257SOL    HW233408   2.747   3.040   7.104  0.7538  2.3726  1.1915
 7258SOL     OW33409   0.228   3.629  17.294 -0.5479 -0.4065 -0.1517
 7258SOL    HW133410   0.151   3.626  17.351  0.6340 -1.1505  1.4036
 7258SOL    HW233411   0.279   3.682  17.356  1.5048 -0.9540 -1.3523
 7259SOL     OW33412   0.325   3.223   9.800 -0.0896 -0.4201 -0.2848
 7259SOL    HW133413   0.384   3.172   9.856 -5.1649 -4.1321  1.6239
 7259SOL    HW233414   0.257   3.166   9.765 -0.6433 -1.0108  1.7593
 7260SOL     OW33415   0.370   2.054  17.487  0.0342  0.4784  0.2246
 7260SOL    HW133416   0.350   2.136  17.442 -0.5750 -0.8860 -2.0147
 7260SOL    HW233417   0.282   2.027  17.516 -0.4060 -1.3575 -2.7927
 7261SOL     OW33418   3.340   4.517   0.973 -0.5762 -0.8666  0.3140
 7261SOL    HW133419   3.288   4.436   0.978 -0.9702 -0.4731  2.7948
 7261SOL    HW233420   3.343   4.532   0.879  0.2847 -0.5729  0.3896
 7262SOL     OW33421   0.687   1.898   4.996 -0.1959  0.3305  0.0468
 7262SOL    HW133422   0.704   1.988   4.967  3.5136 -1.2005 -2.5013
 7262SOL    HW233423   0.741   1.854   4.930 -1.3777  0.7332 -1.2026
 7263SOL     OW33424   4.362   0.674   7.042 -0.5682 -0.2929  0.3197
 7263SOL    HW133425   4.269   0.696   7.032 -0.2851  0.5869 -0.3984
 7263SOL    HW233426   4.356   0.585   7.075  0.6308 -1.5278 -2.8288
 7264SOL     OW33427   3.880   0.335   8.693 -0.3907  0.2413 -0.2522
 7264SOL    HW133428   3.937   0.297   8.761 -1.8909 -1.9515 -0.2140
 7264SOL    HW233429   3.886   0.426   8.721 -1.0782 -0.1598  1.1929
 7265SOL     OW33430   1.035   3.997  13.006 -0.5220  0.0581 -0.0915
 7265SOL    HW133431   0.995   3.931  12.950  1.9061 -0.8180 -0.8203
 7265SOL    HW233432   1.077   3.943  13.073  0.4133  1.0749  0.1399
 7266SOL     OW33433   4.254   2.702   2.445  0.2081  0.1342  0.4481
 7266SOL    HW133434   4.255   2.722   2.538  1.3039 -3.3977  1.1857
 7266SOL    HW233435   4.201   2.623   2.452  1.4217 -0.5080  2.3265
 7267SOL     OW33436   0.330   2.564  14.953  0.0140 -0.9323  0.3481
 7267SOL    HW133437   0.420   2.592  14.968 -0.4546  0.1318  1.1525
 7267SOL    HW233438   0.318   2.489  15.013  0.1641 -1.0976  0.1707
 7268SOL     OW33439   4.667   0.480   3.755  0.7151 -0.1073  0.1250
 7268SOL    HW133440   4.597   0.515   3.699  1.9976  2.3296  0.0468
 7268SOL    HW233441   4.614   0.433   3.819  0.1124  0.4522  0.0400
 7269SOL     OW33442   0.416   4.460  11.187  0.2765  0.0758 -0.0964
 7269SOL    HW133443   0.492   4.505  11.149 -0.5408 -0.9930 -3.0623
 7269SOL    HW233444   0.468   4.420  11.256  0.2538 -1.3604 -0.8973
 7270SOL     OW33445   2.606   1.715   6.283  0.3891  0.1618 -0.2936
 7270SOL    HW133446   2.660   1.749   6.354  0.0862 -1.7177  0.8491
 7270SOL    HW233447   2.519   1.749   6.304 -0.8032 -1.8313 -1.9919
 7271SOL     OW33448   1.383   2.979  15.539 -0.0486 -0.0561  0.3106
 7271SOL    HW133449   1.447   2.913  15.514 -1.1697 -0.8977 -0.3361
 7271SOL    HW233450   1.321   2.968  15.467 -1.5637 -0.1920  1.6379
 7272SOL     OW33451   1.736   0.245  13.777 -0.6081 -0.4485  0.5453
 7272SOL    HW133452   1.710   0.307  13.845  0.9696 -0.5028  1.2039
 7272SOL    HW233453   1.772   0.178  13.836  0.0134 -0.3031  0.3378
 7273SOL     OW33454   4.476   4.320   1.917 -0.7481  0.4604 -0.3004
 7273SOL    HW133455   4.487   4.383   1.988 -2.3452 -0.0843  0.4488
 7273SOL    HW233456   4.465   4.236   1.962  0.0294 -0.8560 -2.5819
 7274SOL     OW33457   2.696   4.590   7.460  0.9178  0.2653 -0.6399
 7274SOL    HW133458   2.745   4.671   7.448 -1.7999  2.4240  2.3998
 7274SOL    HW233459   2.610   4.631   7.470  0.3279 -1.9630  3.5546
 7275SOL     OW33460   2.186   1.565   7.564 -0.3842 -0.3094  0.6207
 7275SOL    HW133461   2.139   1.602   7.639  0.5389  1.8845  0.1264
 7275SOL    HW233462   2.112   1.557   7.504 -0.2270 -1.0591  0.5214
 7276SOL     OW33463   3.526   0.016   2.942 -0.3048 -0.2713 -0.2063
 7276SOL    HW133464   3.546   0.093   2.996  1.4095  0.0763 -1.3506
 7276SOL    HW233465   3.610   0.012   2.897  1.1612  0.1660  2.4545
 7277SOL     OW33466   2.150   4.348   6.358 -0.2494 -0.0926 -0.0674
 7277SOL    HW133467   2.216   4.296   6.311 -0.1580 -1.6345  1.7664
 7277SOL    HW233468   2.204   4.388   6.426 -0.7103  0.1757  0.1373
 7278SOL     OW33469   4.728   2.103   6.045  0.3944 -0.5979  0.2553
 7278SOL    HW133470   0.033   2.054   5.975  2.3533 -2.5660  2.8562
 7278SOL    HW233471   0.058   2.113   6.110  1.2313  1.9921 -1.0171
 7279SOL     OW33472   0.314   3.756   3.367 -0.1685 -0.4690 -0.0681
 7279SOL    HW133473   0.236   3.798   3.331  0.8507  0.0220 -1.6715
 7279SOL    HW233474   0.377   3.739   3.297  1.2937  0.9713  0.8991
 7280SOL     OW33475   3.731   1.071  13.653 -0.1914  0.3927  0.2619
 7280SOL    HW133476   3.694   1.158  13.637 -1.7436 -0.2890  0.2084
 7280SOL    HW233477   3.700   1.020  13.579 -0.6947  1.8389 -0.5149
 7281SOL     OW33478   1.876   0.442   1.579 -0.2328  0.2739  0.3089
 7281SOL    HW133479   1.821   0.504   1.627 -1.6465  0.2329 -1.2797
 7281SOL    HW233480   1.967   0.464   1.600  0.4866 -0.4777 -1.9884
 7282SOL     OW33481   4.515   3.839   8.990  0.2829  0.4915 -0.3079
 7282SOL    HW133482   4.484   3.765   8.939  0.8533  1.0513 -1.4753
 7282SOL    HW233483   4.472   3.827   9.075 -1.2248  0.6511 -1.0456
 7283SOL     OW33484   4.390   0.357   5.303 -0.2678  1.1386  0.0724
 7283SOL    HW133485   4.466   0.354   5.361 -0.2536 -2.8185 -0.1386
 7283SOL    HW233486   4.392   0.266   5.272 -0.6605  0.5968  1.6726
 7284SOL     OW33487   1.178   4.200  17.628  0.0951  0.4977 -0.2995
 7284SOL    HW133488   1.262   4.245  17.620 -0.3232  1.0930 -1.2876
 7284SOL    HW233489   1.141   4.227  17.544  0.2501  2.6422  0.3227
 7285SOL     OW33490   4.453   0.847   0.748 -0.1465 -0.5195  0.3431
 7285SOL    HW133491   4.471   0.820   0.838 -1.6620  1.6780  1.3216
 7285SOL    HW233492   4.464   0.942   0.753  0.5871 -0.6513  1.1106
 7286SOL     OW33493   1.051   3.853  14.535  0.3108 -0.1512  0.3536
 7286SOL    HW133494   1.117   3.786  14.518  1.0696 -0.2266  3.6176
 7286SOL    HW233495   1.058   3.904  14.455 -3.6956  0.1565  0.1766
 7287SOL     OW33496   4.413   2.330  16.501 -0.0274 -0.2566  0.2226
 7287SOL    HW133497   4.503   2.336  16.534 -0.2907  0.3412  0.8336
 7287SOL    HW233498   4.370   2.274  16.567  0.5354 -3.4333 -2.0776
 7288SOL     OW33499   4.354   1.453   4.648  0.5596  0.2473  0.4560
 7288SOL    HW133500   4.265   1.420   4.647  0.8118 -0.4293 -0.1128
 7288SOL    HW233501   4.346   1.546   4.670 -1.6427 -0.0124  0.7043
 7289SOL     OW33502   2.153   3.865   3.536 -0.0085  0.2676  0.0562
 7289SOL    HW133503   2.238   3.873   3.579  0.5502 -1.4818 -0.7101
 7289SOL    HW233504   2.189   3.864   3.447  1.1806  2.2180  0.5127
 7290SOL     OW33505   0.646   1.693   0.441  1.1005 -0.0395  0.4425
 7290SOL    HW133506   0.608   1.735   0.518 -2.1880 -0.9143 -0.6716
 7290SOL    HW233507   0.625   1.605   0.470 -0.1373  0.0078 -0.2846
 7291SOL     OW33508   4.249   2.441   1.514  0.3823  0.4515  0.2367
 7291SOL    HW133509   4.179   2.403   1.566  0.1327 -0.0870 -0.4796
 7291SOL    HW233510   4.206   2.429   1.429 -0.8497 -1.0858  1.0738
 7292SOL     OW33511   1.540   3.044  11.986 -0.3080 -0.2184  0.1257
 7292SOL    HW133512   1.612   3.068  11.928 -0.9275 -1.9492 -1.3680
 7292SOL    HW233513   1.483   3.004  11.920 -1.7823  1.1479  0.5760
 7293SOL     OW33514   2.629   0.128  12.874 -0.0453 -0.6201 -0.1566
 7293SOL    HW133515   2.604   0.155  12.786 -0.0861 -0.4545 -0.0935
 7293SOL    HW233516   2.606   0.035  12.869  0.2481 -0.7457  0.7780
 7294SOL     OW33517   4.255   2.539  16.531 -0.0852 -0.0390  0.3066
 7294SOL    HW133518   4.291   2.562  16.617  0.8239 -0.0599 -0.0692
 7294SOL    HW233519   4.311   2.467  16.502  1.0794  0.4424  1.3538
 7295SOL     OW33520   1.552   3.861   4.753  0.3639 -0.0584 -0.2881
 7295SOL    HW133521   1.547   3.818   4.838  1.1980  1.7055  0.6416
 7295SOL    HW233522   1.459   3.866   4.729 -0.5029  0.6577  3.2956
 7296SOL     OW33523   1.815   3.732   1.307  0.1283  0.2676  0.2925
 7296SOL    HW133524   1.779   3.742   1.395 -1.9287  1.9105 -0.7414
 7296SOL    HW233525   1.806   3.821   1.272  0.2646  0.4273  0.6664
 7297SOL     OW33526   0.421   4.042   2.584 -0.2161 -0.6039  0.0848
 7297SOL    HW133527   0.347   3.985   2.560 -0.0402  0.4177 -2.9077
 7297SOL    HW233528   0.385   4.078   2.665  1.4397  0.4226  0.3577
 7298SOL     OW33529   0.823   1.213   6.912 -0.2973 -0.0347 -0.0706
 7298SOL    HW133530   0.731   1.239   6.918 -0.3615  0.1530 -1.9721
 7298SOL    HW233531   0.838   1.200   6.819 -2.2206  1.3797 -0.5896
 7299SOL     OW33532   2.369   4.526   4.226 -0.1604  0.1073  0.5020
 7299SOL    HW133533   2.387   4.466   4.299 -2.7191  0.0707  1.1150
 7299SOL    HW233534   2.371   4.470   4.148 -1.0981  0.6735  0.0738
 7300SOL     OW33535   4.443   2.041   8.986 -0.0648  0.0715  0.0641
 7300SOL    HW133536   4.537   2.025   8.992 -0.0091  0.6984  0.9041
 7300SOL    HW233537   4.430   2.053   8.892 -0.7817 -0.3175  0.1146
 7301SOL     OW33538   1.752   1.694   7.477 -0.0587  0.5142 -0.0035
 7301SOL    HW133539   1.660   1.681   7.502 -0.3787  1.1054 -0.8363
 7301SOL    HW233540   1.782   1.766   7.532 -0.5573  1.1051 -0.4938
 7302SOL     OW33541   4.724   3.965   2.058  0.1136 -0.3099 -0.0113
 7302SOL    HW133542   0.076   3.996   2.057  0.2154 -0.5968  1.6221
 7302SOL    HW233543   4.727   3.903   2.130  0.7141  1.4870  1.5238
 7303SOL     OW33544   3.000   1.742  16.503  0.3781  0.1553 -0.0223
 7303SOL    HW133545   2.907   1.721  16.509  0.1113  1.6564  1.0167
 7303SOL    HW233546   3.029   1.776  16.587 -3.0616 -2.4109  2.1979
 7304SOL     OW33547   4.381   0.982   7.856 -0.0213  0.5471  0.6842
 7304SOL    HW133548   4.470   0.998   7.825 -0.2952 -1.4212 -1.1027
 7304SOL    HW233549   4.393   1.013   7.946  0.0213  1.0065  0.5184
 7305SOL     OW33550   4.358   2.286   7.990 -0.2486  0.3044 -0.1484
 7305SOL    HW133551   4.392   2.309   8.076  0.5354 -5.0693  0.9977
 7305SOL    HW233552   4.373   2.369   7.945  1.7582 -0.4062 -0.8184
 7306SOL     OW33553   3.339   3.224   0.104 -0.4245  0.0537  0.0248
 7306SOL    HW133554   3.312   3.276   0.029 -0.1032 -0.2337 -0.2915
 7306SOL    HW233555   3.429   3.258   0.105 -0.1296 -0.7013 -1.1043
 7307SOL     OW33556   2.135   1.131   5.781  0.1396 -0.2338 -0.5195
 7307SOL    HW133557   2.105   1.194   5.845  1.6503  0.0662 -0.1093
 7307SOL    HW233558   2.057   1.090   5.744 -1.0202  0.6936  0.9262
 7308SOL     OW33559   1.550   0.152   5.850  0.0231 -1.0629  0.2907
 7308SOL    HW133560   1.644   0.144   5.866 -0.1890  1.2215  2.6446
 7308SOL    HW233561   1.552   0.199   5.767  0.0043 -0.9353  0.3626
 7309SOL     OW33562   1.352   4.304   4.316  0.0494 -0.2673 -0.5427
 7309SOL    HW133563   1.276   4.350   4.352  1.0164  0.7819  0.1993
 7309SOL    HW233564   1.387   4.373   4.259 -1.3068  0.9204  0.0480
 7310SOL     OW33565   4.416   3.720   7.897  0.3369  0.0461 -0.7644
 7310SOL    HW133566   4.425   3.627   7.877 -0.8262  0.1319 -1.6747
 7310SOL    HW233567   4.497   3.746   7.939  0.8586  0.5001 -2.0702
 7311SOL     OW33568   3.701   2.333   5.508 -0.2301  0.6095 -0.2749
 7311SOL    HW133569   3.706   2.273   5.434  1.0391  0.5407 -0.1335
 7311SOL    HW233570   3.767   2.399   5.483  0.9880 -0.1279  1.0039
 7312SOL     OW33571   3.780   3.192   6.576  0.4433 -0.6860 -0.2913
 7312SOL    HW133572   3.796   3.156   6.663 -0.2582  2.0202  0.9445
 7312SOL    HW233573   3.822   3.277   6.588 -0.2465 -0.2183 -1.2190
 7313SOL     OW33574   0.220   4.242   3.792  0.0535 -0.5313  0.4275
 7313SOL    HW133575   0.259   4.223   3.877 -0.5074 -0.6407  0.6565
 7313SOL    HW233576   0.130   4.218   3.815  0.1386 -0.6919  0.5916
 7314SOL     OW33577   0.949   2.533   5.625  0.3568 -0.5545  0.6151
 7314SOL    HW133578   1.040   2.563   5.629  0.3509 -0.3607 -0.5688
 7314SOL    HW233579   0.960   2.444   5.658 -0.6724 -0.2897  1.6458
 7315SOL     OW33580   2.269   0.261   8.682  0.4979  0.1953  0.1685
 7315SOL    HW133581   2.288   0.308   8.763  0.4100 -0.7091  0.7099
 7315SOL    HW233582   2.176   0.283   8.676  0.2643 -0.4094  1.5595
 7316SOL     OW33583   1.354   3.909   2.938 -0.0219  0.3083 -0.1279
 7316SOL    HW133584   1.311   3.962   3.005  0.6166 -0.8074  1.1484
 7316SOL    HW233585   1.280   3.862   2.898 -0.2154  1.3673 -1.0057
 7317SOL     OW33586   1.840   2.350   4.256 -0.6776  0.2687 -0.4226
 7317SOL    HW133587   1.923   2.304   4.270 -0.9609  0.6961  2.5322
 7317SOL    HW233588   1.780   2.293   4.304  0.7302 -1.2221 -0.4013
 7318SOL     OW33589   4.149   0.394   2.020 -0.1428  0.4096  0.5167
 7318SOL    HW133590   4.116   0.309   2.048 -1.6224  0.7888 -0.0825
 7318SOL    HW233591   4.082   0.459   2.037 -0.1557 -0.1782  2.6565
 7319SOL     OW33592   1.395   3.654   8.285 -0.6181  0.0474 -0.2101
 7319SOL    HW133593   1.437   3.733   8.250 -0.3099 -0.0130  0.0234
 7319SOL    HW233594   1.403   3.593   8.212  1.0403 -1.4490  1.2458
 7320SOL     OW33595   2.076   4.068   8.617 -0.1507  0.0137  0.1910
 7320SOL    HW133596   2.087   4.158   8.586 -0.4313 -0.1237 -0.3099
 7320SOL    HW233597   2.164   4.044   8.644 -0.7046 -1.3008  0.8369
 7321SOL     OW33598   2.987   2.837   2.876  0.0066 -0.7830  0.2559
 7321SOL    HW133599   3.067   2.785   2.885  2.1051  2.4855  0.2751
 7321SOL    HW233600   2.924   2.774   2.910  0.7648 -0.7063  1.7871
 7322SOL     OW33601   1.932   4.392   6.799  0.1454  0.4300 -0.1361
 7322SOL    HW133602   1.879   4.464   6.766  1.0372 -0.1585 -2.8472
 7322SOL    HW233603   2.017   4.435   6.792 -0.9605  2.6953  0.6399
 7323SOL     OW33604   4.029   0.147   2.067  0.2628 -0.1377 -0.0197
 7323SOL    HW133605   3.936   0.142   2.047  0.6559 -1.1304 -1.6026
 7323SOL    HW233606   4.063   0.059   2.050 -2.5354 -1.2369  0.0321
 7324SOL     OW33607   0.362   4.500   3.068  0.3707 -0.4229 -0.1514
 7324SOL    HW133608   0.337   4.427   3.126 -0.8856  0.1692  0.0405
 7324SOL    HW233609   0.431   4.540   3.121  1.0726 -0.4841 -1.0176
 7325SOL     OW33610   1.106   4.335   8.839  0.5264 -0.0280 -0.0111
 7325SOL    HW133611   1.017   4.300   8.826 -0.0522  0.6320  2.2654
 7325SOL    HW233612   1.107   4.416   8.788  0.2751 -1.3953 -2.2016
 7326SOL     OW33613   2.323   2.810   9.974  0.1157 -0.0342  0.0109
 7326SOL    HW133614   2.315   2.770  10.060  0.4565 -0.3385 -0.0963
 7326SOL    HW233615   2.280   2.894   9.990  0.9157  0.6975 -1.6170
 7327SOL     OW33616   3.542   3.724  12.666 -0.3033 -0.1443 -0.2510
 7327SOL    HW133617   3.547   3.655  12.600 -1.5959 -1.8371  1.4363
 7327SOL    HW233618   3.556   3.669  12.743  0.0597 -2.2329 -1.8027
 7328SOL     OW33619   1.283   1.611  16.783  0.0279 -0.1507 -0.5259
 7328SOL    HW133620   1.292   1.517  16.798  0.1288 -0.5350 -3.0131
 7328SOL    HW233621   1.314   1.636  16.870 -0.2220  4.2529 -1.6843
 7329SOL     OW33622   0.704   0.854   8.969 -0.4985  0.2775 -0.4431
 7329SOL    HW133623   0.708   0.823   9.059 -0.0261 -0.7477 -0.8145
 7329SOL    HW233624   0.776   0.805   8.927  0.8872  1.7217  0.2493
 7330SOL     OW33625   4.499   1.659   9.280  0.3959  0.1032  0.4598
 7330SOL    HW133626   4.428   1.637   9.340  1.0047 -0.7355  0.8845
 7330SOL    HW233627   4.460   1.638   9.195  0.3766 -0.1049  0.5185
 7331SOL     OW33628   2.595   0.266   4.150 -0.0022 -0.4606  0.7830
 7331SOL    HW133629   2.547   0.337   4.107  1.1570 -0.7092 -0.8877
 7331SOL    HW233630   2.554   0.190   4.109  0.8874 -1.1757  1.2369
 7332SOL     OW33631   1.258   3.865   1.948 -0.5005 -0.2034 -0.1012
 7332SOL    HW133632   1.198   3.883   2.021  1.6349 -0.6911  1.7942
 7332SOL    HW233633   1.205   3.806   1.896 -1.2814  0.3850  0.0275
 7333SOL     OW33634   1.856   4.160   6.872  0.1653  0.5422 -0.0603
 7333SOL    HW133635   1.863   4.130   6.781 -0.8234 -1.5702  0.5682
 7333SOL    HW233636   1.895   4.245   6.853  1.1772  0.3962  1.3305
 7334SOL     OW33637   4.468   3.425   5.017  0.7005 -0.4977 -0.1496
 7334SOL    HW133638   4.513   3.500   5.055 -1.2809  1.5960 -1.9905
 7334SOL    HW233639   4.508   3.347   5.056 -1.1496 -0.7394  1.2391
 7335SOL     OW33640   2.360   0.593   6.910  0.1613 -0.1215  0.5530
 7335SOL    HW133641   2.326   0.579   6.822  1.2302  2.3829 -0.2547
 7335SOL    HW233642   2.310   0.673   6.930 -0.3441 -0.9437  2.5445
 7336SOL     OW33643   0.279   1.170   1.726 -0.8132  0.7400  0.1163
 7336SOL    HW133644   0.323   1.153   1.643 -1.1375 -1.6978  0.4507
 7336SOL    HW233645   0.321   1.249   1.761 -3.4949  2.4959 -0.6306
 7337SOL     OW33646   1.518   4.598   1.610 -0.0583 -0.1830 -0.5558
 7337SOL    HW133647   1.599   4.608   1.560 -0.8084  1.9928 -1.3461
 7337SOL    HW233648   1.502   4.685   1.648 -2.1360 -0.8143  0.0204
 7338SOL     OW33649   4.518   3.049   1.361 -0.0228  0.4250 -0.1382
 7338SOL    HW133650   4.563   2.971   1.329  1.7988  1.8272 -0.9992
 7338SOL    HW233651   4.435   3.049   1.313  0.2310  0.1632 -0.5732
 7339SOL     OW33652   1.847   4.234  10.636 -0.8298  0.4019 -0.0830
 7339SOL    HW133653   1.881   4.153  10.597 -0.2445  0.5768  0.0629
 7339SOL    HW233654   1.860   4.223  10.730 -1.3434  0.4271 -0.0082
 7340SOL     OW33655   0.737   1.410   5.765  0.0084  0.5027 -0.0434
 7340SOL    HW133656   0.669   1.409   5.832 -0.0472  2.5925 -0.0816
 7340SOL    HW233657   0.729   1.501   5.737  2.3507  0.9642  0.8372
 7341SOL     OW33658   2.909   4.155   8.517 -0.6538 -0.1986 -0.2170
 7341SOL    HW133659   2.826   4.107   8.514 -1.1857  0.6720  0.5794
 7341SOL    HW233660   2.931   4.177   8.426  1.2156 -0.9704  0.0501
 7342SOL     OW33661   4.639   1.013   3.841  0.4109  0.4008  0.5901
 7342SOL    HW133662   4.620   0.947   3.774 -1.7002  1.4096  0.2030
 7342SOL    HW233663   4.651   0.970   3.926 -0.3074 -1.9584 -0.4936
 7343SOL     OW33664   3.049   4.720  10.460 -0.1117  0.0680 -0.4101
 7343SOL    HW133665   3.090   0.028  10.388 -1.0919 -0.5497 -1.3632
 7343SOL    HW233666   3.044   0.054  10.522 -1.7459 -0.3071 -0.0942
 7344SOL     OW33667   3.224   1.305   3.460 -0.9318 -0.2880 -0.1042
 7344SOL    HW133668   3.224   1.237   3.528  0.8316  0.5085  0.7194
 7344SOL    HW233669   3.140   1.346   3.479 -0.6392  0.3426 -0.1613
 7345SOL     OW33670   2.135   4.681   7.211  0.1613  0.2969  0.4179
 7345SOL    HW133671   2.079   4.603   7.208  0.3226  0.3286 -2.7025
 7345SOL    HW233672   2.067   0.009   7.209  1.0480  1.1688 -0.4676
 7346SOL     OW33673   1.824   4.021   7.842  0.7812  0.5091 -0.1147
 7346SOL    HW133674   1.915   3.992   7.851  0.7973  0.9671  1.2595
 7346SOL    HW233675   1.789   4.002   7.929 -0.8707 -0.4857 -1.0101
 7347SOL     OW33676   0.597   1.861  16.444  0.4677  0.3552  0.0303
 7347SOL    HW133677   0.626   1.930  16.503  0.3833  0.4827 -0.0770
 7347SOL    HW233678   0.660   1.793  16.468  1.2209  1.1207  0.2154
 7348SOL     OW33679   3.830   3.326  11.200  0.5971 -0.3524 -0.1665
 7348SOL    HW133680   3.904   3.350  11.143  0.4121  0.3928 -0.1020
 7348SOL    HW233681   3.820   3.395  11.266  0.4503 -1.5069  1.0059
 7349SOL     OW33682   0.161   0.809   2.129  0.2363 -0.2608  0.4255
 7349SOL    HW133683   0.217   0.732   2.114  1.4406  0.4739  1.1167
 7349SOL    HW233684   0.167   0.853   2.045 -1.2599 -0.4289  0.2436
 7350SOL     OW33685   1.622   0.670   7.233  0.6447  0.0580 -0.5768
 7350SOL    HW133686   1.698   0.723   7.210  0.2893  0.3680 -1.0443
 7350SOL    HW233687   1.653   0.584   7.206  0.2540 -0.3007  0.1233
 7351SOL     OW33688   2.693   0.841  10.386  0.5469 -0.4761 -0.1797
 7351SOL    HW133689   2.778   0.802  10.408  1.7968  1.6158 -1.2398
 7351SOL    HW233690   2.723   0.932  10.378 -0.3608  0.0152  2.0315
 7352SOL     OW33691   0.102   0.164  14.602  0.1790 -0.4819 -0.5671
 7352SOL    HW133692   0.128   0.086  14.651  0.9882  0.5470  0.6241
 7352SOL    HW233693   0.006   0.155  14.606  0.3249 -2.3773 -1.1796
 7353SOL     OW33694   2.155   0.155   1.170  0.5602  0.2129  0.0534
 7353SOL    HW133695   2.147   0.244   1.205 -0.1898  0.7096 -1.4160
 7353SOL    HW233696   2.086   0.115   1.224  0.6161 -0.0996 -0.1104
 7354SOL     OW33697   1.806   2.633   7.852  0.4295 -0.1074  0.2210
 7354SOL    HW133698   1.843   2.644   7.939  0.1260 -2.4752  0.6551
 7354SOL    HW233699   1.730   2.580   7.875  0.7848 -0.9254 -0.5203
 7355SOL     OW33700   4.368   2.539  15.018  0.1656  0.6323 -0.7582
 7355SOL    HW133701   4.386   2.525  15.111 -1.2762  0.2037 -0.5443
 7355SOL    HW233702   4.431   2.473  14.988 -0.5210 -0.0914 -0.6124
 7356SOL     OW33703   3.908   4.146   6.069 -0.6301 -0.1336 -0.7013
 7356SOL    HW133704   3.998   4.158   6.038 -0.0237 -1.3590  0.5614
 7356SOL    HW233705   3.905   4.050   6.070  2.2641 -0.2082  2.3543
 7357SOL     OW33706   3.012   0.164   9.908 -0.3076  0.3963 -0.6110
 7357SOL    HW133707   2.955   0.125   9.975  0.7601  1.3763  0.8685
 7357SOL    HW233708   2.963   0.141   9.829 -1.0082 -4.1160  1.1284
 7358SOL     OW33709   3.602   0.942   7.090 -0.0640  0.3297 -0.5804
 7358SOL    HW133710   3.672   0.950   7.155  1.2596  1.6761 -2.1840
 7358SOL    HW233711   3.646   0.966   7.008  2.1963 -1.0753  0.2136
 7359SOL     OW33712   0.421   1.245   7.944 -0.9199  0.7865  0.3219
 7359SOL    HW133713   0.353   1.215   8.004  0.0641 -0.8799  0.5922
 7359SOL    HW233714   0.422   1.178   7.876 -1.5472  1.3679 -0.2637
 7360SOL     OW33715   0.034   0.458   6.565 -0.9047 -0.1884  0.1830
 7360SOL    HW133716   0.075   0.372   6.557  1.8791  1.1520  0.1184
 7360SOL    HW233717   0.052   0.485   6.655 -0.0449 -1.0553  0.2667
 7361SOL     OW33718   2.528   2.399  12.274  0.1282  0.0747  0.2436
 7361SOL    HW133719   2.611   2.403  12.320 -0.4278  2.1482  1.0500
 7361SOL    HW233720   2.553   2.422  12.184 -1.9655 -0.5117 -0.4954
 7362SOL     OW33721   0.290   2.916   4.918  0.1120  0.3088  0.2993
 7362SOL    HW133722   0.359   2.855   4.945  0.7477  0.0270 -1.9652
 7362SOL    HW233723   0.283   2.885   4.827  0.2472  2.2154 -0.3481
 7363SOL     OW33724   1.878   1.228   1.825  0.2993 -0.2264  0.4184
 7363SOL    HW133725   1.944   1.216   1.757 -0.0451  0.2975 -0.0173
 7363SOL    HW233726   1.849   1.318   1.806  2.5026  0.3951 -0.0129
 7364SOL     OW33727   2.629   1.689   3.776 -0.1069 -0.6101  0.3060
 7364SOL    HW133728   2.565   1.744   3.820 -1.8785 -2.5084  0.1205
 7364SOL    HW233729   2.684   1.651   3.845  0.5793  0.0165  0.1098
 7365SOL     OW33730   4.427   3.570   2.528 -0.0632  0.5124  0.1220
 7365SOL    HW133731   4.496   3.504   2.517 -1.2067 -0.6337 -0.2116
 7365SOL    HW233732   4.478   3.649   2.511 -0.9919  1.0590 -0.0577
 7366SOL     OW33733   3.464   1.765   9.267  0.0982 -0.1643  0.1197
 7366SOL    HW133734   3.374   1.734   9.267  0.1308 -0.2591  0.8005
 7366SOL    HW233735   3.460   1.835   9.202 -0.6055 -2.6188 -2.4681
 7367SOL     OW33736   4.223   2.788   7.875 -0.0956 -0.3371  0.5070
 7367SOL    HW133737   4.285   2.848   7.834 -3.4586  1.9910 -1.1781
 7367SOL    HW233738   4.249   2.704   7.837 -0.0756  0.5640 -1.4376
 7368SOL     OW33739   0.650   2.881   4.743 -0.6214 -0.0847 -0.0571
 7368SOL    HW133740   0.598   2.852   4.818  0.5610  2.2211  1.6620
 7368SOL    HW233741   0.579   2.882   4.679  0.3077  0.9712 -1.0698
 7369SOL     OW33742   4.437   0.515   6.754  0.1694  0.4891  0.2034
 7369SOL    HW133743   4.467   0.599   6.789  0.1026  1.0390 -1.0593
 7369SOL    HW233744   4.404   0.549   6.671  0.8810 -0.0731 -0.3177
 7370SOL     OW33745   4.700   2.677  17.218  0.8564  0.0119  0.3908
 7370SOL    HW133746   4.651   2.689  17.299 -0.7029 -0.1517 -0.5351
 7370SOL    HW233747   4.636   2.708  17.154 -1.6509 -2.9428  1.4660
 7371SOL     OW33748   3.612   0.893   8.903  0.3002  0.1823  0.0695
 7371SOL    HW133749   3.695   0.939   8.898 -0.6621  1.7813 -1.4269
 7371SOL    HW233750   3.574   0.922   8.986  1.1541 -2.4753  1.4069
 7372SOL     OW33751   0.362   3.103   7.914 -0.0049 -0.3757 -0.0879
 7372SOL    HW133752   0.440   3.052   7.890  1.2546  0.6229  1.8311
 7372SOL    HW233753   0.359   3.171   7.847 -0.4004 -3.3586 -3.0674
 7373SOL     OW33754   4.234   3.428   4.846  0.2992  0.7727  0.3793
 7373SOL    HW133755   4.305   3.439   4.910  0.2226 -0.6321  0.7199
 7373SOL    HW233756   4.234   3.513   4.802  2.3484 -0.5863 -2.2936
 7374SOL     OW33757   2.672   3.994   8.551  0.4233  0.1287 -0.2749
 7374SOL    HW133758   2.662   3.995   8.456  2.3240 -0.5573 -0.4770
 7374SOL    HW233759   2.630   3.912   8.577 -2.0878  1.8394  1.0849
 7375SOL     OW33760   2.477   0.313   9.298 -0.3852 -0.1604  0.0607
 7375SOL    HW133761   2.396   0.277   9.335  0.2224  0.2792  1.8042
 7375SOL    HW233762   2.452   0.405   9.289  0.3911 -0.0462 -0.8471
 7376SOL     OW33763   0.807   0.584   6.456 -0.1877 -0.1050 -1.1899
 7376SOL    HW133764   0.826   0.638   6.532  0.4885  1.1284 -2.2271
 7376SOL    HW233765   0.711   0.577   6.457 -0.3434  2.5916  1.0373
 7377SOL     OW33766   3.102   3.146   2.478  0.2576 -0.1514  0.2757
 7377SOL    HW133767   3.133   3.066   2.435  0.2857 -0.0706  0.1449
 7377SOL    HW233768   3.061   3.106   2.555  1.2924 -1.2678  0.2441
 7378SOL     OW33769   3.741   1.908   3.590 -0.5652 -0.0433 -0.1471
 7378SOL    HW133770   3.705   1.833   3.543  1.8297 -0.3947 -1.4131
 7378SOL    HW233771   3.820   1.912   3.536  0.8460  1.6233  2.0298
 7379SOL     OW33772   2.759   0.913   9.205 -0.3893 -0.4192  0.0150
 7379SOL    HW133773   2.755   0.832   9.153 -0.9806 -0.1344 -0.3803
 7379SOL    HW233774   2.672   0.917   9.246 -0.6236  0.6742 -0.6071
 7380SOL     OW33775   1.089   1.925   6.559  0.0233  0.5715 -0.2624
 7380SOL    HW133776   1.086   1.900   6.466  0.5019  0.0077 -0.1230
 7380SOL    HW233777   1.102   2.020   6.556  0.2077  0.5068 -1.9333
 7381SOL     OW33778   3.099   2.630   3.798  0.0644 -0.1974 -0.2084
 7381SOL    HW133779   3.172   2.692   3.801 -1.4491  1.5855 -0.7624
 7381SOL    HW233780   3.065   2.643   3.709 -1.0586  1.3730  0.4666
 7382SOL     OW33781   1.677   1.841   6.125  0.0011 -0.4433 -0.3841
 7382SOL    HW133782   1.664   1.817   6.033 -1.7523 -0.3548 -0.1666
 7382SOL    HW233783   1.644   1.765   6.174  1.0526 -0.4198  0.3555
 7383SOL     OW33784   1.324   1.197   3.837  0.2113  0.5473  0.2676
 7383SOL    HW133785   1.309   1.239   3.752 -1.3724  2.2011  1.3422
 7383SOL    HW233786   1.277   1.253   3.899  2.0573  1.1751  1.0970
 7384SOL     OW33787   0.980   1.595   7.732  0.1144  0.1375  0.6878
 7384SOL    HW133788   1.057   1.587   7.675 -0.0025 -1.1244  0.7131
 7384SOL    HW233789   1.010   1.565   7.817 -0.3348  0.5488  0.9926
 7385SOL     OW33790   0.602   2.227   4.435 -0.2109 -0.3699  0.1981
 7385SOL    HW133791   0.693   2.256   4.443  0.5986 -2.9827  0.5708
 7385SOL    HW233792   0.548   2.272   4.499  0.7526  3.0536 -1.4246
 7386SOL     OW33793   0.502   1.275   5.065  0.4823 -0.1971  0.3438
 7386SOL    HW133794   0.501   1.248   4.973 -1.0929  2.4422 -0.4164
 7386SOL    HW233795   0.528   1.364   5.040  1.2889 -0.5490 -0.1007
 7387SOL     OW33796   3.065   2.010  11.310 -0.4168 -0.5102  0.3194
 7387SOL    HW133797   3.005   1.937  11.298  0.7134 -1.1249 -1.5238
 7387SOL    HW233798   3.057   2.059  11.228  0.5868  1.6731  1.5044
 7388SOL     OW33799   3.449   0.003   4.390 -0.2018  0.1517  0.1265
 7388SOL    HW133800   3.504   4.711   4.318  2.5312  2.8290  1.0762
 7388SOL    HW233801   3.378   4.677   4.394 -1.3411  1.4471  0.6770
 7389SOL     OW33802   0.769   0.060   8.487  0.8359 -0.0333  0.0355
 7389SOL    HW133803   0.688   0.012   8.472  1.4526 -2.2046  3.9105
 7389SOL    HW233804   0.843   0.001   8.471  0.6870  0.1888 -1.5083
 7390SOL     OW33805   3.676   2.756  14.575 -0.2073 -0.2398 -0.7858
 7390SOL    HW133806   3.594   2.805  14.560  0.5100  1.1162 -0.3341
 7390SOL    HW233807   3.735   2.831  14.584  0.8767 -1.2435  0.3030
 7391SOL     OW33808   0.884   3.197  12.753  0.0969 -0.2684 -0.1342
 7391SOL    HW133809   0.902   3.288  12.729  3.2289 -0.6089  0.8383
 7391SOL    HW233810   0.887   3.148  12.671 -2.6263 -1.5748  0.5734
 7392SOL     OW33811   2.104   2.174   1.871 -0.2265 -0.3052  0.4985
 7392SOL    HW133812   2.184   2.132   1.902 -0.2452 -1.1995 -0.6772
 7392SOL    HW233813   2.042   2.143   1.937  0.0221  1.1536  1.4213
 7393SOL     OW33814   2.268   1.600   3.833 -1.0654  0.0026 -0.4479
 7393SOL    HW133815   2.266   1.603   3.929 -0.5724 -1.6272 -0.3878
 7393SOL    HW233816   2.177   1.622   3.811 -1.4824 -0.5895  0.6668
 7394SOL     OW33817   2.055   2.444  15.907  0.0580 -0.5399 -0.5876
 7394SOL    HW133818   2.016   2.362  15.935 -0.5121 -0.2764 -0.6134
 7394SOL    HW233819   2.052   2.490  15.991 -0.6041 -2.4143  0.4129
 7395SOL     OW33820   2.018   0.505   7.178  0.0254  0.1578  0.5164
 7395SOL    HW133821   2.104   0.547   7.179  0.2870 -0.2899 -1.7908
 7395SOL    HW233822   1.964   0.554   7.240 -1.4193 -1.1683  0.3164
 7396SOL     OW33823   0.998   1.694   8.761 -0.4782 -0.0822  0.4173
 7396SOL    HW133824   0.966   1.626   8.702 -3.1672  1.6712 -0.1405
 7396SOL    HW233825   0.949   1.678   8.842 -1.2260 -2.7025 -0.5278
 7397SOL     OW33826   2.700   0.787   7.458 -0.0176 -0.0813  0.5158
 7397SOL    HW133827   2.744   0.807   7.375 -0.1708  0.8306  0.6525
 7397SOL    HW233828   2.762   0.721   7.489 -1.1576 -1.0214  0.7784
 7398SOL     OW33829   1.785   1.417   9.300  0.2963 -0.2681 -0.1812
 7398SOL    HW133830   1.751   1.329   9.280  1.0808 -0.6614  0.2303
 7398SOL    HW233831   1.796   1.406   9.395 -2.9861  1.1165  0.3934
 7399SOL     OW33832   0.457   2.664   5.778 -0.1834  0.4597 -0.1734
 7399SOL    HW133833   0.470   2.569   5.778 -1.4772  0.2773 -0.0604
 7399SOL    HW233834   0.545   2.693   5.802  0.0811 -1.1691  0.8080
 7400SOL     OW33835   0.081   1.543   3.553 -0.7539 -0.3116 -0.6448
 7400SOL    HW133836   0.051   1.633   3.569 -0.9729 -0.2968 -1.1367
 7400SOL    HW233837   0.050   1.534   3.463 -1.1803  2.3977 -0.7566
 7401SOL     OW33838   2.162   4.182   7.673 -0.4363 -0.4054  0.0791
 7401SOL    HW133839   2.114   4.164   7.593 -0.3799  0.6302 -0.1912
 7401SOL    HW233840   2.192   4.271   7.656  1.0403 -1.2132 -1.5659
 7402SOL     OW33841   3.026   3.988   7.504  0.2497 -0.0716  0.0756
 7402SOL    HW133842   3.079   3.927   7.556  2.2528 -0.1104 -2.0558
 7402SOL    HW233843   3.002   3.937   7.427  1.8777 -1.9894  0.8449
 7403SOL     OW33844   4.093   2.273   0.090  0.2327 -0.2908  0.2694
 7403SOL    HW133845   4.062   2.242   0.175 -0.0671 -0.7161  0.0059
 7403SOL    HW233846   4.076   2.367   0.086  0.6560 -0.3456 -2.5202
 7404SOL     OW33847   3.394   1.542  15.599  0.1791 -0.2052  0.4006
 7404SOL    HW133848   3.341   1.579  15.669 -0.3674  0.0706 -0.1703
 7404SOL    HW233849   3.479   1.579  15.624 -0.0819  0.5870  0.0872
 7405SOL     OW33850   4.019   1.385  17.143  0.5539 -0.1041  0.2403
 7405SOL    HW133851   3.997   1.411  17.232 -3.5907  0.8241 -1.0455
 7405SOL    HW233852   3.928   1.367  17.117  0.3640 -0.2772  1.0157
 7406SOL     OW33853   2.967   4.630   3.987 -0.5973  0.3301  0.1618
 7406SOL    HW133854   2.917   4.570   4.042  1.6449 -0.7310  1.0358
 7406SOL    HW233855   2.988   4.578   3.910 -1.3103 -0.4717  0.5153
 7407SOL     OW33856   3.464   1.810   0.210  0.2093  0.0067 -0.4810
 7407SOL    HW133857   3.401   1.738   0.209  1.2648 -0.9460  0.5311
 7407SOL    HW233858   3.450   1.858   0.129 -0.7960  1.1219  0.3595
 7408SOL     OW33859   2.268   4.531   0.336 -0.4436  0.7536  0.2252
 7408SOL    HW133860   2.340   4.468   0.336 -1.3212 -0.2683  0.1092
 7408SOL    HW233861   2.200   4.489   0.389  0.1190 -1.2210 -0.6128
 7409SOL     OW33862   4.050   3.659   0.479 -0.6804 -0.2543  0.1048
 7409SOL    HW133863   4.103   3.595   0.430  1.1764  0.2223  1.4683
 7409SOL    HW233864   4.012   3.604   0.548  1.4226 -1.9412 -0.0682
 7410SOL     OW33865   0.526   4.057   2.192 -0.1544  0.1802 -0.0987
 7410SOL    HW133866   0.538   4.048   2.098  1.6062 -0.3456  0.1620
 7410SOL    HW233867   0.478   4.139   2.193 -3.5161 -1.7959  0.8818
 7411SOL     OW33868   4.484   2.548  16.055 -0.3788  0.1296  0.7333
 7411SOL    HW133869   4.442   2.489  16.118  0.1422 -1.5382 -0.4577
 7411SOL    HW233870   4.417   2.593  16.003  1.2396 -0.4020 -1.8619
 7412SOL     OW33871   1.920   3.640   8.063  0.1398  0.2114  0.1825
 7412SOL    HW133872   1.965   3.611   8.143 -2.2263  1.9870  2.1625
 7412SOL    HW233873   1.852   3.573   8.060  2.6845 -2.4129  0.4159
 7413SOL     OW33874   0.965   0.883   1.211 -0.3385  0.1509  0.4495
 7413SOL    HW133875   1.046   0.883   1.262 -0.7556 -0.4091  1.1138
 7413SOL    HW233876   0.935   0.970   1.236 -1.9324  0.2660 -1.9213
 7414SOL     OW33877   3.269   0.657  15.310 -0.4438 -0.4323  0.2908
 7414SOL    HW133878   3.188   0.616  15.343  0.2313 -1.1397  1.0792
 7414SOL    HW233879   3.325   0.656  15.388  1.5303  0.3988 -1.1401
 7415SOL     OW33880   3.970   2.541   4.742 -0.3041  0.1774  0.5918
 7415SOL    HW133881   3.924   2.474   4.691 -1.9421  1.0236  0.9342
 7415SOL    HW233882   3.929   2.619   4.704  1.7010 -0.0556 -1.9741
 7416SOL     OW33883   0.831   4.066   8.150  0.0263  0.1166 -1.3319
 7416SOL    HW133884   0.915   4.022   8.160  0.3517  1.1455  0.5444
 7416SOL    HW233885   0.768   3.994   8.158 -1.4415  1.6243  1.0915
 7417SOL     OW33886   3.729   2.539  17.715  0.2144 -0.0886 -0.4537
 7417SOL    HW133887   3.708   2.538  17.621 -1.1451 -0.6815 -0.1413
 7417SOL    HW233888   3.649   2.563   0.008 -0.3253 -2.5795 -0.0880
 7418SOL     OW33889   2.662   2.897   4.133 -0.2585  0.2548 -0.0720
 7418SOL    HW133890   2.651   2.989   4.154 -0.2822  0.6109 -1.6123
 7418SOL    HW233891   2.728   2.912   4.065  0.3190  0.8803  0.6345
 7419SOL     OW33892   1.027   2.268   1.269  0.4438 -0.0585 -0.3221
 7419SOL    HW133893   0.956   2.285   1.330  1.1556 -1.9767  1.0164
 7419SOL    HW233894   1.000   2.336   1.206  2.9930 -0.4212 -1.8145
 7420SOL     OW33895   4.312   1.751  10.249  0.1126  0.1346 -0.4923
 7420SOL    HW133896   4.398   1.781  10.278 -0.5112 -1.2547  2.7855
 7420SOL    HW233897   4.279   1.828  10.203  1.0210  0.1689 -1.0937
 7421SOL     OW33898   1.925   0.928   6.876 -0.6684 -0.9813  0.5986
 7421SOL    HW133899   2.003   0.895   6.833 -0.2454  0.1825  0.4699
 7421SOL    HW233900   1.964   0.996   6.930 -1.8676  0.5817 -0.4840
 7422SOL     OW33901   2.990   1.189   8.996  0.3147 -0.3414 -0.2355
 7422SOL    HW133902   3.036   1.220   8.918 -0.5275 -0.5296 -0.7961
 7422SOL    HW233903   3.032   1.108   9.026  0.9292 -0.5158 -1.5837
 7423SOL     OW33904   3.602   4.068   9.167 -0.3090  0.1585 -0.3309
 7423SOL    HW133905   3.509   4.085   9.150  0.1575  3.1263  0.0569
 7423SOL    HW233906   3.623   4.009   9.095 -0.3896 -3.0716  2.2955
 7424SOL     OW33907   1.281   3.805   0.704  0.3490 -1.1305 -0.0992
 7424SOL    HW133908   1.358   3.827   0.651  0.5036 -2.0863 -0.2783
 7424SOL    HW233909   1.236   3.740   0.649 -0.9914 -0.5954  0.3570
 7425SOL     OW33910   2.797   3.846   2.765 -0.5992  0.5782 -0.7995
 7425SOL    HW133911   2.875   3.883   2.723  0.3004  0.3561  0.6900
 7425SOL    HW233912   2.794   3.901   2.843  0.5899  1.2349 -1.2083
 7426SOL     OW33913   0.956   4.637   4.546  0.4751  0.2470 -0.1990
 7426SOL    HW133914   0.955   4.732   4.544  2.8798  0.3320  2.0080
 7426SOL    HW233915   0.879   4.625   4.602  1.6925 -0.0254  1.4533
 7427SOL     OW33916   2.916   3.960  13.162  0.0062  0.2513  0.0452
 7427SOL    HW133917   2.989   4.011  13.127  0.8183 -2.2221 -1.8215
 7427SOL    HW233918   2.916   3.990  13.253 -1.7988 -2.4544  0.9387
 7428SOL     OW33919   1.225   4.155   0.699 -0.5796 -0.5068 -0.0659
 7428SOL    HW133920   1.282   4.092   0.743 -0.0923  1.0322  1.4961
 7428SOL    HW233921   1.135   4.127   0.716 -1.6196  0.9823 -3.0859
 7429SOL     OW33922   3.375   1.769  11.218 -0.4703  0.1615 -0.0264
 7429SOL    HW133923   3.463   1.734  11.204 -0.3277  0.7085 -0.5194
 7429SOL    HW233924   3.409   1.846  11.264 -2.4443  1.6439 -1.0691
 7430SOL     OW33925   2.545   2.794   6.634  0.4772 -0.2249  0.1123
 7430SOL    HW133926   2.451   2.783   6.620  0.5439 -0.8640  0.1559
 7430SOL    HW233927   2.551   2.878   6.679  0.7634 -1.0723  1.6514
 7431SOL     OW33928   0.623   3.622  15.099  0.2378 -0.1903  0.0231
 7431SOL    HW133929   0.681   3.697  15.094 -1.9748  1.4918 -0.5029
 7431SOL    HW233930   0.626   3.608  15.194 -2.7790  0.7843  0.2532
 7432SOL     OW33931   4.724   0.295   6.080  0.4029 -0.9294  0.0561
 7432SOL    HW133932   0.013   0.217   6.031  1.0139 -2.2255  2.4700
 7432SOL    HW233933   0.057   0.300   6.142 -0.9136  1.0676  1.4307
 7433SOL     OW33934   1.934   3.758  10.717 -0.3647  0.6062  0.6813
 7433SOL    HW133935   2.018   3.720  10.742 -0.0479 -0.3616 -1.7966
 7433SOL    HW233936   1.956   3.847  10.742 -2.3524  0.7267  2.0003
 7434SOL     OW33937   2.469   2.127   6.278  0.2111 -0.7707 -1.1662
 7434SOL    HW133938   2.441   2.128   6.187  2.5594  1.2100 -1.8606
 7434SOL    HW233939   2.435   2.041   6.303  1.3301 -1.0902 -0.7083
 7435SOL     OW33940   4.452   4.658   6.279  0.4430 -0.0323 -0.0953
 7435SOL    HW133941   4.441   4.672   6.185  0.3462 -2.9427 -0.5139
 7435SOL    HW233942   4.392   4.724   6.312 -0.4741 -0.1617 -1.4670
 7436SOL     OW33943   3.362   0.693   9.028 -0.0801  0.5792  0.6211
 7436SOL    HW133944   3.360   0.787   9.042  1.2418  0.7027 -0.0535
 7436SOL    HW233945   3.457   0.682   9.018 -0.4304 -0.7150 -1.1765
 7437SOL     OW33946   2.933   1.815  11.158 -0.6746 -0.7993  0.5893
 7437SOL    HW133947   2.890   1.822  11.072 -1.2940  0.2380  0.9847
 7437SOL    HW233948   3.017   1.791  11.120 -0.9101  0.7873 -0.9565
 7438SOL     OW33949   0.016   4.679   9.440 -0.0384  0.3723 -0.0332
 7438SOL    HW133950   0.058   4.601   9.402 -0.0821  0.4010 -0.1423
 7438SOL    HW233951   4.666   4.662   9.406 -0.3454  0.3457  0.7843
 7439SOL     OW33952   2.597   3.889   6.308 -0.1696 -0.2822 -0.3429
 7439SOL    HW133953   2.638   3.907   6.223  1.2500  0.8216  0.5860
 7439SOL    HW233954   2.651   3.820   6.347  1.2724  0.8780 -0.2896
 7440SOL     OW33955   2.687   2.164   8.153 -0.0252 -0.3472  0.2275
 7440SOL    HW133956   2.669   2.070   8.151  1.0649 -0.5301 -1.3113
 7440SOL    HW233957   2.657   2.186   8.065  3.4079  0.1889 -0.8063
 7441SOL     OW33958   0.245   2.501   8.287  0.1766 -0.0786 -0.7362
 7441SOL    HW133959   0.230   2.457   8.371 -0.2074  0.0089 -0.7591
 7441SOL    HW233960   0.182   2.573   8.292 -1.9868 -2.0396  0.3019
 7442SOL     OW33961   0.782   2.317   2.425 -0.3620 -0.0020 -0.1258
 7442SOL    HW133962   0.747   2.231   2.449  0.4269 -0.3251 -0.1274
 7442SOL    HW233963   0.863   2.320   2.477 -1.6024  1.5269  1.6816
 7443SOL     OW33964   1.451   1.780  15.717 -0.2688  0.0461  0.0233
 7443SOL    HW133965   1.530   1.775  15.771  1.0001  0.9584 -1.7761
 7443SOL    HW233966   1.414   1.863  15.749 -1.6322 -0.1668 -1.0140
 7444SOL     OW33967   4.125   1.806   5.509  0.0340  0.4336 -0.5603
 7444SOL    HW133968   4.154   1.803   5.418 -2.6782 -0.1356 -1.4103
 7444SOL    HW233969   4.164   1.889   5.533  1.9081 -0.5101 -0.3451
 7445SOL     OW33970   4.039   2.070   2.977 -0.3117 -0.3290  0.4217
 7445SOL    HW133971   4.043   2.005   2.907  1.2133  1.0254 -0.7284
 7445SOL    HW233972   3.948   2.064   3.007 -0.8955  0.9946 -1.0344
 7446SOL     OW33973   4.295   0.352   0.020 -0.2115 -0.3441  0.0246
 7446SOL    HW133974   4.332   0.436  17.747 -1.3619 -0.0763 -0.6957
 7446SOL    HW233975   4.376   0.304   0.038 -0.0160 -0.4451 -1.1505
 7447SOL     OW33976   4.433   4.053  14.731 -0.0630  0.6332  0.1480
 7447SOL    HW133977   4.355   4.025  14.685  1.2425 -0.1958 -1.5375
 7447SOL    HW233978   4.435   4.140  14.690  1.6621 -0.6382 -2.4611
 7448SOL     OW33979   3.334   4.486   5.118  0.1030  0.3078  0.0896
 7448SOL    HW133980   3.366   4.508   5.205 -3.8901 -1.3712  1.9676
 7448SOL    HW233981   3.382   4.404   5.103 -1.4105 -0.6649  0.5703
 7449SOL     OW33982   4.092   3.805   4.495  0.2278 -0.3077  0.0360
 7449SOL    HW133983   4.032   3.879   4.494 -0.5204 -0.8950  1.8313
 7449SOL    HW233984   4.032   3.740   4.457 -1.0635 -0.3138  2.0835
 7450SOL     OW33985   0.692   0.363  13.341 -0.5295  0.3803 -0.1605
 7450SOL    HW133986   0.702   0.371  13.436 -0.1155 -1.9628 -0.0067
 7450SOL    HW233987   0.636   0.436  13.317  2.0863  1.9817 -1.4436
 7451SOL     OW33988   1.686   2.144   3.636  0.0972 -0.2578  0.0359
 7451SOL    HW133989   1.760   2.159   3.578  1.5383  0.4129  2.0593
 7451SOL    HW233990   1.697   2.206   3.709  2.8719 -2.1662  1.2313
 7452SOL     OW33991   2.611   2.263  14.419 -0.9470  0.1962 -0.2737
 7452SOL    HW133992   2.537   2.223  14.464  0.4331 -0.2974  1.5032
 7452SOL    HW233993   2.663   2.282  14.496 -1.8340 -1.2871  0.6750
 7453SOL     OW33994   2.707   1.106   4.784  0.1728  0.0557  0.5946
 7453SOL    HW133995   2.648   1.130   4.856  4.3178  2.2071  3.2670
 7453SOL    HW233996   2.651   1.119   4.708  0.7668  2.3110  0.5428
 7454SOL     OW33997   0.493   3.707   6.970 -0.2400  0.2717  0.8851
 7454SOL    HW133998   0.460   3.692   6.881 -0.1198 -0.1311  0.9071
 7454SOL    HW233999   0.497   3.618   7.004  0.5237 -0.4236 -1.0543
 7455SOL     OW34000   2.130   1.835   7.886 -0.3369 -0.8335  0.5404
 7455SOL    HW134001   2.088   1.751   7.902 -2.4670  0.0832 -0.2182
 7455SOL    HW234002   2.215   1.823   7.929  0.8295  0.8141 -1.3117
 7456SOL     OW34003   2.645   0.651   1.175 -0.4121 -0.2936 -0.0519
 7456SOL    HW134004   2.706   0.598   1.225  0.5189 -0.1356 -1.0381
 7456SOL    HW234005   2.566   0.637   1.228 -0.9244 -0.8588 -0.9613
 7457SOL     OW34006   1.205   1.248   2.786 -0.5822  0.0072 -0.0691
 7457SOL    HW134007   1.134   1.313   2.784 -0.9713 -0.3560  1.8107
 7457SOL    HW234008   1.151   1.168   2.781 -0.8760  0.1191  1.1638
 7458SOL     OW34009   1.495   1.356   5.575  0.1975  0.3237 -0.8853
 7458SOL    HW134010   1.449   1.421   5.628  1.4867  0.8550 -0.4189
 7458SOL    HW234011   1.416   1.323   5.533  0.7582  0.1174 -1.7807
 7459SOL     OW34012   4.734   3.541   6.829 -0.5267 -1.1178  0.2292
 7459SOL    HW134013   4.655   3.595   6.833 -0.8166 -1.6000  0.9043
 7459SOL    HW234014   0.034   3.559   6.914  0.1392 -1.6076  0.0218
 7460SOL     OW34015   0.696   1.547   6.041  0.7131  0.5328 -0.7555
 7460SOL    HW134016   0.653   1.623   6.079  0.4944  0.1337 -0.1923
 7460SOL    HW234017   0.784   1.577   6.019  1.4166  0.4541  1.9923
 7461SOL     OW34018   4.703   4.545   6.294  0.6300  0.2048  0.1503
 7461SOL    HW134019   4.611   4.569   6.283  0.2478 -0.9469  0.7779
 7461SOL    HW234020   4.737   4.549   6.205 -1.1554 -0.9569 -0.5994
 7462SOL     OW34021   1.595   3.768   0.429  0.0910 -0.3161  0.0550
 7462SOL    HW134022   1.662   3.797   0.368 -0.4656 -0.1255 -0.4706
 7462SOL    HW234023   1.532   3.836   0.403  1.7551  1.0481 -0.3943
 7463SOL     OW34024   4.090   2.828   8.478  0.0293 -0.3271  0.4386
 7463SOL    HW134025   4.137   2.864   8.403 -1.1864  0.8219  0.2146
 7463SOL    HW234026   4.004   2.822   8.435 -0.9523 -1.4514  2.5402
 7464SOL     OW34027   4.185   3.618   5.571  0.1851 -0.1447  0.4077
 7464SOL    HW134028   4.226   3.699   5.542  2.5015 -1.3903  0.2079
 7464SOL    HW234029   4.150   3.644   5.656  2.2137  0.8004  0.9463
 7465SOL     OW34030   0.224   1.789   5.727 -0.3248 -0.3438 -0.0803
 7465SOL    HW134031   0.298   1.749   5.772 -0.2025  1.2489  1.1627
 7465SOL    HW234032   0.158   1.758   5.789 -0.7657  1.0066  0.1399
 7466SOL     OW34033   3.003   2.990   7.537  0.4671  0.1578 -0.6438
 7466SOL    HW134034   3.054   2.957   7.463  2.3439 -0.8955  1.1149
 7466SOL    HW234035   3.050   2.952   7.612  1.5969 -0.2375 -1.5579
 7467SOL     OW34036   2.955   1.972   8.558 -0.5757 -0.6125 -0.0583
 7467SOL    HW134037   2.935   1.977   8.651 -0.7105  0.3514 -0.1347
 7467SOL    HW234038   3.031   2.029   8.566  0.1834 -2.2532  4.1063
 7468SOL     OW34039   2.175   3.328  11.277 -0.0134 -0.1412  0.1173
 7468SOL    HW134040   2.155   3.273  11.353  0.5272 -2.1189 -1.1713
 7468SOL    HW234041   2.191   3.412  11.320 -2.4289  0.1649  0.4188
 7469SOL     OW34042   3.460   2.177   2.759  0.2795 -0.4484  0.1051
 7469SOL    HW134043   3.505   2.144   2.837 -1.3491 -2.0724  0.3616
 7469SOL    HW234044   3.404   2.233   2.812 -1.3025  1.8919 -4.0042
 7470SOL     OW34045   1.581   2.140   8.526  0.3706  0.1361  0.2026
 7470SOL    HW134046   1.495   2.099   8.535  1.5755 -2.0321  1.8045
 7470SOL    HW234047   1.627   2.064   8.562 -2.7258  0.2518  4.3313
 7471SOL     OW34048   3.458   1.560   6.449 -0.1566 -0.3780 -0.3817
 7471SOL    HW134049   3.445   1.518   6.364  0.7864  0.7930 -1.0991
 7471SOL    HW234050   3.412   1.643   6.442 -1.7100 -1.1688  0.4552
 7472SOL     OW34051   1.503   2.870   2.748 -0.0849  0.0665 -0.1496
 7472SOL    HW134052   1.509   2.964   2.733 -0.2805  0.1667  0.3900
 7472SOL    HW234053   1.547   2.861   2.832  1.5643  2.2695 -0.7863
 7473SOL     OW34054   4.646   4.080   5.743  0.1041 -0.3563  0.2568
 7473SOL    HW134055   4.699   4.133   5.801  0.3303  0.7766 -0.9855
 7473SOL    HW234056   4.625   4.001   5.793  3.4959 -0.9800  0.6559
 7474SOL     OW34057   1.559   3.229   3.475 -0.3067 -0.3915 -0.0917
 7474SOL    HW134058   1.651   3.243   3.453 -0.2710  0.7112  0.7997
 7474SOL    HW234059   1.561   3.136   3.498 -0.6870 -0.5946 -0.8514
 7475SOL     OW34060   1.514   1.309   3.254 -0.3083 -0.2554  0.3331
 7475SOL    HW134061   1.525   1.249   3.180  0.0230  0.6023 -0.3106
 7475SOL    HW234062   1.431   1.276   3.289  0.4016  0.4046  2.6320
 7476SOL     OW34063   2.017   3.148   6.502  0.3271 -0.7556 -0.4939
 7476SOL    HW134064   1.957   3.212   6.463  0.2432  1.2280  2.8526
 7476SOL    HW234065   1.961   3.095   6.559  0.6644  1.1207  1.5872
 7477SOL     OW34066   3.075   2.096  17.282  0.0374 -0.2556  0.5253
 7477SOL    HW134067   2.985   2.068  17.264  0.5210  0.0019 -2.2483
 7477SOL    HW234068   3.055   2.116  17.373  1.1098 -0.0443  0.7094
 7478SOL     OW34069   2.384   4.437   3.432  0.1234  0.0060 -0.1510
 7478SOL    HW134070   2.418   4.517   3.392  0.4387 -1.2578 -2.4359
 7478SOL    HW234071   2.445   4.374   3.392 -0.7449 -1.5771  1.0327
 7479SOL     OW34072   2.188   4.331  11.744 -0.0622  0.0539 -0.1663
 7479SOL    HW134073   2.206   4.408  11.689 -0.1094  0.6353  0.6311
 7479SOL    HW234074   2.226   4.360  11.827 -0.3859 -0.3167  0.1127
 7480SOL     OW34075   2.467   4.545   9.632 -0.1174 -0.1709  0.4080
 7480SOL    HW134076   2.507   4.500   9.557  0.6560 -2.3047  2.1159
 7480SOL    HW234077   2.394   4.487   9.652 -0.5850 -0.7963 -3.1363
 7481SOL     OW34078   2.764   1.058  14.955  0.1421  0.2782  0.1386
 7481SOL    HW134079   2.671   1.058  14.977  0.0367  0.2766 -0.3118
 7481SOL    HW234080   2.787   1.147  14.983  0.1110 -0.0094  1.1003
 7482SOL     OW34081   3.993   3.185   4.915 -0.3040  0.0488  0.4467
 7482SOL    HW134082   3.950   3.217   4.836  2.2606  1.9381 -0.2233
 7482SOL    HW234083   3.922   3.148   4.966 -1.1248 -0.1321 -0.8408
 7483SOL     OW34084   2.945   0.911  13.603  0.2348 -0.5299  0.1487
 7483SOL    HW134085   2.858   0.943  13.626  0.0556 -1.3791  0.6579
 7483SOL    HW234086   2.920   0.867  13.522  0.0947  0.0463 -0.1199
 7484SOL     OW34087   1.449   0.636   5.601 -0.4824  0.1072 -0.5660
 7484SOL    HW134088   1.536   0.615   5.565 -1.7790 -0.7762 -3.2106
 7484SOL    HW234089   1.453   0.729   5.578  0.3332 -0.6160 -3.4023
 7485SOL     OW34090   4.084   1.238   0.690  0.3462  0.4212  0.5437
 7485SOL    HW134091   4.043   1.153   0.677 -0.3970  1.0552 -1.3159
 7485SOL    HW234092   4.091   1.249   0.785 -2.0857  1.1559  0.6413
 7486SOL     OW34093   0.684   3.984  15.114 -0.2941 -0.1349 -0.5193
 7486SOL    HW134094   0.732   3.921  15.062 -1.4353 -1.2515 -0.2233
 7486SOL    HW234095   0.667   4.057  15.055  1.1566 -0.1759 -0.9822
 7487SOL     OW34096   0.289   2.248   4.010  0.2726 -0.1312  0.0900
 7487SOL    HW134097   0.229   2.189   4.056 -0.5197 -0.9038 -1.9082
 7487SOL    HW234098   0.371   2.234   4.058  0.0842 -2.4080 -0.2259
 7488SOL     OW34099   1.516   2.463   4.572  0.4068  0.2664 -0.3315
 7488SOL    HW134100   1.477   2.479   4.658  1.1679 -0.1596  0.0904
 7488SOL    HW234101   1.593   2.517   4.591 -0.6733  1.7378 -0.0687
 7489SOL     OW34102   3.776   0.463   3.094  0.2103 -0.2365 -0.0604
 7489SOL    HW134103   3.685   0.471   3.064  1.1481  0.0348 -2.8344
 7489SOL    HW234104   3.806   0.389   3.042  2.1559 -0.0005  0.7353
 7490SOL     OW34105   2.868   3.217   7.538 -1.0779  0.1167 -0.4562
 7490SOL    HW134106   2.899   3.126   7.541 -1.3696 -0.0096 -1.3771
 7490SOL    HW234107   2.905   3.242   7.454 -1.4276  0.5603 -0.4799
 7491SOL     OW34108   3.050   0.345   3.913 -0.5417 -0.0353  0.1515
 7491SOL    HW134109   3.056   0.418   3.851 -0.4147 -0.5965 -0.4847
 7491SOL    HW234110   2.976   0.369   3.970  0.2244  1.5617  0.4828
 7492SOL     OW34111   3.073   3.951   2.523 -0.2086 -0.3045 -0.5262
 7492SOL    HW134112   3.012   4.023   2.530 -1.0715 -0.9440 -1.4467
 7492SOL    HW234113   3.070   3.952   2.427 -1.3583  1.3187 -0.4672
 7493SOL     OW34114   3.069   2.992   3.454 -0.2217  0.0980  0.0387
 7493SOL    HW134115   3.035   2.985   3.365 -0.4401  0.1506  0.1170
 7493SOL    HW234116   3.150   3.034   3.425  0.4330 -1.1754  0.0035
 7494SOL     OW34117   0.005   3.169  12.647 -0.4404  0.3012  0.3860
 7494SOL    HW134118   0.049   3.221  12.715 -1.4868  1.3101  0.2854
 7494SOL    HW234119   0.043   3.085  12.673 -2.4051 -0.2977  1.3212
 7495SOL     OW34120   3.797   1.886   8.857  0.3674  0.3498 -0.0773
 7495SOL    HW134121   3.834   1.798   8.850 -1.0610 -0.2835  0.3885
 7495SOL    HW234122   3.851   1.918   8.929  0.1546 -2.4512  1.3150
 7496SOL     OW34123   4.156   1.479  14.344 -0.2107  0.8059  0.1095
 7496SOL    HW134124   4.165   1.559  14.291 -2.6349  0.2930 -1.0487
 7496SOL    HW234125   4.101   1.514  14.415 -0.8987 -0.7337  0.3370
 7497SOL     OW34126   4.326   1.672   5.718  0.6973  0.1201  0.3708
 7497SOL    HW134127   4.237   1.704   5.703  0.8215  0.1168 -0.3831
 7497SOL    HW234128   4.311   1.590   5.766 -0.3709 -0.2394 -0.5708
 7498SOL     OW34129   1.895   0.838   8.568 -0.0056 -0.1645  0.4373
 7498SOL    HW134130   1.817   0.785   8.586  0.4481  0.0922  3.1996
 7498SOL    HW234131   1.857   0.912   8.520  2.2308 -0.2230 -1.3820
 7499SOL     OW34132   1.823   3.993  11.069 -0.3695  0.0743 -0.0406
 7499SOL    HW134133   1.845   3.902  11.047 -1.2107  0.8030 -3.9445
 7499SOL    HW234134   1.873   4.037  11.000  0.6724  0.8760  1.2467
 7500SOL     OW34135   3.815   2.423   6.865 -0.3041 -0.5970 -0.1592
 7500SOL    HW134136   3.886   2.462   6.815 -1.4902 -0.4456 -1.7302
 7500SOL    HW234137   3.769   2.377   6.796  0.8753 -0.7865 -0.8155
 7501SOL     OW34138   3.077   4.628   0.568 -0.2044  0.3749  0.1949
 7501SOL    HW134139   3.031   4.546   0.551 -1.0332  0.6059  1.3327
 7501SOL    HW234140   3.002   4.686   0.583 -3.4155 -3.5126 -0.8699
 7502SOL     OW34141   3.523   1.196  10.656  0.1866  0.2077 -0.2779
 7502SOL    HW134142   3.575   1.235  10.586  0.7531 -0.7500 -0.3916
 7502SOL    HW234143   3.553   1.251  10.728 -0.6698 -0.3012  0.4650
 7503SOL     OW34144   0.426   3.347   0.016 -0.3317 -0.5060  0.0551
 7503SOL    HW134145   0.414   3.367   0.109  0.7886  0.8655 -0.0871
 7503SOL    HW234146   0.520   3.331   0.012  0.1190  2.0810 -0.0669
 7504SOL     OW34147   2.201   1.362   4.575 -0.3577 -0.1020  0.2528
 7504SOL    HW134148   2.126   1.386   4.521 -0.9681  0.3548  1.3123
 7504SOL    HW234149   2.187   1.268   4.590  2.0732 -0.4866  0.2223
 7505SOL     OW34150   2.555   3.262   9.691  0.1559  0.0469 -0.4941
 7505SOL    HW134151   2.507   3.302   9.764 -0.1037 -2.3741  0.6724
 7505SOL    HW234152   2.614   3.208   9.743 -2.5240 -0.2290  2.2452
 7506SOL     OW34153   2.525   4.730   4.105 -0.4235 -0.3411 -0.2157
 7506SOL    HW134154   2.459   4.667   4.133 -0.3184 -1.2769 -2.0399
 7506SOL    HW234155   2.593   4.717   4.172 -0.7723  3.0750  0.8164
 7507SOL     OW34156   1.023   2.976   1.818 -0.9874 -0.5752  0.2376
 7507SOL    HW134157   0.948   2.926   1.850 -2.9418  2.0709 -0.2223
 7507SOL    HW234158   1.098   2.931   1.858 -0.8344  0.4307  1.0728
 7508SOL     OW34159   1.989   3.820   6.728 -0.1388 -0.1105  0.0503
 7508SOL    HW134160   1.968   3.832   6.821 -0.8177 -0.6252 -0.0341
 7508SOL    HW234161   2.047   3.895   6.710 -0.7202  0.9372  2.5432
 7509SOL     OW34162   3.073   2.638   5.802 -0.1865 -0.3099 -0.0130
 7509SOL    HW134163   3.168   2.645   5.805 -0.1923  0.6327 -2.1176
 7509SOL    HW234164   3.058   2.633   5.708  1.4320  1.2412 -0.3505
 7510SOL     OW34165   2.527   1.950   3.869 -0.5061 -0.0117 -0.3520
 7510SOL    HW134166   2.499   1.925   3.957 -4.5955  0.8297 -1.4171
 7510SOL    HW234167   2.437   1.974   3.848 -0.2438  0.3543 -1.0613
 7511SOL     OW34168   0.185   3.956   3.238 -0.0047 -0.5612  0.0104
 7511SOL    HW134169   0.104   3.925   3.199 -0.5079 -0.6967  1.1804
 7511SOL    HW234170   0.163   4.031   3.294 -2.4342 -1.7156  0.5702
 7512SOL     OW34171   2.187   3.003   9.238  0.3281 -0.1077  0.2881
 7512SOL    HW134172   2.260   2.969   9.186 -0.3221 -0.0933 -0.6447
 7512SOL    HW234173   2.219   2.984   9.326  0.6803 -1.1517 -0.0667
 7513SOL     OW34174   2.332   0.064   0.417 -0.3550  0.2766 -0.3704
 7513SOL    HW134175   2.303   4.712   0.413 -1.5031  0.6235 -0.1248
 7513SOL    HW234176   2.354   0.079   0.509 -0.7645 -0.6976 -0.1137
 7514SOL     OW34177   4.525   3.892   4.461  0.0470 -0.5327 -0.0525
 7514SOL    HW134178   4.449   3.908   4.406 -1.6854 -2.2411  1.8594
 7514SOL    HW234179   4.581   3.969   4.452 -1.4550  0.3231 -2.1305
 7515SOL     OW34180   4.491   3.965  12.291 -0.3271 -0.1474  0.0890
 7515SOL    HW134181   4.440   3.921  12.223  1.6466  0.5574 -1.8206
 7515SOL    HW234182   4.426   4.029  12.322  1.3354  2.7425 -2.4781
 7516SOL     OW34183   3.862   2.922   4.171  0.3061 -0.9741  0.1265
 7516SOL    HW134184   3.791   2.915   4.234  0.2730  1.0879  0.3304
 7516SOL    HW234185   3.807   2.935   4.093 -1.2686 -0.6127  1.2976
 7517SOL     OW34186   3.324   2.175  17.238 -0.7014 -0.1753  0.0038
 7517SOL    HW134187   3.305   2.256  17.192  1.4792  0.1009 -0.3980
 7517SOL    HW234188   3.239   2.134  17.258 -2.3517  3.6830  0.8739
 7518SOL     OW34189   4.722   2.143  14.513  0.0188 -0.0225  0.4399
 7518SOL    HW134190   4.684   2.116  14.429  1.2393 -0.5843  0.0735
 7518SOL    HW234191   4.648   2.147  14.573  0.1705 -1.0961  0.6965
 7519SOL     OW34192   1.750   1.937   8.653 -0.7789 -0.0788  0.0548
 7519SOL    HW134193   1.823   1.962   8.596  1.0205 -1.8277  1.6048
 7519SOL    HW234194   1.793   1.878   8.715  2.0855  1.7921 -0.1739
 7520SOL     OW34195   0.225   3.578   3.883  0.3919 -0.3362 -0.0594
 7520SOL    HW134196   0.163   3.505   3.878 -0.5908  0.5233 -0.6373
 7520SOL    HW234197   0.174   3.658   3.865  1.5952  0.0773 -1.5954
 7521SOL     OW34198   0.011   3.504   4.794 -0.5783  0.1915  0.3205
 7521SOL    HW134199   4.657   3.503   4.771 -0.3262 -0.0820 -0.6651
 7521SOL    HW234200   0.024   3.418   4.835 -1.5623 -0.7597 -1.3386
 7522SOL     OW34201   2.743   2.028   4.244 -0.3074 -0.0951 -0.5286
 7522SOL    HW134202   2.764   2.006   4.153  0.0687  1.1631 -0.7464
 7522SOL    HW234203   2.727   1.942   4.284  0.5704 -0.4433 -0.9189
 7523SOL     OW34204   2.894   3.429   2.186 -0.1092 -0.2266  0.4307
 7523SOL    HW134205   2.888   3.351   2.131  0.6656 -0.4539  0.6605
 7523SOL    HW234206   2.809   3.434   2.230 -0.7801  2.0189 -1.1345
 7524SOL     OW34207   3.835   0.763   4.760  0.3630 -0.7003  0.3448
 7524SOL    HW134208   3.741   0.770   4.744  0.6582  1.7773 -0.2408
 7524SOL    HW234209   3.859   0.807   4.679  0.0946 -2.6756 -0.8153
 7525SOL     OW34210   4.575   0.203   9.448  0.7481  0.4156 -0.1770
 7525SOL    HW134211   4.526   0.141   9.502  2.0792  0.8787  1.5698
 7525SOL    HW234212   4.512   0.228   9.380 -0.8739 -0.2282  1.0952
 7526SOL     OW34213   3.260   0.112   3.833 -0.3254  0.6273 -0.1830
 7526SOL    HW134214   3.272   0.057   3.910 -0.4012  1.2368  0.2630
 7526SOL    HW234215   3.328   0.179   3.843  1.5330 -1.7471  2.9682
 7527SOL     OW34216   0.794   0.397   9.352  0.6790  0.1072  0.0939
 7527SOL    HW134217   0.727   0.417   9.287  0.7269 -0.1275 -0.0250
 7527SOL    HW234218   0.869   0.376   9.298  0.0891 -1.4521 -0.1193
 7528SOL     OW34219   0.951   2.952   7.264  0.2089  0.1858  0.2204
 7528SOL    HW134220   0.868   2.906   7.276 -0.7352  1.4622 -1.4563
 7528SOL    HW234221   0.927   2.992   7.181  0.6609  0.1466  0.0711
 7529SOL     OW34222   1.281   0.694   3.968  0.5850  0.2105  0.1475
 7529SOL    HW134223   1.265   0.787   3.956  0.4565  0.2607  0.7141
 7529SOL    HW234224   1.273   0.699   4.063 -0.0369  0.3391  0.0870
 7530SOL     OW34225   0.227   0.160  15.536  0.3014  0.1932 -0.4368
 7530SOL    HW134226   0.290   0.104  15.581 -1.0863  0.9413  2.4416
 7530SOL    HW234227   0.205   0.226  15.602  2.8578 -0.3982  1.0352
 7531SOL     OW34228   0.492   3.799   2.305 -0.1256  1.0230 -0.2999
 7531SOL    HW134229   0.456   3.816   2.392  2.2944 -0.1516  0.9387
 7531SOL    HW234230   0.509   3.887   2.272 -2.7009  1.5182 -0.2766
 7532SOL     OW34231   1.669   1.968   5.144  0.1324 -0.2763 -0.2337
 7532SOL    HW134232   1.737   1.928   5.090 -1.8051 -1.3793 -1.8600
 7532SOL    HW234233   1.586   1.927   5.119  1.0201 -1.0206 -1.9087
 7533SOL     OW34234   3.008   1.515  11.867  0.3959 -0.0259  0.1497
 7533SOL    HW134235   3.015   1.598  11.916  0.8964 -0.2515  0.4555
 7533SOL    HW234236   3.065   1.529  11.792 -0.8822 -1.0832 -1.0150
 7534SOL     OW34237   0.391   2.369   5.992 -0.1531  0.0774  0.1522
 7534SOL    HW134238   0.447   2.393   5.918  0.7788  0.7840  1.0908
 7534SOL    HW234239   0.434   2.290   6.026 -2.4077 -0.5591  1.5377
 7535SOL     OW34240   0.045   0.565   6.268  0.4712  0.1161  0.4483
 7535SOL    HW134241   0.052   0.539   6.360 -2.3374  0.3018  0.7273
 7535SOL    HW234242   0.031   0.484   6.218  0.3734  0.6733 -0.4182
 7536SOL     OW34243   3.858   4.014   3.101 -0.1574  0.1863 -0.0926
 7536SOL    HW134244   3.797   3.949   3.066  0.5257 -1.6524  2.1900
 7536SOL    HW234245   3.849   4.000   3.195 -0.8112 -0.1702 -0.2100
 7537SOL     OW34246   2.187   0.148   1.871  0.5191  0.2600 -0.1996
 7537SOL    HW134247   2.161   0.236   1.843 -0.5995 -0.3359 -1.0027
 7537SOL    HW234248   2.192   0.098   1.790  0.9890 -0.9589  0.5914
 7538SOL     OW34249   1.137   2.751  15.427 -0.7690  0.9576  0.5681
 7538SOL    HW134250   1.076   2.705  15.485  0.5246 -2.0732 -0.4417
 7538SOL    HW234251   1.092   2.781  15.348 -1.0120  2.1978  1.1922
 7539SOL     OW34252   4.388   4.536  12.393 -0.2618  0.4086 -0.8269
 7539SOL    HW134253   4.329   4.466  12.420 -2.3610  1.6896 -2.0880
 7539SOL    HW234254   4.473   4.496  12.409 -0.5704  0.7599  1.5981
 7540SOL     OW34255   1.109   1.409   7.220  0.0230 -0.0481 -0.2922
 7540SOL    HW134256   1.175   1.424   7.287 -1.6697  2.4129  0.7864
 7540SOL    HW234257   1.163   1.375   7.148  1.6924  0.6353  0.6234
 7541SOL     OW34258   2.367   0.444   3.394 -0.1420 -0.2525 -0.7811
 7541SOL    HW134259   2.444   0.397   3.428 -0.1432 -0.0913 -0.5607
 7541SOL    HW234260   2.291   0.387   3.383  0.5973 -1.6958  1.5747
 7542SOL     OW34261   4.350   2.711   4.257  0.6300 -0.4858 -0.1824
 7542SOL    HW134262   4.259   2.740   4.249  1.1111  0.8896 -0.5971
 7542SOL    HW234263   4.351   2.625   4.214 -0.1631  0.5705 -2.3165
 7543SOL     OW34264   3.301   2.885   7.004 -0.3546 -0.4522  0.6875
 7543SOL    HW134265   3.252   2.807   6.975 -0.2939  0.2593 -1.3562
 7543SOL    HW234266   3.392   2.883   6.974 -1.5179  1.8626 -3.0754
 7544SOL     OW34267   4.402   4.654   5.951  0.2502 -0.0535  0.3046
 7544SOL    HW134268   4.313   4.689   5.949  0.1774 -0.2322  0.4515
 7544SOL    HW234269   4.378   4.564   5.931 -1.6053  0.1503  1.6036
 7545SOL     OW34270   3.117   4.161   7.890 -1.0582  0.3053 -0.1673
 7545SOL    HW134271   3.026   4.170   7.917 -0.7626 -0.3796  1.0683
 7545SOL    HW234272   3.109   4.228   7.823 -0.9641  1.7647  1.2958
 7546SOL     OW34273   4.240   2.357   1.797  0.1205 -0.4583  0.0383
 7546SOL    HW134274   4.231   2.406   1.879  0.5671 -0.1735 -0.0842
 7546SOL    HW234275   4.276   2.424   1.739  0.6255 -0.8899 -0.1484
 7547SOL     OW34276   3.466   2.229  13.193 -0.3774  0.1311  0.9649
 7547SOL    HW134277   3.439   2.164  13.258 -1.1049 -1.2884 -0.7511
 7547SOL    HW234278   3.458   2.183  13.110  1.3434 -1.1330  1.4914
 7548SOL     OW34279   0.431   1.555  14.891 -0.5202 -0.3595 -0.0042
 7548SOL    HW134280   0.369   1.577  14.961  1.1744  2.6440  0.5457
 7548SOL    HW234281   0.401   1.468  14.865  0.9601 -0.6650 -0.7104
 7549SOL     OW34282   2.781   2.787   4.610  0.1416  0.3175 -0.1655
 7549SOL    HW134283   2.734   2.733   4.547  1.2922 -0.6006 -0.2425
 7549SOL    HW234284   2.749   2.752   4.693  1.5245 -0.0768  0.2057
 7550SOL     OW34285   1.941   2.999  10.595  0.3768 -0.0476 -0.0479
 7550SOL    HW134286   1.908   3.073  10.544 -1.2835 -1.1591 -0.5978
 7550SOL    HW234287   1.856   2.957  10.607 -0.5173  1.6781 -0.3752
 7551SOL     OW34288   2.400   2.168   4.083  0.4663 -0.0422 -0.0420
 7551SOL    HW134289   2.322   2.212   4.116 -1.1009 -1.6115 -1.6523
 7551SOL    HW234290   2.359   2.081   4.088  0.0518  0.1566  0.0510
 7552SOL     OW34291   1.021   1.454   4.482  0.1809 -0.3561 -0.3348
 7552SOL    HW134292   0.964   1.524   4.512  1.6971  1.1956 -1.0892
 7552SOL    HW234293   1.088   1.459   4.550 -1.0497 -1.5860  0.9616
 7553SOL     OW34294   4.410   2.535   4.071 -0.0561 -0.2671  0.2455
 7553SOL    HW134295   4.395   2.440   4.076 -1.9560 -0.0114 -0.6372
 7553SOL    HW234296   4.498   2.536   4.032 -0.1011  0.8414  0.1781
 7554SOL     OW34297   3.904   1.633  13.192  0.2177 -0.0427  0.1163
 7554SOL    HW134298   3.882   1.605  13.280  1.9339  1.1739  0.9275
 7554SOL    HW234299   3.991   1.665  13.216  1.0223 -1.8446 -0.3821
 7555SOL     OW34300   4.416   4.562  17.239  0.9591 -0.1792  0.0371
 7555SOL    HW134301   4.469   4.630  17.279 -0.4875  0.4975  0.7844
 7555SOL    HW234302   4.424   4.590  17.148  0.3076  0.1404  0.0773
 7556SOL     OW34303   3.954   1.997   5.720 -0.5030 -1.1592 -0.2580
 7556SOL    HW134304   3.972   1.977   5.812 -1.6279 -0.3316  0.1485
 7556SOL    HW234305   4.044   2.002   5.688 -0.0369  1.7206  1.4779
 7557SOL     OW34306   1.666   0.644   1.694 -0.2597  0.3420  0.0229
 7557SOL    HW134307   1.606   0.660   1.767 -1.1920 -1.4412 -0.3640
 7557SOL    HW234308   1.659   0.725   1.643  0.9345  0.1844 -0.3887
 7558SOL     OW34309   4.416   4.234  13.211  0.3108 -0.2119  0.1649
 7558SOL    HW134310   4.470   4.189  13.276 -1.3230 -2.1380  0.2055
 7558SOL    HW234311   4.481   4.280  13.158  0.9274 -2.5120 -1.0500
 7559SOL     OW34312   1.861   1.528   4.921 -0.2252  0.4869  0.6243
 7559SOL    HW134313   1.903   1.496   5.001  3.7917  0.2740 -1.6174
 7559SOL    HW234314   1.836   1.449   4.873  1.8834  0.9493 -1.1953
 7560SOL     OW34315   0.086   2.341   3.231 -0.0659  0.1343 -0.2119
 7560SOL    HW134316   0.180   2.355   3.234  0.0587 -0.4951 -1.3487
 7560SOL    HW234317   0.083   2.267   3.292 -2.8819  0.8671  0.5570
 7561SOL     OW34318   3.166   3.264   0.311  0.1030 -0.0666 -0.0761
 7561SOL    HW134319   3.122   3.344   0.282 -0.7383 -0.5167 -0.0423
 7561SOL    HW234320   3.232   3.250   0.243 -0.3399  0.1794 -0.5537
 7562SOL     OW34321   3.205   3.671   5.866 -0.5622 -0.5275  0.3406
 7562SOL    HW134322   3.295   3.681   5.835  0.2368 -0.1084  2.7589
 7562SOL    HW234323   3.169   3.758   5.848  1.6013 -0.1339 -1.9797
 7563SOL     OW34324   1.745   1.454  12.302 -0.6730  0.7264 -0.5715
 7563SOL    HW134325   1.760   1.503  12.221 -1.0661  3.8514  1.2525
 7563SOL    HW234326   1.752   1.523  12.369  2.5339  1.1644 -1.3612
 7564SOL     OW34327   3.545   1.477   5.078 -0.1636  0.6630 -0.1676
 7564SOL    HW134328   3.531   1.541   5.008 -0.9874  0.2121 -0.4124
 7564SOL    HW234329   3.629   1.448   5.042  0.7126  1.9238  0.8348
 7565SOL     OW34330   2.125   1.637   6.264  0.0524  0.8161  0.3762
 7565SOL    HW134331   2.216   1.659   6.285  0.0028  2.3709 -1.0659
 7565SOL    HW234332   2.131   1.617   6.171 -0.8959 -0.4564  0.5752
 7566SOL     OW34333   2.576   2.502   2.287  0.3195  0.5870 -0.3788
 7566SOL    HW134334   2.527   2.427   2.254 -1.4518  1.2467  0.7548
 7566SOL    HW234335   2.633   2.458   2.350  0.8379  1.9183  0.0979
 7567SOL     OW34336   0.706   3.465   9.681 -0.2763 -0.1618  0.1096
 7567SOL    HW134337   0.738   3.553   9.701 -1.2000  0.9090 -3.0688
 7567SOL    HW234338   0.612   3.476   9.665 -0.0516  0.9692 -0.4963
 7568SOL     OW34339   1.903   2.331   1.289  0.3533 -0.0598 -0.1432
 7568SOL    HW134340   1.851   2.410   1.274 -1.1616 -1.0245 -0.0023
 7568SOL    HW234341   1.831   2.271   1.270 -0.4001  1.7732 -2.9639
 7569SOL     OW34342   2.996   2.343   4.478 -0.2455 -0.1406  0.3339
 7569SOL    HW134343   2.947   2.299   4.408  0.1262  0.7279 -0.4654
 7569SOL    HW234344   3.018   2.422   4.430 -1.5743 -0.1569 -0.2924
 7570SOL     OW34345   1.755   4.124   4.512  0.1559 -0.0491  0.4816
 7570SOL    HW134346   1.724   4.035   4.496 -1.9776  0.8796 -0.4268
 7570SOL    HW234347   1.728   4.128   4.604 -0.3490 -1.5152  0.3981
 7571SOL     OW34348   3.855   3.928   4.280  0.3623 -0.2205  0.2765
 7571SOL    HW134349   3.929   3.985   4.304  0.2397 -0.0202  0.1830
 7571SOL    HW234350   3.800   3.993   4.236  0.7380  1.1682  1.8478
 7572SOL     OW34351   2.535   4.332  10.460 -0.5194 -0.1603  0.7450
 7572SOL    HW134352   2.519   4.403  10.397  0.5809 -2.8144 -2.5052
 7572SOL    HW234353   2.502   4.372  10.541  1.4863 -1.5318  2.2370
 7573SOL     OW34354   2.328   3.942   4.673  0.0785 -0.7568  0.3413
 7573SOL    HW134355   2.270   3.883   4.719  0.4719 -3.1824 -2.2794
 7573SOL    HW234356   2.371   3.986   4.746 -0.9301 -0.1935  0.5955
 7574SOL     OW34357   1.568   4.095   6.114  0.4992  0.4028 -0.7016
 7574SOL    HW134358   1.660   4.080   6.090  0.6613 -0.8712  0.6889
 7574SOL    HW234359   1.572   4.100   6.210  0.3306  1.7849 -0.7717
 7575SOL     OW34360   1.443   1.985  14.694  1.0405  0.3411 -0.0056
 7575SOL    HW134361   1.465   1.948  14.779  0.6807  1.5666  0.6150
 7575SOL    HW234362   1.384   2.052  14.728  0.0655 -0.8438  0.6176
 7576SOL     OW34363   3.410   1.171  16.825  0.0641 -0.6122 -0.2103
 7576SOL    HW134364   3.422   1.257  16.784 -1.6970 -1.0553 -1.6555
 7576SOL    HW234365   3.315   1.166  16.835  0.0223  2.3088  0.7118
 7577SOL     OW34366   1.635   1.425   2.149  0.1054  0.3107  0.0835
 7577SOL    HW134367   1.720   1.436   2.106 -0.0330 -0.4010 -0.3872
 7577SOL    HW234368   1.592   1.353   2.103  0.3883 -0.3875  0.9069
 7578SOL     OW34369   3.455   2.859   6.404  0.8530  0.4092  0.6559
 7578SOL    HW134370   3.549   2.873   6.388  0.7827 -0.1558 -0.3030
 7578SOL    HW234371   3.454   2.823   6.492  0.1763  2.2520  1.4010
 7579SOL     OW34372   4.011   2.269  11.157  0.1002  0.5172 -0.3702
 7579SOL    HW134373   3.994   2.335  11.224 -0.3627  0.8267 -0.7892
 7579SOL    HW234374   4.066   2.209  11.207  1.3949  1.2528 -0.8967
 7580SOL     OW34375   2.649   0.593  16.802 -0.8438  1.4826 -0.1992
 7580SOL    HW134376   2.617   0.673  16.844  1.6656  2.1360  0.4992
 7580SOL    HW234377   2.582   0.531  16.829  0.6962  1.0951  2.7213
 7581SOL     OW34378   4.467   0.934   8.398  0.0523  0.1074  0.3860
 7581SOL    HW134379   4.391   0.883   8.369 -0.2207  1.9828 -2.2273
 7581SOL    HW234380   4.470   0.920   8.493 -0.8969  2.0654  0.7248
 7582SOL     OW34381   4.715   2.257   8.908  0.2185 -0.4243 -0.4206
 7582SOL    HW134382   0.046   2.323   8.900  0.3806 -0.6942 -1.2263
 7582SOL    HW234383   4.688   2.243   8.817 -0.3696  0.3266 -0.3680
 7583SOL     OW34384   4.453   1.722   7.056 -0.4596  0.3643 -0.2865
 7583SOL    HW134385   4.528   1.781   7.065 -0.8302  0.4191  2.2879
 7583SOL    HW234386   4.395   1.775   7.001  1.0829  1.1282 -1.1903
 7584SOL     OW34387   0.296   3.723   8.310  0.1588 -0.2325  0.3728
 7584SOL    HW134388   0.336   3.645   8.271 -1.5923 -1.1835  0.4607
 7584SOL    HW234389   0.289   3.770   8.227 -0.5281  0.4091  0.7933
 7585SOL     OW34390   1.349   4.627   7.647 -0.0030 -0.1003  0.5966
 7585SOL    HW134391   1.315   4.599   7.562  2.2627 -1.5416  0.1615
 7585SOL    HW234392   1.331   4.721   7.648  1.0848  0.1081  0.4796
 7586SOL     OW34393   1.651   3.079  15.888  0.5289 -0.0078 -0.3575
 7586SOL    HW134394   1.618   3.128  15.813  0.2310  0.6807  0.2173
 7586SOL    HW234395   1.713   3.020  15.846  1.7540  0.2599  1.0507
 7587SOL     OW34396   1.104   0.569   7.110  0.0844  0.1471  0.2682
 7587SOL    HW134397   1.066   0.652   7.084  1.0769  1.6480  3.6916
 7587SOL    HW234398   1.196   0.597   7.101 -0.1055  0.2886 -1.2899
 7588SOL     OW34399   2.000   1.628   3.803 -0.5612  0.0309  0.3415
 7588SOL    HW134400   1.947   1.607   3.726 -0.1214  2.3306 -0.5753
 7588SOL    HW234401   1.973   1.719   3.812  1.6807  0.8698 -1.5243
 7589SOL     OW34402   2.708   1.652   2.461  0.0659 -0.4777 -0.3401
 7589SOL    HW134403   2.793   1.608   2.472  1.2792  1.5505 -1.6613
 7589SOL    HW234404   2.658   1.615   2.534  1.1668  0.3915  0.8370
 7590SOL     OW34405   2.712   4.533   3.755 -0.3668 -0.0977 -0.1865
 7590SOL    HW134406   2.795   4.489   3.773 -0.5178  0.4347  1.8374
 7590SOL    HW234407   2.723   4.544   3.660 -0.2788 -0.0064 -0.1664
 7591SOL     OW34408   0.463   3.403   2.545 -0.2843  0.5373  0.1392
 7591SOL    HW134409   0.449   3.497   2.530 -1.4697  0.6144  1.7356
 7591SOL    HW234410   0.385   3.376   2.497  1.0436 -0.2689 -1.5822
 7592SOL     OW34411   0.853   3.523   4.231  0.9241  0.3880 -0.8581
 7592SOL    HW134412   0.793   3.573   4.286  2.9460  0.8574  0.9516
 7592SOL    HW234413   0.815   3.441   4.264 -1.8089  1.9950 -0.0057
 7593SOL     OW34414   4.574   0.450  10.165 -0.3202 -0.0278  0.7296
 7593SOL    HW134415   4.526   0.499  10.099  0.2913  1.6512  1.5523
 7593SOL    HW234416   4.508   0.395  10.208  0.3676 -1.6035 -0.2119
 7594SOL     OW34417   2.080   0.387  11.761  0.3462  0.2901 -0.1555
 7594SOL    HW134418   2.103   0.428  11.844  3.4071  1.4530 -1.5433
 7594SOL    HW234419   2.030   0.309  11.787 -0.1549  1.5692  2.6550
 7595SOL     OW34420   2.133   3.869   7.503  0.0622  0.1649 -0.3556
 7595SOL    HW134421   2.214   3.824   7.525  0.1055  0.6034  0.3968
 7595SOL    HW234422   2.165   3.945   7.455  1.4470 -0.1329  0.0882
 7596SOL     OW34423   2.818   3.907  12.210 -0.0531 -0.8213  0.6835
 7596SOL    HW134424   2.878   3.923  12.138 -1.1714 -2.2026 -0.5614
 7596SOL    HW234425   2.812   3.991  12.256  0.3745 -0.8485  0.7822
 7597SOL     OW34426   2.131   4.639   8.800  0.4927  0.2618  0.1112
 7597SOL    HW134427   2.115   4.545   8.795 -0.8249  0.5689 -1.2096
 7597SOL    HW234428   2.042   4.673   8.802  0.5485  0.2962  2.3456
 7598SOL     OW34429   2.248   3.706   5.734 -0.6097 -0.2911 -0.4173
 7598SOL    HW134430   2.313   3.760   5.779 -1.2200  0.2108 -0.1347
 7598SOL    HW234431   2.251   3.619   5.773  3.7689  1.0128  2.1766
 7599SOL     OW34432   0.807   3.987   8.893 -0.6732  0.3327 -0.1347
 7599SOL    HW134433   0.836   3.903   8.859  1.2642  1.2463 -0.7115
 7599SOL    HW234434   0.759   4.021   8.818 -2.5368 -1.6338  0.1471
 7600SOL     OW34435   1.740   2.698   4.235 -0.0262 -0.1551  0.2504
 7600SOL    HW134436   1.764   2.606   4.246 -1.4566 -0.5858 -0.2527
 7600SOL    HW234437   1.736   2.706   4.139  0.9844 -0.3476  0.1929
 7601SOL     OW34438   0.333   2.463   3.836 -0.3209 -0.1623 -0.1699
 7601SOL    HW134439   0.428   2.475   3.836 -0.3557  0.1778  1.0724
 7601SOL    HW234440   0.319   2.386   3.891  1.6045  0.6855  1.5602
 7602SOL     OW34441   0.213   0.043   8.162  0.1333 -0.3034  0.1216
 7602SOL    HW134442   0.152   0.028   8.090  1.9001  0.9873 -1.6522
 7602SOL    HW234443   0.267   4.707   8.138  0.5765  0.0661 -0.0372
 7603SOL     OW34444   1.692   1.129   6.553  0.6090  0.3199  0.3664
 7603SOL    HW134445   1.683   1.188   6.478  0.3528  1.7891  1.5645
 7603SOL    HW234446   1.788   1.136   6.547  0.4202  3.2413  0.7258
 7604SOL     OW34447   1.630   3.005   6.894  0.2702  0.0819  0.6486
 7604SOL    HW134448   1.651   3.019   6.986 -2.3015 -1.4890  1.4661
 7604SOL    HW234449   1.591   3.089   6.868  2.4722  1.2137  0.9806
 7605SOL     OW34450   1.444   3.977   2.578  0.1217 -0.1979  0.2988
 7605SOL    HW134451   1.497   4.035   2.633  1.2399 -1.1058  0.1794
 7605SOL    HW234452   1.413   3.900   2.626  1.0857 -0.6252  0.2248
 7606SOL     OW34453   0.421   2.953   0.892  0.0796  0.5182 -0.0704
 7606SOL    HW134454   0.460   3.035   0.923 -0.3833  0.9773 -0.6841
 7606SOL    HW234455   0.430   2.967   0.798 -0.2028  0.4836 -0.1041
 7607SOL     OW34456   1.092   3.928   8.083  0.4699  0.1755 -0.2331
 7607SOL    HW134457   1.136   4.013   8.083  0.9957 -0.0936  0.0765
 7607SOL    HW234458   1.126   3.893   8.165  0.9654  2.0180  0.3534
 7608SOL     OW34459   0.749   2.716   4.172  0.3943  0.2390 -0.5696
 7608SOL    HW134460   0.845   2.717   4.171  0.4224 -1.2008  0.2896
 7608SOL    HW234461   0.716   2.778   4.107 -2.0822  0.9834  1.3954
 7609SOL     OW34462   0.751   1.158   4.746  0.0442 -1.2370 -0.4201
 7609SOL    HW134463   0.796   1.172   4.663  1.1677  1.4745  0.6739
 7609SOL    HW234464   0.812   1.204   4.803 -0.0446 -1.4486 -0.1525
 7610SOL     OW34465   4.325   1.160   4.056  0.5014  0.1807  0.8512
 7610SOL    HW134466   4.234   1.168   4.086  0.5378  1.0823  0.7313
 7610SOL    HW234467   4.315   1.079   4.006  1.6950  0.3010  0.4191
 7611SOL     OW34468   0.482   3.941   4.562 -0.8807 -1.1637 -0.0557
 7611SOL    HW134469   0.490   3.935   4.467  2.9384 -1.4029  0.2891
 7611SOL    HW234470   0.425   3.866   4.582  1.3606 -2.8202  0.0920
 7612SOL     OW34471   1.436   4.501   2.083 -0.2929  0.4526  0.4341
 7612SOL    HW134472   1.359   4.488   2.027  0.5736 -0.6973 -0.4791
 7612SOL    HW234473   1.391   4.518   2.166  2.2979  2.0202  1.5158
 7613SOL     OW34474   1.246   2.181   9.061  0.2012 -0.0132 -0.2098
 7613SOL    HW134475   1.151   2.184   9.068  0.4573  1.2958  2.7026
 7613SOL    HW234476   1.263   2.090   9.086 -0.5370 -0.3039 -0.7729
 7614SOL     OW34477   0.007   2.640   1.101 -0.2196  0.0974 -0.0111
 7614SOL    HW134478   4.700   2.595   1.031  0.9722 -2.1887  0.6815
 7614SOL    HW234479   0.095   2.638   1.063 -0.6494 -2.0366 -0.8573
 7615SOL     OW34480   1.976   2.743   5.364  0.3976  0.0932  0.0362
 7615SOL    HW134481   2.036   2.812   5.391  0.1597  0.2905  0.0550
 7615SOL    HW234482   1.981   2.694   5.447  1.3477  1.1014  0.5733
 7616SOL     OW34483   0.786   3.655   9.158  0.0777 -0.5139  0.6977
 7616SOL    HW134484   0.876   3.644   9.187  0.2198 -0.6502  0.2006
 7616SOL    HW234485   0.779   3.748   9.181  1.8396  0.5555 -3.1720
 7617SOL     OW34486   3.957   1.078   2.728 -0.4949  0.1964 -0.3186
 7617SOL    HW134487   3.909   1.000   2.699  0.8807 -1.4828  2.0095
 7617SOL    HW234488   4.043   1.038   2.724 -0.3049  0.6123 -0.4145
 7618SOL     OW34489   4.704   2.279   2.852  0.2041 -0.3381 -0.6353
 7618SOL    HW134490   0.036   2.342   2.837 -0.5802  0.8994  0.8465
 7618SOL    HW234491   4.721   2.216   2.781  1.7583 -1.0437  0.3625
 7619SOL     OW34492   2.139   2.145  10.076 -0.2497 -0.2536 -0.7752
 7619SOL    HW134493   2.114   2.119   9.987 -3.3184  3.0511 -0.8924
 7619SOL    HW234494   2.210   2.084  10.095 -0.2186  0.3798  1.1259
 7620SOL     OW34495   4.685   3.823   4.070 -0.3119 -0.1919  0.5363
 7620SOL    HW134496   0.027   3.833   4.121  0.8473  0.1406 -1.3742
 7620SOL    HW234497   4.677   3.728   4.072  0.3050 -0.2300  1.0762
 7621SOL     OW34498   1.660   1.784   2.748 -0.1311  0.4130 -0.0611
 7621SOL    HW134499   1.595   1.848   2.721  0.8651  1.3227 -0.2832
 7621SOL    HW234500   1.604   1.710   2.774 -1.1334  0.5109 -1.9535
 7622SOL     OW34501   2.236   1.090   1.558 -0.5211  0.0117 -0.3334
 7622SOL    HW134502   2.261   1.031   1.487 -2.0313 -1.7838  0.6340
 7622SOL    HW234503   2.161   1.118   1.505  0.1228  0.9739 -0.7376
 7623SOL     OW34504   2.718   0.122   8.934  0.2246  0.1394 -0.3475
 7623SOL    HW134505   2.622   0.131   8.930  0.2413  1.2730  1.4006
 7623SOL    HW234506   2.729   0.185   9.005  1.9171 -0.9762  0.3819
 7624SOL     OW34507   4.410   1.468   8.538 -0.1328 -0.5138 -0.3437
 7624SOL    HW134508   4.370   1.475   8.451 -0.8254 -1.8185 -0.1315
 7624SOL    HW234509   4.463   1.391   8.518 -2.4337 -2.7602  2.3031
 7625SOL     OW34510   0.848   3.233  16.654  0.4036 -0.4543 -0.1392
 7625SOL    HW134511   0.835   3.249  16.561  1.0713  0.3382 -0.0917
 7625SOL    HW234512   0.944   3.231  16.660  0.3209 -2.4688  0.7791
 7626SOL     OW34513   0.890   4.050   2.649  0.1680  0.8555  0.1843
 7626SOL    HW134514   0.851   4.020   2.731  0.0778 -0.1428 -0.2263
 7626SOL    HW234515   0.811   4.039   2.596 -0.0525 -0.8289  0.8479
 7627SOL     OW34516   2.486   1.884  15.326 -0.1831 -0.0782  0.0587
 7627SOL    HW134517   2.495   1.938  15.248 -2.7445  1.3854  0.7905
 7627SOL    HW234518   2.578   1.860  15.341 -0.2526 -0.8931 -0.7909
 7628SOL     OW34519   4.034   1.501   3.662  0.1079 -0.4859 -0.3318
 7628SOL    HW134520   4.026   1.460   3.748  0.9759  0.1058  0.0266
 7628SOL    HW234521   4.100   1.444   3.623  1.1928 -0.0280  0.8872
 7629SOL     OW34522   2.192   0.145   7.623  0.0107  0.3443 -0.2610
 7629SOL    HW134523   2.227   0.228   7.590 -0.7066  0.4245 -0.8415
 7629SOL    HW234524   2.238   0.140   7.706  0.1217  1.0949 -0.2766
 7630SOL     OW34525   1.097   0.008   2.266 -0.1413 -0.0285 -0.7795
 7630SOL    HW134526   1.162   4.715   2.329 -0.9458  0.6167  0.3755
 7630SOL    HW234527   1.096   4.673   2.205 -1.2540 -0.0276 -0.7527
 7631SOL     OW34528   2.000   4.150  12.660 -0.1980 -0.2926  0.2019
 7631SOL    HW134529   1.985   4.200  12.741 -0.0065 -0.5384  0.3862
 7631SOL    HW234530   2.039   4.075  12.704 -2.0607 -1.2970  0.1360
 7632SOL     OW34531   2.738   3.412   0.989  0.4535  0.1565 -0.1129
 7632SOL    HW134532   2.645   3.427   1.005  0.6879  2.2587 -0.7020
 7632SOL    HW234533   2.762   3.458   1.069  1.3987 -0.7728  0.1263
 7633SOL     OW34534   1.897   0.578  13.829  0.0589  0.3533  0.4331
 7633SOL    HW134535   1.881   0.671  13.847  0.8151  0.6534 -0.4659
 7633SOL    HW234536   1.824   0.546  13.882 -0.3043 -1.6841 -1.2834
 7634SOL     OW34537   0.173   3.183  17.742 -0.5684 -0.1798 -0.0454
 7634SOL    HW134538   0.257   3.228  17.747  0.5287 -2.0624 -1.3231
 7634SOL    HW234539   0.204   3.092  17.736  0.9384  0.2623  0.9556
 7635SOL     OW34540   0.100   0.485   0.131 -0.2288  0.4437 -0.0563
 7635SOL    HW134541   0.114   0.565   0.080 -0.3986  0.6778  0.2572
 7635SOL    HW234542   0.125   0.515   0.219  4.3010  1.3025 -1.6187
 7636SOL     OW34543   2.059   3.991   2.065 -0.1108 -0.2223  0.1809
 7636SOL    HW134544   1.985   4.047   2.043  0.3964 -0.0894 -1.1729
 7636SOL    HW234545   2.091   4.023   2.149  1.0860  1.7481 -1.0543
 7637SOL     OW34546   0.177   3.535   2.578 -0.0068  0.0905 -0.0231
 7637SOL    HW134547   0.084   3.558   2.573 -0.1993 -0.7494 -0.2431
 7637SOL    HW234548   0.182   3.481   2.499  3.0390  0.0897  0.1741
 7638SOL     OW34549   0.178   3.223   4.002  0.4940 -0.0803 -0.1001
 7638SOL    HW134550   0.121   3.287   3.960 -0.1246 -0.0862  0.7462
 7638SOL    HW234551   0.112   3.157   4.019  0.4498  0.5372  2.1711
 7639SOL     OW34552   4.411   4.309   6.831 -0.0935  0.0190 -0.2733
 7639SOL    HW134553   4.365   4.311   6.915  0.8191  1.3784  0.1936
 7639SOL    HW234554   4.423   4.214   6.831 -2.1910 -0.2504  2.2155
 7640SOL     OW34555   1.813   1.410   2.970  0.6076  0.2062 -0.5067
 7640SOL    HW134556   1.826   1.377   2.881  1.9808 -1.1066  0.1737
 7640SOL    HW234557   1.834   1.501   2.951  1.8722  0.3317  1.5407
 7641SOL     OW34558   3.476   4.682   7.448 -0.0804  0.0525 -0.3256
 7641SOL    HW134559   3.515   0.014   7.499  1.3939 -2.0792  1.4951
 7641SOL    HW234560   3.553   4.648   7.401 -0.6126  1.1896 -2.0316
 7642SOL     OW34561   1.952   1.772   5.286 -0.4439  0.1091  0.5192
 7642SOL    HW134562   2.047   1.785   5.280 -0.0727 -1.7526  2.5477
 7642SOL    HW234563   1.950   1.677   5.295 -1.2488 -0.2602 -3.6008
 7643SOL     OW34564   0.862   0.675  13.393 -0.3188 -0.8120 -0.2174
 7643SOL    HW134565   0.770   0.697  13.407  0.5341  2.0399  0.9201
 7643SOL    HW234566   0.908   0.758  13.380 -1.7520 -0.1254 -0.8280
 7644SOL     OW34567   0.426   3.416   6.545 -0.6658  0.1874 -0.3704
 7644SOL    HW134568   0.451   3.346   6.605 -0.1175 -0.9004 -1.8609
 7644SOL    HW234569   0.507   3.427   6.495  1.1748  2.1485  3.0737
 7645SOL     OW34570   3.278   1.471   8.882 -0.3090  0.4564 -0.1450
 7645SOL    HW134571   3.322   1.386   8.874  1.2887  1.2443  0.4131
 7645SOL    HW234572   3.316   1.512   8.804  1.2402 -2.2790 -0.8414
 7646SOL     OW34573   1.104   3.948   2.168 -0.0038 -0.4406 -0.1879
 7646SOL    HW134574   1.108   4.043   2.180  2.5016 -0.7598  1.4473
 7646SOL    HW234575   1.136   3.926   2.255  1.4826 -3.1770 -1.4318
 7647SOL     OW34576   2.699   2.121   8.561  0.2284  0.5968  0.8546
 7647SOL    HW134577   2.766   2.189   8.550  0.6114  0.2263  0.8819
 7647SOL    HW234578   2.720   2.078   8.644 -1.9719 -1.5366  0.3031
 7648SOL     OW34579   2.680   0.854   4.899 -0.3858  0.1688 -0.2108
 7648SOL    HW134580   2.755   0.801   4.870 -1.6872 -2.6003  1.4663
 7648SOL    HW234581   2.702   0.942   4.868  1.6761 -0.0965  0.4766
 7649SOL     OW34582   1.176   4.591   8.737 -0.3663  0.1131 -0.0940
 7649SOL    HW134583   1.211   4.592   8.648  0.2310  1.6043  0.1441
 7649SOL    HW234584   1.225   4.665   8.774 -0.8097 -0.6008  1.8936
 7650SOL     OW34585   4.287   3.157   5.255 -0.0863  0.3015  0.3814
 7650SOL    HW134586   4.195   3.133   5.269 -0.0554  0.1437  0.3169
 7650SOL    HW234587   4.277   3.246   5.220 -3.6385 -0.9043 -1.7121
 7651SOL     OW34588   1.027   0.882   7.430 -0.6130 -0.0778 -0.3765
 7651SOL    HW134589   0.959   0.875   7.362 -0.5958  1.1383 -0.5144
 7651SOL    HW234590   1.018   0.796   7.472 -0.5807  0.8710  1.5456
 7652SOL     OW34591   0.553   1.777   8.308 -0.1180 -0.1031 -0.3939
 7652SOL    HW134592   0.623   1.800   8.248  0.2290  1.2943  0.5652
 7652SOL    HW234593   0.488   1.841   8.279  1.2052  1.0301 -0.8351
 7653SOL     OW34594   1.633   2.393   0.053 -0.6186 -0.1856 -0.3147
 7653SOL    HW134595   1.554   2.339   0.050 -1.5533  1.1238  0.5280
 7653SOL    HW234596   1.701   2.333   0.084  0.3729 -0.1258 -2.4124
 7654SOL     OW34597   1.888   0.413   5.416 -0.3914  0.7211 -0.1158
 7654SOL    HW134598   1.972   0.459   5.424 -0.4278  0.6667  0.6503
 7654SOL    HW234599   1.895   0.363   5.497 -0.4918 -1.3422 -1.3913
 7655SOL     OW34600   3.831   0.932   5.618  0.4298  0.3446  0.5009
 7655SOL    HW134601   3.900   0.891   5.567  0.3728  0.4312  0.3528
 7655SOL    HW234602   3.886   0.925   5.697  2.0993 -1.1117 -0.8029
 7656SOL     OW34603   4.166   0.911   6.987 -0.6289 -0.2197 -0.2588
 7656SOL    HW134604   4.118   0.856   6.924 -0.5065  0.6518 -1.1062
 7656SOL    HW234605   4.255   0.901   6.953 -0.8577 -1.0383 -0.6256
 7657SOL     OW34606   3.882   0.949   0.375 -0.1191 -0.4406  0.0687
 7657SOL    HW134607   3.905   0.867   0.330  0.3068 -0.9956  1.3026
 7657SOL    HW234608   3.958   0.999   0.345 -1.5976  0.6884 -1.7806
 7658SOL     OW34609   3.840   1.584   6.502  0.1186 -0.5919  0.0730
 7658SOL    HW134610   3.798   1.669   6.507  1.2349 -0.0011 -0.6661
 7658SOL    HW234611   3.797   1.534   6.433  0.0940 -0.8666  0.2858
 7659SOL     OW34612   1.409   3.541   3.228 -1.0415 -0.0709 -0.6669
 7659SOL    HW134613   1.379   3.450   3.223  0.7956 -0.7561  0.8724
 7659SOL    HW234614   1.460   3.551   3.147  0.7127 -0.3037  0.4142
 7660SOL     OW34615   3.406   0.893   5.427  0.4043 -0.6966 -0.3810
 7660SOL    HW134616   3.425   0.841   5.505  2.2810 -1.8091 -1.5828
 7660SOL    HW234617   3.311   0.898   5.441  0.5686 -0.8667  0.7385
 7661SOL     OW34618   4.321   1.608   3.422 -0.1388 -0.1872  0.2417
 7661SOL    HW134619   4.360   1.526   3.392  0.1758  0.0595 -0.0353
 7661SOL    HW234620   4.373   1.669   3.368 -2.6177  0.7117 -1.1205
 7662SOL     OW34621   3.129   2.416   8.393 -0.0558 -0.4458  0.2370
 7662SOL    HW134622   3.123   2.404   8.298 -0.7841 -0.9648  0.3484
 7662SOL    HW234623   3.202   2.478   8.394 -0.4729  0.0476 -0.1775
 7663SOL     OW34624   3.288   2.855   4.751 -0.7018  0.1072 -0.1002
 7663SOL    HW134625   3.228   2.787   4.718 -0.7035 -0.7747  1.7108
 7663SOL    HW234626   3.226   2.921   4.783 -0.4267  0.8121 -1.0286
 7664SOL     OW34627   3.783   0.185  13.770  0.3703 -0.3775  0.1772
 7664SOL    HW134628   3.730   0.254  13.809 -2.6803 -1.4754 -1.9452
 7664SOL    HW234629   3.869   0.224  13.787  0.0554  0.7322 -0.7385
 7665SOL     OW34630   0.664   2.862   7.562 -0.1368  0.6395 -0.0218
 7665SOL    HW134631   0.594   2.804   7.592  0.4307  0.4495  0.9202
 7665SOL    HW234632   0.644   2.939   7.615  2.4747  1.2477  0.1176
 7666SOL     OW34633   1.451   3.214   7.952 -0.1113  0.2828 -0.7855
 7666SOL    HW134634   1.416   3.129   7.980  0.5001  0.5839  0.9100
 7666SOL    HW234635   1.382   3.278   7.971 -0.4010  0.1595 -1.4267
 7667SOL     OW34636   4.098   2.879   5.027  0.1732 -0.2979 -0.4876
 7667SOL    HW134637   4.175   2.926   4.994 -0.8245  1.1290 -0.8155
 7667SOL    HW234638   4.024   2.940   5.030  0.2787 -0.4227  4.0719
 7668SOL     OW34639   2.211   4.187   5.199 -0.1899  0.4430  0.2654
 7668SOL    HW134640   2.151   4.143   5.139  0.3388  2.6512 -1.8342
 7668SOL    HW234641   2.254   4.111   5.239  1.7103  0.5673 -1.5625
 7669SOL     OW34642   3.043   1.004   1.011  0.3268 -0.3026 -0.3877
 7669SOL    HW134643   3.006   1.039   0.930  0.0159  1.0998  0.3517
 7669SOL    HW234644   2.982   0.932   1.022 -2.0772  1.7235 -0.2744
 7670SOL     OW34645   3.449   0.194   2.002  0.2154 -0.4380 -0.0824
 7670SOL    HW134646   3.364   0.162   1.971  0.8566 -3.0242  0.8123
 7670SOL    HW234647   3.506   0.134   1.954 -0.2641 -2.2746  1.6664
 7671SOL     OW34648   0.952   0.510   1.934 -0.3554 -0.0337  0.2911
 7671SOL    HW134649   0.918   0.488   1.847  3.0147  1.7493 -1.4858
 7671SOL    HW234650   0.959   0.417   1.952 -1.4469  0.2154  1.9708
 7672SOL     OW34651   3.594   0.085   1.352 -0.3227  0.4138 -0.5621
 7672SOL    HW134652   3.672   0.137   1.335  0.5042  0.1579  2.2925
 7672SOL    HW234653   3.582   0.026   1.278  0.2420 -0.6820  0.2143
 7673SOL     OW34654   3.637   3.392  15.012  0.2280 -0.2125 -0.2766
 7673SOL    HW134655   3.699   3.431  14.951  1.0764  0.0660  0.7569
 7673SOL    HW234656   3.683   3.308  15.012 -1.4976 -1.1527  2.5556
 7674SOL     OW34657   2.731   4.468   6.322  0.0842 -0.1149  0.9053
 7674SOL    HW134658   2.674   4.391   6.332  1.2889 -0.9315  1.5607
 7674SOL    HW234659   2.796   4.449   6.389  0.6758  0.3194  0.4462
 7675SOL     OW34660   0.691   0.584  10.478 -0.0497 -0.3100 -0.8579
 7675SOL    HW134661   0.693   0.496  10.440  0.9192 -0.8606  0.4692
 7675SOL    HW234662   0.597   0.590  10.493  0.5193  0.0901  2.4405
 7676SOL     OW34663   0.089   1.229   1.194 -0.0731 -0.6924  0.4217
 7676SOL    HW134664   0.129   1.222   1.281  1.4642  0.9127 -0.1620
 7676SOL    HW234665   0.047   1.315   1.196  0.8052 -0.2304 -1.8082
 7677SOL     OW34666   1.350   1.874   2.727  0.4001 -0.6929  0.3252
 7677SOL    HW134667   1.327   1.781   2.727  0.2294 -0.6497  0.8332
 7677SOL    HW234668   1.349   1.893   2.821 -1.0842  0.2589  0.1225
 7678SOL     OW34669   4.095   1.728   6.500  0.1644 -0.0959  0.0034
 7678SOL    HW134670   4.130   1.714   6.588 -0.3558  0.1815  0.2494
 7678SOL    HW234671   4.013   1.680   6.510  2.1503 -3.6788 -0.4216
 7679SOL     OW34672   1.370   0.385   7.398  0.4390  0.1657  0.6469
 7679SOL    HW134673   1.434   0.451   7.425 -2.8867  2.3600  3.2569
 7679SOL    HW234674   1.292   0.422   7.438 -2.4396 -2.6784 -2.3930
 7680SOL     OW34675   2.314   2.058   8.817  0.4422  0.1446 -0.8599
 7680SOL    HW134676   2.230   2.088   8.784 -0.9536 -1.2874  1.4496
 7680SOL    HW234677   2.363   2.137   8.839 -3.4426  1.4849  2.8552
 7681SOL     OW34678   0.169   0.617   4.955  0.5919  0.0044 -0.0459
 7681SOL    HW134679   0.249   0.595   5.003  0.9506 -0.0913 -0.7026
 7681SOL    HW234680   0.101   0.637   5.021  1.6357  0.9508  0.7464
 7682SOL     OW34681   3.970   4.330  13.336 -0.0817  0.2626  0.6082
 7682SOL    HW134682   3.967   4.241  13.371 -0.5306 -0.2648 -0.8009
 7682SOL    HW234683   3.876   4.344  13.352  0.1811  1.0404  1.5162
 7683SOL     OW34684   0.085   3.774   9.808 -0.1073  0.0500  0.0989
 7683SOL    HW134685   0.080   3.707   9.740 -2.3868  0.0669  0.2618
 7683SOL    HW234686   0.155   3.835   9.782  0.5766 -0.1739  1.3831
 7684SOL     OW34687   3.813   0.788   2.747 -0.4986 -0.1056  0.3445
 7684SOL    HW134688   3.871   0.713   2.753 -2.0041 -1.2638  0.4353
 7684SOL    HW234689   3.799   0.810   2.839 -1.6336  0.3897  0.0664
 7685SOL     OW34690   0.443   1.984   9.317 -0.5835  0.0856  0.0995
 7685SOL    HW134691   0.499   2.060   9.331 -1.6757  0.8935  0.1276
 7685SOL    HW234692   0.386   2.000   9.392 -0.8943 -1.7284  0.2300
 7686SOL     OW34693   3.956   1.298  16.046  0.8940  0.2506 -0.0463
 7686SOL    HW134694   3.983   1.224  15.992  0.2110  0.6659 -0.9567
 7686SOL    HW234695   3.861   1.308  16.036  0.9413  0.7670 -0.0077
 7687SOL     OW34696   2.385   4.489   0.937 -0.1183  0.2589  0.0460
 7687SOL    HW134697   2.308   4.508   0.883 -0.0515 -1.0503 -0.5174
 7687SOL    HW234698   2.461   4.525   0.890  1.2020 -1.2299  1.0325
 7688SOL     OW34699   3.580   0.144   5.330  0.4187 -0.0248  0.3409
 7688SOL    HW134700   3.636   0.079   5.372  0.5385  1.1389  2.0050
 7688SOL    HW234701   3.490   0.127   5.358  1.0415 -0.4804  2.0381
 7689SOL     OW34702   2.105   2.409   9.861  0.1367  0.1537 -0.0837
 7689SOL    HW134703   2.169   2.461   9.909  1.6195 -0.5605 -1.2831
 7689SOL    HW234704   2.033   2.431   9.919 -0.8461 -1.7821 -0.5586
 7690SOL     OW34705   1.180   0.867   8.223  0.1343 -0.0286  0.3092
 7690SOL    HW134706   1.257   0.830   8.267  0.9285  0.3463 -0.7845
 7690SOL    HW234707   1.223   0.940   8.178  1.4806 -0.7649  0.3938
 7691SOL     OW34708   4.359   1.319   5.331  0.0807  0.5670  0.3517
 7691SOL    HW134709   4.297   1.305   5.260  0.6303 -2.4582  0.4629
 7691SOL    HW234710   4.433   1.357   5.284  0.4499 -0.5193  0.0638
 7692SOL     OW34711   0.961   3.423   6.498 -0.1925 -0.1123 -0.2240
 7692SOL    HW134712   1.003   3.468   6.571 -0.0147  0.0754 -0.4423
 7692SOL    HW234713   1.035   3.405   6.440 -0.2918 -2.2556  0.3011
 7693SOL     OW34714   3.998   2.289   8.387 -0.4073  0.4837  0.2364
 7693SOL    HW134715   3.926   2.349   8.406 -0.4398  0.4589  0.1880
 7693SOL    HW234716   3.949   2.212   8.358  1.2033 -0.5712  0.3058
 7694SOL     OW34717   2.897   1.565  14.205 -0.3126  0.1765  0.3196
 7694SOL    HW134718   2.925   1.542  14.294  0.0346  2.5737  0.8471
 7694SOL    HW234719   2.806   1.537  14.208  0.2591 -1.9799 -2.3418
 7695SOL     OW34720   2.959   1.236   3.291 -0.4302 -0.2241 -0.0756
 7695SOL    HW134721   2.904   1.309   3.321 -0.2660  0.4277 -1.3810
 7695SOL    HW234722   2.990   1.270   3.207 -0.0363 -1.5689 -0.4739
 7696SOL     OW34723   2.087   2.590   5.610  0.6117  0.2549 -0.9224
 7696SOL    HW134724   2.121   2.628   5.691  0.3376 -0.7464 -0.3295
 7696SOL    HW234725   2.165   2.586   5.555  0.8719  0.4160 -0.5570
 7697SOL     OW34726   2.835   0.892   7.216  0.4295 -0.0436 -0.4214
 7697SOL    HW134727   2.912   0.837   7.205  0.4179  0.0099 -0.7696
 7697SOL    HW234728   2.868   0.981   7.200  0.6358  0.4448  2.6100
 7698SOL     OW34729   2.889   0.934   5.589 -0.0203 -0.5901  0.4979
 7698SOL    HW134730   2.878   0.870   5.660  0.1010  0.9540  1.8897
 7698SOL    HW234731   2.800   0.915   5.561 -0.2128 -0.4169  1.0018
 7699SOL     OW34732   3.902   1.394   9.293  0.3024 -0.7111  0.3029
 7699SOL    HW134733   3.815   1.431   9.274  0.3833 -0.0740  1.1676
 7699SOL    HW234734   3.914   1.427   9.383 -1.5865  0.5528  0.1143
 7700SOL     OW34735   3.132   1.313   9.207  0.4423  0.5770 -0.4608
 7700SOL    HW134736   3.062   1.277   9.153 -0.1233  1.6586 -0.4489
 7700SOL    HW234737   3.139   1.269   9.292  2.1211 -0.7983 -1.3115
 7701SOL     OW34738   4.316   2.420   2.661 -0.3915 -0.7081  0.3606
 7701SOL    HW134739   4.332   2.496   2.717 -0.4170 -1.0092  0.7787
 7701SOL    HW234740   4.384   2.427   2.594  1.3050 -0.4189  2.0809
 7702SOL     OW34741   2.237   4.258   9.346 -0.5415 -0.1610  0.5257
 7702SOL    HW134742   2.269   4.169   9.328 -3.4713 -1.2845  0.9100
 7702SOL    HW234743   2.191   4.270   9.263  0.6503 -0.0929 -0.1260
 7703SOL     OW34744   0.297   2.376   8.045  0.0797 -0.5809 -0.4850
 7703SOL    HW134745   0.298   2.422   8.129  1.8748  3.2032 -2.6085
 7703SOL    HW234746   0.313   2.448   7.984 -0.2483  0.2767  0.4347
 7704SOL     OW34747   3.653   2.877  12.463 -0.1418 -1.0284 -0.4393
 7704SOL    HW134748   3.659   2.878  12.368 -0.5455  2.7427 -0.4341
 7704SOL    HW234749   3.701   2.796  12.478  2.8345  1.0528  1.4410
 7705SOL     OW34750   3.868   4.333   7.285 -0.0186  0.4961  0.0232
 7705SOL    HW134751   3.806   4.295   7.348  1.8803  0.5837  1.9345
 7705SOL    HW234752   3.901   4.252   7.245  0.3414  1.0734 -0.8413
 7706SOL     OW34753   2.650   1.025   1.758  0.5636  0.0377 -0.0101
 7706SOL    HW134754   2.607   1.005   1.675  0.9978 -0.5092 -0.1064
 7706SOL    HW234755   2.697   0.943   1.772 -0.9579 -0.8636 -0.2058
 7707SOL     OW34756   1.547   4.216   6.375  0.6166  0.0882 -0.0239
 7707SOL    HW134757   1.502   4.282   6.428 -0.7655 -1.6470  0.9634
 7707SOL    HW234758   1.622   4.216   6.435 -0.3707 -2.4058  1.1986
 7708SOL     OW34759   3.540   2.139   9.076  0.5405  0.2487  0.3862
 7708SOL    HW134760   3.487   2.059   9.075  1.5478 -0.4169 -0.8383
 7708SOL    HW234761   3.495   2.182   9.003  0.4528 -0.3597  0.0843
 7709SOL     OW34762   0.977   2.949   1.522 -0.5539  0.0742 -0.5339
 7709SOL    HW134763   1.032   3.027   1.521  0.0144 -0.3086  0.7759
 7709SOL    HW234764   0.984   2.915   1.611  3.0777  1.4320 -0.2975
 7710SOL     OW34765   0.554   2.847   5.009 -0.9844 -0.2111  0.1702
 7710SOL    HW134766   0.506   2.868   5.090 -2.0552  0.2215 -0.5765
 7710SOL    HW234767   0.648   2.843   5.028 -0.6820  1.0354 -1.1062
 7711SOL     OW34768   1.616   2.604  15.901 -0.0429 -0.2377 -0.1865
 7711SOL    HW134769   1.535   2.626  15.947  0.1744 -1.5678  0.8636
 7711SOL    HW234770   1.591   2.606  15.809 -1.3183 -0.3496  0.1587
 7712SOL     OW34771   2.377   0.471   2.407  0.4333  0.2266  0.1086
 7712SOL    HW134772   2.311   0.463   2.338  2.5586  2.2946 -2.1826
 7712SOL    HW234773   2.355   0.387   2.448 -0.3221  1.1612  1.6091
 7713SOL     OW34774   3.545   3.645  10.024 -0.0092 -0.0748  0.1324
 7713SOL    HW134775   3.528   3.680   9.937  1.2889  0.3671  0.0519
 7713SOL    HW234776   3.624   3.691  10.051 -0.5786  0.4818  0.8313
 7714SOL     OW34777   2.168   3.583  13.975 -0.6786 -0.1711 -0.5310
 7714SOL    HW134778   2.150   3.640  13.901 -2.5096  1.0954  0.8868
 7714SOL    HW234779   2.221   3.649  14.020  0.4272 -0.3596 -1.5731
 7715SOL     OW34780   1.284   1.588   5.404 -0.8298  0.1681 -0.0061
 7715SOL    HW134781   1.209   1.590   5.464 -0.3761 -0.3194  0.5734
 7715SOL    HW234782   1.311   1.496   5.404 -2.6793 -0.3718 -1.2879
 7716SOL     OW34783   1.886   4.323  13.562 -0.2902 -0.4091  0.1331
 7716SOL    HW134784   1.893   4.386  13.634 -3.0030  0.1697 -0.1031
 7716SOL    HW234785   1.796   4.292  13.558 -0.3038 -0.4597  0.8406
 7717SOL     OW34786   0.611   3.540   8.980 -0.2500  0.1207  0.5552
 7717SOL    HW134787   0.683   3.584   9.025  0.7993 -0.0739 -0.9468
 7717SOL    HW234788   0.542   3.603   9.000 -0.5239 -0.1855  0.5677
 7718SOL     OW34789   0.245   0.658   8.451  0.2700 -0.2301 -0.2991
 7718SOL    HW134790   0.254   0.709   8.531 -1.0716 -1.4488  0.6282
 7718SOL    HW234791   0.161   0.688   8.415  0.6480  1.2292  0.0145
 7719SOL     OW34792   0.296   1.479   3.092 -0.1322  0.0956 -0.1152
 7719SOL    HW134793   0.379   1.436   3.072 -0.3003 -1.6906  3.0895
 7719SOL    HW234794   0.313   1.570   3.068 -0.3626 -0.0408 -0.7911
 7720SOL     OW34795   3.870   1.003   4.930 -0.1248 -0.4523  0.7837
 7720SOL    HW134796   3.860   0.939   4.861 -0.6482 -1.9354  2.2426
 7720SOL    HW234797   3.811   0.971   4.998 -1.3998  0.1103 -0.0767
 7721SOL     OW34798   1.812   4.163  12.454  0.0537  0.5446 -0.1292
 7721SOL    HW134799   1.879   4.170  12.521  0.1464  0.9348 -0.2684
 7721SOL    HW234800   1.733   4.134  12.501  0.8128  1.5190  1.7420
 7722SOL     OW34801   0.878   3.443   0.219 -0.2073  0.4873  0.1719
 7722SOL    HW134802   0.884   3.434   0.315 -1.0618 -2.5709 -0.0531
 7722SOL    HW234803   0.947   3.389   0.180  0.4522  0.1878  1.7448
 7723SOL     OW34804   2.692   0.227   4.485  0.5389 -0.3107 -0.1163
 7723SOL    HW134805   2.758   0.268   4.430 -0.3169  0.9642 -0.1934
 7723SOL    HW234806   2.749   0.178   4.544  0.4795  0.4821  0.5955
 7724SOL     OW34807   1.212   0.172  15.594 -0.1527 -0.1282  0.0367
 7724SOL    HW134808   1.244   0.178  15.684 -1.5585 -2.2557  0.6691
 7724SOL    HW234809   1.131   0.224  15.600 -1.0633 -1.6494  0.9408
 7725SOL     OW34810   1.260   4.486   3.495  0.0160 -0.0351  0.2818
 7725SOL    HW134811   1.206   4.408   3.504  0.3792 -0.0923  1.9954
 7725SOL    HW234812   1.311   4.485   3.576  0.1340  0.4042  0.2149
 7726SOL     OW34813   0.264   1.975   9.104  0.0347 -0.3503  0.1669
 7726SOL    HW134814   0.314   2.031   9.045  1.2803  0.5304  2.0634
 7726SOL    HW234815   0.323   1.969   9.179  3.3176 -0.8427 -2.4959
 7727SOL     OW34816   2.738   2.507   9.367  0.3078  0.1015 -0.8250
 7727SOL    HW134817   2.651   2.526   9.402  0.7237 -1.9321  1.3105
 7727SOL    HW234818   2.716   2.525   9.276  0.7805 -0.3228 -1.0182
 7728SOL     OW34819   2.138   2.678   8.101  0.0653 -0.3758  0.1049
 7728SOL    HW134820   2.150   2.699   8.194  0.2915  0.7435 -0.1763
 7728SOL    HW234821   2.045   2.661   8.087 -0.5804  2.1427  1.4006
 7729SOL     OW34822   0.087   1.738   9.167 -0.6713  0.5620 -0.2481
 7729SOL    HW134823   0.073   1.657   9.217  0.0184  0.6230  0.0423
 7729SOL    HW234824   0.077   1.808   9.231 -0.5571 -0.2710  0.6852
 7730SOL     OW34825   2.776   1.370  11.873 -0.4652 -0.2311  0.4174
 7730SOL    HW134826   2.859   1.416  11.862 -0.9385  0.6038  0.3405
 7730SOL    HW234827   2.782   1.320  11.792  0.0393  0.4843  0.0087
 7731SOL     OW34828   0.848   1.058  13.594  0.8368 -0.3318  0.2125
 7731SOL    HW134829   0.805   0.997  13.654 -1.8206  0.5068 -0.8093
 7731SOL    HW234830   0.845   1.020  13.506 -2.5818 -0.7350  0.5079
 7732SOL     OW34831   3.462   0.557   1.153 -0.6459  0.0328 -0.1091
 7732SOL    HW134832   3.454   0.507   1.235  1.2836  0.8775  0.6157
 7732SOL    HW234833   3.424   0.490   1.098 -0.3250 -0.3447  0.1254
 7733SOL     OW34834   0.139   2.896   6.121 -0.5175  0.4458 -0.1503
 7733SOL    HW134835   0.146   2.992   6.120  3.6129  0.1237 -1.3064
 7733SOL    HW234836   0.205   2.865   6.060 -0.4484 -1.3540  0.8442
 7734SOL     OW34837   2.291   1.463   2.292 -0.2530 -0.4158 -0.0651
 7734SOL    HW134838   2.271   1.552   2.264 -0.8338 -1.3823 -2.7163
 7734SOL    HW234839   2.211   1.414   2.270 -0.0189 -1.1062  0.6073
 7735SOL     OW34840   3.670   4.679   8.413  0.6217  0.0038 -0.5149
 7735SOL    HW134841   3.628   4.687   8.498 -0.6531 -0.3988 -1.1026
 7735SOL    HW234842   3.708   0.028   8.407 -0.2484  0.3420 -1.1272
 7736SOL     OW34843   3.935   2.906  12.667 -0.2595  0.0558  0.2130
 7736SOL    HW134844   3.996   2.875  12.734  1.5190  1.9564 -0.5321
 7736SOL    HW234845   3.865   2.954  12.713 -1.2074 -0.8000 -0.3292
 7737SOL     OW34846   3.409   2.462   3.273  0.1432  0.0107 -0.0326
 7737SOL    HW134847   3.334   2.464   3.214  0.0663  0.3270  0.0724
 7737SOL    HW234848   3.441   2.549   3.250  0.7976 -0.0930  0.4792
 7738SOL     OW34849   0.314   3.103   9.129  0.8333 -0.5236  0.5528
 7738SOL    HW134850   0.264   3.087   9.209  0.1457 -0.0073  0.2310
 7738SOL    HW234851   0.364   3.180   9.156  0.3600  0.6581 -1.9192
 7739SOL     OW34852   1.870   3.250   7.030 -0.3042 -0.3011 -0.0320
 7739SOL    HW134853   1.866   3.237   7.125  1.6846 -0.1953  0.0649
 7739SOL    HW234854   1.942   3.192   7.005  2.0296  2.2249  0.8154
 7740SOL     OW34855   2.770   2.150   3.314  0.0317  0.1949 -0.5400
 7740SOL    HW134856   2.755   2.155   3.409 -0.2416 -1.0442 -0.5292
 7740SOL    HW234857   2.841   2.214   3.305  0.3875 -0.4060 -2.0333
 7741SOL     OW34858   1.728   1.829   3.554  0.3587  0.0043  0.2438
 7741SOL    HW134859   1.727   1.877   3.471  2.2858  0.6306  0.5883
 7741SOL    HW234860   1.700   1.745   3.520  0.0975 -0.1318  0.7951
 7742SOL     OW34861   2.562   2.226   2.944  0.4074 -0.0238  0.2267
 7742SOL    HW134862   2.612   2.151   2.911  0.6226 -0.1835  0.9024
 7742SOL    HW234863   2.507   2.252   2.870  2.8086  0.8081 -1.2551
 7743SOL     OW34864   0.342   3.023   6.992 -0.3116 -0.3887  0.0024
 7743SOL    HW134865   0.346   3.115   7.019 -0.6447  0.5409 -3.1110
 7743SOL    HW234866   0.430   3.017   6.957  0.1019  0.6501  0.8557
 7744SOL     OW34867   1.515   1.049   8.439 -0.3862  0.5359 -0.4780
 7744SOL    HW134868   1.492   0.956   8.439 -1.2320  0.7518  0.0136
 7744SOL    HW234869   1.609   1.042   8.419 -0.1429 -0.3527  0.9478
 7745SOL     OW34870   2.304   1.629   8.429 -0.2079  0.1856  0.0025
 7745SOL    HW134871   2.315   1.720   8.454  0.6227  0.0714  0.0362
 7745SOL    HW234872   2.383   1.581   8.453 -0.7806 -0.9558 -0.3855
 7746SOL     OW34873   1.740   0.461   1.347 -0.1905  0.5529  0.4468
 7746SOL    HW134874   1.795   0.412   1.409 -1.0898 -0.2516  0.6009
 7746SOL    HW234875   1.786   0.545   1.338  1.3339 -0.1586  1.5479
 7747SOL     OW34876   4.181   2.210   5.970  0.2310 -0.3146  0.1676
 7747SOL    HW134877   4.158   2.213   6.063 -0.6229 -0.7939 -0.0243
 7747SOL    HW234878   4.273   2.186   5.984  0.4129 -0.1267 -0.7563
 7748SOL     OW34879   3.490   1.897  14.714 -0.6245 -0.0696  0.6397
 7748SOL    HW134880   3.499   1.983  14.757 -2.8385  2.2133 -3.5082
 7748SOL    HW234881   3.484   1.837  14.789  0.2921 -0.3428  0.4972
 7749SOL     OW34882   4.672   0.988   8.874 -0.1425  0.1605  0.0887
 7749SOL    HW134883   4.629   0.998   8.959  0.4635  1.3186  0.2528
 7749SOL    HW234884   0.024   1.008   8.899 -0.3531  1.2937 -0.0923
 7750SOL     OW34885   0.209   0.999   3.459  0.4585 -0.3690  0.3768
 7750SOL    HW134886   0.288   1.050   3.477  1.3876 -1.5274 -0.3281
 7750SOL    HW234887   0.248   0.930   3.405  0.0540 -0.2295 -0.0938
 7751SOL     OW34888   0.231   2.527   1.967  0.3945 -0.2519 -0.5144
 7751SOL    HW134889   0.211   2.584   1.893  2.3568  1.3724  0.2060
 7751SOL    HW234890   0.145   2.485   1.976  0.6854 -0.8677 -0.6112
 7752SOL     OW34891   1.808   2.452   2.998  0.6194  0.5592  0.7121
 7752SOL    HW134892   1.747   2.508   3.045  2.4400  1.4541  2.0361
 7752SOL    HW234893   1.775   2.454   2.909  0.8333 -1.1304  0.5764
 7753SOL     OW34894   1.749   3.083   6.079 -0.1211  0.0405 -0.5638
 7753SOL    HW134895   1.673   3.045   6.122 -1.2750  1.3446 -1.4653
 7753SOL    HW234896   1.705   3.134   6.011  1.7315 -0.6549 -2.3099
 7754SOL     OW34897   0.579   4.468   4.437 -0.5247 -0.0665 -0.0834
 7754SOL    HW134898   0.630   4.387   4.437  0.8905  0.8190 -1.6726
 7754SOL    HW234899   0.494   4.443   4.472 -0.9552  3.4124  1.2541
 7755SOL     OW34900   1.043   0.924   6.797  0.3956  0.3289 -0.1486
 7755SOL    HW134901   0.988   0.980   6.851  1.1320 -0.1361  1.0884
 7755SOL    HW234902   1.099   0.878   6.859 -0.6661  0.2717  0.7448
 7756SOL     OW34903   3.640   4.690   4.195 -0.5614  0.0397 -0.4017
 7756SOL    HW134904   3.698   4.627   4.152 -0.3094 -1.8927  2.7517
 7756SOL    HW234905   3.632   0.022   4.131 -1.2798 -1.4031 -1.9003
 7757SOL     OW34906   0.149   2.231   0.569 -1.0639 -0.4965 -0.1653
 7757SOL    HW134907   0.060   2.241   0.534 -0.0159 -0.2753 -2.7632
 7757SOL    HW234908   0.190   2.198   0.489  0.1478 -0.6160  0.5074
 7758SOL     OW34909   3.795   1.865   6.516  0.4584 -0.2045  0.1244
 7758SOL    HW134910   3.737   1.887   6.444 -0.4625 -0.1280  0.8874
 7758SOL    HW234911   3.760   1.923   6.585  1.4216 -0.5029  0.8689
 7759SOL     OW34912   4.294   2.985  11.842  0.3983 -0.3400 -0.9866
 7759SOL    HW134913   4.290   2.934  11.760  1.1171 -2.2019  0.1286
 7759SOL    HW234914   4.209   3.029  11.836  0.3933 -0.1138  0.9904
 7760SOL     OW34915   2.633   0.269   9.714 -0.3245  0.5185 -0.1461
 7760SOL    HW134916   2.545   0.239   9.691  0.8789 -2.1565 -1.2019
 7760SOL    HW234917   2.615   0.353   9.756 -1.4782  0.4487 -0.5093
 7761SOL     OW34918   0.678   2.814   6.443 -0.1641 -0.0186  0.1540
 7761SOL    HW134919   0.662   2.723   6.417 -0.2314  0.0987 -0.2163
 7761SOL    HW234920   0.654   2.847   6.356  0.5495 -1.0790 -0.4444
 7762SOL     OW34921   2.300   3.078   1.713  0.6701  0.0749  0.1804
 7762SOL    HW134922   2.219   3.096   1.667  1.9964 -1.7160 -2.8467
 7762SOL    HW234923   2.266   3.061   1.801 -1.5606 -0.2295 -0.7451
 7763SOL     OW34924   1.951   2.191   8.265 -0.1789  0.1156  0.1152
 7763SOL    HW134925   1.938   2.137   8.187 -0.1150 -0.8571  0.7759
 7763SOL    HW234926   2.044   2.209   8.249  0.3972 -0.7270  2.4369
 7764SOL     OW34927   4.636   4.590   3.631  0.0816 -0.1862 -0.2504
 7764SOL    HW134928   4.673   4.565   3.716 -0.2921  1.0763  0.2815
 7764SOL    HW234929   4.689   4.546   3.565  0.7614  0.4538 -0.1263
 7765SOL     OW34930   3.694   2.975   3.949  0.0480 -0.0643  0.3077
 7765SOL    HW134931   3.641   2.895   3.946  1.3021 -0.8223 -1.1667
 7765SOL    HW234932   3.633   3.048   3.935 -2.0252 -1.3897  2.3064
 7766SOL     OW34933   4.410   0.564   5.101  0.0506 -0.0388 -0.1112
 7766SOL    HW134934   4.315   0.564   5.107  0.2910  2.0013  3.9985
 7766SOL    HW234935   4.428   0.487   5.155  1.1825 -0.3961 -0.9900
 7767SOL     OW34936   0.768   3.061  16.253  0.1023 -0.5708  0.0172
 7767SOL    HW134937   0.834   3.045  16.185 -0.5594 -2.4238 -0.2071
 7767SOL    HW234938   0.787   3.153  16.270 -0.0063 -0.9730  2.3986
 7768SOL     OW34939   0.819   2.558   1.608  0.0545  0.6446  0.0999
 7768SOL    HW134940   0.755   2.561   1.679 -0.5114 -1.7316 -0.2855
 7768SOL    HW234941   0.799   2.639   1.560 -0.7650 -0.2256 -1.0467
 7769SOL     OW34942   0.215   3.073  17.034 -0.2798 -0.1369  0.6729
 7769SOL    HW134943   0.279   3.095  17.102 -0.5717 -0.9238  1.2026
 7769SOL    HW234944   0.173   2.994  17.068  0.0800 -0.7895 -0.4084
 7770SOL     OW34945   2.757   2.415  12.415 -0.1323  0.4227  0.5651
 7770SOL    HW134946   2.838   2.364  12.410 -0.5552 -0.0263 -1.6978
 7770SOL    HW234947   2.794   2.479  12.476  2.3221  1.7717 -2.3195
 7771SOL     OW34948   3.632   0.471  16.094 -0.0041 -0.1990 -0.4824
 7771SOL    HW134949   3.563   0.449  16.031  0.8847 -1.1690 -1.1205
 7771SOL    HW234950   3.588   0.435  16.171  0.2730  0.2588 -0.1148
 7772SOL     OW34951   0.079   0.416   8.265  0.3020  0.1938  0.6475
 7772SOL    HW134952   0.142   0.389   8.198 -1.0816  1.2807 -1.0925
 7772SOL    HW234953   0.138   0.433   8.339 -0.0308  2.1634  0.4643
 7773SOL     OW34954   0.558   0.286   7.037  0.5523 -0.7782 -0.1567
 7773SOL    HW134955   0.624   0.334   6.988  0.0295 -1.9170 -1.9944
 7773SOL    HW234956   0.546   0.340   7.116  0.6755  2.0442 -2.0907
 7774SOL     OW34957   3.190   2.372   2.055 -0.2930 -0.0217  0.0853
 7774SOL    HW134958   3.210   2.343   2.144  1.0872 -1.4050 -0.6717
 7774SOL    HW234959   3.097   2.387   2.069 -0.1582 -0.0782  1.0493
 7775SOL     OW34960   0.382   3.638   6.712 -0.7071  0.4574 -0.5688
 7775SOL    HW134961   0.305   3.594   6.675 -0.9361 -0.0091  0.4652
 7775SOL    HW234962   0.448   3.619   6.646  0.0618  1.0243  0.0285
 7776SOL     OW34963   4.204   1.842  14.544  0.2539  0.0846 -0.4119
 7776SOL    HW134964   4.288   1.870  14.508 -0.1854 -1.4576 -2.6164
 7776SOL    HW234965   4.161   1.823  14.461  1.2714  0.9024 -1.1234
 7777SOL     OW34966   0.127   1.501  11.819 -0.2120 -0.1982 -0.0322
 7777SOL    HW134967   0.176   1.526  11.897 -1.4250  1.9118  0.0609
 7777SOL    HW234968   0.090   1.585  11.791  0.3204 -0.2652 -0.9463
 7778SOL     OW34969   1.168   0.218  11.800 -0.4613 -0.2684 -0.2353
 7778SOL    HW134970   1.156   0.283  11.870  1.3890 -0.6152  0.3923
 7778SOL    HW234971   1.214   0.147  11.844 -0.8381 -0.6444 -0.4509
 7779SOL     OW34972   4.577   0.991   2.116 -0.1365  0.1016 -0.4809
 7779SOL    HW134973   4.502   1.045   2.141 -0.0295  0.2140 -0.3995
 7779SOL    HW234974   4.565   0.908   2.162  2.9743  0.7256  1.4879
 7780SOL     OW34975   1.870   0.544   5.764 -0.4831  0.2860 -0.0785
 7780SOL    HW134976   1.896   0.455   5.739 -0.0957 -0.5187  3.1771
 7780SOL    HW234977   1.868   0.547   5.860  2.0563  0.8382 -0.0460
 7781SOL     OW34978   2.846   4.461   5.290  0.6839  0.5322  0.0978
 7781SOL    HW134979   2.798   4.388   5.329  1.7069  1.2083  2.6516
 7781SOL    HW234980   2.933   4.421   5.295  0.1647 -0.6686 -0.3493
 7782SOL     OW34981   1.302   1.082   6.228  0.7762 -1.0443  0.5867
 7782SOL    HW134982   1.357   1.092   6.150  2.3402  1.0534  1.9653
 7782SOL    HW234983   1.343   1.144   6.287  0.1085 -0.1201  0.0828
 7783SOL     OW34984   1.608   4.662   4.658 -0.6111  0.1796 -0.0266
 7783SOL    HW134985   1.650   4.577   4.646 -0.7111  0.5708 -3.2263
 7783SOL    HW234986   1.532   4.665   4.600  0.5350  1.6387 -1.4320
 7784SOL     OW34987   1.280   2.738   2.853 -0.0304 -0.5552  0.0351
 7784SOL    HW134988   1.322   2.803   2.796 -0.1801 -1.4076 -1.0482
 7784SOL    HW234989   1.306   2.784   2.932 -3.4364  1.8299 -0.2160
 7785SOL     OW34990   2.436   4.460  15.252 -0.3151 -0.1275 -0.2733
 7785SOL    HW134991   2.432   4.465  15.157  0.7210 -1.5796 -0.3920
 7785SOL    HW234992   2.373   4.391  15.276 -1.4039  0.5874 -1.0811
 7786SOL     OW34993   1.999   0.074   1.364  0.3320 -0.0356 -0.4068
 7786SOL    HW134994   1.912   0.104   1.392  0.4847  1.1196 -1.2075
 7786SOL    HW234995   1.996   4.718   1.375  5.0967  0.0218  1.3119
 7787SOL     OW34996   4.156   4.433   8.292 -0.0981  0.2381 -0.4568
 7787SOL    HW134997   4.209   4.512   8.305 -1.2072  1.1269 -1.3653
 7787SOL    HW234998   4.069   4.473   8.295 -0.3339 -0.4813  2.2451
 7788SOL     OW34999   3.770   2.495   2.171 -0.0003 -0.1386 -0.4459
 7788SOL    HW135000   3.840   2.430   2.175  2.3145  2.2145 -2.7230
 7788SOL    HW235001   3.782   2.540   2.255  1.1380 -0.5976 -0.3696
 7789SOL     OW35002   0.052   1.254   3.916 -0.1824 -0.0116  0.0070
 7789SOL    HW135003   4.721   1.315   3.894  2.2685  2.0392 -2.2256
 7789SOL    HW235004   0.014   1.172   3.884  1.5320 -0.7272 -0.2432
 7790SOL     OW35005   3.828   0.606  11.561  0.3246 -0.1457  1.0672
 7790SOL    HW135006   3.861   0.693  11.537  3.1762 -1.4086  0.4748
 7790SOL    HW235007   3.756   0.595  11.498  2.3678  0.3496 -1.3831
 7791SOL     OW35008   1.773   2.850   4.453  0.5141  0.1514  0.4357
 7791SOL    HW135009   1.867   2.854   4.436  0.0317  0.4691 -2.1597
 7791SOL    HW235010   1.745   2.799   4.377  0.1115  1.3019 -0.1864
 7792SOL     OW35011   0.778   0.234   3.577 -0.0194 -0.1318 -0.0404
 7792SOL    HW135012   0.715   0.299   3.607  0.3013  1.1262 -2.1365
 7792SOL    HW235013   0.833   0.226   3.655 -0.0587 -0.6074 -0.0584
 7793SOL     OW35014   1.561   4.311   9.150 -0.1617 -0.0340  0.4379
 7793SOL    HW135015   1.511   4.383   9.187 -1.2463  0.3784 -1.8028
 7793SOL    HW235016   1.528   4.312   9.060  0.8685 -2.9178  0.0119
 7794SOL     OW35017   3.105   4.157   6.350  0.2276 -0.0324 -0.1440
 7794SOL    HW135018   3.068   4.223   6.291  2.0326 -0.7991 -2.1294
 7794SOL    HW235019   3.140   4.086   6.297  0.4922 -0.4595  0.5980
 7795SOL     OW35020   3.582   0.676  15.732 -0.0442 -0.7033  0.2264
 7795SOL    HW135021   3.608   0.622  15.657  3.9944  0.4093  0.8581
 7795SOL    HW235022   3.668   0.706  15.761 -0.2878 -0.5187  0.7696
 7796SOL     OW35023   3.810   2.456  15.323  0.6597  0.1626  0.5617
 7796SOL    HW135024   3.841   2.388  15.383  2.2843  0.2210 -0.1989
 7796SOL    HW235025   3.841   2.536  15.365  2.2469 -0.6216  0.9095
 7797SOL     OW35026   2.073   4.250   9.132  0.0718  0.3078  0.4494
 7797SOL    HW135027   2.075   4.231   9.038 -2.0468  0.5147  0.3615
 7797SOL    HW235028   1.984   4.229   9.162  0.3707  1.6039  2.2068
 7798SOL     OW35029   1.681   2.137   9.717 -0.1912 -0.4596 -0.0649
 7798SOL    HW135030   1.608   2.098   9.668 -1.2084 -0.6247  1.5479
 7798SOL    HW235031   1.630   2.175   9.789  1.2714  2.1143 -0.4207
 7799SOL     OW35032   0.679   0.138  11.535  0.3736  0.2026 -0.2872
 7799SOL    HW135033   0.702   0.208  11.597  0.5703 -0.8846  0.8778
 7799SOL    HW235034   0.736   0.157  11.460 -0.7602  0.2180 -1.1354
 7800SOL     OW35035   1.417   3.790   6.890  0.1255 -0.1719 -0.4031
 7800SOL    HW135036   1.469   3.717   6.922 -2.0238 -0.4900  2.3485
 7800SOL    HW235037   1.488   3.853   6.881  0.3832 -0.3684  0.2689
 7801SOL     OW35038   4.385   1.773   9.040  0.1973  0.3808 -1.0352
 7801SOL    HW135039   4.405   1.862   9.011  0.8443  0.1904 -1.1726
 7801SOL    HW235040   4.309   1.789   9.095  0.0732  0.6321 -1.2782
 7802SOL     OW35041   3.709   0.133   6.549 -0.5580  0.5491 -0.0623
 7802SOL    HW135042   3.689   0.220   6.516  2.0873  1.4056  0.5887
 7802SOL    HW235043   3.633   0.135   6.606 -0.4361 -1.1956  0.1595
 7803SOL     OW35044   3.739   1.813   5.161 -0.1881 -0.3136  0.5918
 7803SOL    HW135045   3.771   1.787   5.247  1.2304 -0.3097  0.0652
 7803SOL    HW235046   3.819   1.836   5.113 -1.1592  0.8190 -0.4600
 7804SOL     OW35047   4.031   2.289   7.281  0.3027 -0.7958 -0.1673
 7804SOL    HW135048   4.029   2.377   7.243 -1.4706 -0.3639  0.9193
 7804SOL    HW235049   4.035   2.234   7.203  0.4534  0.0606 -0.7698
 7805SOL     OW35050   1.166   2.920   6.851 -0.3039 -0.2161 -0.2077
 7805SOL    HW135051   1.220   2.913   6.773  1.6491 -0.5190  1.1675
 7805SOL    HW235052   1.078   2.941   6.820  0.5748  2.6488 -0.7565
 7806SOL     OW35053   3.947   2.914   7.064  0.5433 -0.3889  0.3519
 7806SOL    HW135054   4.019   2.852   7.077  0.5217 -0.7266 -1.1698
 7806SOL    HW235055   3.991   2.996   7.083  0.8669 -0.4350 -0.2100
 7807SOL     OW35056   0.363   4.102   5.909  0.0423  0.0545  0.2625
 7807SOL    HW135057   0.382   4.017   5.871 -0.1965  0.8664 -1.6571
 7807SOL    HW235058   0.442   4.109   5.963  1.1449  0.6445 -1.4297
 7808SOL     OW35059   3.888   0.465  13.176  0.5636 -0.5481 -0.8598
 7808SOL    HW135060   3.831   0.508  13.113  2.7153  0.0324 -2.4139
 7808SOL    HW235061   3.976   0.477  13.141 -0.1574  1.4404 -2.0108
 7809SOL     OW35062   4.589   3.559   4.126 -0.2007  0.0358 -0.0595
 7809SOL    HW135063   4.564   3.533   4.214 -0.4587  0.6044  0.0360
 7809SOL    HW235064   4.519   3.518   4.076  0.7543  0.6572 -1.9146
 7810SOL     OW35065   2.674   3.066   4.997 -0.3034 -0.1371  0.9847
 7810SOL    HW135066   2.617   3.090   4.924  1.1669 -0.6893 -0.3430
 7810SOL    HW235067   2.671   2.971   5.002 -0.6746 -0.2145 -0.6146
 7811SOL     OW35068   0.674   2.284   8.338  0.3001  0.1134  0.3960
 7811SOL    HW135069   0.759   2.321   8.315  0.2789  0.3914  0.7607
 7811SOL    HW235070   0.607   2.299   8.272  0.2470  0.1683  0.4616
 7812SOL     OW35071   1.453   2.450   3.005 -0.5105  0.2945  0.1831
 7812SOL    HW135072   1.437   2.414   2.918 -0.4449 -0.0598  0.3178
 7812SOL    HW235073   1.461   2.373   3.062  0.7664  0.1080 -0.2476
 7813SOL     OW35074   0.942   3.491  13.207  0.2435 -0.2981  0.4661
 7813SOL    HW135075   0.958   3.567  13.151 -1.5893 -0.8859 -0.8305
 7813SOL    HW235076   1.033   3.475  13.233  0.3596 -0.2600  0.0739
 7814SOL     OW35077   2.218   3.424   4.321 -0.2436 -0.5071 -0.4784
 7814SOL    HW135078   2.261   3.507   4.341  0.0022 -0.4545 -1.2125
 7814SOL    HW235079   2.131   3.463   4.307 -0.2763 -0.1347  0.7585
 7815SOL     OW35080   1.181   2.625   6.938  0.5807  0.0786 -0.3061
 7815SOL    HW135081   1.089   2.618   6.963  0.0990 -0.7465 -2.3006
 7815SOL    HW235082   1.180   2.702   6.881  0.8207 -1.8822 -2.9652
 7816SOL     OW35083   2.091   0.041   9.946  0.3358 -0.1731 -0.0641
 7816SOL    HW135084   2.115   0.060   9.856  1.6412 -3.3786 -0.3910
 7816SOL    HW235085   2.019   4.720   9.928 -0.6432  1.6165 -2.0783
 7817SOL     OW35086   0.257   1.193  14.968  0.2113  0.3298  0.2257
 7817SOL    HW135087   0.207   1.154  14.896  1.1054  1.2276 -0.8811
 7817SOL    HW235088   0.217   1.280  14.958  0.8055  0.6705  0.9019
 7818SOL     OW35089   1.389   2.466   1.981  0.8479 -0.2235  0.5644
 7818SOL    HW135090   1.365   2.376   2.002  2.1596 -0.8282 -0.5040
 7818SOL    HW235091   1.327   2.517   2.032  0.3613  1.1610 -1.3840
 7819SOL     OW35092   4.330   3.936   6.375  0.0199 -0.0741 -0.5917
 7819SOL    HW135093   4.349   3.842   6.373  1.8540  0.2793  0.3957
 7819SOL    HW235094   4.399   3.964   6.314  1.2796 -0.4798  0.6354
 7820SOL     OW35095   3.703   2.200   7.639 -0.5835  0.1880 -0.2518
 7820SOL    HW135096   3.731   2.182   7.729  1.6879 -0.4143 -1.0810
 7820SOL    HW235097   3.788   2.195   7.595 -0.2109 -1.4646  0.6348
 7821SOL     OW35098   2.037   2.171   9.270  0.3132 -0.4908 -0.2263
 7821SOL    HW135099   1.964   2.225   9.238  1.0238  0.5930 -0.0100
 7821SOL    HW235100   2.009   2.143   9.357 -0.1574  1.2921  0.1810
 7822SOL     OW35101   2.188   0.179   3.018  0.6365  0.5827 -0.7678
 7822SOL    HW135102   2.160   0.264   2.982  1.1670  1.4248  0.8349
 7822SOL    HW235103   2.216   0.137   2.937  1.5945 -1.6466  0.7331
 7823SOL     OW35104   0.020   4.256   8.622 -0.1990 -0.1565  0.1057
 7823SOL    HW135105   4.680   4.258   8.568 -0.8503  0.2929  1.0884
 7823SOL    HW235106   0.000   4.334   8.673 -0.2455 -0.4049  0.4685
 7824SOL     OW35107   0.042   1.051  12.094  0.5916 -0.0625  0.1930
 7824SOL    HW135108   0.008   0.970  12.133  0.7628  0.2888  1.0593
 7824SOL    HW235109   0.053   1.015  12.006  1.8337 -1.9567  1.1178
 7825SOL     OW35110   1.423   2.998   5.214 -0.1391  0.3095  0.4275
 7825SOL    HW135111   1.378   2.968   5.293 -0.4173 -1.5764 -0.4488
 7825SOL    HW235112   1.360   2.976   5.146  0.8997 -1.7610  0.1468
 7826SOL     OW35113   0.066   0.740  16.906 -0.3133  0.0705 -0.2817
 7826SOL    HW135114   0.136   0.714  16.847  0.1847 -1.2402  0.8779
 7826SOL    HW235115   0.104   0.797  16.973  1.3261 -3.4332  1.7586
 7827SOL     OW35116   3.724   4.460   5.277  0.0190 -0.2551 -0.1586
 7827SOL    HW135117   3.691   4.544   5.311 -1.4882 -0.4307 -1.2045
 7827SOL    HW235118   3.817   4.458   5.298  0.0998 -0.9983 -0.5919
 7828SOL     OW35119   3.249   0.168   6.743  0.0280  0.6685 -0.4306
 7828SOL    HW135120   3.216   0.107   6.810 -0.6458  2.0194  0.4684
 7828SOL    HW235121   3.221   0.255   6.771  1.1861  1.5563 -2.0784
 7829SOL     OW35122   3.512   2.938   9.234 -0.4072  0.3731 -0.0902
 7829SOL    HW135123   3.437   2.941   9.175  0.0581 -0.9586 -0.7525
 7829SOL    HW235124   3.554   3.023   9.219  1.2129  0.0253  2.4983
 7830SOL     OW35125   4.303   2.235  12.169  0.1115 -0.2158 -0.1469
 7830SOL    HW135126   4.238   2.165  12.166  1.9264 -1.9779  0.8903
 7830SOL    HW235127   4.254   2.313  12.146 -1.1924 -0.0803  3.0440
 7831SOL     OW35128   2.856   3.285   0.232 -0.0919 -0.3849 -0.4919
 7831SOL    HW135129   2.878   3.378   0.231 -0.0910 -0.3917 -1.1452
 7831SOL    HW235130   2.764   3.282   0.203 -0.0502 -2.2912 -0.4198
 7832SOL     OW35131   1.675   1.885  17.119 -0.4822 -0.3739  0.6927
 7832SOL    HW135132   1.718   1.804  17.146  0.4064 -0.0736  0.1754
 7832SOL    HW235133   1.700   1.949  17.186  0.1448  0.1530 -0.0440
 7833SOL     OW35134   2.579   2.636   7.306 -0.7377  0.1703 -0.0101
 7833SOL    HW135135   2.551   2.649   7.215 -0.9139 -0.9142 -0.1221
 7833SOL    HW235136   2.507   2.579   7.337 -0.1304 -0.3591  0.4247
 7834SOL     OW35137   4.077   0.026   8.504 -0.0201 -0.4976  0.1876
 7834SOL    HW135138   4.129   0.106   8.510 -0.1974 -0.2760 -1.1813
 7834SOL    HW235139   4.078   0.016   8.409 -1.9379 -1.4344  0.2572
 7835SOL     OW35140   3.504   0.050   8.728  0.1608 -0.3590  0.0597
 7835SOL    HW135141   3.456   4.711   8.757 -1.9898  0.4780 -1.3126
 7835SOL    HW235142   3.590   0.034   8.767  0.4326 -0.4160 -0.5795
 7836SOL     OW35143   2.832   1.360   5.638  0.0874 -0.3159  0.4091
 7836SOL    HW135144   2.881   1.289   5.597 -1.9808 -1.3776 -0.2023
 7836SOL    HW235145   2.901   1.425   5.621  0.3199 -0.0045  2.6093
 7837SOL     OW35146   0.111   2.566  10.682 -0.5034 -0.0615 -0.5401
 7837SOL    HW135147   0.111   2.615  10.599  0.4544 -1.3611 -1.3081
 7837SOL    HW235148   0.027   2.592  10.719 -0.1057  0.7125 -0.1631
 7838SOL     OW35149   0.261   1.957   7.289  0.8071 -0.0088  0.6614
 7838SOL    HW135150   0.295   2.007   7.364  0.7697  0.1664  0.5617
 7838SOL    HW235151   0.286   2.019   7.220 -1.0762  1.9741  1.7319
 7839SOL     OW35152   0.584   2.441   6.635  0.1954 -0.2545  0.2287
 7839SOL    HW135153   0.526   2.516   6.628 -0.9257 -1.0251  1.3207
 7839SOL    HW235154   0.591   2.437   6.730  0.9378 -2.8931  0.0725
 7840SOL     OW35155   1.749   4.514   3.541  0.1783 -0.0947 -0.6093
 7840SOL    HW135156   1.774   4.566   3.465  0.3334  1.9695  0.8647
 7840SOL    HW235157   1.703   4.447   3.490  0.0601 -1.0551  0.7615
 7841SOL     OW35158   4.066   0.737  15.899 -0.0793  0.4691  0.3029
 7841SOL    HW135159   3.976   0.769  15.890 -0.6066 -1.1553 -0.1445
 7841SOL    HW235160   4.093   0.797  15.969  0.7822  1.6747 -1.0697
 7842SOL     OW35161   3.592   1.507  16.364  0.0489 -0.2659 -0.0599
 7842SOL    HW135162   3.678   1.482  16.329 -0.0611  0.9339 -1.1632
 7842SOL    HW235163   3.558   1.559  16.291 -3.2090 -1.4568  0.6279
 7843SOL     OW35164   0.589   2.776  15.164  0.2691 -0.3025 -0.2740
 7843SOL    HW135165   0.571   2.709  15.230 -1.7334 -0.8223 -1.3102
 7843SOL    HW235166   0.600   2.727  15.082  0.8176  1.5098 -1.2781
 7844SOL     OW35167   2.229   2.175   7.281  0.5761 -0.7845 -0.4412
 7844SOL    HW135168   2.288   2.129   7.339  0.2916  0.0036  0.4657
 7844SOL    HW235169   2.158   2.163   7.343 -0.7748  0.6766 -1.6915
 7845SOL     OW35170   1.994   0.740  11.430  0.1867 -0.5982 -0.6829
 7845SOL    HW135171   2.032   0.694  11.505  0.7820  0.5164 -0.2990
 7845SOL    HW235172   1.965   0.824  11.465  2.5573 -0.6808  1.5307
 7846SOL     OW35173   1.131   3.867   7.409 -0.1782  0.0113  0.4527
 7846SOL    HW135174   1.051   3.885   7.361 -1.1516 -1.6613  1.4398
 7846SOL    HW235175   1.163   3.788   7.365  1.8886  0.8375  0.4474
 7847SOL     OW35176   3.164   2.951   7.314 -0.3024  0.3483  0.5187
 7847SOL    HW135177   3.142   2.859   7.300 -0.8769  0.8635 -2.0364
 7847SOL    HW235178   3.260   2.958   7.310 -0.2565  0.2825  1.6219
 7848SOL     OW35179   4.597   4.263  16.515 -0.6670 -0.1616 -0.8812
 7848SOL    HW135180   4.521   4.226  16.560  1.1887 -1.7810  0.9281
 7848SOL    HW235181   4.629   4.312  16.590  1.5366 -1.1784 -1.1337
 7849SOL     OW35182   1.574   0.936   6.092 -0.3351 -0.4017 -0.3878
 7849SOL    HW135183   1.608   0.910   6.007 -1.8140 -0.5165 -0.9316
 7849SOL    HW235184   1.585   0.853   6.140 -0.3027 -0.3705 -0.3413
 7850SOL     OW35185   2.431   3.091  16.601 -0.1194  0.5355 -0.2008
 7850SOL    HW135186   2.337   3.076  16.589  0.3937 -1.5771 -1.4904
 7850SOL    HW235187   2.439   3.091  16.697 -1.1023 -0.7019 -0.1276
 7851SOL     OW35188   4.633   3.438   4.375  0.1050  0.0006  0.5903
 7851SOL    HW135189   4.663   3.392   4.453 -0.4500 -0.8697  0.3011
 7851SOL    HW235190   4.650   3.528   4.400  1.0484  0.2873 -1.0382
 7852SOL     OW35191   3.438   3.027   3.630  0.6195 -0.0962  0.5071
 7852SOL    HW135192   3.496   3.103   3.644  0.1276  0.4650 -0.4285
 7852SOL    HW235193   3.358   3.072   3.656  1.1608  0.3197  1.4635
 7853SOL     OW35194   2.999   1.446   0.989  0.0239  0.7603 -0.1618
 7853SOL    HW135195   2.912   1.478   1.011  0.2608  2.3706 -1.5399
 7853SOL    HW235196   3.047   1.473   1.067  0.8332  1.6765 -0.9630
 7854SOL     OW35197   1.465   4.386  17.240 -0.2753  0.0887 -0.1636
 7854SOL    HW135198   1.522   4.392  17.163  0.6684 -0.7583  0.4698
 7854SOL    HW235199   1.527   4.356  17.306  0.5821 -0.3666 -1.1668
 7855SOL     OW35200   2.589   3.479  17.442 -0.0292  0.1159  0.0141
 7855SOL    HW135201   2.669   3.427  17.436  0.8051  1.7431 -2.8620
 7855SOL    HW235202   2.610   3.532  17.519 -0.5572 -0.2018  0.3736
 7856SOL     OW35203   0.657   0.927   2.413  0.4759  0.9489 -0.1301
 7856SOL    HW135204   0.620   0.917   2.326 -2.0386  3.2298  0.6775
 7856SOL    HW235205   0.585   0.970   2.459  0.1319  1.6299 -1.3139
 7857SOL     OW35206   3.932   1.805  14.122  0.4991 -0.1021 -0.5755
 7857SOL    HW135207   3.903   1.812  14.031 -0.4763 -0.2184 -0.2714
 7857SOL    HW235208   3.855   1.762  14.159  0.7060 -0.9343 -1.1013
 7858SOL     OW35209   1.903   4.122   3.277 -0.8231  0.1072  0.7518
 7858SOL    HW135210   1.934   4.162   3.196 -1.4644 -0.0132  0.4519
 7858SOL    HW235211   1.832   4.072   3.236 -0.9465 -0.7115  1.9538
 7859SOL     OW35212   4.436   0.162   8.258 -0.0362 -0.0848 -0.3386
 7859SOL    HW135213   4.411   0.238   8.205  1.2199  0.7051  0.1910
 7859SOL    HW235214   4.482   0.204   8.331  1.9265 -1.0039 -1.0433
 7860SOL     OW35215   3.256   1.869   3.516 -0.5819  0.4216 -0.0243
 7860SOL    HW135216   3.167   1.838   3.499 -1.4528  2.0145  1.5485
 7860SOL    HW235217   3.305   1.827   3.446 -0.6278 -0.7183  0.6300
 7861SOL     OW35218   0.495   3.488   3.524  0.6940 -0.3259 -0.2214
 7861SOL    HW135219   0.432   3.553   3.492  1.0022  1.5038  2.8121
 7861SOL    HW235220   0.483   3.487   3.619  1.0466  0.3955 -0.1637
 7862SOL     OW35221   4.411   2.485   5.363 -0.2714  0.2395 -0.4429
 7862SOL    HW135222   4.353   2.409   5.360  1.2961 -1.0796  2.4029
 7862SOL    HW235223   4.496   2.450   5.336 -0.0631  1.1582 -1.0121
 7863SOL     OW35224   0.393   0.192   4.985  0.1103 -0.2143 -0.0411
 7863SOL    HW135225   0.332   0.118   4.992 -0.5401  0.3033 -0.2237
 7863SOL    HW235226   0.472   0.138   4.987  0.1598 -0.0505  1.8844
 7864SOL     OW35227   3.965   1.561   0.394 -0.2114  0.3510  0.0756
 7864SOL    HW135228   3.931   1.621   0.461  1.2403  0.3327  0.8346
 7864SOL    HW235229   4.004   1.620   0.330 -2.5706  2.0043  0.1626
 7865SOL     OW35230   4.070   0.315   4.439  0.9817 -0.3740  0.0092
 7865SOL    HW135231   4.113   0.393   4.475 -1.8956  0.9939  0.4798
 7865SOL    HW235232   4.129   0.284   4.370  1.9037  1.8500 -0.2149
 7866SOL     OW35233   3.167   2.164   4.651 -0.4451 -0.0241 -0.2586
 7866SOL    HW135234   3.256   2.141   4.622 -0.5715 -0.2425 -0.4715
 7866SOL    HW235235   3.124   2.193   4.571 -0.3853  2.7959  0.7352
 7867SOL     OW35236   2.420   4.476   1.198  0.2595 -0.2468  0.9668
 7867SOL    HW135237   2.420   4.571   1.202  2.0393 -0.2279  0.3060
 7867SOL    HW235238   2.399   4.465   1.105  0.5640  0.8819  0.7748
 7868SOL     OW35239   3.823   4.214   6.939 -0.4673  0.1416  0.3528
 7868SOL    HW135240   3.888   4.186   7.003 -0.5278 -0.1560  0.2862
 7868SOL    HW235241   3.743   4.199   6.989 -0.7988  0.7214  0.0025
 7869SOL     OW35242   1.447   0.171  14.792 -0.2582 -0.5533 -0.1034
 7869SOL    HW135243   1.510   0.115  14.747  0.5235 -0.1446  0.4858
 7869SOL    HW235244   1.422   0.121  14.870  2.8255 -1.6262  0.1735
 7870SOL     OW35245   3.275   2.960   3.963 -0.0066  0.2768 -0.2676
 7870SOL    HW135246   3.271   2.911   3.881 -0.1226  0.0047 -0.0995
 7870SOL    HW235247   3.340   3.026   3.935  0.5813 -0.1850  0.0004
 7871SOL     OW35248   0.160   3.962  10.695  0.0967  0.1063  0.0271
 7871SOL    HW135249   0.210   3.881  10.708 -0.0387 -0.4831 -3.1186
 7871SOL    HW235250   0.077   3.921  10.671 -1.2271  3.2222 -0.6321
 7872SOL     OW35251   0.941   3.468   1.625 -0.1767 -0.0885 -0.1604
 7872SOL    HW135252   1.028   3.449   1.589  0.8749 -0.9759  2.8417
 7872SOL    HW235253   0.925   3.391   1.680 -0.7065 -0.7543 -1.2602
 7873SOL     OW35254   1.252   2.049   8.245  0.0239  0.1301  0.2171
 7873SOL    HW135255   1.167   2.016   8.216 -0.7067  0.8380  1.5651
 7873SOL    HW235256   1.230   2.139   8.269 -1.3797  0.3024 -1.7547
 7874SOL     OW35257   2.098   2.730   8.915 -0.0048  0.7976  0.0869
 7874SOL    HW135258   2.037   2.748   8.844 -1.1114  1.0971  1.1199
 7874SOL    HW235259   2.038   2.740   8.990 -0.1419  0.3184  0.0453
 7875SOL     OW35260   0.053   4.252   6.171 -0.2980  0.4428 -0.0371
 7875SOL    HW135261   0.146   4.234   6.189  0.2899  0.7387 -2.8598
 7875SOL    HW235262   0.052   4.335   6.219  0.3066 -0.0920  0.9060
 7876SOL     OW35263   2.759   0.367   1.062 -0.3605 -0.9533 -0.1915
 7876SOL    HW135264   2.813   0.416   1.123  0.5230 -0.5885 -1.2753
 7876SOL    HW235265   2.811   0.289   1.044  0.8502 -0.2415  0.2805
 7877SOL     OW35266   1.837   1.378   7.796  0.2909 -0.4652 -0.4941
 7877SOL    HW135267   1.859   1.329   7.717  1.6905 -3.1276  1.5404
 7877SOL    HW235268   1.866   1.314   7.861 -3.3069 -0.7269  0.8559
 7878SOL     OW35269   3.214   2.587  11.350  0.5305 -0.0356 -0.1225
 7878SOL    HW135270   3.172   2.639  11.419  0.5246 -2.2955  1.5890
 7878SOL    HW235271   3.181   2.498  11.362  1.1672 -0.2453  0.0792
 7879SOL     OW35272   3.647   3.250   8.662  0.1764  0.6201 -0.2645
 7879SOL    HW135273   3.569   3.279   8.711  1.1462  1.6383  0.6701
 7879SOL    HW235274   3.688   3.203   8.734 -1.4633  1.1281  1.0083
 7880SOL     OW35275   2.981   3.379  10.656 -0.5870 -0.0410  0.7930
 7880SOL    HW135276   3.076   3.379  10.667 -0.2841 -0.1345 -1.9420
 7880SOL    HW235277   2.959   3.465  10.618  0.8811 -0.0531 -0.0857
 7881SOL     OW35278   0.080   1.641   7.396 -0.0202 -0.2055 -0.0321
 7881SOL    HW135279   0.124   1.675   7.319  0.0689  2.0506  1.0065
 7881SOL    HW235280   0.029   1.719   7.418  1.4806  0.8723 -0.3619
 7882SOL     OW35281   0.739   0.459   6.043  0.1560  0.1225  0.4231
 7882SOL    HW135282   0.796   0.532   6.020  1.1844 -1.1805 -1.1968
 7882SOL    HW235283   0.751   0.404   5.966  0.1977  1.4221 -0.4947
 7883SOL     OW35284   3.856   4.302   3.166 -0.1235  0.0876  0.3601
 7883SOL    HW135285   3.940   4.314   3.209  0.7603  0.2712 -1.4528
 7883SOL    HW235286   3.878   4.221   3.119  0.6387 -0.0542  0.9607
 7884SOL     OW35287   0.193   0.131   1.540 -0.0824 -0.2395 -0.6018
 7884SOL    HW135288   0.276   0.157   1.581  0.1310 -1.9502  0.0667
 7884SOL    HW235289   0.133   0.130   1.615  2.0299  2.4857  1.1285
 7885SOL     OW35290   3.325   1.932  12.451  0.2298  0.0229  0.8095
 7885SOL    HW135291   3.352   1.869  12.385 -1.2821 -0.5077  0.7053
 7885SOL    HW235292   3.372   2.009  12.418 -1.0482 -0.1597 -1.4556
 7886SOL     OW35293   3.172   0.049  14.504 -0.2387 -0.0490 -0.3843
 7886SOL    HW135294   3.173   0.002  14.421 -0.2807 -1.1000  0.2115
 7886SOL    HW235295   3.081   0.043  14.534 -0.0708  3.2390  0.7954
 7887SOL     OW35296   3.407   1.223   9.138 -0.6092  0.3378 -0.7384
 7887SOL    HW135297   3.344   1.295   9.134 -0.7701  0.1710 -1.1914
 7887SOL    HW235298   3.458   1.246   9.060 -0.7374  0.3313 -0.8233
 7888SOL     OW35299   0.556   2.148   9.518 -0.3521 -0.3062  0.1650
 7888SOL    HW135300   0.644   2.120   9.544 -0.9003 -1.1590  1.0938
 7888SOL    HW235301   0.574   2.242   9.523 -0.7493 -0.1609 -1.0897
 7889SOL     OW35302   0.948   3.547  16.555  0.3955  0.6530  0.4060
 7889SOL    HW135303   1.040   3.533  16.577  0.7016  1.4989 -0.3710
 7889SOL    HW235304   0.946   3.518  16.464  1.2566 -1.0099  0.8987
 7890SOL     OW35305   0.084   4.704   6.498 -0.2649 -0.7915  0.0894
 7890SOL    HW135306   0.012   4.739   6.551  2.2518  2.2937  1.5458
 7890SOL    HW235307   0.036   4.686   6.418 -0.2943 -1.6996  0.3081
 7891SOL     OW35308   4.160   1.500   5.501 -0.7939  0.4398 -0.2672
 7891SOL    HW135309   4.224   1.436   5.471 -2.7548 -2.1001  1.0349
 7891SOL    HW235310   4.190   1.582   5.460  0.4789  0.3326  0.4574
 7892SOL     OW35311   0.802   2.786  15.462  0.2534  0.3074  0.3658
 7892SOL    HW135312   0.853   2.863  15.438  2.6377 -1.5670 -0.6217
 7892SOL    HW235313   0.745   2.775  15.386  0.2867  0.7484  0.2774
 7893SOL     OW35314   1.912   4.572   9.916  0.0040 -0.7438 -0.5673
 7893SOL    HW135315   1.968   4.496   9.927  0.3002 -0.7205 -1.8816
 7893SOL    HW235316   1.831   4.549   9.961 -0.1407 -0.1076 -0.4916
 7894SOL     OW35317   1.372   1.324   4.190  0.3715 -0.2569  0.1347
 7894SOL    HW135318   1.282   1.353   4.201  0.3299 -0.4797  0.3708
 7894SOL    HW235319   1.364   1.239   4.233  2.1067  0.4125  1.8424
 7895SOL     OW35320   2.985   2.855  15.034  0.3226 -0.5107 -0.2865
 7895SOL    HW135321   2.964   2.872  14.942 -0.2330 -1.7886 -0.3997
 7895SOL    HW235322   3.067   2.904  15.043  0.5471 -0.8029 -0.7433
 7896SOL     OW35323   0.523   1.179   5.882 -0.3906 -0.0653  0.7461
 7896SOL    HW135324   0.592   1.210   5.940  1.0597 -1.3649 -0.2950
 7896SOL    HW235325   0.447   1.219   5.925  0.6164  0.0874  2.3829
 7897SOL     OW35326   0.141   3.894   2.573  0.2019  0.3293  0.3862
 7897SOL    HW135327   0.074   3.880   2.640  0.3912  1.2945  0.7769
 7897SOL    HW235328   0.104   3.968   2.525  1.6079 -0.2551 -1.6006
 7898SOL     OW35329   3.034   1.283  12.016 -0.2070  0.3802 -0.0892
 7898SOL    HW135330   2.992   1.281  12.102  0.7899 -2.7656  0.3182
 7898SOL    HW235331   2.990   1.358  11.976 -1.2340 -0.8405 -1.2049
 7899SOL     OW35332   0.529   1.307   6.132 -0.4743  0.6144 -0.2496
 7899SOL    HW135333   0.598   1.372   6.114  0.0225  0.0083 -0.5401
 7899SOL    HW235334   0.556   1.277   6.219  1.5229 -0.6118 -1.2895
 7900SOL     OW35335   4.665   1.325   1.527 -0.0919  0.5337  0.8082
 7900SOL    HW135336   4.573   1.321   1.503  0.6632 -2.7153 -1.4705
 7900SOL    HW235337   4.687   1.391   1.461 -1.7724  0.4307  0.1601
 7901SOL     OW35338   4.328   0.298  11.858  0.1109  0.1348  0.7147
 7901SOL    HW135339   4.272   0.375  11.852 -0.2561 -0.1741  0.2346
 7901SOL    HW235340   4.294   0.263  11.941 -0.2269 -1.1642  0.0302
 7902SOL     OW35341   0.016   1.725   1.142  0.1902 -0.0375  0.0573
 7902SOL    HW135342   0.095   1.777   1.124  1.6707 -2.4670 -0.5400
 7902SOL    HW235343   4.705   1.751   1.065 -0.1802  0.5222  0.4903
 7903SOL     OW35344   4.643   1.964   3.276  0.0271  0.6553 -0.4679
 7903SOL    HW135345   4.620   1.873   3.292  1.5575  0.3563 -0.0559
 7903SOL    HW235346   4.649   1.948   3.182  1.9236  2.3152 -0.6139
 7904SOL     OW35347   2.609   1.229   5.007  0.6711 -0.0472 -0.8253
 7904SOL    HW135348   2.595   1.174   5.084  0.0472  0.3014 -0.6945
 7904SOL    HW235349   2.534   1.287   5.012 -0.0832 -1.3590  2.9614
 7905SOL     OW35350   4.257   2.703   5.328  0.1609 -0.6476 -0.6199
 7905SOL    HW135351   4.319   2.631   5.333  1.1466  0.3120  1.2607
 7905SOL    HW235352   4.312   2.778   5.302 -0.4020  0.4037  1.2206
 7906SOL     OW35353   3.715   0.643   1.183 -0.3399  0.0298  0.1585
 7906SOL    HW135354   3.621   0.625   1.188 -0.5556  1.1906  0.4281
 7906SOL    HW235355   3.704   0.716   1.121 -0.0399  0.0079  0.0797
 7907SOL     OW35356   3.074   4.353   7.711  0.2817  0.0209 -0.7841
 7907SOL    HW135357   3.053   4.303   7.631  3.1820 -1.3244 -0.7317
 7907SOL    HW235358   3.026   4.431   7.684 -1.1060 -0.9186 -1.0490
 7908SOL     OW35359   1.410   0.489   5.272  0.3667  0.1405 -0.0531
 7908SOL    HW135360   1.417   0.422   5.340 -1.8301 -0.0101  0.0264
 7908SOL    HW235361   1.399   0.569   5.325 -2.1871  0.6136 -1.3112
 7909SOL     OW35362   1.626   1.706   3.846  0.2306  0.6000  0.2059
 7909SOL    HW135363   1.657   1.618   3.865 -1.0656  0.3993  1.3940
 7909SOL    HW235364   1.594   1.694   3.757  0.8762 -1.5157  0.2494
 7910SOL     OW35365   1.568   3.989   3.975 -0.3741 -0.7414  0.1608
 7910SOL    HW135366   1.479   4.000   4.008 -1.0585  0.6409 -2.1757
 7910SOL    HW235367   1.635   3.995   4.044 -1.4327 -0.7116  1.1868
 7911SOL     OW35368   0.061   2.985  13.136 -0.0648 -0.4570  0.1621
 7911SOL    HW135369   4.722   3.011  13.185  0.6921 -0.7360  1.4917
 7911SOL    HW235370   0.132   3.023  13.187  0.0613  0.7227 -0.8935
 7912SOL     OW35371   2.433   1.374  13.733 -0.6538 -0.0838  0.0761
 7912SOL    HW135372   2.383   1.292  13.724 -0.1810 -0.3747  0.1314
 7912SOL    HW235373   2.431   1.419  13.648 -0.6869  0.7266  0.5094
 7913SOL     OW35374   0.100   2.453   5.971 -1.0856 -0.2733 -0.6334
 7913SOL    HW135375   0.184   2.407   5.969 -0.9948 -0.1787  1.0780
 7913SOL    HW235376   0.113   2.527   5.911  0.1039 -0.6137 -0.7883
 7914SOL     OW35377   0.189   3.064  16.636  0.2565 -0.0257  0.0900
 7914SOL    HW135378   0.283   3.077  16.633 -0.2751  3.2055 -1.8877
 7914SOL    HW235379   0.173   3.139  16.694  0.1543 -1.0829  1.4346
 7915SOL     OW35380   2.194   1.571   3.517 -0.5080 -0.2522  1.0554
 7915SOL    HW135381   2.270   1.516   3.537  0.4638  1.1313  1.1563
 7915SOL    HW235382   2.148   1.517   3.452 -1.6852  0.0158  1.6686
 7916SOL     OW35383   0.491   0.189   2.341  0.4945  0.0762 -0.1037
 7916SOL    HW135384   0.524   0.142   2.265 -1.7456 -2.7662  0.7112
 7916SOL    HW235385   0.430   0.250   2.299 -0.7563 -1.1641 -0.0778
 7917SOL     OW35386   2.360   1.912   4.986  0.8561 -0.0635  0.0896
 7917SOL    HW135387   2.410   1.974   5.040  1.7449 -0.6817 -0.0211
 7917SOL    HW235388   2.294   1.972   4.951  0.4488 -0.4574  0.1750
 7918SOL     OW35389   3.310   2.801   3.748 -0.5033  0.0107  0.5285
 7918SOL    HW135390   3.366   2.727   3.723  0.9730  0.9632  1.0372
 7918SOL    HW235391   3.340   2.874   3.694  0.9020  0.2778  1.6637
 7919SOL     OW35392   3.692   1.812   9.420 -0.2587  0.0660  0.2524
 7919SOL    HW135393   3.760   1.861   9.374  0.9757 -1.6495  0.2258
 7919SOL    HW235394   3.635   1.789   9.346 -0.2191  1.0310 -0.0701
 7920SOL     OW35395   2.428   2.914   9.162  0.3494  0.2061 -0.1796
 7920SOL    HW135396   2.510   2.865   9.171  1.3863  1.9636  0.0374
 7920SOL    HW235397   2.428   2.925   9.066 -2.0643 -1.0725 -0.3053
 7921SOL     OW35398   2.356   0.631   7.651 -0.1107  0.4416 -0.2209
 7921SOL    HW135399   2.371   0.676   7.568  1.8823 -3.7459 -2.1158
 7921SOL    HW235400   2.397   0.698   7.707  0.0507 -1.1970  1.6204
 7922SOL     OW35401   0.858   0.448   1.691 -0.3124  0.0755 -0.1312
 7922SOL    HW135402   0.909   0.398   1.627  0.2478  1.8572 -1.0570
 7922SOL    HW235403   0.865   0.538   1.660 -0.8060  0.9798  2.3457
 7923SOL     OW35404   3.674   3.606   7.012  0.1041  0.2171 -0.1613
 7923SOL    HW135405   3.761   3.566   7.019 -0.1884 -0.2261  0.9032
 7923SOL    HW235406   3.694   3.682   6.956  0.2427 -0.1901 -0.6603
 7924SOL     OW35407   3.650   2.863   4.359 -0.2400  0.1654 -0.0301
 7924SOL    HW135408   3.628   2.819   4.442 -3.2272  2.1957  0.2504
 7924SOL    HW235409   3.624   2.951   4.387  0.1299  0.9690 -2.2718
 7925SOL     OW35410   4.578   2.582  10.775 -0.9185  1.0050 -0.0959
 7925SOL    HW135411   4.612   2.534  10.850  1.9965  3.0352 -0.1190
 7925SOL    HW235412   4.517   2.644  10.814  0.2128  1.7354  0.4945
 7926SOL     OW35413   1.071   0.322   7.017 -0.3479 -0.0107  0.3785
 7926SOL    HW135414   1.061   0.352   6.927 -0.5718 -0.6381  0.1915
 7926SOL    HW235415   1.079   0.407   7.061 -1.2804  0.7083 -0.8605
 7927SOL     OW35416   3.620   0.588   6.047 -0.3137 -0.1437  0.2607
 7927SOL    HW135417   3.624   0.672   6.002  1.2568 -1.3507 -1.8512
 7927SOL    HW235418   3.675   0.535   5.990 -0.4870  0.8963 -0.8601
 7928SOL     OW35419   3.380   3.777  11.622 -0.4176 -0.1154 -0.3931
 7928SOL    HW135420   3.294   3.743  11.646 -0.0821 -0.9062 -0.3163
 7928SOL    HW235421   3.426   3.793  11.703  0.5554 -3.0268 -0.3654
 7929SOL     OW35422   2.213   0.798   3.953  0.3301  0.0641  1.1564
 7929SOL    HW135423   2.263   0.812   4.034  1.7312  0.6392  0.1769
 7929SOL    HW235424   2.143   0.745   3.993  0.0854  1.0386  2.0379
 7930SOL     OW35425   2.256   0.619   7.237 -0.1791 -0.2829  0.3614
 7930SOL    HW135426   2.327   0.583   7.290 -1.3184 -1.1609  1.2886
 7930SOL    HW235427   2.286   0.709   7.221  0.1510 -0.3987  0.3219
 7931SOL     OW35428   2.038   2.238  11.127  0.0387 -0.1752  0.1402
 7931SOL    HW135429   2.085   2.304  11.076  2.3961 -1.6058  0.4656
 7931SOL    HW235430   1.952   2.280  11.132 -0.1937 -0.6243 -0.0332
 7932SOL     OW35431   1.089   4.708   5.880  0.0991 -0.2328 -0.3832
 7932SOL    HW135432   1.061   0.059   5.898 -1.0856 -0.5588 -0.6194
 7932SOL    HW235433   1.184   4.724   5.886  0.0188  0.9868 -2.1698
 7933SOL     OW35434   2.318   1.313   6.453  0.2982 -0.4213 -0.1425
 7933SOL    HW135435   2.238   1.352   6.488 -1.2238 -2.4295 -1.4096
 7933SOL    HW235436   2.375   1.333   6.527  0.3346  1.1137 -0.5912
 7934SOL     OW35437   0.838   4.224   8.396 -0.5365 -0.0031 -0.4848
 7934SOL    HW135438   0.840   4.145   8.343 -0.0742  0.1244 -0.6536
 7934SOL    HW235439   0.881   4.205   8.479 -0.8968  0.0247 -0.2901
 7935SOL     OW35440   0.322   0.421   2.322  0.3637  0.3423 -0.4152
 7935SOL    HW135441   0.373   0.495   2.287  1.5915 -0.2610  0.1106
 7935SOL    HW235442   0.322   0.436   2.416  0.6835 -0.8872 -0.2162
 7936SOL     OW35443   1.419   0.404  10.081 -0.4226  0.1541  0.2729
 7936SOL    HW135444   1.506   0.390  10.119 -0.4062 -0.0212  0.1724
 7936SOL    HW235445   1.454   0.446  10.001 -0.4026  0.9167  0.6787
 7937SOL     OW35446   4.501   0.115  10.158 -0.5889 -0.7481 -0.0734
 7937SOL    HW135447   4.430   0.055  10.135  0.6294 -2.8470  1.6328
 7937SOL    HW235448   4.453   0.193  10.184 -0.1699 -0.0297 -1.4652
 7938SOL     OW35449   1.774   0.949  14.998 -0.0756 -0.0754 -0.2651
 7938SOL    HW135450   1.681   0.931  15.016 -0.1815  1.2699  0.5353
 7938SOL    HW235451   1.767   1.007  14.922 -3.6531  2.4624  2.0251
 7939SOL     OW35452   4.119   2.839   8.923  0.6395 -0.0832 -0.0162
 7939SOL    HW135453   4.191   2.895   8.893  0.5095 -0.0104 -0.1880
 7939SOL    HW235454   4.104   2.777   8.851  0.7726 -0.0050 -0.1117
 7940SOL     OW35455   0.575   1.817  17.464 -0.4030 -0.0201 -0.0544
 7940SOL    HW135456   0.661   1.849  17.490  0.9257 -3.7820  0.2312
 7940SOL    HW235457   0.521   1.895  17.476 -1.4055 -0.6884 -0.2415
 7941SOL     OW35458   2.713   1.722   9.646 -0.2642  0.3387  0.1553
 7941SOL    HW135459   2.675   1.712   9.733 -1.7798  0.5694 -0.4819
 7941SOL    HW235460   2.764   1.642   9.632  1.4053  1.1034  1.7796
 7942SOL     OW35461   3.669   4.277   6.094  0.4475  0.2334  0.2423
 7942SOL    HW135462   3.702   4.359   6.133  1.6294 -0.2785  0.3256
 7942SOL    HW235463   3.755   4.235   6.081  0.8955  1.7438 -1.7029
 7943SOL     OW35464   0.037   2.578  16.050  0.1325 -0.2051  0.4017
 7943SOL    HW135465   0.076   2.561  15.964 -0.0087  1.8279 -0.0764
 7943SOL    HW235466   4.688   2.544  16.036  0.1107 -0.7651  2.0007
 7944SOL     OW35467   0.282   4.613   2.595 -0.4042 -0.0979  0.3022
 7944SOL    HW135468   0.350   4.675   2.622 -2.0191  1.1690  1.4652
 7944SOL    HW235469   0.264   4.578   2.683 -2.2894  0.8418  0.2898
 7945SOL     OW35470   1.737   0.165   4.591  0.1240  0.3933  0.2575
 7945SOL    HW135471   1.780   0.149   4.674 -2.2163  1.0541  1.6015
 7945SOL    HW235472   1.674   0.093   4.587  1.3205 -0.7436  1.7443
 7946SOL     OW35473   4.529   1.708   8.365 -0.3983 -0.0540  0.0134
 7946SOL    HW135474   4.611   1.729   8.408  0.3390 -1.3912 -0.7437
 7946SOL    HW235475   4.558   1.653   8.292  0.6219  0.4118  0.0703
 7947SOL     OW35476   0.149   0.059   5.948  0.5072  0.0547 -0.3319
 7947SOL    HW135477   0.115   0.118   5.881  2.7002  1.1845 -0.4447
 7947SOL    HW235478   0.240   0.088   5.952 -0.5075  2.9052  2.7952
 7948SOL     OW35479   0.814   1.411   3.133 -0.3424  0.2920 -0.2781
 7948SOL    HW135480   0.834   1.437   3.043 -0.9159 -0.0018 -0.4940
 7948SOL    HW235481   0.718   1.410   3.128 -0.3252 -1.7925 -0.5258
 7949SOL     OW35482   4.337   1.442   5.846  0.5372 -0.0014  0.1729
 7949SOL    HW135483   4.265   1.395   5.803  0.1851 -1.3701  2.2611
 7949SOL    HW235484   4.311   1.462   5.935  2.0950 -0.6409  0.7681
 7950SOL     OW35485   2.031   0.584   2.353  0.9739  0.1865 -0.0085
 7950SOL    HW135486   2.099   0.531   2.311 -0.3730 -1.0155 -0.7003
 7950SOL    HW235487   1.970   0.590   2.279  1.2491  2.4789 -0.0430
 7951SOL     OW35488   4.386   0.988   2.430  0.0889 -0.7667  0.1912
 7951SOL    HW135489   4.381   1.024   2.342  1.0800  1.6317  1.1149
 7951SOL    HW235490   4.314   1.030   2.476  0.0105  0.2661 -0.8861
 7952SOL     OW35491   1.877   1.473  15.485  0.1274 -0.0869  0.3093
 7952SOL    HW135492   1.922   1.478  15.569  2.7224 -0.4872 -1.0662
 7952SOL    HW235493   1.928   1.399  15.449  0.3495  0.6355 -0.8707
 7953SOL     OW35494   4.289   0.828   7.356 -0.2079 -0.0213 -0.0475
 7953SOL    HW135495   4.347   0.783   7.418  0.6181 -1.6383 -1.9859
 7953SOL    HW235496   4.207   0.779   7.360  0.8322 -1.7946 -0.9050
 7954SOL     OW35497   0.258   1.132   7.537 -0.0467  0.1911  0.3068
 7954SOL    HW135498   0.207   1.196   7.488  1.3539  0.2918 -1.0224
 7954SOL    HW235499   0.312   1.187   7.594  0.6778  1.0290 -1.1814
 7955SOL     OW35500   4.709   4.643   9.720 -0.6502  0.5902 -0.1864
 7955SOL    HW135501   4.710   4.721   9.775 -1.1202 -1.2076  2.3725
 7955SOL    HW235502   0.003   4.680   9.638 -2.3152  1.5437 -0.4122
 7956SOL     OW35503   1.458   4.047   1.180  0.1762 -0.0737  0.0747
 7956SOL    HW135504   1.473   4.016   1.270  2.5487  0.8693  0.0074
 7956SOL    HW235505   1.429   3.961   1.148 -0.2539  0.2064 -0.2876
 7957SOL     OW35506   4.676   3.256   5.462 -0.5492  0.3495  0.0631
 7957SOL    HW135507   4.620   3.276   5.387 -2.1086  0.0478  1.1593
 7957SOL    HW235508   4.632   3.173   5.480  1.3100 -0.1003  2.4940
 7958SOL     OW35509   0.473   3.664  16.262  0.8921  0.2530  0.1188
 7958SOL    HW135510   0.390   3.632  16.299  1.6396 -0.0893  1.4918
 7958SOL    HW235511   0.433   3.721  16.196  1.0115 -1.2345 -1.2452
 7959SOL     OW35512   0.541   2.172   2.765 -0.3974 -0.2030 -0.5549
 7959SOL    HW135513   0.590   2.184   2.683  0.8777 -1.9755 -0.0341
 7959SOL    HW235514   0.527   2.080   2.746  0.0473 -0.3139 -0.3499
 7960SOL     OW35515   1.119   3.226   7.171 -0.5899 -0.4209 -0.6466
 7960SOL    HW135516   1.073   3.265   7.246 -0.0696  1.5210 -1.3305
 7960SOL    HW235517   1.210   3.216   7.201 -0.2962  1.0611 -1.0416
 7961SOL     OW35518   3.702   2.487  10.366 -0.2174 -0.5339 -0.0891
 7961SOL    HW135519   3.632   2.541  10.329 -0.5405  0.8081  2.4898
 7961SOL    HW235520   3.769   2.554  10.358 -0.9759 -0.1373 -3.1309
 7962SOL     OW35521   1.688   1.478   5.833 -0.3208 -0.4374 -0.1084
 7962SOL    HW135522   1.720   1.389   5.818  0.9377 -0.1093  0.6416
 7962SOL    HW235523   1.680   1.515   5.745  2.8753 -1.0581 -0.6352
 7963SOL     OW35524   4.434   3.972   2.726  0.7624  0.3528  0.4618
 7963SOL    HW135525   4.417   3.929   2.809 -0.0327 -1.5224 -0.6738
 7963SOL    HW235526   4.524   3.946   2.707  0.9907  1.5023 -0.0230
 7964SOL     OW35527   3.156   0.413   8.375  0.1589  0.8005 -0.1272
 7964SOL    HW135528   3.136   0.479   8.308 -0.1508  0.7292 -0.1071
 7964SOL    HW235529   3.218   0.353   8.334 -0.2120 -0.4511  1.1180
 7965SOL     OW35530   1.268   2.745  12.441  0.0195  0.1850  0.5042
 7965SOL    HW135531   1.269   2.649  12.434 -0.3852  0.3229 -1.6390
 7965SOL    HW235532   1.267   2.759  12.535 -1.3724 -0.3348  0.5747
 7966SOL     OW35533   0.850   4.575   6.254 -0.4823 -0.0257  0.3746
 7966SOL    HW135534   0.882   4.664   6.238 -0.7349 -0.4351 -2.4129
 7966SOL    HW235535   0.773   4.588   6.309 -0.3039  1.9993  0.1266
 7967SOL     OW35536   0.581   1.872  13.210  0.1357 -0.0676  0.1138
 7967SOL    HW135537   0.607   1.956  13.249  1.0450  0.1058 -0.8675
 7967SOL    HW235538   0.533   1.833  13.283  1.1140 -0.9197  0.2930
 7968SOL     OW35539   3.732   3.787   2.912 -0.3081  0.3370 -0.1360
 7968SOL    HW135540   3.720   3.698   2.877 -0.5281  0.1331  0.4657
 7968SOL    HW235541   3.758   3.843   2.839 -1.1524  1.6670  0.5689
 7969SOL     OW35542   1.379   3.287   2.826  0.4255 -0.2301 -0.0766
 7969SOL    HW135543   1.305   3.258   2.774  1.2007 -0.4979 -1.0257
 7969SOL    HW235544   1.362   3.380   2.840  1.9957 -0.2675  2.0771
 7970SOL     OW35545   1.299   1.900   7.725  0.3028  0.0264 -0.4983
 7970SOL    HW135546   1.234   1.969   7.737  0.0976 -0.3000  0.2866
 7970SOL    HW235547   1.253   1.828   7.681 -0.2543  0.1610 -0.1362
 7971SOL     OW35548   4.122   0.836   3.187  0.1832 -0.1586  0.0789
 7971SOL    HW135549   4.057   0.872   3.247 -0.4299  2.0292 -1.8924
 7971SOL    HW235550   4.062   0.767   3.159  0.0212 -0.0751  0.2252
 7972SOL     OW35551   0.827   1.022   9.551 -0.1885  0.0082  0.0184
 7972SOL    HW135552   0.803   1.003   9.461  0.8708 -1.5831  0.0570
 7972SOL    HW235553   0.797   0.935   9.581  1.4952 -1.0239 -1.3289
 7973SOL     OW35554   0.699   1.240   8.177 -0.3218  0.2114 -0.0005
 7973SOL    HW135555   0.785   1.206   8.203 -0.7330 -1.5510 -0.9694
 7973SOL    HW235556   0.658   1.162   8.141  0.3704 -0.3775  0.5049
 7974SOL     OW35557   0.647   1.586   7.138 -0.3983 -0.4500 -1.0225
 7974SOL    HW135558   0.602   1.630   7.066  0.9368  0.5096 -1.2756
 7974SOL    HW235559   0.607   1.499   7.133  0.8688 -1.0589 -0.7571
 7975SOL     OW35560   3.564   3.781   6.000  0.1168  0.0378 -0.2341
 7975SOL    HW135561   3.560   3.820   6.087  1.1186 -0.6927  0.1321
 7975SOL    HW235562   3.593   3.691   6.009 -0.8840  0.0445  2.9201
 7976SOL     OW35563   4.058   2.194  15.292 -0.0962  0.5164 -0.2577
 7976SOL    HW135564   4.073   2.196  15.386  1.3600 -4.2292 -0.3502
 7976SOL    HW235565   4.022   2.106  15.280  3.1563 -0.8324 -0.2302
 7977SOL     OW35566   2.436   4.529  10.278  0.1931 -0.4061  0.4863
 7977SOL    HW135567   2.391   4.610  10.305 -1.5956 -1.2243  0.0065
 7977SOL    HW235568   2.394   4.507  10.195 -0.5319 -0.4009  0.8466
 7978SOL     OW35569   4.380   0.070   5.327  0.7064 -0.0100 -0.1425
 7978SOL    HW135570   4.309   0.048   5.267  0.5168  1.5082 -0.4903
 7978SOL    HW235571   4.330   0.102   5.402  0.2241  1.6817 -1.1638
 7979SOL     OW35572   2.339   4.500   1.610  0.0287  0.4181  0.5161
 7979SOL    HW135573   2.263   4.497   1.551  0.0462  1.5218  0.4424
 7979SOL    HW235574   2.308   4.558   1.680 -0.9001  0.2363  0.2609
 7980SOL     OW35575   0.416   2.067  14.113  0.8041 -0.2689 -0.4328
 7980SOL    HW135576   0.448   1.978  14.099  0.3795 -0.0952 -2.4319
 7980SOL    HW235577   0.360   2.069  14.036  0.1096  0.4030  0.1006
 7981SOL     OW35578   1.407   4.675   0.093  0.4397  0.2140 -0.2575
 7981SOL    HW135579   1.472   4.691   0.162  1.2199  0.2238 -0.9899
 7981SOL    HW235580   1.365   4.595   0.124 -2.9202  1.6274 -1.2624
 7982SOL     OW35581   0.259   0.043   7.806  0.3790 -0.6767  0.9165
 7982SOL    HW135582   0.285   4.694   7.835 -0.4450 -0.6801  1.6771
 7982SOL    HW235583   0.167   0.018   7.795  0.2891 -1.1188  2.6197
 7983SOL     OW35584   2.851   0.624   5.637 -0.8024 -0.0654  0.0447
 7983SOL    HW135585   2.878   0.615   5.545 -2.3479  0.7056 -0.4701
 7983SOL    HW235586   2.779   0.562   5.627 -1.0936  0.5466 -1.7963
 7984SOL     OW35587   2.463   1.297   3.018  0.1667 -0.3787 -0.7338
 7984SOL    HW135588   2.488   1.212   3.054 -1.1894  0.2475  1.7428
 7984SOL    HW235589   2.425   1.272   2.934  0.6466  0.0222 -1.0628
 7985SOL     OW35590   1.623   4.582   7.685  0.0457 -0.0444 -0.5710
 7985SOL    HW135591   1.619   4.486   7.685  2.7083 -0.1638 -0.0839
 7985SOL    HW235592   1.530   4.603   7.686 -0.3715 -1.8979  1.2288
 7986SOL     OW35593   0.184   0.231   2.653 -0.2470 -0.1353 -0.8351
 7986SOL    HW135594   0.263   0.278   2.626  0.3934 -1.2495 -0.9024
 7986SOL    HW235595   0.110   0.279   2.616 -1.0528 -0.9139 -0.2353
 7987SOL     OW35596   0.250   3.276   6.789 -0.5382 -0.0957  0.3828
 7987SOL    HW135597   0.300   3.321   6.857  0.9745 -0.6429 -0.3706
 7987SOL    HW235598   0.319   3.227   6.744 -2.1258 -1.8678 -0.1079
 7988SOL     OW35599   2.521   4.666  16.910 -0.3085  0.4491 -0.4636
 7988SOL    HW135600   2.556   4.726  16.976 -0.1304  0.3262 -0.4461
 7988SOL    HW235601   2.566   4.701  16.834  3.1705 -2.4492  0.2473
 7989SOL     OW35602   4.684   0.069   1.062  0.4147  0.2417  0.4370
 7989SOL    HW135603   4.610   0.057   1.003 -0.9643 -0.9223  2.4137
 7989SOL    HW235604   4.717   0.158   1.048 -0.9753  0.8342  0.9270
 7990SOL     OW35605   2.378   1.562   2.043  0.2774  0.4869 -0.0337
 7990SOL    HW135606   2.421   1.583   1.960  1.2706 -1.9671 -0.1477
 7990SOL    HW235607   2.446   1.587   2.105 -0.9809  1.1427  1.0641
 7991SOL     OW35608   1.159   0.556  16.183  0.1673 -0.1546 -0.0004
 7991SOL    HW135609   1.132   0.630  16.238 -1.9136 -1.6414  1.0092
 7991SOL    HW235610   1.221   0.607  16.130  0.7878 -2.2085 -1.2502
 7992SOL     OW35611   0.484   1.582  13.927  0.8396 -0.2708 -0.0568
 7992SOL    HW135612   0.487   1.529  14.007 -2.3097 -1.8193 -0.9659
 7992SOL    HW235613   0.556   1.551  13.871 -0.5633 -1.8693 -0.9866
 7993SOL     OW35614   4.696   2.803   1.323 -0.7184 -0.1042  0.6372
 7993SOL    HW135615   0.048   2.815   1.350  0.1032 -2.4632 -1.0537
 7993SOL    HW235616   4.711   2.785   1.230 -1.4262  2.3468  0.0379
 7994SOL     OW35617   4.088   2.051  12.147  0.2048  0.4115 -0.3262
 7994SOL    HW135618   4.063   2.030  12.237 -0.2627 -1.0027 -0.7940
 7994SOL    HW235619   4.066   1.968  12.104  0.6953  0.4307 -0.6137
 7995SOL     OW35620   3.359   2.541   8.395  0.1320 -0.4738 -0.1486
 7995SOL    HW135621   3.451   2.557   8.375 -0.4751  0.6776 -2.0381
 7995SOL    HW235622   3.381   2.513   8.484  0.9527  1.9928  0.4124
 7996SOL     OW35623   2.138   1.124   1.949  0.5760  0.3077 -0.5633
 7996SOL    HW135624   2.152   1.030   1.959  0.0993  0.1004 -1.8979
 7996SOL    HW235625   2.043   1.130   1.946  0.5622  1.3006  1.6063
 7997SOL     OW35626   3.244   4.143   0.634  0.0643  0.8391 -0.0785
 7997SOL    HW135627   3.239   4.182   0.547  1.2823  1.1331 -0.0183
 7997SOL    HW235628   3.325   4.187   0.661  0.5923  0.9333 -1.8096
 7998SOL     OW35629   3.031   0.261  10.581 -0.6009  0.2032 -0.2609
 7998SOL    HW135630   2.952   0.315  10.583 -0.8841 -0.2704  1.5428
 7998SOL    HW235631   3.082   0.308  10.515 -0.5973  1.3453  0.5630
 7999SOL     OW35632   2.512   4.112   4.853 -0.5765  0.3216  0.0049
 7999SOL    HW135633   2.554   4.052   4.915 -1.4188  0.8498  1.0919
 7999SOL    HW235634   2.588   4.116   4.795 -1.5573 -1.4281 -1.3736
 8000SOL     OW35635   1.500   4.645  13.263 -0.1276  0.0462  0.7916
 8000SOL    HW135636   1.572   4.706  13.245 -1.1025  0.5398 -1.4793
 8000SOL    HW235637   1.433   4.676  13.202  1.3212 -2.1431 -1.9632
 8001SOL     OW35638   4.113   3.229   6.126  0.7017 -0.1145  0.7572
 8001SOL    HW135639   4.051   3.260   6.191 -1.0517  0.7618 -1.3233
 8001SOL    HW235640   4.122   3.136   6.148 -1.6307 -0.4768  0.1786
 8002SOL     OW35641   4.489   3.296   2.810  0.1690  0.0663  0.0563
 8002SOL    HW135642   4.532   3.258   2.733 -0.1077  1.5198 -0.8195
 8002SOL    HW235643   4.421   3.231   2.824  0.3077 -0.6782 -2.8817
 8003SOL     OW35644   3.586   0.038  13.619 -0.1083 -0.5854 -0.0816
 8003SOL    HW135645   3.668   0.076  13.651  0.1892 -0.2533 -1.2445
 8003SOL    HW235646   3.546   0.117  13.585  1.1538 -1.3530 -3.3651
 8004SOL     OW35647   3.392   0.373  15.328 -0.4070 -0.8150 -0.2154
 8004SOL    HW135648   3.406   0.431  15.403  1.7979 -0.7556 -0.6864
 8004SOL    HW235649   3.474   0.325  15.327 -0.8153 -1.4498 -3.1348
 8005SOL     OW35650   0.678   3.043   8.464  0.2306  0.3577  0.0518
 8005SOL    HW135651   0.654   2.963   8.510  0.0462 -0.1145 -0.8704
 8005SOL    HW235652   0.774   3.041   8.461  0.2576  0.6196  0.7815
 8006SOL     OW35653   3.890   3.444   8.915  0.2853  0.5262  0.3305
 8006SOL    HW135654   3.815   3.458   8.973 -1.3394 -2.6723 -0.9759
 8006SOL    HW235655   3.831   3.447   8.839  1.6605 -0.0727 -0.7598
 8007SOL     OW35656   0.372   3.848   3.868 -0.7217 -0.2917 -0.5093
 8007SOL    HW135657   0.387   3.816   3.779  1.5529 -0.3026 -0.1195
 8007SOL    HW235658   0.276   3.844   3.874 -0.6815  0.1763  0.4426
 8008SOL     OW35659   4.193   0.597  17.534  0.0568  0.0277 -0.1937
 8008SOL    HW135660   4.205   0.634  17.622  0.1773  0.1311 -0.2548
 8008SOL    HW235661   4.271   0.543  17.526  0.3291  0.3818  0.0235
 8009SOL     OW35662   2.980   1.770   3.547  0.3226  0.4123 -0.6376
 8009SOL    HW135663   2.886   1.774   3.531  0.3639 -1.2756 -1.3464
 8009SOL    HW235664   2.981   1.764   3.643  1.0155 -0.9561 -0.7310
 8010SOL     OW35665   0.475   4.067   3.375 -0.4082  0.2094  0.0504
 8010SOL    HW135666   0.434   4.028   3.297  1.0327 -0.6192 -0.2804
 8010SOL    HW235667   0.406   4.066   3.442 -0.1137  1.1261  0.3665
 8011SOL     OW35668   4.696   2.968   7.223  0.2329  0.4506  0.0316
 8011SOL    HW135669   4.693   2.921   7.307  2.4657 -0.3129 -0.3267
 8011SOL    HW235670   4.672   2.891   7.171  1.9889 -1.8568  2.6037
 8012SOL     OW35671   0.373   3.028   4.041  0.2239 -0.0232 -0.2365
 8012SOL    HW135672   0.431   3.101   4.019  3.1036 -1.8282  1.3970
 8012SOL    HW235673   0.289   3.074   4.042  0.4813  0.4232  1.3656
 8013SOL     OW35674   3.763   1.527   4.528  0.2268 -0.0934  0.0312
 8013SOL    HW135675   3.724   1.529   4.441 -1.0380 -2.7549  0.5240
 8013SOL    HW235676   3.684   1.536   4.582 -1.6594 -2.8810 -2.2938
 8014SOL     OW35677   3.131   0.477   6.065  0.5364 -0.0122 -0.0840
 8014SOL    HW135678   3.074   0.544   6.102  2.8135  0.0003  3.4641
 8014SOL    HW235679   3.217   0.512   6.089 -0.2689  1.1781  1.1050
 8015SOL     OW35680   1.778   2.230   5.181 -0.1651 -0.1253  0.0297
 8015SOL    HW135681   1.752   2.147   5.142  0.1155 -0.2866  0.1827
 8015SOL    HW235682   1.869   2.217   5.155 -0.8597  1.4599 -3.2485
 8016SOL     OW35683   1.542   0.024  10.883  0.4561  0.0705 -0.0984
 8016SOL    HW135684   1.556   0.005  10.975  1.1117  0.1086 -0.1901
 8016SOL    HW235685   1.555   4.681  10.835  0.6489 -0.3659  0.7120
 8017SOL     OW35686   0.935   0.819   8.311 -0.0319  0.9111 -0.6524
 8017SOL    HW135687   0.960   0.842   8.400  0.5912  1.8773 -1.0773
 8017SOL    HW235688   1.019   0.835   8.267 -1.7496  1.6975 -3.6640
 8018SOL     OW35689   0.616   0.483   3.535  0.7116  0.3585  0.2108
 8018SOL    HW135690   0.575   0.555   3.583  2.4856  1.0712  0.6341
 8018SOL    HW235691   0.570   0.493   3.451 -0.2666 -0.6141  0.6248
 8019SOL     OW35692   3.852   4.229   5.406  0.0243  0.3472 -0.4096
 8019SOL    HW135693   3.886   4.233   5.317  1.7484  3.3591  0.4039
 8019SOL    HW235694   3.827   4.320   5.419 -1.8975 -0.1624 -0.6038
 8020SOL     OW35695   1.954   4.381   7.150 -0.1753 -0.0840  0.0848
 8020SOL    HW135696   1.864   4.388   7.117 -0.0478  1.4359  0.0500
 8020SOL    HW235697   1.936   4.409   7.239  1.8053  0.0596  0.4270
 8021SOL     OW35698   3.401   3.742   8.290 -0.2116  0.3653  0.3689
 8021SOL    HW135699   3.414   3.809   8.224  2.0136  0.8079  1.2475
 8021SOL    HW235700   3.310   3.755   8.317 -0.1898 -0.1070  0.6871
 8022SOL     OW35701   2.015   2.377   4.605 -0.6982  0.1803 -0.2499
 8022SOL    HW135702   2.024   2.315   4.533  0.0655 -1.4081  1.2010
 8022SOL    HW235703   2.034   2.462   4.565 -2.1013  0.2040 -0.8294
 8023SOL     OW35704   3.930   0.095   6.203 -0.9086 -0.9297  0.9483
 8023SOL    HW135705   3.861   0.056   6.257  0.0070 -2.0510  1.3158
 8023SOL    HW235706   3.965   0.156   6.269 -1.4551  0.5387 -0.1254
 8024SOL     OW35707   0.159   3.915  10.209 -0.4201  0.4260 -0.3653
 8024SOL    HW135708   0.199   3.902  10.123 -4.1037  0.8515 -2.1154
 8024SOL    HW235709   0.236   3.907  10.265 -2.1062  1.9437  2.1694
 8025SOL     OW35710   3.285   4.576   6.654  0.0761  0.2431  0.5587
 8025SOL    HW135711   3.360   4.584   6.714  0.9849 -0.6170 -0.4469
 8025SOL    HW235712   3.211   4.559   6.712 -0.4068 -0.7645 -0.3534
 8026SOL     OW35713   2.861   3.901  13.878 -0.0475  0.1889  0.3054
 8026SOL    HW135714   2.785   3.949  13.845  0.5435  0.0591 -1.2412
 8026SOL    HW235715   2.835   3.885  13.968 -1.2793  0.3238 -0.0250
 8027SOL     OW35716   1.063   0.217   2.433  0.5056  0.4615  0.0597
 8027SOL    HW135717   0.984   0.204   2.485 -0.7816  2.2176 -1.4941
 8027SOL    HW235718   1.075   0.136   2.384 -1.1623  0.0551  0.3306
 8028SOL     OW35719   2.417   1.255   9.600 -0.3051  0.4159  0.1983
 8028SOL    HW135720   2.329   1.246   9.563  0.2614 -0.9211 -0.8321
 8028SOL    HW235721   2.399   1.303   9.681  0.7650 -0.3454  0.8890
 8029SOL     OW35722   0.887   2.114   1.000  0.2504  0.2169  0.6174
 8029SOL    HW135723   0.917   2.088   1.087  1.8118  0.8815  0.2628
 8029SOL    HW235724   0.900   2.208   1.002  0.5531  0.2173 -1.6498
 8030SOL     OW35725   3.715   1.863   7.995  0.1247  0.9452  0.4381
 8030SOL    HW135726   3.674   1.867   8.082 -0.4252  1.0354  0.1766
 8030SOL    HW235727   3.784   1.928   7.992 -1.5403  2.6664 -0.6861
 8031SOL     OW35728   0.587   0.936  11.262  0.0266 -0.1693  0.2933
 8031SOL    HW135729   0.543   0.895  11.188 -1.9577 -2.0025  2.4959
 8031SOL    HW235730   0.650   0.866  11.277  1.0404  0.7513  0.3204
 8032SOL     OW35731   0.572   0.092   2.063  0.1480  0.5345 -0.1375
 8032SOL    HW135732   0.651   0.040   2.070  0.6534  1.0420 -2.1354
 8032SOL    HW235733   0.551   0.070   1.973 -0.2312  2.9171 -0.6348
 8033SOL     OW35734   0.362   3.095   5.254 -0.3383 -0.2857 -0.1202
 8033SOL    HW135735   0.317   3.112   5.172  2.1407  1.3046 -1.1605
 8033SOL    HW235736   0.295   3.092   5.322 -2.1220  0.1751 -1.8748
 8034SOL     OW35737   0.573   4.137   1.439 -0.3067  0.5852  0.0385
 8034SOL    HW135738   0.515   4.118   1.365 -0.7494  1.5481  0.1377
 8034SOL    HW235739   0.528   4.218   1.464 -1.0901 -0.5997  2.4126
 8035SOL     OW35740   2.477   3.162   4.090 -0.1321  0.2558 -0.1412
 8035SOL    HW135741   2.483   3.257   4.103 -0.6421  0.2146  0.3888
 8035SOL    HW235742   2.395   3.146   4.136  0.2767  0.6481  0.7027
 8036SOL     OW35743   1.538   0.328   0.978  0.2505  0.0933 -0.2022
 8036SOL    HW135744   1.630   0.348   0.960  0.1405  1.2280  0.5097
 8036SOL    HW235745   1.518   0.390   1.049  0.2515  0.2635 -0.3504
 8037SOL     OW35746   0.359   3.557  12.329 -0.0226 -0.5209 -0.2249
 8037SOL    HW135747   0.296   3.506  12.279  1.3024  0.0778 -2.4874
 8037SOL    HW235748   0.443   3.553  12.284  0.7809 -0.0334  1.2187
 8038SOL     OW35749   0.318   1.847   4.479  0.3091  0.5496 -0.3341
 8038SOL    HW135750   0.271   1.931   4.479  0.6886  0.7705 -3.4865
 8038SOL    HW235751   0.310   1.814   4.568 -1.7564  0.1904 -0.6651
 8039SOL     OW35752   1.366   0.013   3.854  0.0090  0.7828 -0.0624
 8039SOL    HW135753   1.303   0.049   3.791 -1.4284 -3.5243 -1.0511
 8039SOL    HW235754   1.343   0.070   3.928  0.4493 -0.0979  0.7554
 8040SOL     OW35755   1.274   1.891   6.756 -0.0094  0.5680 -0.5619
 8040SOL    HW135756   1.207   1.893   6.687 -1.8002  0.5193  1.1664
 8040SOL    HW235757   1.298   1.983   6.748  1.2546  0.1354 -1.7655
 8041SOL     OW35758   0.658   1.137   3.217  0.0930  0.1975  0.5047
 8041SOL    HW135759   0.648   1.044   3.195  2.1238  0.4382 -1.4490
 8041SOL    HW235760   0.663   1.146   3.313  1.3549  2.1700  0.2551
 8042SOL     OW35761   2.369   3.731   8.404 -0.3281  0.4717  0.2654
 8042SOL    HW135762   2.358   3.826   8.410  1.1819  0.7571 -1.3943
 8042SOL    HW235763   2.422   3.715   8.482  1.7267 -3.5257 -1.9579
 8043SOL     OW35764   2.128   1.295   9.460  0.0422 -0.6456 -0.1977
 8043SOL    HW135765   2.066   1.352   9.504 -0.9106 -1.4562 -0.4874
 8043SOL    HW235766   2.184   1.356   9.411  1.0948 -0.4796  1.2173
 8044SOL     OW35767   2.869   1.970  14.916  0.0921 -0.3212 -0.4586
 8044SOL    HW135768   2.816   1.910  14.864  0.3524 -0.6733 -0.3206
 8044SOL    HW235769   2.946   1.992  14.863  0.2527 -0.9601 -0.4982
 8045SOL     OW35770   0.750   0.221  13.105  0.0357 -0.0131 -0.1648
 8045SOL    HW135771   0.659   0.224  13.075  0.1046 -1.4591 -0.5065
 8045SOL    HW235772   0.739   0.270  13.187 -1.3679 -1.7581  0.6855
 8046SOL     OW35773   1.869   0.163   1.600 -0.1656  0.0005 -0.5143
 8046SOL    HW135774   1.852   0.157   1.694 -1.2016 -1.0024 -0.7765
 8046SOL    HW235775   1.912   0.249   1.593  0.2824 -0.1552  0.3267
 8047SOL     OW35776   1.829   3.517   5.016 -0.0047  0.4459 -0.5835
 8047SOL    HW135777   1.913   3.500   4.973  0.1461  0.5307 -0.3194
 8047SOL    HW235778   1.794   3.429   5.003  1.0836  0.1673 -1.6466
 8048SOL     OW35779   3.821   3.239   4.126 -0.1301 -0.3372  0.0485
 8048SOL    HW135780   3.828   3.326   4.086 -1.3770  0.3741  1.3457
 8048SOL    HW235781   3.871   3.249   4.207  0.1036  1.0449 -0.2645
 8049SOL     OW35782   1.587   3.514   0.371 -0.4763  0.1405  0.0733
 8049SOL    HW135783   1.607   3.602   0.402 -2.3312  0.1068  1.3518
 8049SOL    HW235784   1.507   3.539   0.325  0.1065  1.1876 -0.3690
 8050SOL     OW35785   3.658   2.094  15.313 -0.1149  0.3238 -0.4751
 8050SOL    HW135786   3.643   2.174  15.363 -1.1879 -2.5342  3.7548
 8050SOL    HW235787   3.614   2.107  15.229 -1.1447  1.2626  0.2104
 8051SOL     OW35788   1.475   3.880   8.106 -0.2461 -0.1517  0.9119
 8051SOL    HW135789   1.540   3.951   8.109 -0.7143  0.3475 -0.7640
 8051SOL    HW235790   1.506   3.827   8.033  1.7263  2.2655  0.0196
 8052SOL     OW35791   4.313   4.411   2.291  0.1548  0.4152 -0.0215
 8052SOL    HW135792   4.382   4.346   2.281 -0.2686  0.2138 -1.5942
 8052SOL    HW235793   4.348   4.476   2.230 -0.2475  1.6427  1.0305
 8053SOL     OW35794   3.887   2.227   5.154  0.1752  0.6876 -0.1387
 8053SOL    HW135795   3.901   2.320   5.173 -1.8001  1.0862 -0.6748
 8053SOL    HW235796   3.859   2.241   5.064 -1.5011  1.4717  0.5185
 8054SOL     OW35797   4.563   3.829  14.011  0.4310 -0.2615  0.5565
 8054SOL    HW135798   4.576   3.899  14.074 -1.0048 -0.3804  0.9843
 8054SOL    HW235799   4.605   3.860  13.931 -0.2699 -0.0046  0.2915
 8055SOL     OW35800   1.336   4.353  10.193 -0.3589  0.0997 -0.3855
 8055SOL    HW135801   1.430   4.336  10.202 -0.1241  0.7648 -1.5561
 8055SOL    HW235802   1.331   4.443  10.225 -4.0176 -0.5607  0.8803
 8056SOL     OW35803   3.104   4.689   6.342  0.1323 -0.3109 -0.1820
 8056SOL    HW135804   3.063   4.648   6.419  0.2631  1.8091  1.0124
 8056SOL    HW235805   3.077   4.638   6.266  0.9165  0.0054 -0.6676
 8057SOL     OW35806   0.149   3.000   0.992  0.1162  0.1241  0.7439
 8057SOL    HW135807   0.145   3.029   1.083  0.7205  0.0585  0.7912
 8057SOL    HW235808   0.241   2.978   0.978 -0.3881 -0.7251 -1.1709
 8058SOL     OW35809   3.836   0.191   5.936 -0.4176  0.5845  0.2762
 8058SOL    HW135810   3.775   0.142   5.881  2.4073 -2.5665 -0.0248
 8058SOL    HW235811   3.833   0.145   6.020 -0.6325 -1.0603 -0.6262
 8059SOL     OW35812   0.003   3.174   6.822  0.2835  0.3174 -0.2570
 8059SOL    HW135813   0.083   3.213   6.788  0.1561  1.1475  0.3888
 8059SOL    HW235814   0.029   3.082   6.832  0.9395  0.4764 -0.5319
 8060SOL     OW35815   1.001   2.433   4.603 -0.3246  0.0006  0.4127
 8060SOL    HW135816   1.040   2.383   4.674 -0.6154 -3.2938 -1.7684
 8060SOL    HW235817   0.952   2.372   4.548 -0.5921  2.2799 -1.9091
 8061SOL     OW35818   2.162   2.431   7.274 -0.2374 -0.1473 -0.1496
 8061SOL    HW135819   2.210   2.352   7.248  0.1242 -0.5108  1.6431
 8061SOL    HW235820   2.224   2.475   7.331 -0.8892  0.0896  0.3767
 8062SOL     OW35821   2.830   1.537   4.354 -0.1019  0.1330  0.0480
 8062SOL    HW135822   2.869   1.452   4.333  0.4611  0.7796 -1.5169
 8062SOL    HW235823   2.747   1.536   4.307 -1.2040 -1.3201  2.0374
 8063SOL     OW35824   3.897   2.335  12.295 -0.3342 -0.2198 -0.1574
 8063SOL    HW135825   3.881   2.245  12.323 -2.7148  0.8245  1.8727
 8063SOL    HW235826   3.871   2.392  12.367  0.9030  0.4787 -0.2664
 8064SOL     OW35827   0.729   2.296   3.416  0.2010  0.1321  0.0464
 8064SOL    HW135828   0.741   2.373   3.361 -1.3159 -1.4505 -2.5041
 8064SOL    HW235829   0.818   2.267   3.434  0.4296  0.0702 -1.1566
 8065SOL     OW35830   1.962   1.177   6.508 -0.3315 -0.0984  0.7277
 8065SOL    HW135831   2.030   1.138   6.563 -0.0446  0.7909  1.0139
 8065SOL    HW235832   2.014   1.252   6.478  0.0353 -0.8596 -0.5494
 8066SOL     OW35833   0.933   1.962  12.516  0.1988  0.2197 -0.6497
 8066SOL    HW135834   0.954   1.930  12.428  2.2251  0.3310 -0.1952
 8066SOL    HW235835   1.000   2.029  12.531 -1.0133  1.2248  0.3414
 8067SOL     OW35836   1.643   1.843   8.323 -0.1663 -0.0899  0.1192
 8067SOL    HW135837   1.689   1.865   8.404 -0.6350 -2.1776  0.9678
 8067SOL    HW235838   1.717   1.834   8.263 -1.0956 -1.6123 -0.8147
 8068SOL     OW35839   4.161   1.179   6.914  0.3598  0.4303  0.2053
 8068SOL    HW135840   4.111   1.133   6.847 -0.1379  2.3134 -0.7179
 8068SOL    HW235841   4.194   1.110   6.972 -1.0482  0.9844  1.6477
 8069SOL     OW35842   1.267   3.032   2.495  0.4526  0.3884  0.1086
 8069SOL    HW135843   1.250   3.116   2.538 -1.8336  0.3949 -0.8229
 8069SOL    HW235844   1.332   3.075   2.440 -0.8769 -0.4182 -2.1010
 8070SOL     OW35845   2.065   0.315   7.827  0.5284  0.3231 -0.4344
 8070SOL    HW135846   2.023   0.311   7.913  0.5296  0.4388 -0.4285
 8070SOL    HW235847   2.148   0.340   7.869  1.2930 -1.5728 -0.8308
 8071SOL     OW35848   3.557   0.400   4.064  0.5061 -0.0118  0.1985
 8071SOL    HW135849   3.564   0.469   4.130  1.4980 -0.5143  0.6161
 8071SOL    HW235850   3.487   0.442   4.014  2.2528  2.0203 -0.5134
 8072SOL     OW35851   3.122   3.047   5.956 -0.1760 -0.0918 -0.2968
 8072SOL    HW135852   3.069   3.126   5.954  0.6152  0.5033  1.8505
 8072SOL    HW235853   3.115   3.023   5.864  1.0607 -1.4286 -0.0458
 8073SOL     OW35854   0.310   3.499   8.668 -0.5392  0.8302 -0.4384
 8073SOL    HW135855   0.356   3.579   8.645  1.6061 -0.6189 -1.1347
 8073SOL    HW235856   0.372   3.433   8.638 -0.1644  2.0006 -2.2716
 8074SOL     OW35857   2.293   4.142   8.112  0.7379 -0.0483  0.5450
 8074SOL    HW135858   2.330   4.054   8.118 -0.7896 -0.6563  0.9826
 8074SOL    HW235859   2.204   4.109   8.116  0.8065  0.2261  4.4108
 8075SOL     OW35860   2.042   1.017   9.401 -0.0995  0.1194  0.5053
 8075SOL    HW135861   2.128   0.977   9.415  0.2734  1.0705  0.9325
 8075SOL    HW235862   2.051   1.103   9.441  1.2002  1.0220 -1.7057
 8076SOL     OW35863   3.748   3.747   7.358 -0.4173  0.5812  0.5325
 8076SOL    HW135864   3.827   3.725   7.408  0.3368  1.5916 -0.2102
 8076SOL    HW235865   3.723   3.661   7.327 -0.8362 -0.3130  3.3192
 8077SOL     OW35866   1.974   1.438   8.104  0.2018 -0.5825  0.4085
 8077SOL    HW135867   1.985   1.438   8.199  3.2783  0.3203  0.0682
 8077SOL    HW235868   1.964   1.344   8.094  0.4979 -0.8102  2.2245
 8078SOL     OW35869   1.779   4.059   7.565 -0.2518  0.1581 -0.0910
 8078SOL    HW135870   1.856   4.115   7.551 -1.6381  2.4212  1.2325
 8078SOL    HW235871   1.773   4.055   7.660  0.2150  1.5364 -0.0033
 8079SOL     OW35872   0.130   1.479   8.099 -0.0803 -0.0750 -0.1307
 8079SOL    HW135873   0.038   1.459   8.116 -0.4280  1.5784 -0.0828
 8079SOL    HW235874   0.164   1.389   8.094  1.4378  0.6159 -2.3000
 8080SOL     OW35875   3.388   1.950  11.581 -0.0949  0.2979 -0.3972
 8080SOL    HW135876   3.294   1.967  11.591 -0.7408 -3.8429  0.5924
 8080SOL    HW235877   3.412   1.970  11.491  0.0729 -1.1128 -0.6618
 8081SOL     OW35878   2.791   4.698   3.187 -0.2750 -0.2502  0.6578
 8081SOL    HW135879   2.775   4.700   3.093 -1.7325  1.6028  0.9351
 8081SOL    HW235880   2.886   4.686   3.191 -0.5642 -2.4642  0.9454
 8082SOL     OW35881   3.325   3.472   2.500  0.6609  1.0476  0.3483
 8082SOL    HW135882   3.365   3.513   2.423  0.3346  0.4259 -0.1517
 8082SOL    HW235883   3.253   3.425   2.458  1.4306  0.5827 -0.4462
 8083SOL     OW35884   2.993   1.353   7.569 -0.7061 -0.3666 -0.2529
 8083SOL    HW135885   3.011   1.306   7.650 -2.5713 -0.2012  0.2578
 8083SOL    HW235886   3.066   1.415   7.562 -0.7807  0.0026  2.3765
 8084SOL     OW35887   1.596   2.396   8.494  0.9232  0.1166 -0.2688
 8084SOL    HW135888   1.568   2.425   8.581  1.3879 -1.7030  0.4794
 8084SOL    HW235889   1.586   2.301   8.492 -1.1416  0.3242 -0.0790
 8085SOL     OW35890   1.733   3.328   1.781  0.0132 -0.3504 -0.5500
 8085SOL    HW135891   1.754   3.236   1.798 -0.5357 -0.4414 -0.3364
 8085SOL    HW235892   1.795   3.344   1.710 -0.1459  0.8404 -0.4135
 8086SOL     OW35893   2.379   2.912   2.302  0.5204 -0.2450 -0.0390
 8086SOL    HW135894   2.390   2.967   2.379 -1.9587  2.5005 -1.6436
 8086SOL    HW235895   2.292   2.944   2.280 -0.1678 -0.9554  1.7244
 8087SOL     OW35896   3.729   0.043   1.587 -0.1293 -0.4972  0.1115
 8087SOL    HW135897   3.672   0.058   1.511 -1.8470  0.0971  1.4994
 8087SOL    HW235898   3.797   4.724   1.553  0.5461  0.0029  0.6193
 8088SOL     OW35899   2.936   4.580   0.269 -0.1406  0.0312  0.4059
 8088SOL    HW135900   2.952   4.501   0.322 -1.9216 -2.7293 -3.1318
 8088SOL    HW235901   2.842   4.575   0.254 -0.2567 -0.4929  1.2942
 8089SOL     OW35902   3.946   0.587  17.400  0.2597  0.2249  0.3876
 8089SOL    HW135903   4.040   0.570  17.408  0.5189  1.7764  0.5448
 8089SOL    HW235904   3.909   0.550  17.480 -2.5977  0.0860 -0.9880
 8090SOL     OW35905   3.254   4.464  12.649 -0.3103  0.2546  0.5514
 8090SOL    HW135906   3.176   4.482  12.598 -0.2087 -1.4272 -0.2122
 8090SOL    HW235907   3.239   4.456  12.744 -0.0336 -0.8536  0.5057
 8091SOL     OW35908   4.169   1.415   7.049  0.2017  0.1936 -0.1369
 8091SOL    HW135909   4.148   1.474   6.977 -0.6611  0.2300  0.1404
 8091SOL    HW235910   4.135   1.337   7.005  4.0759 -2.5417  1.7077
 8092SOL     OW35911   0.374   3.333   6.302  0.3278  0.0201 -0.1195
 8092SOL    HW135912   0.341   3.360   6.387 -1.5026  1.1059 -1.1732
 8092SOL    HW235913   0.387   3.418   6.261  0.7961  0.8601  1.7687
 8093SOL     OW35914   2.982   3.915   2.238 -0.0277 -0.1807 -0.3778
 8093SOL    HW135915   3.058   3.964   2.208 -0.5387  0.2504 -0.9840
 8093SOL    HW235916   2.979   3.833   2.189  0.5949 -0.2250 -0.3404
 8094SOL     OW35917   1.593   1.317  13.366 -0.5327 -0.1165  0.1505
 8094SOL    HW135918   1.626   1.337  13.453  0.1604 -1.4309  0.1957
 8094SOL    HW235919   1.564   1.226  13.375 -0.8185 -0.1211 -0.8265
 8095SOL     OW35920   0.659   3.248   7.994 -0.0815 -0.2974 -0.1807
 8095SOL    HW135921   0.685   3.250   8.086  0.2635  1.4034 -0.3301
 8095SOL    HW235922   0.695   3.161   7.976  0.3833  0.3167 -2.2654
 8096SOL     OW35923   0.878   1.829   5.499  0.0020  0.3084  0.0564
 8096SOL    HW135924   0.967   1.846   5.467  0.7081  0.1029  1.9217
 8096SOL    HW235925   0.828   1.825   5.417 -0.3000  0.3815  0.2347
 8097SOL     OW35926   2.634   4.580   2.263 -0.1100 -0.9558  0.1677
 8097SOL    HW135927   2.607   4.552   2.175  1.6710  0.6889 -0.8899
 8097SOL    HW235928   2.611   4.499   2.309 -1.0912 -0.2090  1.0112
 8098SOL     OW35929   2.674   1.924   2.424  0.0960  0.2121 -0.2460
 8098SOL    HW135930   2.603   1.912   2.488 -0.5990 -3.2690 -1.6629
 8098SOL    HW235931   2.694   1.830   2.422 -2.7280 -0.3646 -0.7221
 8099SOL     OW35932   4.579   2.076  14.256  0.4317  0.1283  0.3779
 8099SOL    HW135933   4.578   2.032  14.172 -2.7080  0.4193  0.2435
 8099SOL    HW235934   4.561   2.165  14.224  0.1120  0.5008  1.5744
 8100SOL     OW35935   0.945   0.067  14.645 -0.2230  0.3366  0.4588
 8100SOL    HW135936   1.025   0.015  14.639 -0.3018  0.2044  0.5416
 8100SOL    HW235937   0.895   0.051  14.565 -2.2960  0.1417  1.7903
 8101SOL     OW35938   3.170   1.934   8.816 -0.3194 -0.7989  0.5030
 8101SOL    HW135939   3.230   1.922   8.890  0.5174 -2.0713 -0.3876
 8101SOL    HW235940   3.093   1.890   8.851 -1.1266  1.9613  2.2198
 8102SOL     OW35941   1.043   1.578   5.608 -0.4166 -0.0165 -0.1694
 8102SOL    HW135942   1.028   1.608   5.698  0.4154 -1.0793  0.3265
 8102SOL    HW235943   0.955   1.569   5.570 -0.4959  1.2425 -0.2640
 8103SOL     OW35944   3.697   1.800   3.863 -0.1918 -0.1361  0.4205
 8103SOL    HW135945   3.714   1.812   3.769  2.3619  2.6221  1.2517
 8103SOL    HW235946   3.757   1.858   3.908 -0.6194  0.3656  0.3371
 8104SOL     OW35947   0.017   1.904   2.067  0.3853 -0.0008 -0.3267
 8104SOL    HW135948   4.664   1.886   2.090  0.3979  1.4351  0.8570
 8104SOL    HW235949   0.028   1.987   2.114 -2.0320 -1.4394  2.8094
 8105SOL     OW35950   1.473   4.259   1.002  1.7227  0.5584 -0.1654
 8105SOL    HW135951   1.460   4.187   1.063 -1.0935  0.3712 -1.0017
 8105SOL    HW235952   1.445   4.223   0.917  0.0978  2.2563 -0.3672
 8106SOL     OW35953   4.700   0.280   4.340 -0.3917  0.0809 -0.3904
 8106SOL    HW135954   0.053   0.306   4.332  0.0990 -1.3590  0.6518
 8106SOL    HW235955   4.685   0.271   4.245 -0.8818 -0.3664 -0.2705
 8107SOL     OW35956   1.078   4.361   2.246 -0.7297 -0.2248 -0.4866
 8107SOL    HW135957   1.056   4.290   2.306 -0.3341 -0.3433 -0.4834
 8107SOL    HW235958   1.106   4.305   2.174 -0.0979  1.4745 -1.5699
 8108SOL     OW35959   0.008   3.632  11.867 -0.4395  0.1526  0.0231
 8108SOL    HW135960   4.736   3.551  11.917  0.9808 -0.0199  0.0655
 8108SOL    HW235961   0.096   3.652  11.899 -0.5732 -0.6350  0.8865
 8109SOL     OW35962   1.151   3.097  12.246 -0.0149  0.0568  0.4947
 8109SOL    HW135963   1.124   3.085  12.337 -0.8220  0.7934  0.3486
 8109SOL    HW235964   1.146   3.011  12.205  0.1211  0.0345  0.5262
 8110SOL     OW35965   1.023   3.394   8.034  0.0784 -0.2020 -0.0851
 8110SOL    HW135966   1.076   3.377   7.956 -0.4795 -2.1698 -0.0390
 8110SOL    HW235967   0.950   3.334   8.021  0.5714 -0.5084 -1.4192
 8111SOL     OW35968   1.719   3.293   3.058  0.1219  0.5177 -0.2396
 8111SOL    HW135969   1.740   3.361   3.122 -1.0281 -0.4849  1.1981
 8111SOL    HW235970   1.627   3.275   3.077  1.0032  0.0178  3.6217
 8112SOL     OW35971   0.745   0.153   7.269  0.2507 -0.7747  0.1172
 8112SOL    HW135972   0.719   0.187   7.184  1.0758 -0.0106  0.1729
 8112SOL    HW235973   0.667   0.158   7.324 -1.1735  0.9606 -2.1052
 8113SOL     OW35974   4.063   4.477  15.247  0.4558  0.4464  0.8424
 8113SOL    HW135975   4.028   4.398  15.206  1.1995 -0.1628  1.3953
 8113SOL    HW235976   4.146   4.447  15.284 -0.1027 -1.2428  0.7483
 8114SOL     OW35977   0.192   4.667   7.298  0.0823 -0.2309 -0.0081
 8114SOL    HW135978   0.199   4.721   7.377  1.6249 -1.0425  0.4208
 8114SOL    HW235979   0.244   4.589   7.319 -2.8330 -1.7549  1.5523
 8115SOL     OW35980   4.540   4.649   1.254  0.1414  0.1982  0.8375
 8115SOL    HW135981   4.551   4.710   1.327  2.0529  0.0185  0.6965
 8115SOL    HW235982   4.553   4.706   1.178  3.1468  0.3440  1.4670
 8116SOL     OW35983   1.778   1.678   6.801 -0.2982  0.0318 -0.2457
 8116SOL    HW135984   1.752   1.732   6.727  2.6639  1.0299 -0.5660
 8116SOL    HW235985   1.748   1.592   6.770 -2.8444  1.1028 -0.7409
 8117SOL     OW35986   1.300   3.564  14.238 -0.1687 -0.5952 -0.5102
 8117SOL    HW135987   1.394   3.580  14.239  0.0720 -1.9785 -0.4129
 8117SOL    HW235988   1.305   3.506  14.161  2.9303 -1.3311  0.2480
 8118SOL     OW35989   2.097   3.637   2.506  0.0245  0.4809  0.4303
 8118SOL    HW135990   2.185   3.605   2.527 -0.7047 -2.2244 -0.6125
 8118SOL    HW235991   2.115   3.730   2.495  3.2267 -0.4024 -1.8545
 8119SOL     OW35992   0.864   2.852   6.219  0.0033 -0.0041  0.3534
 8119SOL    HW135993   0.794   2.888   6.164  0.6418 -0.4351 -0.7388
 8119SOL    HW235994   0.912   2.805   6.151 -0.6972 -1.1657  0.6623
 8120SOL     OW35995   4.529   0.883   4.070 -0.3143 -0.5015  0.2176
 8120SOL    HW135996   4.530   0.787   4.077  1.6935 -0.4372  0.9060
 8120SOL    HW235997   4.444   0.911   4.036  0.3688  0.2756 -0.8559
 8121SOL     OW35998   1.724   0.866   6.555 -0.1402  0.2437  0.7831
 8121SOL    HW135999   1.648   0.840   6.609  0.5408 -3.0304  0.1460
 8121SOL    HW236000   1.712   0.961   6.554 -0.5819  0.2436  4.4712
 8122SOL     OW36001   1.837   3.595  11.319  0.3870  0.5527 -0.5808
 8122SOL    HW136002   1.742   3.608  11.327  0.5701  2.1620 -0.9921
 8122SOL    HW236003   1.860   3.642  11.239 -0.0069 -0.1130 -1.0812
 8123SOL     OW36004   1.661   0.585  10.139  0.5408 -0.3026  0.5821
 8123SOL    HW136005   1.720   0.625  10.075 -0.1045 -1.3071 -0.6545
 8123SOL    HW236006   1.581   0.633  10.115  0.5197 -0.6787 -0.0965
 8124SOL     OW36007   2.352   1.161   7.069  0.3481  0.1757  0.6946
 8124SOL    HW136008   2.331   1.206   6.987  1.3968 -1.2998 -0.3758
 8124SOL    HW236009   2.286   1.092   7.077 -0.4882  1.0011  1.0216
 8125SOL     OW36010   2.783   0.954   4.516 -0.0175  0.0284 -0.5519
 8125SOL    HW136011   2.699   0.912   4.500  1.5521 -2.4268 -2.2785
 8125SOL    HW236012   2.771   0.990   4.604  0.8380 -3.1695  0.8432
 8126SOL     OW36013   2.358   3.271   8.344  0.1556  0.2770  0.5235
 8126SOL    HW136014   2.376   3.305   8.256 -1.8274  2.1801  0.8524
 8126SOL    HW236015   2.405   3.188   8.331  0.2096  0.7764 -2.6941
 8127SOL     OW36016   3.109   2.881   2.337  0.2330 -0.2347  0.4941
 8127SOL    HW136017   3.090   2.906   2.247 -0.0989  1.8263  1.1422
 8127SOL    HW236018   3.030   2.835   2.364 -0.6966  1.3003  0.3815
 8128SOL     OW36019   3.204   2.227   6.849  0.0082  0.1563  0.9687
 8128SOL    HW136020   3.118   2.265   6.868  0.4146  1.1070  0.9086
 8128SOL    HW236021   3.231   2.282   6.775  1.3424 -1.5299  0.1990
 8129SOL     OW36022   1.839   0.874   5.946 -0.1354  0.3694 -0.3391
 8129SOL    HW136023   1.844   0.940   6.015  0.6520 -2.6162  2.4713
 8129SOL    HW236024   1.832   0.799   6.006 -0.2220 -0.2361 -1.1033
 8130SOL     OW36025   4.128   1.438   4.356 -0.5597 -0.0171 -0.0250
 8130SOL    HW136026   4.161   1.349   4.368  1.3958  0.5700 -0.9511
 8130SOL    HW236027   4.104   1.471   4.443 -0.1743  0.7321 -0.1979
 8131SOL     OW36028   4.577   4.478  11.855 -0.3122  0.0051 -0.0582
 8131SOL    HW136029   4.509   4.506  11.917 -0.3607 -1.2784  0.4584
 8131SOL    HW236030   4.621   4.561  11.837 -0.7544  0.2303 -0.1008
 8132SOL     OW36031   0.674   3.971   3.168  0.5148  0.2137  0.1638
 8132SOL    HW136032   0.614   4.025   3.219  0.1761 -1.6800  1.7751
 8132SOL    HW236033   0.706   4.037   3.107  2.1896 -0.7329  0.0063
 8133SOL     OW36034   3.931   4.258   4.850 -0.1924  0.0562  0.4339
 8133SOL    HW136035   3.936   4.268   4.945  0.1490  0.5455  0.3635
 8133SOL    HW236036   3.837   4.245   4.835  0.0322 -1.1246  0.0394
 8134SOL     OW36037   3.489   1.803  14.256  0.2842  0.2823 -0.5784
 8134SOL    HW136038   3.572   1.781  14.214 -0.2542  0.0507 -1.5066
 8134SOL    HW236039   3.438   1.800  14.176  2.7100  2.8162 -2.2339
 8135SOL     OW36040   2.907   0.351  10.217 -0.1289 -0.1302 -0.1406
 8135SOL    HW136041   2.958   0.360  10.297 -1.2594  0.8797  0.4667
 8135SOL    HW236042   2.887   0.258  10.222  0.2223 -0.0552  2.8547
 8136SOL     OW36043   2.088   4.687   8.282 -0.5304  0.3492  0.6404
 8136SOL    HW136044   2.065   4.612   8.337  2.3638 -0.7999  0.3204
 8136SOL    HW236045   2.029   4.657   8.213  0.7337 -0.1683 -0.2357
 8137SOL     OW36046   2.131   3.042   2.237  0.1425  0.4517 -0.3959
 8137SOL    HW136047   2.159   3.130   2.264 -1.6034  0.0827  2.5700
 8137SOL    HW236048   2.046   3.036   2.280  0.4679 -0.4092  0.1367
 8138SOL     OW36049   3.692   0.849   6.807  0.1303 -0.4102 -0.0158
 8138SOL    HW136050   3.646   0.863   6.723 -0.1575  0.7836  0.3425
 8138SOL    HW236051   3.635   0.784   6.847 -0.9226  1.1170  0.9806
 8139SOL     OW36052   1.027   4.437   1.923 -0.0165 -0.0525  0.6623
 8139SOL    HW136053   1.073   4.504   1.872 -1.1031 -1.7402 -2.5006
 8139SOL    HW236054   1.105   4.401   1.966  1.8431  1.2403 -1.6594
 8140SOL     OW36055   2.128   4.090   4.934 -0.2672  0.4184  0.6153
 8140SOL    HW136056   2.050   4.070   4.882 -0.5902 -0.1245  1.3035
 8140SOL    HW236057   2.162   4.002   4.952  0.1354  0.3741 -0.3772
 8141SOL     OW36058   1.505   4.043   3.717 -0.0180 -0.6241  0.1303
 8141SOL    HW136059   1.563   4.025   3.791  0.1958 -1.1503 -0.1643
 8141SOL    HW236060   1.464   4.123   3.750 -0.5648  0.4441 -3.2073
 8142SOL     OW36061   4.672   2.288   8.597  0.6513  0.3428  0.0734
 8142SOL    HW136062   4.637   2.249   8.517 -4.6787  1.0357  2.0602
 8142SOL    HW236063   4.723   2.361   8.562 -1.3694  0.3917 -2.8434
 8143SOL     OW36064   1.883   3.120   8.025 -0.2664  0.0177  0.0445
 8143SOL    HW136065   1.869   3.032   7.990  0.0569 -0.1128  0.2471
 8143SOL    HW236066   1.803   3.144   8.072 -1.2314  1.3380 -2.2948
 8144SOL     OW36067   2.929   2.711   2.456  0.4862  0.0230 -0.0736
 8144SOL    HW136068   2.943   2.622   2.426 -0.1396 -0.2344  0.3870
 8144SOL    HW236069   2.920   2.709   2.551 -0.2292  2.7564 -0.0607
 8145SOL     OW36070   1.972   1.257   9.145  0.3661  0.4162 -0.4336
 8145SOL    HW136071   2.012   1.222   9.065 -0.9026  0.2261 -0.9890
 8145SOL    HW236072   2.004   1.194   9.209 -2.1796 -1.6992 -1.2272
 8146SOL     OW36073   2.821   3.772   4.132 -0.4027 -0.2431 -0.7079
 8146SOL    HW136074   2.758   3.781   4.060 -1.6902 -0.0030  0.4359
 8146SOL    HW236075   2.775   3.706   4.185  2.5962 -2.4295 -0.8694
 8147SOL     OW36076   2.379   2.597   4.492 -0.1230 -0.1128 -0.0343
 8147SOL    HW136077   2.378   2.501   4.499  1.3430  0.0555  2.3905
 8147SOL    HW236078   2.474   2.610   4.495 -0.3299  1.2139  0.7138
 8148SOL     OW36079   0.014   3.312  11.743  0.3780 -0.0037  0.3305
 8148SOL    HW136080   4.712   3.314  11.830  0.0283 -1.3537  0.1995
 8148SOL    HW236081   4.681   3.267  11.700  0.6504 -1.4186  1.3525
 8149SOL     OW36082   0.376   1.145  14.596 -0.3612  0.5327  0.0985
 8149SOL    HW136083   0.318   1.087  14.547 -1.4090  1.7885 -0.1608
 8149SOL    HW236084   0.345   1.225  14.553 -1.1780  0.0760 -0.1464
 8150SOL     OW36085   4.053   1.971   7.655 -0.2697 -0.1922 -0.1851
 8150SOL    HW136086   4.136   1.992   7.697  0.0754 -1.9752  0.0249
 8150SOL    HW236087   4.016   2.041   7.600  0.2032 -0.3510 -0.7039
 8151SOL     OW36088   0.276   2.640   5.084  0.0097  0.2305  0.1465
 8151SOL    HW136089   0.220   2.696   5.138 -0.5404 -0.8968  0.7661
 8151SOL    HW236090   0.206   2.605   5.030  0.5826 -1.3272  0.4161
 8152SOL     OW36091   1.166   3.041  16.300 -0.1896 -0.0617  0.4023
 8152SOL    HW136092   1.209   2.963  16.265  1.7917  1.1001  0.2314
 8152SOL    HW236093   1.122   3.080  16.224  1.7047 -0.5375 -0.9493
 8153SOL     OW36094   0.284   3.881   2.892  0.4528  0.6760 -0.0017
 8153SOL    HW136095   0.279   3.786   2.880 -1.8473  0.8463 -0.3982
 8153SOL    HW236096   0.200   3.907   2.853  0.4737  0.8246  0.0530
 8154SOL     OW36097   2.761   3.705   5.109  0.1490  0.0173 -0.8223
 8154SOL    HW136098   2.760   3.627   5.055  0.1370  1.7299 -3.2941
 8154SOL    HW236099   2.814   3.674   5.182 -0.2062 -1.2297 -1.1004
 8155SOL     OW36100   3.200   1.182   7.720  0.9938  0.1517  0.3122
 8155SOL    HW136101   3.232   1.203   7.633 -0.7351  0.3570 -0.2613
 8155SOL    HW236102   3.230   1.092   7.730  3.5893  0.9039 -0.7652
 8156SOL     OW36103   2.465   2.176  16.474  0.6817 -0.1130 -0.1348
 8156SOL    HW136104   2.459   2.103  16.536 -0.6513  0.7340  0.7406
 8156SOL    HW236105   2.555   2.208  16.464  0.7533  0.3094  1.8721
 8157SOL     OW36106   3.707   1.133  15.860 -0.3493  0.8319  0.2157
 8157SOL    HW136107   3.680   1.185  15.784  3.2634  1.1630 -0.8642
 8157SOL    HW236108   3.697   1.209  15.917  1.5912  1.2113  0.0664
 8158SOL     OW36109   1.693   3.135  10.899 -0.3791 -0.4033 -0.4592
 8158SOL    HW136110   1.786   3.155  10.885 -0.0387 -0.8757  1.1148
 8158SOL    HW236111   1.683   3.185  10.980 -2.7494  2.8365 -2.7370
 8159SOL     OW36112   3.223   2.513   6.768  0.3132  1.2093  0.0248
 8159SOL    HW136113   3.174   2.562   6.834 -0.6953  0.0788  0.1129
 8159SOL    HW236114   3.160   2.516   6.695 -1.3714  0.7543  1.4654
 8160SOL     OW36115   2.034   1.501   8.893  0.3981 -0.3397  0.1840
 8160SOL    HW136116   2.075   1.588   8.896  1.6268 -0.8598 -1.3751
 8160SOL    HW236117   2.113   1.447   8.886  1.1886  0.7840  0.4827
 8161SOL     OW36118   0.397   0.933   3.848  0.2883 -0.5540  0.2887
 8161SOL    HW136119   0.363   1.022   3.842  0.2551 -0.4655  1.8061
 8161SOL    HW236120   0.487   0.950   3.878  1.1173 -1.8207 -1.4612
 8162SOL     OW36121   1.538   2.641   3.590  0.2342 -0.1791 -0.4810
 8162SOL    HW136122   1.513   2.692   3.667  2.5010  1.6804 -0.9625
 8162SOL    HW236123   1.632   2.629   3.603 -0.0299 -0.2638  1.4947
 8163SOL     OW36124   1.713   0.894   1.569 -0.3304  0.0187 -0.6918
 8163SOL    HW136125   1.708   0.985   1.539  0.0069  0.3832  0.3730
 8163SOL    HW236126   1.782   0.902   1.635 -1.5363 -2.0036  0.8305
 8164SOL     OW36127   4.042   1.568   1.358 -0.4394  0.1292  0.1774
 8164SOL    HW136128   4.112   1.630   1.340  0.3164 -0.9803 -0.7006
 8164SOL    HW236129   3.980   1.590   1.289 -0.8292  2.2330  1.2010
 8165SOL     OW36130   2.938   1.440   2.634  0.7730  0.3679 -0.5329
 8165SOL    HW136131   2.865   1.452   2.695  0.4584 -0.8178 -0.6766
 8165SOL    HW236132   2.897   1.380   2.571  1.3668  1.1748 -1.6970
 8166SOL     OW36133   2.823   3.551   7.065  0.1881  0.0944  0.2308
 8166SOL    HW136134   2.804   3.593   7.149  0.1433 -1.1540  0.8349
 8166SOL    HW236135   2.758   3.481   7.067  0.4604 -0.1440  0.6676
 8167SOL     OW36136   0.989   3.648   4.966  0.8072 -0.2770  0.0406
 8167SOL    HW136137   0.990   3.598   5.047 -1.2666 -0.7131 -0.2229
 8167SOL    HW236138   0.967   3.577   4.906 -2.2366  0.9223 -0.2550
 8168SOL     OW36139   2.880   2.271   4.232 -0.3443  0.3622 -0.0999
 8168SOL    HW136140   2.825   2.307   4.163  0.5885 -1.3580 -1.7283
 8168SOL    HW236141   2.824   2.195   4.246 -2.0075  1.5105 -0.5713
 8169SOL     OW36142   2.534   2.118   5.095 -0.1798 -0.1226 -0.9005
 8169SOL    HW136143   2.464   2.182   5.108  0.8812  0.4291  1.9977
 8169SOL    HW236144   2.571   2.139   5.009  1.0317  1.1294 -0.0943
 8170SOL     OW36145   3.898   1.877   2.773  0.0194  0.2414  0.1542
 8170SOL    HW136146   3.924   1.796   2.729 -4.2587 -1.2237  0.2957
 8170SOL    HW236147   3.836   1.906   2.707 -0.4321  1.6548  1.1896
 8171SOL     OW36148   2.032   2.855   6.796 -0.4193  0.0585 -0.2829
 8171SOL    HW136149   1.950   2.904   6.788 -0.3448  0.5591  1.9134
 8171SOL    HW236150   2.035   2.814   6.709  1.6854 -2.1390  0.8228
 8172SOL     OW36151   4.653   2.097  12.355  0.0658  0.1610 -0.2789
 8172SOL    HW136152   4.571   2.050  12.339  0.1364  0.7189 -2.3354
 8172SOL    HW236153   4.697   2.038  12.416 -0.7840 -0.3359 -0.1484
 8173SOL     OW36154   0.027   3.966  12.100  0.3443  1.0178 -0.0504
 8173SOL    HW136155   4.730   4.014  12.024 -2.1155 -1.3166 -0.3663
 8173SOL    HW236156   0.077   4.037  12.140  1.3402 -0.3644  1.1536
 8174SOL     OW36157   1.376   4.721   5.957 -0.6463 -0.4380 -0.2644
 8174SOL    HW136158   1.435   0.032   5.901 -0.9896 -0.6528 -0.8180
 8174SOL    HW236159   1.377   0.013   6.048  0.0679 -1.1344 -0.0371
 8175SOL     OW36160   0.793   0.172   7.608  0.4348 -0.5765  0.1690
 8175SOL    HW136161   0.718   0.120   7.636 -0.2864 -0.2638 -1.2042
 8175SOL    HW236162   0.832   0.180   7.695 -0.3925 -1.0616  0.5817
 8176SOL     OW36163   0.198   1.293   0.377 -0.3119 -0.2014 -0.3103
 8176SOL    HW136164   0.127   1.282   0.440  0.6542 -2.6559  0.3220
 8176SOL    HW236165   0.231   1.383   0.382  1.3479 -0.8982  1.0750
 8177SOL     OW36166   3.174   3.732   5.480 -0.2253  0.1833  0.1656
 8177SOL    HW136167   3.163   3.637   5.485  2.1962 -0.1415 -0.3873
 8177SOL    HW236168   3.224   3.729   5.399  0.6714  4.4666  0.5484
 8178SOL     OW36169   1.711   0.859   5.451  0.2443 -0.3260  0.2924
 8178SOL    HW136170   1.682   0.778   5.491  0.2047 -0.7532 -0.5901
 8178SOL    HW236171   1.783   0.830   5.394  0.7112 -1.4603  1.4420
 8179SOL     OW36172   2.237   1.319   8.868  0.2330  0.1810  0.2002
 8179SOL    HW136173   2.293   1.286   8.937  1.2970  1.6811  0.0338
 8179SOL    HW236174   2.245   1.243   8.810 -2.2079 -0.0217  0.0927
 8180SOL     OW36175   4.470   2.138  17.661  0.3208  0.1323 -0.2033
 8180SOL    HW136176   4.377   2.154  17.647  0.5910 -0.5887 -2.9112
 8180SOL    HW236177   4.491   2.076  17.591  2.1668  2.3385 -1.6411
 8181SOL     OW36178   0.582   2.848   3.941 -0.6905 -0.4101 -0.9743
 8181SOL    HW136179   0.537   2.930   3.963 -1.3513 -1.2896  0.8991
 8181SOL    HW236180   0.641   2.888   3.876 -0.0742  0.3894  0.0808
 8182SOL     OW36181   3.723   1.174  11.091 -0.0836  0.1497 -0.2154
 8182SOL    HW136182   3.714   1.122  11.011  2.7625  0.1272 -0.5354
 8182SOL    HW236183   3.632   1.186  11.118 -0.1126 -1.3864  0.3587
 8183SOL     OW36184   1.664   2.692   6.176 -0.2859  0.4256 -0.2406
 8183SOL    HW136185   1.700   2.771   6.135  1.6821 -0.9823 -1.2233
 8183SOL    HW236186   1.574   2.707   6.205  0.1179  1.4617  0.4870
 8184SOL     OW36187   1.937   4.316   4.193  0.1598 -0.2997  0.1072
 8184SOL    HW136188   1.959   4.407   4.209 -0.0415 -0.2544  0.1302
 8184SOL    HW236189   1.906   4.324   4.103  0.2533 -1.7504 -0.0547
 8185SOL     OW36190   4.712   4.091   2.555  0.3853 -0.5769  0.1394
 8185SOL    HW136191   4.643   4.132   2.606  1.9429  1.2283  0.7781
 8185SOL    HW236192   4.704   4.128   2.467  0.7432  1.1519  0.8354
 8186SOL     OW36193   2.050   0.783  13.097  0.1190 -0.4148 -0.1735
 8186SOL    HW136194   1.965   0.783  13.052 -0.5532 -0.3667  1.0795
 8186SOL    HW236195   2.109   0.816  13.030  2.0739 -0.6052  1.4615
 8187SOL     OW36196   1.193   4.315   7.192  1.0540  0.1024 -0.4159
 8187SOL    HW136197   1.128   4.361   7.139  0.4761 -0.8394 -0.5271
 8187SOL    HW236198   1.241   4.264   7.126 -3.1021 -2.0576 -1.8015
 8188SOL     OW36199   1.915   4.721   9.662 -0.7181 -0.2554  0.3532
 8188SOL    HW136200   1.920   4.660   9.736 -1.2883  0.1973  0.7572
 8188SOL    HW236201   1.987   0.040   9.684 -1.4658  1.1290 -0.8661
 8189SOL     OW36202   0.192   3.118   7.190 -0.3743  0.4519  0.1510
 8189SOL    HW136203   0.127   3.083   7.252 -1.0373  0.1387 -0.7244
 8189SOL    HW236204   0.169   3.067   7.112  2.7901 -1.1091  0.2727
 8190SOL     OW36205   2.198   0.205   3.429  0.6297  0.4998 -0.0531
 8190SOL    HW136206   2.117   0.180   3.386  1.7530 -1.6137 -0.9674
 8190SOL    HW236207   2.224   0.139   3.494  2.1962  0.3254 -0.8466
 8191SOL     OW36208   2.254   0.932   0.142 -0.1905 -0.1718 -0.3400
 8191SOL    HW136209   2.204   0.869   0.090 -2.1579 -0.5968  2.0624
 8191SOL    HW236210   2.199   1.010   0.134  2.5360  1.4997 -2.9550
 8192SOL     OW36211   0.029   1.134  17.016  0.1772 -0.7955  0.4441
 8192SOL    HW136212   0.069   1.066  17.070  5.3484  1.2128 -0.8961
 8192SOL    HW236213   0.060   1.114  16.928 -3.5387 -2.7657 -0.4416
 8193SOL     OW36214   4.489   2.037   0.756  0.2296 -0.1713  0.0150
 8193SOL    HW136215   4.545   2.054   0.681 -1.1217  1.3936 -0.6495
 8193SOL    HW236216   4.476   1.946   0.729 -2.0078 -0.3832  1.7415
 8194SOL     OW36217   2.961   4.066   3.246 -0.3728 -0.2544 -0.2276
 8194SOL    HW136218   3.039   4.087   3.194 -0.5032 -1.1555 -0.7874
 8194SOL    HW236219   3.009   4.045   3.326  0.7002  0.1024 -0.7710
 8195SOL     OW36220   1.912   4.279   5.496 -0.0059 -0.1475 -0.0591
 8195SOL    HW136221   2.006   4.268   5.479  0.1471  2.5818 -0.9034
 8195SOL    HW236222   1.883   4.221   5.425 -0.0589  0.5613 -0.6161
 8196SOL     OW36223   2.612   0.551   8.034 -0.8258 -0.1085  0.3270
 8196SOL    HW136224   2.692   0.569   7.985 -0.5684  2.3652  1.6989
 8196SOL    HW236225   2.636   0.465   8.070  1.0637  0.0082 -0.6480
 8197SOL     OW36226   0.211   3.182   6.165 -0.2012 -0.3126 -0.1385
 8197SOL    HW136227   0.276   3.234   6.213 -0.2470  0.3842 -0.8306
 8197SOL    HW236228   0.229   3.216   6.078 -0.9133  0.4956  0.0233
 8198SOL     OW36229   3.563   3.123   6.175  0.2971 -0.2947  0.8160
 8198SOL    HW136230   3.524   3.201   6.213 -0.4405 -0.6993  0.8936
 8198SOL    HW236231   3.507   3.104   6.100 -1.9871 -0.6070  2.6124
 8199SOL     OW36232   1.966   2.839   3.769 -0.2515 -0.5835  0.0933
 8199SOL    HW136233   2.013   2.919   3.748  1.1528 -0.4172  3.7921
 8199SOL    HW236234   2.014   2.815   3.848 -1.1265 -1.3273  0.4034
 8200SOL     OW36235   0.311   1.504   6.428  0.1678 -0.2528 -0.0796
 8200SOL    HW136236   0.254   1.465   6.362 -3.5863  2.7044  1.4421
 8200SOL    HW236237   0.285   1.455   6.505 -0.9410 -0.4827 -0.6035
 8201SOL     OW36238   3.559   3.052   9.483  0.0516 -0.0754 -0.4626
 8201SOL    HW136239   3.525   3.134   9.447 -2.7318 -1.9721 -2.0904
 8201SOL    HW236240   3.567   3.002   9.402 -0.5470  0.7725 -1.0420
 8202SOL     OW36241   2.318   4.028   7.402 -0.4448  0.5261  0.0649
 8202SOL    HW136242   2.397   3.976   7.417 -0.9594 -0.3771 -0.3292
 8202SOL    HW236243   2.347   4.119   7.407  1.6994 -0.0927 -0.9938
 8203SOL     OW36244   3.907   0.131   0.833  0.0483  0.1111  0.2098
 8203SOL    HW136245   3.987   0.142   0.884 -0.8339  0.3882  1.5256
 8203SOL    HW236246   3.934   0.111   0.743 -1.1318  0.2560 -0.1722
 8204SOL     OW36247   3.710   1.344   7.839  0.1442 -0.5045  0.4563
 8204SOL    HW136248   3.684   1.294   7.762  0.1803  0.5265 -0.2209
 8204SOL    HW236249   3.743   1.425   7.800 -0.9141 -0.6559 -0.7468
 8205SOL     OW36250   3.301   2.111   5.893 -0.0218 -0.1347  0.5400
 8205SOL    HW136251   3.392   2.082   5.888 -0.1779 -0.4678 -0.5007
 8205SOL    HW236252   3.270   2.066   5.972 -2.9179 -1.1546 -1.1702
 8206SOL     OW36253   3.432   1.520  10.543  0.2817 -0.5245  0.3282
 8206SOL    HW136254   3.512   1.567  10.519 -0.2922 -0.3214 -1.1473
 8206SOL    HW236255   3.421   1.566  10.627  1.2048 -1.1266  0.7879
 8207SOL     OW36256   3.795   3.278   8.109  0.4633 -0.5675 -0.0431
 8207SOL    HW136257   3.823   3.248   8.196  1.6427 -0.6590 -0.4512
 8207SOL    HW236258   3.832   3.210   8.052  1.7147  0.6635 -0.6936
 8208SOL     OW36259   4.312   3.062   6.303  0.2448 -0.3440  0.6352
 8208SOL    HW136260   4.322   2.969   6.280 -0.8069 -0.0465 -0.9833
 8208SOL    HW236261   4.229   3.074   6.349 -0.2170  0.8044 -0.5029
 8209SOL     OW36262   3.814   4.097   8.102  1.2400 -0.5840  0.2427
 8209SOL    HW136263   3.903   4.130   8.086  0.2743  3.6561  3.7438
 8209SOL    HW236264   3.804   4.120   8.195 -1.9422 -1.2059  0.0284
 8210SOL     OW36265   3.353   1.329   3.172  0.3885 -0.5493  0.3108
 8210SOL    HW136266   3.313   1.367   3.251  0.8070  0.7034 -0.0707
 8210SOL    HW236267   3.436   1.377   3.167  2.0429 -3.4952 -0.3189
 8211SOL     OW36268   4.238   0.945  15.520 -0.6627  0.3581 -0.8232
 8211SOL    HW136269   4.323   0.940  15.565 -1.1591 -0.5641  0.0322
 8211SOL    HW236270   4.204   0.857  15.540 -1.2232  0.8763  0.5047
 8212SOL     OW36271   4.017   1.619   5.694 -0.2539  0.0366 -0.3794
 8212SOL    HW136272   4.029   1.700   5.643 -1.5564  1.4684  1.5490
 8212SOL    HW236273   4.059   1.557   5.635  0.4479 -0.1821  0.3573
 8213SOL     OW36274   0.698   0.839   6.829  0.4361 -0.6530  0.4030
 8213SOL    HW136275   0.630   0.868   6.890  2.1198  0.0389  1.9572
 8213SOL    HW236276   0.660   0.866   6.745  2.7249  0.9388 -0.1210
 8214SOL     OW36277   2.790   3.466   6.312 -0.4642 -0.0785  0.2950
 8214SOL    HW136278   2.763   3.463   6.404 -0.0617  0.9366  0.4504
 8214SOL    HW236279   2.707   3.452   6.266 -0.1618 -0.1067 -0.2390
 8215SOL     OW36280   4.656   0.229   7.906 -0.0577 -0.0551  0.5255
 8215SOL    HW136281   4.617   0.165   7.965  1.8583 -1.5395  0.1868
 8215SOL    HW236282   4.612   0.209   7.823 -0.5875 -0.2271  0.8451
 8216SOL     OW36283   2.059   0.735  12.486  0.0932  0.0145 -0.1707
 8216SOL    HW136284   2.017   0.821  12.493 -0.5306 -0.2071 -1.1807
 8216SOL    HW236285   2.137   0.766  12.439  0.0830  0.1063 -0.1271
 8217SOL     OW36286   4.569   1.782   0.291 -0.0064  0.3315 -0.1996
 8217SOL    HW136287   4.561   1.735   0.208  3.6715  1.4632 -1.1804
 8217SOL    HW236288   4.502   1.726   0.330 -1.4396  1.8889 -0.4295
 8218SOL     OW36289   3.897   0.213   4.064  0.0237  0.0191 -0.5576
 8218SOL    HW136290   3.882   0.280   4.131 -0.6786 -0.2170 -0.4763
 8218SOL    HW236291   3.985   0.239   4.037  0.6415  0.0485  1.4352
 8219SOL     OW36292   2.303   2.905  11.318  0.2829  0.2247  0.4764
 8219SOL    HW136293   2.317   2.839  11.386 -1.1431  0.4534  0.9877
 8219SOL    HW236294   2.249   2.965  11.371 -1.2067 -0.0746 -0.6954
 8220SOL     OW36295   3.240   3.001  12.777  0.7437  0.3539  0.2760
 8220SOL    HW136296   3.334   2.991  12.764  0.9709  0.7550  1.6479
 8220SOL    HW236297   3.239   3.097  12.781 -1.1232  0.3656 -0.4485
 8221SOL     OW36298   1.828   3.500   6.177 -0.4473 -0.1327  0.1113
 8221SOL    HW136299   1.849   3.544   6.095  0.3985 -1.2794 -0.2728
 8221SOL    HW236300   1.732   3.504   6.174 -0.3238  3.0503  0.4655
 8222SOL     OW36301   1.990   0.918   0.507 -0.2173  0.0282  0.6892
 8222SOL    HW136302   2.073   0.873   0.514 -0.4506 -0.4834  0.0804
 8222SOL    HW236303   1.935   0.860   0.454  0.4281  0.1332 -0.0866
 8223SOL     OW36304   0.812   0.738   5.716  0.2521 -0.6795  0.2813
 8223SOL    HW136305   0.848   0.700   5.796  0.6579  1.1434  0.9671
 8223SOL    HW236306   0.753   0.801   5.758  1.4729  1.2768 -0.9387
 8224SOL     OW36307   3.372   4.735  12.797 -0.5874 -0.0245  0.0684
 8224SOL    HW136308   3.325   4.652  12.809 -0.6590 -0.2415 -1.6327
 8224SOL    HW236309   3.459   4.695  12.795 -0.1303  0.9885 -0.0595
 8225SOL     OW36310   3.083   0.328   7.897  0.1320  0.4852  0.4841
 8225SOL    HW136311   3.170   0.340   7.935 -0.2243  0.3940  1.3406
 8225SOL    HW236312   3.034   0.300   7.975  0.0838  0.8063  0.5688
 8226SOL     OW36313   0.661   2.278   4.827  0.3968 -0.3631 -0.2677
 8226SOL    HW136314   0.718   2.261   4.902 -0.5108  1.1912  0.7738
 8226SOL    HW236315   0.688   2.369   4.814 -1.3984  0.1782 -0.2446
 8227SOL     OW36316   4.120   3.072  15.245 -0.3418 -0.4381  0.1358
 8227SOL    HW136317   4.043   3.100  15.294  0.4509  0.8856  0.6336
 8227SOL    HW236318   4.090   2.983  15.226 -1.4051  0.6916 -3.3917
 8228SOL     OW36319   0.146   4.039   1.363 -0.0949 -0.2735  0.3641
 8228SOL    HW136320   0.151   4.084   1.278 -1.4320  0.2869  0.5884
 8228SOL    HW236321   0.059   4.000   1.367 -0.3963  0.0685 -2.3654
 8229SOL     OW36322   3.097   3.366  14.026  0.2174  0.5402 -0.1424
 8229SOL    HW136323   3.030   3.432  14.007  0.2257 -0.5074 -3.8583
 8229SOL    HW236324   3.069   3.343  14.115 -2.2897  0.5826 -0.9067
 8230SOL     OW36325   2.373   3.872  12.811  0.4746 -0.3552 -0.0641
 8230SOL    HW136326   2.388   3.831  12.896 -1.5360  1.8480  1.3461
 8230SOL    HW236327   2.463   3.896  12.790  0.2436  0.3988 -0.1735
 8231SOL     OW36328   1.334   1.321   8.127 -0.1540 -1.0852 -0.0119
 8231SOL    HW136329   1.302   1.402   8.167 -1.6318 -1.4739 -0.4118
 8231SOL    HW236330   1.257   1.295   8.078 -1.9279  1.3972  1.4262
 8232SOL     OW36331   1.572   3.526   3.432 -0.3486 -0.7250 -0.5429
 8232SOL    HW136332   1.571   3.432   3.412 -0.9023 -1.0599  1.0518
 8232SOL    HW236333   1.517   3.555   3.359  0.3815  0.9484 -0.4359
 8233SOL     OW36334   1.367   2.876   8.558 -0.8905 -0.3455 -0.0395
 8233SOL    HW136335   1.360   2.799   8.501 -0.3926 -0.9091  0.6685
 8233SOL    HW236336   1.283   2.880   8.605 -0.9561  0.7885 -0.2527
 8234SOL     OW36337   2.223   0.532   8.447 -0.8629  0.3826 -0.1033
 8234SOL    HW136338   2.232   0.599   8.379  1.2374  0.0930 -0.1218
 8234SOL    HW236339   2.316   0.529   8.469 -1.0608  1.3195  0.8621
 8235SOL     OW36340   1.286   0.878   0.798 -0.6725 -0.2647 -0.0352
 8235SOL    HW136341   1.271   0.928   0.878  0.8610  0.2062 -0.0458
 8235SOL    HW236342   1.283   0.792   0.841 -3.1698 -1.0945 -1.8110
 8236SOL     OW36343   3.095   3.054  15.266  0.3708 -0.1733  0.0030
 8236SOL    HW136344   3.001   3.066  15.285  0.6107  0.3826  0.8473
 8236SOL    HW236345   3.131   3.129  15.313 -0.7045  0.5711 -0.3566
 8237SOL     OW36346   3.675   0.618  10.727 -0.4937 -0.3550 -0.0012
 8237SOL    HW136347   3.700   0.536  10.685 -0.1795  1.0114 -2.4678
 8237SOL    HW236348   3.749   0.675  10.709  0.9982 -2.3880 -0.3481
 8238SOL     OW36349   4.574   3.534  15.153  0.0699  0.2172 -0.0762
 8238SOL    HW136350   4.493   3.520  15.202 -0.6098  2.2504 -0.6054
 8238SOL    HW236351   4.625   3.594  15.207 -1.0196  0.6736  0.4491
 8239SOL     OW36352   4.643   4.704   9.074  0.0533  0.2084  0.1639
 8239SOL    HW136353   4.588   4.651   9.017 -0.6158  2.0746 -0.9359
 8239SOL    HW236354   4.603   4.696   9.161 -0.0348 -1.3123 -0.0246
 8240SOL     OW36355   0.574   3.382   8.670  0.1375  0.0508 -0.1506
 8240SOL    HW136356   0.571   3.357   8.763  0.4379  1.0899  0.1449
 8240SOL    HW236357   0.643   3.323   8.641 -0.1757  0.1797 -1.1305
 8241SOL     OW36358   4.176   3.873   7.321 -0.9815 -0.4536 -0.0427
 8241SOL    HW136359   4.175   3.790   7.273  1.1939 -1.8276  2.2667
 8241SOL    HW236360   4.245   3.921   7.276 -0.4756  0.4365  1.6910
 8242SOL     OW36361   2.925   1.089   2.688 -0.4429 -0.5209  0.4610
 8242SOL    HW136362   2.961   1.050   2.608 -2.2179  0.9471 -1.0425
 8242SOL    HW236363   3.003   1.103   2.741 -0.1536 -2.2036  0.4708
 8243SOL     OW36364   0.552   0.585   2.035  0.4400  0.0059 -0.6459
 8243SOL    HW136365   0.576   0.496   2.008  0.8379 -0.9383  2.8341
 8243SOL    HW236366   0.572   0.588   2.128 -1.0330  1.1974 -0.3664
 8244SOL     OW36367   3.218   4.713   6.960 -0.0261  0.2071 -0.0291
 8244SOL    HW136368   3.312   4.701   6.972  0.0138 -0.3598 -0.9268
 8244SOL    HW236369   3.180   4.696   7.046 -1.7679 -1.0151 -1.0359
 8245SOL     OW36370   1.448   0.367   3.525 -0.3649 -0.1639 -1.0256
 8245SOL    HW136371   1.476   0.288   3.478 -2.1610 -1.7998  0.6361
 8245SOL    HW236372   1.501   0.432   3.479  0.7671  2.1553  3.5779
 8246SOL     OW36373   4.500   2.916   4.736  0.3281 -0.0873 -0.0840
 8246SOL    HW136374   4.517   2.938   4.644  1.9404  1.0841  0.5081
 8246SOL    HW236375   4.547   2.833   4.740 -0.3798 -0.4220  1.2890
 8247SOL     OW36376   0.100   1.305   5.726  0.1260  0.0665  0.0117
 8247SOL    HW136377   0.058   1.220   5.716 -1.0438  0.7171 -0.6639
 8247SOL    HW236378   0.191   1.280   5.711 -0.0092 -0.3193 -0.1539
 8248SOL     OW36379   1.506   3.078   9.115 -0.6519 -0.1786 -0.2301
 8248SOL    HW136380   1.459   3.032   9.045  0.1410  1.4485 -1.8071
 8248SOL    HW236381   1.537   3.157   9.071 -0.5076  0.2061  0.5604
 8249SOL     OW36382   0.690   1.615   8.726 -0.2551 -0.5947  0.0736
 8249SOL    HW136383   0.622   1.658   8.778  1.2961 -1.4217  2.7769
 8249SOL    HW236384   0.692   1.669   8.647 -1.5039 -0.0960  0.3811
 8250SOL     OW36385   3.595   0.929   8.149 -0.1682  0.3448  0.3604
 8250SOL    HW136386   3.569   1.009   8.102 -1.1644 -0.1048  0.1498
 8250SOL    HW236387   3.689   0.941   8.155  0.0952 -0.1751 -2.8376
 8251SOL     OW36388   4.183   3.700   9.707  0.0954 -0.3335 -0.2930
 8251SOL    HW136389   4.185   3.609   9.735 -0.5028 -0.0674  0.6046
 8251SOL    HW236390   4.089   3.717   9.708 -0.0304 -0.9401 -1.4416
 8252SOL     OW36391   1.433   2.594   7.001  0.0320 -0.3885  0.2401
 8252SOL    HW136392   1.339   2.593   6.983  0.4362 -2.2744 -1.7382
 8252SOL    HW236393   1.467   2.639   6.924 -1.3712  0.1415 -0.0770
 8253SOL     OW36394   0.846   1.315  12.838 -0.2096 -0.0356  0.4255
 8253SOL    HW136395   0.791   1.357  12.905 -1.4332 -0.3655 -0.3620
 8253SOL    HW236396   0.835   1.371  12.761  0.0216 -1.4550 -0.6331
 8254SOL     OW36397   2.166   0.530   1.499 -0.0432 -0.5683 -0.4061
 8254SOL    HW136398   2.139   0.617   1.471  0.8203  0.4776  2.0730
 8254SOL    HW236399   2.136   0.470   1.430  0.7023 -0.6614 -0.6497
 8255SOL     OW36400   0.800   2.960   4.965  0.0542  0.1938  0.3699
 8255SOL    HW136401   0.791   2.899   4.891 -0.9715  1.9434 -0.9224
 8255SOL    HW236402   0.894   2.943   4.975  0.4460  1.6244 -0.8725
 8256SOL     OW36403   0.062   3.478   0.642 -0.2383 -0.3670  0.2711
 8256SOL    HW136404   0.009   3.516   0.712 -0.6990 -1.1117  0.3172
 8256SOL    HW236405   4.734   3.417   0.611 -2.2760  1.7100  0.6154
 8257SOL     OW36406   4.708   0.489   7.968  0.1113  0.0413 -0.2313
 8257SOL    HW136407   4.686   0.404   7.931  1.3993 -0.2227 -0.3744
 8257SOL    HW236408   0.063   0.486   7.984 -0.1664  2.0090  1.7839
 8258SOL     OW36409   2.803   1.336  10.179 -0.3038  0.5515 -0.7986
 8258SOL    HW136410   2.829   1.314  10.090 -0.4414 -3.6134  0.1734
 8258SOL    HW236411   2.732   1.275  10.202 -1.7304  2.4951  0.0283
 8259SOL     OW36412   0.405   3.255  10.845 -0.1886 -0.5861  0.3111
 8259SOL    HW136413   0.366   3.184  10.896 -0.3616  1.2279  2.6574
 8259SOL    HW236414   0.363   3.334  10.878  1.0335 -0.5204  1.6785
 8260SOL     OW36415   4.274   1.275  15.840 -0.1910 -0.5309 -0.0981
 8260SOL    HW136416   4.271   1.239  15.752  0.8905  1.4274 -0.9148
 8260SOL    HW236417   4.188   1.252  15.875 -1.3136  2.9336 -0.5796
 8261SOL     OW36418   3.422   1.288   1.912 -1.1558  0.0127  0.6223
 8261SOL    HW136419   3.436   1.232   1.988 -0.8194 -0.7130  0.0262
 8261SOL    HW236420   3.326   1.296   1.910 -1.1572 -0.0419  0.3762
 8262SOL     OW36421   3.698   4.517   8.059 -0.4196  0.1382 -0.0915
 8262SOL    HW136422   3.771   4.490   8.003 -1.0273 -2.9984  0.6393
 8262SOL    HW236423   3.730   4.592   8.109  0.2624 -0.0312 -0.2751
 8263SOL     OW36424   1.573   3.767   7.866  0.2901 -0.2120 -0.2636
 8263SOL    HW136425   1.603   3.689   7.818 -0.9113  0.3868 -1.9685
 8263SOL    HW236426   1.631   3.829   7.822  0.1405 -0.7610 -1.2514
 8264SOL     OW36427   1.482   2.212   1.360  0.1024  0.1800 -0.3088
 8264SOL    HW136428   1.457   2.229   1.269 -0.0710  0.2863 -0.2416
 8264SOL    HW236429   1.403   2.252   1.396 -0.3069 -0.3951 -0.5771
 8265SOL     OW36430   0.143   2.667   3.917  0.9076  0.0810 -0.5806
 8265SOL    HW136431   0.208   2.621   3.865 -0.5020 -1.3233 -1.1065
 8265SOL    HW236432   0.166   2.756   3.891 -1.2700  0.7935 -0.1433
 8266SOL     OW36433   0.357   0.821   7.725 -0.3754  0.3144  0.2248
 8266SOL    HW136434   0.418   0.894   7.731  2.2901 -2.0255  1.0685
 8266SOL    HW236435   0.305   0.845   7.803  0.9056 -0.4320  1.3038
 8267SOL     OW36436   0.556   2.431   9.515 -0.0689  0.0487  0.1008
 8267SOL    HW136437   0.510   2.430   9.599 -0.3355  1.1158 -0.0320
 8267SOL    HW236438   0.578   2.524   9.509 -0.3695  0.1471  0.5118
 8268SOL     OW36439   1.809   4.457   6.437 -0.6262  0.1657 -0.1392
 8268SOL    HW136440   1.800   4.434   6.529 -0.1501  0.3183 -0.0543
 8268SOL    HW236441   1.871   4.390   6.409 -0.6131 -1.1030  2.9223
 8269SOL     OW36442   2.815   3.089   8.656  0.6844 -0.6988 -0.2363
 8269SOL    HW136443   2.726   3.123   8.648 -0.3505 -3.7209 -1.8834
 8269SOL    HW236444   2.845   3.081   8.566  3.6512  1.2317  0.5837
 8270SOL     OW36445   4.277   2.965   9.459 -0.4421 -0.4130 -0.1069
 8270SOL    HW136446   4.185   2.957   9.434 -0.3133 -0.2806 -0.6230
 8270SOL    HW236447   4.271   2.985   9.552  2.2417 -0.6104  0.1186
 8271SOL     OW36448   0.730   3.101  13.451 -0.1074  0.0830  0.2053
 8271SOL    HW136449   0.780   3.142  13.380 -0.8393  0.8410  0.1247
 8271SOL    HW236450   0.655   3.159  13.464 -0.0965 -0.0631  0.9022
 8272SOL     OW36451   1.626   2.817   8.678 -0.0144 -0.0250 -0.1051
 8272SOL    HW136452   1.636   2.769   8.596 -0.6911 -0.8726  0.3046
 8272SOL    HW236453   1.542   2.862   8.668  0.5338  0.7542 -1.0959
 8273SOL     OW36454   2.969   3.678   7.994  0.0847  0.5169  0.1452
 8273SOL    HW136455   3.052   3.718   7.967 -0.0203  1.1895  0.8385
 8273SOL    HW236456   2.952   3.708   8.083  1.3050  0.4356  0.4079
 8274SOL     OW36457   4.572   3.159  13.993 -0.2579  0.4400 -0.2334
 8274SOL    HW136458   4.607   3.070  14.002  0.8392  0.7342 -1.6436
 8274SOL    HW236459   4.591   3.167  13.899 -0.6107  1.1978 -0.2430
 8275SOL     OW36460   3.522   2.379  12.352 -0.1765  0.0790 -0.4735
 8275SOL    HW136461   3.541   2.366  12.445 -3.5503 -0.1471  0.1767
 8275SOL    HW236462   3.492   2.469  12.353  1.0141  0.4713  1.2729
 8276SOL     OW36463   0.963   0.658   3.243  0.0384  0.3686  0.7202
 8276SOL    HW136464   0.961   0.731   3.182  0.1826  0.6534  1.0551
 8276SOL    HW236465   1.056   0.633   3.245 -0.9096 -3.1985 -0.1388
 8277SOL     OW36466   2.500   3.810   5.255 -0.4201  0.1658  0.9663
 8277SOL    HW136467   2.518   3.822   5.162  0.1488  1.0483  1.1981
 8277SOL    HW236468   2.478   3.717   5.248 -0.5567  0.2572  0.1642
 8278SOL     OW36469   2.280   4.590   5.719  0.1159  0.5153  0.3154
 8278SOL    HW136470   2.221   4.664   5.730  0.0798  0.3478  1.2529
 8278SOL    HW236471   2.251   4.565   5.632 -2.0683 -0.3838  1.3064
 8279SOL     OW36472   1.625   1.597   3.451  0.2833 -0.0183  0.5886
 8279SOL    HW136473   1.583   1.579   3.535  0.9490 -1.3212  0.6430
 8279SOL    HW236474   1.614   1.510   3.414  1.2771 -0.6415  1.7443
 8280SOL     OW36475   0.742   3.487   1.414  0.0510  0.2947 -0.2080
 8280SOL    HW136476   0.823   3.479   1.465  0.5552 -0.7974 -1.1805
 8280SOL    HW236477   0.709   3.574   1.437 -2.0581 -0.7070  0.6203
 8281SOL     OW36478   1.713   1.391  10.590  0.0300 -0.5453  0.1551
 8281SOL    HW136479   1.768   1.425  10.660  1.3739  0.5177 -1.4172
 8281SOL    HW236480   1.637   1.447  10.600  2.2192  2.7964 -1.8407
 8282SOL     OW36481   3.349   4.515   3.647 -0.1981 -0.0305 -0.0162
 8282SOL    HW136482   3.349   4.513   3.551  1.3503  0.1729 -0.0351
 8282SOL    HW236483   3.438   4.551   3.652 -0.4700  0.3002  2.2337
 8283SOL     OW36484   1.533   2.378  10.038  0.2357  0.4977 -0.0623
 8283SOL    HW136485   1.507   2.348   9.952 -1.0170 -2.1677  1.2461
 8283SOL    HW236486   1.590   2.307  10.068 -2.4654 -2.0466 -1.0063
 8284SOL     OW36487   0.177   0.159   3.813  0.4164  0.1922  0.1040
 8284SOL    HW136488   0.212   0.126   3.896 -0.3368  1.4974  0.9438
 8284SOL    HW236489   0.083   0.145   3.824  0.4016 -1.2520 -1.7552
 8285SOL     OW36490   0.644   4.720   6.417 -0.1307 -0.2960  0.0878
 8285SOL    HW136491   0.710   4.695   6.482 -0.5912 -1.6742  0.0376
 8285SOL    HW236492   0.562   4.698   6.461 -0.5385  1.0405 -0.0044
 8286SOL     OW36493   1.405   3.378   3.648  0.0318 -0.2311  0.3397
 8286SOL    HW136494   1.434   3.455   3.697 -0.6656 -0.3394  0.9177
 8286SOL    HW236495   1.479   3.371   3.587 -1.2418 -0.2199 -1.1852
 8287SOL     OW36496   2.412   1.423   5.673 -0.5146 -0.1601 -0.6061
 8287SOL    HW136497   2.434   1.330   5.675 -1.0293 -0.2543  0.2910
 8287SOL    HW236498   2.497   1.466   5.687 -0.5988  0.3724 -1.6629
 8288SOL     OW36499   0.029   2.057  10.270  0.0531 -0.5642  0.3688
 8288SOL    HW136500   0.107   2.005  10.287 -0.1876 -1.0652 -0.0429
 8288SOL    HW236501   0.040   2.086  10.179 -0.0563 -1.2446  0.1418
 8289SOL     OW36502   3.754   0.021   2.748  0.3066 -0.1535  0.0843
 8289SOL    HW136503   3.790   0.104   2.717  1.0288 -0.2116  0.7600
 8289SOL    HW236504   3.740   4.720   2.662  0.8741  3.1830 -1.5256
 8290SOL     OW36505   3.154   0.424   6.415 -1.0202 -0.1305  0.3679
 8290SOL    HW136506   3.174   0.340   6.457  1.8109 -0.2275 -1.1152
 8290SOL    HW236507   3.112   0.391   6.336  3.0611  1.7335 -2.6557
 8291SOL     OW36508   2.895   0.946   6.123  0.5862  0.4178 -0.1530
 8291SOL    HW136509   2.820   1.000   6.148  0.8223  0.5429  0.2767
 8291SOL    HW236510   2.968   1.005   6.139  0.3695  0.3768  0.9809
 8292SOL     OW36511   4.566   1.155   2.738  0.8687 -0.2194  0.2504
 8292SOL    HW136512   4.618   1.115   2.669 -0.0799 -1.7932  0.4363
 8292SOL    HW236513   4.560   1.077   2.794  0.8992 -1.9972 -2.1897
 8293SOL     OW36514   4.052   1.796   3.117  0.4383  0.1859 -0.6793
 8293SOL    HW136515   4.048   1.880   3.072 -0.1518  1.4116  1.6609
 8293SOL    HW236516   4.095   1.734   3.058 -0.1345 -1.0871  0.2528
 8294SOL     OW36517   1.104   3.970   7.037  0.0609 -0.2787  0.1198
 8294SOL    HW136518   1.168   4.036   7.011 -1.5918  1.7550  1.1437
 8294SOL    HW236519   1.057   4.015   7.108  1.4027  0.5500  0.4720
 8295SOL     OW36520   2.188   0.216   5.468 -0.6906  0.0058 -0.3486
 8295SOL    HW136521   2.144   0.132   5.458  1.6820 -1.2699 -0.1227
 8295SOL    HW236522   2.242   0.196   5.544 -0.4709 -1.4342 -0.8798
 8296SOL     OW36523   0.937   1.834   0.408  0.0745  0.1521  0.2379
 8296SOL    HW136524   0.997   1.766   0.439 -0.6724 -0.2877  0.7007
 8296SOL    HW236525   0.853   1.791   0.424 -0.6738  1.2329 -0.8347
 8297SOL     OW36526   0.295   3.435   1.733  0.5133  0.1139  0.0324
 8297SOL    HW136527   0.336   3.493   1.798 -0.0478  0.4752  0.0596
 8297SOL    HW236528   0.201   3.449   1.741  0.6192  0.5365  0.5290
 8298SOL     OW36529   2.093   2.309   4.903  0.0318  0.1714 -0.1894
 8298SOL    HW136530   2.107   2.327   4.810 -1.4023 -0.2365 -0.4844
 8298SOL    HW236531   2.067   2.397   4.931  0.0101  0.3257 -0.7061
 8299SOL     OW36532   4.252   2.243   5.330 -0.0828 -0.7300 -0.1649
 8299SOL    HW136533   4.315   2.172   5.333  0.0794 -0.5649  0.2754
 8299SOL    HW236534   4.184   2.201   5.382 -1.7371  3.3747  1.0181
 8300SOL     OW36535   0.696   3.718   5.462 -0.3262  0.5896 -0.0890
 8300SOL    HW136536   0.656   3.647   5.412  1.8524 -0.8677  0.2428
 8300SOL    HW236537   0.764   3.671   5.511 -1.0247  0.9769  1.2427
 8301SOL     OW36538   0.716   0.520  11.145  0.0266  0.1099  0.1214
 8301SOL    HW136539   0.669   0.503  11.063  1.5208  0.6038 -0.8350
 8301SOL    HW236540   0.759   0.437  11.166  0.5080  0.9065  2.2364
 8302SOL     OW36541   1.879   2.594   7.411 -0.1428 -0.4069  0.3859
 8302SOL    HW136542   1.802   2.581   7.467 -0.8043 -1.8665 -0.8643
 8302SOL    HW236543   1.876   2.508   7.368 -0.3676 -0.3697  0.3304
 8303SOL     OW36544   1.425   2.686   0.748 -0.0155 -0.6359  0.1463
 8303SOL    HW136545   1.368   2.761   0.734 -3.3017 -2.6522  2.5170
 8303SOL    HW236546   1.443   2.663   0.657 -1.2872  1.8875 -0.7429
 8304SOL     OW36547   0.207   1.964   5.116 -1.0741  0.1308 -0.6015
 8304SOL    HW136548   0.198   2.054   5.147  0.1710  0.2588 -0.5837
 8304SOL    HW236549   0.172   1.970   5.027 -0.7687  2.7322 -0.5439
 8305SOL     OW36550   2.821   4.465   4.160  0.1770 -0.5191  0.3297
 8305SOL    HW136551   2.785   4.519   4.230  0.2035 -1.1060  0.7941
 8305SOL    HW236552   2.865   4.396   4.209 -2.1981 -0.5138  2.4074
 8306SOL     OW36553   3.848   0.778  11.982 -0.1767  0.2192 -0.1820
 8306SOL    HW136554   3.916   0.837  11.949 -0.6595 -0.7335 -2.9202
 8306SOL    HW236555   3.858   0.707  11.918  2.0183  1.3547 -1.1084
 8307SOL     OW36556   2.447   2.309   2.151 -0.1295  0.0951 -0.3755
 8307SOL    HW136557   2.473   2.219   2.171 -1.2599  0.3700  2.3288
 8307SOL    HW236558   2.353   2.308   2.169 -0.0992  0.8587 -0.1708
 8308SOL     OW36559   2.946   2.334   5.533 -0.3347  0.3089  0.6497
 8308SOL    HW136560   3.037   2.363   5.541 -0.0210 -0.5288  0.1391
 8308SOL    HW236561   2.928   2.354   5.624 -3.0412 -2.7405  0.8151
 8309SOL     OW36562   1.123   3.664   0.463 -0.0004 -0.5078 -0.5639
 8309SOL    HW136563   1.099   3.660   0.371  1.8722 -0.4213 -1.0602
 8309SOL    HW236564   1.042   3.672   0.514 -0.6948 -2.5630 -1.3670
 8310SOL     OW36565   2.575   2.631  11.474 -0.2578  0.0553  0.0221
 8310SOL    HW136566   2.542   2.693  11.408 -1.7059 -1.0318 -0.2924
 8310SOL    HW236567   2.665   2.663  11.480 -0.2997  0.2382 -0.3507
 8311SOL     OW36568   0.301   4.016   3.615 -0.0712 -0.2082  0.6309
 8311SOL    HW136569   0.265   4.062   3.691  0.7720 -0.7612  1.3694
 8311SOL    HW236570   0.279   3.927   3.644  0.2962 -0.6441 -0.4237
 8312SOL     OW36571   3.588   2.807   0.840 -0.0238 -1.0006 -0.6921
 8312SOL    HW136572   3.502   2.835   0.871  0.2348 -1.5987  0.5731
 8312SOL    HW236573   3.640   2.810   0.921  1.2934 -0.9447 -1.5403
 8313SOL     OW36574   4.208   2.162   9.058  0.2064  0.0427  0.1279
 8313SOL    HW136575   4.233   2.209   9.138 -0.3190 -0.2060  0.4366
 8313SOL    HW236576   4.295   2.138   9.025  0.1679  0.4984 -0.2997
 8314SOL     OW36577   2.737   0.645   3.926 -0.1591 -0.1093  0.0844
 8314SOL    HW136578   2.729   0.574   3.863  0.1064  0.0186 -0.0937
 8314SOL    HW236579   2.783   0.602   3.999  1.0512 -2.0002 -1.7899
 8315SOL     OW36580   4.658   2.749  11.135  0.3763 -0.4301 -0.3393
 8315SOL    HW136581   4.682   2.670  11.184 -1.5095 -1.5185 -1.1560
 8315SOL    HW236582   4.572   2.765  11.174  0.5562  1.1420 -0.6103
 8316SOL     OW36583   3.299   0.759   6.578  0.4649 -0.1844 -0.0671
 8316SOL    HW136584   3.242   0.812   6.633  1.6218  1.4776 -0.4551
 8316SOL    HW236585   3.343   0.714   6.650  0.6726 -0.8691 -0.6245
 8317SOL     OW36586   2.882   1.643   7.845 -0.3844 -0.0999 -0.2725
 8317SOL    HW136587   2.809   1.592   7.811  0.1511 -0.0280 -1.5272
 8317SOL    HW236588   2.937   1.575   7.883 -0.2726 -0.0733 -0.3840
 8318SOL     OW36589   1.629   3.429   2.491 -0.8296 -0.3750 -0.5412
 8318SOL    HW136590   1.631   3.463   2.581 -3.2098  1.0772 -1.0297
 8318SOL    HW236591   1.625   3.514   2.448 -1.6538  0.2913  0.8221
 8319SOL     OW36592   0.895   0.342   8.417 -0.6275  0.0135 -0.0962
 8319SOL    HW136593   0.881   0.248   8.426 -1.2778  0.0918 -0.2770
 8319SOL    HW236594   0.812   0.370   8.380 -1.0218 -2.2839 -0.9294
 8320SOL     OW36595   3.218   0.164   2.394 -0.2828  0.2980 -0.4436
 8320SOL    HW136596   3.304   0.148   2.434 -0.0965 -1.4119 -1.5182
 8320SOL    HW236597   3.213   0.073   2.363  0.0422 -0.0863  0.6203
 8321SOL     OW36598   2.823   1.308   1.220 -0.1003 -0.5541 -0.5786
 8321SOL    HW136599   2.893   1.243   1.214 -0.1071 -0.6045 -0.0456
 8321SOL    HW236600   2.766   1.269   1.286 -0.5170  3.3731  1.3419
 8322SOL     OW36601   4.605   2.785   2.000  0.2642  0.8229 -0.6617
 8322SOL    HW136602   4.531   2.826   1.956 -0.7742 -1.9386 -1.4609
 8322SOL    HW236603   4.569   2.793   2.089  0.7796 -1.7632 -0.2272
 8323SOL     OW36604   1.581   3.852   3.301  0.4853 -0.1665 -0.9195
 8323SOL    HW136605   1.623   3.780   3.348 -0.6477 -1.5196 -1.9536
 8323SOL    HW236606   1.582   3.921   3.368  1.8323  0.9397 -2.0904
 8324SOL     OW36607   0.390   2.874   4.612 -1.0103  0.4154  0.1438
 8324SOL    HW136608   0.337   2.796   4.597 -0.2794  0.2092 -1.4553
 8324SOL    HW236609   0.403   2.903   4.522 -1.2788 -0.0365 -0.0429
 8325SOL     OW36610   0.992   3.931   3.272  0.1315 -0.1666  0.1903
 8325SOL    HW136611   0.903   3.902   3.252 -0.9130  1.8744  1.7891
 8325SOL    HW236612   1.021   3.855   3.322  0.3129 -0.8914 -1.0045
 8326SOL     OW36613   1.300   3.875   6.358 -0.7577 -0.3553 -0.2271
 8326SOL    HW136614   1.209   3.892   6.331  0.3657  0.7949 -3.2690
 8326SOL    HW236615   1.303   3.780   6.367 -0.2340 -0.4373 -1.2538
 8327SOL     OW36616   2.097   3.037   1.962 -0.0729 -0.2764 -0.2989
 8327SOL    HW136617   2.004   3.057   1.971 -0.0658 -0.1130 -0.5963
 8327SOL    HW236618   2.114   3.041   2.056 -0.4118 -2.3063 -0.1525
 8328SOL     OW36619   3.908   3.862   9.074  0.4344 -0.2216 -0.3700
 8328SOL    HW136620   3.937   3.886   8.986  2.3749  0.5033  0.4596
 8328SOL    HW236621   3.816   3.837   9.064  0.6872 -1.7695  1.0918
 8329SOL     OW36622   3.609   0.684  11.005 -0.2762  0.1041 -0.1841
 8329SOL    HW136623   3.674   0.754  11.005 -0.6105  0.4159 -0.2312
 8329SOL    HW236624   3.612   0.658  10.913  0.7523  0.8146 -0.3474
 8330SOL     OW36625   0.903   3.461   5.161 -0.2611  0.0706 -0.6777
 8330SOL    HW136626   0.892   3.371   5.131  0.5281  0.0922 -1.0513
 8330SOL    HW236627   0.934   3.451   5.251  1.2565 -0.6930 -1.2801
 8331SOL     OW36628   3.900   3.019  12.153  0.0166 -0.1853 -0.8258
 8331SOL    HW136629   3.916   3.012  12.248 -0.4873  0.8075 -0.6737
 8331SOL    HW236630   3.920   3.108  12.127 -1.0604 -1.3995 -5.8071
 8332SOL     OW36631   0.773   3.893   5.010  0.3597 -0.2850 -0.0242
 8332SOL    HW136632   0.829   3.869   4.936  1.3033  1.7423  0.0336
 8332SOL    HW236633   0.690   3.876   4.964 -0.6276 -1.1175  2.0539
 8333SOL     OW36634   0.021   1.329   1.804 -0.2064  0.2734  0.0537
 8333SOL    HW136635   4.739   1.320   1.711  0.2430  0.1435 -0.0355
 8333SOL    HW236636   0.115   1.311   1.807 -0.5643 -1.3172  1.7629
 8334SOL     OW36637   2.309   1.705   2.691  0.4250  0.2382  0.2333
 8334SOL    HW136638   2.391   1.656   2.701  0.7147  1.1369  2.2459
 8334SOL    HW236639   2.255   1.628   2.674 -2.3794  2.5704 -1.4455
 8335SOL     OW36640   2.536   3.021   6.050  0.0637 -0.3697 -0.2180
 8335SOL    HW136641   2.618   3.055   6.014 -1.1295  2.2633 -0.5164
 8335SOL    HW236642   2.527   2.945   5.993 -1.1318 -0.0820 -0.4329
 8336SOL     OW36643   4.131   2.936   9.930 -0.0614 -0.0325  0.2900
 8336SOL    HW136644   4.125   2.841   9.940  3.3867 -0.4478 -1.2208
 8336SOL    HW236645   4.069   2.948   9.858  0.6887 -1.0913 -0.5362
 8337SOL     OW36646   0.573   2.459  15.646  0.3096  0.1770  0.4508
 8337SOL    HW136647   0.536   2.391  15.703 -2.2436  1.2980  0.1083
 8337SOL    HW236648   0.649   2.489  15.697  0.6295  0.7886 -0.3945
 8338SOL     OW36649   4.285   2.482   9.272  0.6425  0.4466  0.1635
 8338SOL    HW136650   4.280   2.509   9.180 -0.5913 -1.4765 -0.3234
 8338SOL    HW236651   4.343   2.548   9.311  2.4911 -0.4699 -1.0161
 8339SOL     OW36652   2.849   1.567   7.490 -0.2004  0.6217  0.4479
 8339SOL    HW136653   2.903   1.491   7.509 -2.2547 -0.4574  1.9519
 8339SOL    HW236654   2.811   1.582   7.576 -1.9818  1.0630 -0.4077
 8340SOL     OW36655   3.778   2.397   0.324 -0.2413  0.0315 -0.5128
 8340SOL    HW136656   3.755   2.487   0.348  2.5512  0.5201  0.3266
 8340SOL    HW236657   3.735   2.338   0.386  1.3922 -1.6637 -0.9640
 8341SOL     OW36658   3.537   4.453   3.994  0.0756 -0.8127 -0.8283
 8341SOL    HW136659   3.614   4.424   4.042 -1.2134  0.2590  1.9000
 8341SOL    HW236660   3.470   4.451   4.063  1.3264  0.4401  0.4272
 8342SOL     OW36661   3.049   4.004   2.919 -0.3826  0.6282 -0.1446
 8342SOL    HW136662   3.090   3.918   2.930 -0.1749  0.7453 -0.0084
 8342SOL    HW236663   3.118   4.065   2.945  2.0704 -2.0152 -0.5551
 8343SOL     OW36664   2.630   1.741   4.571  0.6455 -0.0901  0.5297
 8343SOL    HW136665   2.646   1.824   4.615 -2.5766  1.5194 -1.3687
 8343SOL    HW236666   2.658   1.667   4.626  2.6632  1.2371  1.2800
 8344SOL     OW36667   2.083   2.994   0.385 -0.2130 -0.3048  0.0168
 8344SOL    HW136668   2.120   2.996   0.473  1.3631 -0.3022 -0.6356
 8344SOL    HW236669   2.033   3.076   0.386 -0.8540 -0.7079  0.4741
 8345SOL     OW36670   4.101   4.475   8.641 -0.2296  0.4767 -0.0821
 8345SOL    HW136671   4.108   4.380   8.632  1.3844  0.6175 -0.2954
 8345SOL    HW236672   4.193   4.502   8.634  0.2751 -1.3587 -0.5546
 8346SOL     OW36673   1.666   0.947   2.802  0.0600 -0.2225 -0.0398
 8346SOL    HW136674   1.635   0.860   2.774 -1.6275  0.3025  0.2198
 8346SOL    HW236675   1.620   1.003   2.740 -0.7298  0.5366  1.2365
 8347SOL     OW36676   4.259   0.361   6.347 -0.0964  0.7078  0.2549
 8347SOL    HW136677   4.274   0.426   6.416 -0.6204  0.6514  0.4193
 8347SOL    HW236678   4.346   0.337   6.314 -0.1658  1.6017 -0.5878
 8348SOL     OW36679   3.746   3.309   5.483  0.3559 -0.4577 -0.6446
 8348SOL    HW136680   3.737   3.225   5.527  0.0885  0.8647  1.8512
 8348SOL    HW236681   3.835   3.337   5.505 -0.2105  0.2466  0.7592
 8349SOL     OW36682   4.317   0.091   7.405  0.2190  0.2114 -0.2318
 8349SOL    HW136683   4.395   0.045   7.435  0.8750  1.0194 -0.6806
 8349SOL    HW236684   4.345   0.180   7.427 -2.1548  0.7623  0.5431
 8350SOL     OW36685   4.021   1.029   8.651  0.3640 -0.3560 -0.1492
 8350SOL    HW136686   3.934   1.002   8.620 -0.5264  0.9786  1.1541
 8350SOL    HW236687   4.062   0.952   8.612 -1.4187 -1.3367 -0.1062
 8351SOL     OW36688   2.767   4.525  11.436  0.1709 -0.3058 -0.3801
 8351SOL    HW136689   2.730   4.591  11.377 -1.1002 -0.7660 -0.0889
 8351SOL    HW236690   2.782   4.454  11.373  1.5308 -0.4728  0.1303
 8352SOL     OW36691   1.898   1.244  15.136 -0.1687 -0.0379  0.2257
 8352SOL    HW136692   1.900   1.155  15.101  0.3910 -0.8372  2.2506
 8352SOL    HW236693   1.816   1.251  15.184  0.1020 -1.6358  0.9424
 8353SOL     OW36694   2.341   0.912   1.360 -0.9526 -0.0213  0.4776
 8353SOL    HW136695   2.373   0.928   1.271  0.6959 -1.6908  0.7592
 8353SOL    HW236696   2.268   0.853   1.341  1.1869 -2.5011 -0.1033
 8354SOL     OW36697   0.520   0.126   7.400 -0.9037 -0.1232  0.3898
 8354SOL    HW136698   0.448   0.180   7.432 -0.9228 -0.5601  1.0852
 8354SOL    HW236699   0.526   0.054   7.464 -0.3594  0.0683  0.5531
 8355SOL     OW36700   3.181   0.358  10.045 -0.0456 -0.4479 -0.1474
 8355SOL    HW136701   3.108   0.326   9.990 -1.5427 -0.1365  1.6714
 8355SOL    HW236702   3.149   0.320  10.127  0.6131  0.2441  0.4280
 8356SOL     OW36703   2.453   2.208   6.536  0.3284  0.6332  0.1655
 8356SOL    HW136704   2.375   2.160   6.561  2.3016 -1.5568  2.0585
 8356SOL    HW236705   2.476   2.170   6.451 -1.5919  0.9864 -0.5003
 8357SOL     OW36706   0.843   2.061   7.878  0.6019  0.4790  0.6498
 8357SOL    HW136707   0.833   1.966   7.877 -0.8708  0.6203  2.3888
 8357SOL    HW236708   0.924   2.083   7.832 -0.8219  1.6194 -1.3447
 8358SOL     OW36709   3.834   3.493   4.022 -0.0148  0.1703  0.4385
 8358SOL    HW136710   3.766   3.551   3.986  0.4949  0.6871  0.3090
 8358SOL    HW236711   3.867   3.552   4.090  1.3283 -1.1758  0.9445
 8359SOL     OW36712   2.276   2.654  13.113 -0.2288 -1.1541  0.5624
 8359SOL    HW136713   2.342   2.586  13.100  0.7206 -0.5292  2.1088
 8359SOL    HW236714   2.282   2.690  13.024  1.9040 -0.0545  1.1681
 8360SOL     OW36715   0.857   1.175   6.636  0.2570  0.1440 -0.4525
 8360SOL    HW136716   0.897   1.245   6.584 -1.4752  0.7991 -0.8834
 8360SOL    HW236717   0.903   1.103   6.594  1.7632 -0.2857  1.8882
 8361SOL     OW36718   2.865   2.290   2.897 -0.2701  0.2727 -0.0133
 8361SOL    HW136719   2.785   2.283   2.845 -0.9525  1.5607  0.8640
 8361SOL    HW236720   2.882   2.198   2.916  0.0086  0.3925  0.3193
 8362SOL     OW36721   1.227   4.598   9.109 -0.0566  0.1724 -0.1866
 8362SOL    HW136722   1.136   4.580   9.131  0.1652 -0.7215  0.0101
 8362SOL    HW236723   1.234   4.694   9.114 -0.2280  0.1239  1.0898
 8363SOL     OW36724   1.381   4.228   4.848  0.1833 -0.0642 -0.4681
 8363SOL    HW136725   1.309   4.269   4.895 -0.7151 -0.5352 -1.4358
 8363SOL    HW236726   1.383   4.283   4.769  0.3854 -0.0023 -0.4199
 8364SOL     OW36727   2.932   4.333  10.158  0.1010  0.0852  0.1095
 8364SOL    HW136728   2.993   4.396  10.195 -0.9737  0.5555  1.1017
 8364SOL    HW236729   2.878   4.308  10.234  1.0318  2.3571  1.5114
 8365SOL     OW36730   0.802   1.564   5.417  0.4566 -0.4285  0.3012
 8365SOL    HW136731   0.717   1.600   5.393  1.4937  0.1177 -2.4368
 8365SOL    HW236732   0.775   1.472   5.420 -2.5240  0.4017 -0.9589
 8366SOL     OW36733   3.610   3.441  17.393  0.0504 -0.2930  0.5262
 8366SOL    HW136734   3.582   3.349  17.398  0.5281 -0.4190  0.9139
 8366SOL    HW236735   3.585   3.463  17.483 -0.0153 -0.6458  0.5945
 8367SOL     OW36736   3.932   1.540   7.364 -0.1582 -0.8932  0.0486
 8367SOL    HW136737   3.933   1.452   7.326 -1.4030 -1.6135  1.6602
 8367SOL    HW236738   3.894   1.577   7.284 -0.9340  0.5197  1.0724
 8368SOL     OW36739   4.107   1.941   2.037  0.1613 -0.1815  0.2380
 8368SOL    HW136740   4.192   1.902   2.018  0.4740  0.6301 -0.0515
 8368SOL    HW236741   4.123   1.973   2.126  0.1303 -1.6714  0.7716
 8369SOL     OW36742   0.130   3.075   5.055 -0.1072 -0.0468  0.2306
 8369SOL    HW136743   0.189   3.026   4.998 -0.0107  1.7581 -1.1896
 8369SOL    HW236744   0.098   3.007   5.115 -2.0771  1.2452  0.6552
 8370SOL     OW36745   1.294   3.282  16.007 -0.1918 -0.3753 -0.0261
 8370SOL    HW136746   1.236   3.234  15.947  0.0441  1.6667 -1.8882
 8370SOL    HW236747   1.346   3.211  16.044  0.1436 -0.2745 -0.3002
 8371SOL     OW36748   2.106   2.782   4.006  0.1712 -0.2520  0.2832
 8371SOL    HW136749   2.200   2.799   4.013  0.4629 -1.2413 -1.2208
 8371SOL    HW236750   2.105   2.686   4.009  1.7712 -0.3608 -2.9333
 8372SOL     OW36751   1.148   0.597  11.596 -0.3699 -0.2644  0.3332
 8372SOL    HW136752   1.192   0.673  11.633 -0.8399 -0.0545  0.4510
 8372SOL    HW236753   1.214   0.562  11.536 -0.8881 -1.1134  0.2535
 8373SOL     OW36754   2.079   0.714   6.157  0.3849  0.4307 -0.2174
 8373SOL    HW136755   2.139   0.655   6.113  0.3254  0.9673 -1.0024
 8373SOL    HW236756   2.110   0.800   6.129 -2.0747  1.8521  1.4175
 8374SOL     OW36757   2.724   3.840   8.907 -0.1370 -0.8310  0.0332
 8374SOL    HW136758   2.763   3.854   8.994  0.3748  0.2582 -0.3771
 8374SOL    HW236759   2.634   3.829   8.939 -1.1288  2.0503 -1.8206
 8375SOL     OW36760   3.570   2.295   8.373 -0.0008  0.9624 -0.2021
 8375SOL    HW136761   3.546   2.380   8.337 -0.1946  0.4649 -1.2360
 8375SOL    HW236762   3.569   2.317   8.467 -1.8633 -0.1176  0.0338
 8376SOL     OW36763   4.688   1.055   5.641 -0.0902  0.5321 -0.1539
 8376SOL    HW136764   4.671   1.024   5.552  1.3674 -0.4611 -0.0820
 8376SOL    HW236765   4.657   0.978   5.687 -0.3768  0.0448 -1.1500
 8377SOL     OW36766   3.513   2.098   3.006 -0.1737  0.2887  0.0177
 8377SOL    HW136767   3.423   2.068   3.023  0.8460 -1.4890  2.3375
 8377SOL    HW236768   3.541   2.103   3.097  1.2493  1.4865 -0.4919
 8378SOL     OW36769   2.859   4.156  16.787 -0.2007 -0.1564  0.6327
 8378SOL    HW136770   2.903   4.102  16.852 -0.9542  0.4362  1.6379
 8378SOL    HW236771   2.873   4.241  16.828  1.3470  0.4841 -1.2082
 8379SOL     OW36772   1.313   4.201  16.967 -0.0648  0.0453 -0.0927
 8379SOL    HW136773   1.292   4.150  17.045 -1.7865  1.6739  0.5030
 8379SOL    HW236774   1.403   4.171  16.956 -0.3748 -1.7063  2.2743
 8380SOL     OW36775   2.368   3.947   6.428 -0.4956 -0.3401 -0.0250
 8380SOL    HW136776   2.416   4.007   6.486  2.6590  0.2510 -3.2677
 8380SOL    HW236777   2.440   3.927   6.368  0.1638  4.0065 -0.6767
 8381SOL     OW36778   3.173   1.919  15.308  0.2380  0.6050  0.1505
 8381SOL    HW136779   3.201   1.986  15.372  0.3983  0.0137  0.6983
 8381SOL    HW236780   3.253   1.905  15.258 -0.6331  1.6308 -1.5529
 8382SOL     OW36781   0.531   4.329   7.417  0.0513  0.4055  0.5535
 8382SOL    HW136782   0.557   4.310   7.327  1.2966  0.5932  0.8734
 8382SOL    HW236783   0.512   4.241   7.451 -0.9733  0.4980  0.2280
 8383SOL     OW36784   3.895   1.176   1.714  0.3285 -0.1835  0.4534
 8383SOL    HW136785   3.873   1.229   1.637  0.1925  0.7006  1.0986
 8383SOL    HW236786   3.814   1.129   1.729  0.3818  0.5479  3.1836
 8384SOL     OW36787   2.453   4.409   3.721  0.0123 -0.3620 -0.2336
 8384SOL    HW136788   2.529   4.464   3.737 -2.9766  3.4591  0.8907
 8384SOL    HW236789   2.403   4.439   3.645 -2.2511 -1.5493  0.7698
 8385SOL     OW36790   1.509   1.689  16.569 -0.2953 -0.1076  0.1151
 8385SOL    HW136791   1.466   1.604  16.571  1.3154 -0.9526 -0.4598
 8385SOL    HW236792   1.511   1.716  16.477 -1.1201 -0.4678 -0.0045
 8386SOL     OW36793   1.849   3.299   6.364 -0.4130 -0.2587  0.5374
 8386SOL    HW136794   1.854   3.381   6.316  0.7959  0.2815  1.5810
 8386SOL    HW236795   1.761   3.269   6.343  0.1996 -1.3944 -0.3923
 8387SOL     OW36796   3.200   3.601  14.814  0.1206  0.1342 -0.2581
 8387SOL    HW136797   3.268   3.537  14.791 -0.4075 -1.8066  3.5514
 8387SOL    HW236798   3.247   3.679  14.785 -1.6959  0.7210 -1.5770
 8388SOL     OW36799   1.642   4.061  11.260 -0.5282 -0.3695 -0.1369
 8388SOL    HW136800   1.704   4.041  11.189 -2.3395 -1.0764 -1.5272
 8388SOL    HW236801   1.687   4.002  11.320 -0.8637  0.4014  0.8545
 8389SOL     OW36802   1.008   0.172  13.010  0.4406  0.4428 -0.0159
 8389SOL    HW136803   0.930   0.209  13.052  0.5172 -1.6229  1.9607
 8389SOL    HW236804   1.075   0.238  13.024  2.6439 -1.4907 -1.4063
 8390SOL     OW36805   2.739   1.124  12.516 -0.2981 -0.1999  0.4507
 8390SOL    HW136806   2.802   1.055  12.536 -0.4785 -0.4203  0.2571
 8390SOL    HW236807   2.662   1.081  12.480  0.1388 -0.6584  0.0658
 8391SOL     OW36808   1.923   2.646  15.404  0.2635 -0.2041  0.2127
 8391SOL    HW136809   1.864   2.648  15.480 -0.5621 -0.5191 -0.4125
 8391SOL    HW236810   1.998   2.594  15.432  1.6243  1.5659 -0.1869
 8392SOL     OW36811   1.176   0.555   5.660  0.6769  0.4509 -0.5053
 8392SOL    HW136812   1.143   0.558   5.571 -2.5301 -0.0183  0.6495
 8392SOL    HW236813   1.270   0.568   5.643  0.2770  0.5942 -2.5471
 8393SOL     OW36814   1.739   1.495   5.506 -0.1737 -0.0728  0.0136
 8393SOL    HW136815   1.783   1.478   5.423 -2.4077  1.3379 -1.4291
 8393SOL    HW236816   1.658   1.444   5.507 -0.4016  0.2827 -0.9674
 8394SOL     OW36817   4.675   3.465   2.968  0.6517 -0.9449  0.1932
 8394SOL    HW136818   4.609   3.397   2.957 -0.1291 -0.2516  0.5996
 8394SOL    HW236819   0.007   3.435   2.911 -0.7719 -1.4485 -1.3206
 8395SOL     OW36820   4.694   3.661  14.432 -0.0036  0.4150 -0.2913
 8395SOL    HW136821   4.659   3.628  14.515 -1.4030 -0.3119 -1.1714
 8395SOL    HW236822   0.026   3.600  14.414  1.7367  2.1630  0.6088
 8396SOL     OW36823   1.332   4.055  11.730  0.1794  0.0036  0.0799
 8396SOL    HW136824   1.390   4.129  11.717  0.4095  0.1358  1.9182
 8396SOL    HW236825   1.333   4.069  11.825 -0.8708 -0.1869  0.1295
 8397SOL     OW36826   0.298   1.619  15.477  0.1235 -0.3471 -0.1054
 8397SOL    HW136827   0.367   1.638  15.413  0.0096 -0.1448 -0.1660
 8397SOL    HW236828   0.218   1.615  15.425 -0.4092  0.7067  0.6536
 8398SOL     OW36829   4.581   3.568  14.656  0.2711 -0.0540 -0.0584
 8398SOL    HW136830   4.517   3.512  14.611  0.3180  0.7387 -1.1037
 8398SOL    HW236831   4.525   3.620  14.713  0.3490  1.1467 -1.0826
 8399SOL     OW36832   0.510   2.819   2.361 -0.3824  0.2965 -0.2957
 8399SOL    HW136833   0.535   2.766   2.436 -1.7322 -1.1107 -0.8481
 8399SOL    HW236834   0.479   2.754   2.298 -0.3526 -1.2356  1.2697
 8400SOL     OW36835   2.234   3.088  13.282  0.1016  0.5921 -0.2936
 8400SOL    HW136836   2.294   3.159  13.262  2.1884 -0.8967  0.5796
 8400SOL    HW236837   2.262   3.023  13.218  0.4798  0.4563  0.0059
 8401SOL     OW36838   1.111   3.355  12.215 -0.2426 -0.3834 -0.2752
 8401SOL    HW136839   1.097   3.260  12.218 -0.3233 -0.3561  0.1383
 8401SOL    HW236840   1.192   3.360  12.164 -0.1646 -1.1094 -0.2243
 8402SOL     OW36841   2.419   3.491   5.506  0.5096 -0.2102  0.2578
 8402SOL    HW136842   2.360   3.551   5.551 -0.1294 -1.5646  1.2070
 8402SOL    HW236843   2.416   3.519   5.414  2.7704 -0.8641 -0.0211
 8403SOL     OW36844   2.927   3.987   9.496 -0.5244  0.1756  0.0817
 8403SOL    HW136845   2.906   4.080   9.503 -0.7254  0.2379 -1.3700
 8403SOL    HW236846   2.961   3.971   9.584 -2.5317  1.0666  1.0118
 8404SOL     OW36847   3.987   4.548   3.848 -0.1650 -0.5421  0.4982
 8404SOL    HW136848   3.958   4.569   3.759  3.0927 -0.7270 -0.6010
 8404SOL    HW236849   4.067   4.600   3.848  0.4575 -1.5022  0.0664
 8405SOL     OW36850   4.127   1.584   2.448 -0.0079  0.0665  0.8018
 8405SOL    HW136851   4.171   1.523   2.388  2.9496  1.6162  1.3898
 8405SOL    HW236852   4.037   1.554   2.441  0.2894 -0.4652 -0.7978
 8406SOL     OW36853   2.578   3.870   4.994  0.0150  0.0934  0.2991
 8406SOL    HW136854   2.547   3.799   4.938  1.7899 -0.2675 -0.2259
 8406SOL    HW236855   2.670   3.845   5.003  0.4924  1.4449 -0.9153
 8407SOL     OW36856   1.045   1.998   2.395 -0.1081  0.5521 -0.2209
 8407SOL    HW136857   0.982   2.054   2.441  0.4541  0.0223  1.1732
 8407SOL    HW236858   1.113   1.986   2.461 -1.3385  0.6879  1.0683
 8408SOL     OW36859   0.302   1.165   6.882 -0.4755  0.2370 -0.0539
 8408SOL    HW136860   0.219   1.120   6.866 -0.0872  0.7089 -3.3753
 8408SOL    HW236861   0.285   1.252   6.847 -1.4157 -0.0210 -0.2454
 8409SOL     OW36862   1.134   4.625   2.675  0.7489  0.0546 -0.0815
 8409SOL    HW136863   1.190   4.686   2.628 -0.4403 -0.1148 -1.7254
 8409SOL    HW236864   1.076   4.684   2.723 -1.4819  0.5242 -3.3038
 8410SOL     OW36865   0.931   1.457   8.555  0.0659  0.0517  0.9962
 8410SOL    HW136866   0.859   1.429   8.498  1.3764 -1.4009  0.0731
 8410SOL    HW236867   0.888   1.464   8.640 -1.5432 -0.1392  0.1983
 8411SOL     OW36868   3.012   0.267   6.234  0.4849  0.1519  0.2543
 8411SOL    HW136869   3.036   0.291   6.145  2.3918 -0.3950  0.6107
 8411SOL    HW236870   3.064   0.187   6.239 -0.5924 -0.5715 -0.3800
 8412SOL     OW36871   4.582   0.552   8.228 -0.5417  0.5338  0.4120
 8412SOL    HW136872   4.641   0.482   8.256  0.2269 -0.0085 -2.5896
 8412SOL    HW236873   4.607   0.542   8.136  6.2703  1.4167  2.1692
 8413SOL     OW36874   0.320   0.881  16.963  0.3528 -0.1826 -0.7045
 8413SOL    HW136875   0.336   0.966  17.005  0.9754 -1.9614  2.7201
 8413SOL    HW236876   0.378   0.822  17.011  1.7478 -0.1638 -2.3981
 8414SOL     OW36877   3.347   0.184   7.340 -0.0759  0.0396  0.6808
 8414SOL    HW136878   3.374   0.126   7.268  2.0811  0.5944  1.0613
 8414SOL    HW236879   3.415   0.186   7.407 -0.8287  1.1145  1.4051
 8415SOL     OW36880   0.630   0.493   4.969 -0.7406 -0.0235 -0.5477
 8415SOL    HW136881   0.684   0.442   5.029 -1.1968 -0.4520 -0.5070
 8415SOL    HW236882   0.543   0.455   4.977 -0.6648 -0.1141 -0.1718
 8416SOL     OW36883   0.051   2.067  17.388  0.4747 -0.5609 -0.9380
 8416SOL    HW136884   0.081   1.991  17.438  0.1074  1.2778  2.0804
 8416SOL    HW236885   4.698   2.045  17.399  0.9257 -0.9013  2.2538
 8417SOL     OW36886   4.209   1.277   2.443 -0.3907  0.1883 -0.1655
 8417SOL    HW136887   4.137   1.223   2.409  1.2998 -2.4585  0.4820
 8417SOL    HW236888   4.262   1.295   2.365 -0.1371 -1.4324 -0.3614
 8418SOL     OW36889   1.451   0.498  13.040 -0.0760  0.0174  0.2988
 8418SOL    HW136890   1.509   0.485  13.115 -0.0006 -1.2831  0.0051
 8418SOL    HW236891   1.388   0.429  13.059  0.7438 -0.6515  0.5640
 8419SOL     OW36892   4.359   1.677   0.422 -0.0961  0.0617  0.0476
 8419SOL    HW136893   4.270   1.701   0.395  0.3439  1.1587 -0.4168
 8419SOL    HW236894   4.366   1.594   0.376 -2.5809 -0.2709  0.2527
 8420SOL     OW36895   3.147   0.467   6.774  0.6300 -0.1738  0.1160
 8420SOL    HW136896   3.189   0.450   6.859 -0.2443 -0.3946  0.5076
 8420SOL    HW236897   3.219   0.524   6.746 -1.9242  2.5003 -0.9898
 8421SOL     OW36898   1.341   3.982   5.989  0.1661  0.2309  0.1838
 8421SOL    HW136899   1.265   4.040   5.984 -0.5760 -0.6734  1.0042
 8421SOL    HW236900   1.387   4.036   6.053  0.4815  1.2777 -0.9063
 8422SOL     OW36901   0.487   1.563   0.768 -0.1474  0.3444 -0.2698
 8422SOL    HW136902   0.449   1.648   0.790 -0.2452  1.2524 -3.9658
 8422SOL    HW236903   0.457   1.550   0.678 -0.7038  1.0452 -0.1815
 8423SOL     OW36904   0.255   3.292   0.580  0.1290  0.5064 -0.1849
 8423SOL    HW136905   0.201   3.369   0.601  0.2138  0.5093  0.0229
 8423SOL    HW236906   0.227   3.230   0.648 -0.4977  0.8192 -0.1540
 8424SOL     OW36907   3.586   2.122   3.614 -0.5734 -0.6774 -0.4567
 8424SOL    HW136908   3.630   2.179   3.551  0.2143 -1.0649 -0.2533
 8424SOL    HW236909   3.650   2.051   3.613 -1.0681 -1.1072 -1.4357
 8425SOL     OW36910   0.544   1.773   0.209  0.2656 -0.4908  0.0767
 8425SOL    HW136911   0.580   1.705   0.266  1.2136 -1.9746 -2.3332
 8425SOL    HW236912   0.476   1.813   0.263 -0.6822 -0.7924 -0.9069
 8426SOL     OW36913   0.485   1.276  14.833  0.0139  0.1304 -0.4797
 8426SOL    HW136914   0.408   1.242  14.880 -0.1614 -0.6730 -1.3557
 8426SOL    HW236915   0.505   1.205  14.773 -0.9154  1.8428 -2.8364
 8427SOL     OW36916   0.331   0.791   8.021  0.6095 -0.1718 -0.5943
 8427SOL    HW136917   0.252   0.834   8.054  2.2293  2.9144 -0.7508
 8427SOL    HW236918   0.403   0.845   8.056 -0.1051  0.0557  0.5188
 8428SOL     OW36919   0.195   0.224   6.582 -0.0673  0.2064  0.1045
 8428SOL    HW136920   0.181   0.221   6.676  1.5941 -1.8932  0.2637
 8428SOL    HW236921   0.290   0.227   6.569 -0.0191 -0.1216  0.4064
 8429SOL     OW36922   1.574   3.617   2.744  0.1156  0.1116 -0.2083
 8429SOL    HW136923   1.645   3.680   2.734 -0.1607 -0.0371 -2.8811
 8429SOL    HW236924   1.495   3.643   2.697  0.2166  0.0818 -0.3929
 8430SOL     OW36925   4.714   1.979   8.984  0.0677  0.1326 -0.0285
 8430SOL    HW136926   0.062   1.961   9.021  0.0304  2.8354  1.3924
 8430SOL    HW236927   4.713   2.072   8.962 -3.1457  0.6078  2.0077
 8431SOL     OW36928   3.808   1.940   0.544  0.3524  0.0447 -0.0599
 8431SOL    HW136929   3.841   2.000   0.610  2.1641 -0.5072 -0.4568
 8431SOL    HW236930   3.839   1.977   0.461 -0.9020  0.9782 -0.1137
 8432SOL     OW36931   2.408   3.899   2.771  0.5108  0.3785  0.0082
 8432SOL    HW136932   2.475   3.866   2.830 -1.9623 -2.7303  1.0973
 8432SOL    HW236933   2.372   3.819   2.731  2.7800 -0.9187  0.5427
 8433SOL     OW36934   0.025   0.011   2.063  0.0093  0.3245  0.4455
 8433SOL    HW136935   0.088   4.686   2.097 -0.9694 -1.0032 -0.1784
 8433SOL    HW236936   4.715   0.053   2.133 -0.2506 -1.7449  1.5106
 8434SOL     OW36937   3.955   2.555   6.486  0.2141  0.4834 -0.4636
 8434SOL    HW136938   3.863   2.574   6.465 -0.5876 -1.6464  0.9964
 8434SOL    HW236939   3.958   2.599   6.571 -1.4570 -1.8255  0.8049
 8435SOL     OW36940   2.922   2.480  12.872  0.5941 -0.5324 -0.5576
 8435SOL    HW136941   2.906   2.403  12.926  0.2504 -0.0294  0.0542
 8435SOL    HW236942   3.013   2.494  12.897 -0.1555  1.8787  0.7317
 8436SOL     OW36943   1.691   4.360   8.097  0.3110  0.2596  0.5585
 8436SOL    HW136944   1.764   4.400   8.144 -1.5466  3.0433  1.0968
 8436SOL    HW236945   1.668   4.286   8.152  1.3933 -1.7934 -1.7641
 8437SOL     OW36946   0.588   1.988   7.074  0.0508 -0.0207 -0.3172
 8437SOL    HW136947   0.602   2.064   7.017 -0.2412 -0.6005 -1.1580
 8437SOL    HW236948   0.658   1.935   7.038  1.1723  0.4030  1.2753
 8438SOL     OW36949   2.203   0.903   9.621  0.0056 -0.0112  0.0677
 8438SOL    HW136950   2.226   0.858   9.702 -0.0314 -1.9240 -0.9976
 8438SOL    HW236951   2.159   0.983   9.650 -0.3626  0.4453 -1.8002
 8439SOL     OW36952   3.864   2.875   8.989  0.2577 -0.1788 -0.2261
 8439SOL    HW136953   3.848   2.830   9.071  3.3655  1.1066  1.0773
 8439SOL    HW236954   3.956   2.857   8.971  0.0171 -0.3255 -1.3392
 8440SOL     OW36955   1.969   2.338   6.964  0.2087  0.2665 -0.0823
 8440SOL    HW136956   1.878   2.325   6.990  0.2197 -0.1047 -0.2325
 8440SOL    HW236957   1.956   2.364   6.873 -0.4526  0.8651  0.1819
 8441SOL     OW36958   1.854   1.119   4.408 -0.2648  0.4455  0.1846
 8441SOL    HW136959   1.837   1.069   4.488  1.6281 -2.2209 -1.0775
 8441SOL    HW236960   1.942   1.084   4.391 -0.7693  0.0677 -1.6155
 8442SOL     OW36961   0.195   2.470   2.925  0.0186  0.5371  0.4046
 8442SOL    HW136962   0.230   2.381   2.924  0.2227  0.6303 -0.3126
 8442SOL    HW236963   0.265   2.535   2.915  2.0019 -1.8974 -1.5559
 8443SOL     OW36964   3.959   4.379   3.561 -0.2237  0.6282  0.4845
 8443SOL    HW136965   4.011   4.366   3.640 -0.5404 -2.5998  0.1557
 8443SOL    HW236966   3.873   4.410   3.589 -0.5624 -1.0281  1.2682
 8444SOL     OW36967   2.073   2.691   3.185 -0.5032 -0.3574 -0.3846
 8444SOL    HW136968   2.073   2.756   3.114 -0.0360 -0.7062 -0.7035
 8444SOL    HW236969   2.149   2.729   3.228  0.2205 -1.6515 -0.5404
 8445SOL     OW36970   1.728   1.714   9.943  0.3249  0.3430 -0.3781
 8445SOL    HW136971   1.773   1.786   9.898  1.6668  0.3243  0.9539
 8445SOL    HW236972   1.733   1.742  10.034  0.3344  0.6469 -0.4726
 8446SOL     OW36973   1.526   4.087   7.164  0.2641  0.5178  0.5210
 8446SOL    HW136974   1.564   4.002   7.140  0.5466  0.8218 -0.1144
 8446SOL    HW236975   1.596   4.149   7.144  1.8484 -1.0495  1.1606
 8447SOL     OW36976   2.099   3.921   7.792 -0.8110 -0.1039 -0.3251
 8447SOL    HW136977   2.101   4.012   7.763 -0.8751 -0.9388 -2.9985
 8447SOL    HW236978   2.129   3.879   7.711  1.1678  0.3202  0.1859
 8448SOL     OW36979   3.109   3.224   3.014  0.5231  0.6110 -0.1885
 8448SOL    HW136980   3.013   3.223   3.013  0.5452 -0.1602 -0.8354
 8448SOL    HW236981   3.139   3.267   2.934 -1.1071  2.0810 -0.0135
 8449SOL     OW36982   3.652   4.583   4.736 -0.6918  0.7570 -0.2516
 8449SOL    HW136983   3.556   4.581   4.738 -0.6631  0.2087  0.6612
 8449SOL    HW236984   3.685   4.631   4.811 -0.1239  0.1005 -0.0824
 8450SOL     OW36985   3.933   2.261   4.438  0.1156  0.2007  0.8998
 8450SOL    HW136986   3.864   2.303   4.388 -0.1324 -0.4793  0.6734
 8450SOL    HW236987   4.007   2.321   4.432  0.3270 -0.1866 -0.2759
 8451SOL     OW36988   1.525   3.781   6.258 -0.5369 -0.0013 -0.5812
 8451SOL    HW136989   1.574   3.849   6.211 -1.4964  0.5594 -0.7764
 8451SOL    HW236990   1.442   3.825   6.271 -0.1409  1.0263 -1.4519
 8452SOL     OW36991   1.668   4.665   4.294  0.9359 -0.4624  0.2923
 8452SOL    HW136992   1.584   4.667   4.249  0.7240  0.1070  0.7109
 8452SOL    HW236993   1.645   4.604   4.365 -0.2379  0.7993  0.9814
 8453SOL     OW36994   1.466   1.324   9.068  0.1918  0.2052 -0.3540
 8453SOL    HW136995   1.469   1.406   9.117  1.4164 -0.3633  0.5309
 8453SOL    HW236996   1.467   1.265   9.143  2.5322  0.0095 -0.5387
 8454SOL     OW36997   0.222   2.472   2.403  0.4993 -0.4949 -0.4220
 8454SOL    HW136998   0.285   2.413   2.443  0.9287 -0.1038 -0.5258
 8454SOL    HW236999   0.207   2.432   2.317  0.8900 -0.6914 -0.3977
 8455SOL     OW37000   0.774   3.328  16.355 -0.2849  0.3458  0.3788
 8455SOL    HW137001   0.761   3.405  16.300 -0.6873 -0.5869 -0.8504
 8455SOL    HW237002   0.695   3.332  16.408 -0.1797 -0.1547  0.5777
 8456SOL     OW37003   3.817   0.884  15.912  0.3078  0.7076 -0.0958
 8456SOL    HW137004   3.791   0.857  16.000  2.3173  0.6352  0.4646
 8456SOL    HW237005   3.800   0.978  15.906  0.7145  0.8727  1.4683
 8457SOL     OW37006   3.053   2.856   9.880  0.3562  0.0013  0.0120
 8457SOL    HW137007   3.114   2.824   9.813 -0.9618 -0.3892 -0.9912
 8457SOL    HW237008   2.978   2.798   9.878  0.0870  0.3536 -0.1745
 8458SOL     OW37009   1.746   1.747   4.509 -0.7332  0.6667  0.4501
 8458SOL    HW137010   1.692   1.702   4.575 -0.9659 -1.0198 -0.8989
 8458SOL    HW237011   1.825   1.695   4.519  0.5847  2.2829 -1.5596
 8459SOL     OW37012   4.593   2.830  16.978 -0.2509 -0.0469  1.0312
 8459SOL    HW137013   4.655   2.865  16.914 -0.9444 -2.2922 -0.8732
 8459SOL    HW237014   4.564   2.755  16.926 -2.8130  1.6161  0.0632
 8460SOL     OW37015   4.264   0.804   6.116 -0.6925  0.0365 -0.2914
 8460SOL    HW137016   4.262   0.751   6.036 -0.4419  0.6108 -0.6748
 8460SOL    HW237017   4.298   0.889   6.090 -1.7923  1.1972  2.0740
 8461SOL     OW37018   0.182   2.093   8.434  0.2377 -0.6954  0.1260
 8461SOL    HW137019   0.099   2.113   8.389  0.1902 -1.8618 -0.3051
 8461SOL    HW237020   0.154   2.116   8.522 -1.1181  0.1608 -0.5103
 8462SOL     OW37021   0.070   0.963  16.465 -0.2504 -0.3625 -1.0035
 8462SOL    HW137022   0.104   0.932  16.381  0.2089 -0.5481 -0.7515
 8462SOL    HW237023   0.148   0.942  16.517  0.0595  2.4396 -0.3213
 8463SOL     OW37024   2.948   1.788   8.883  0.2237  0.8317 -0.5096
 8463SOL    HW137025   2.869   1.784   8.829 -0.9705 -0.1019  1.3161
 8463SOL    HW237026   2.920   1.718   8.942  1.2372 -0.5007 -1.6157
 8464SOL     OW37027   2.698   0.625   2.160  0.1870  0.3097 -0.0082
 8464SOL    HW137028   2.730   0.591   2.244  0.3314 -1.1139 -0.6418
 8464SOL    HW237029   2.717   0.551   2.103 -0.4073  0.6259 -0.6167
 8465SOL     OW37030   3.335   3.349   9.658  0.4187  0.3218 -0.3703
 8465SOL    HW137031   3.337   3.255   9.672 -0.4015  0.5118  1.0331
 8465SOL    HW237032   3.428   3.366   9.677 -0.2217  1.4005  1.8365
 8466SOL     OW37033   0.765   0.119   4.565 -0.6230 -0.4025 -1.0997
 8466SOL    HW137034   0.687   0.151   4.611  1.2845  2.1432  0.3476
 8466SOL    HW237035   0.729   0.091   4.480  2.2625 -0.1514 -2.3810
 8467SOL     OW37036   1.853   2.129  14.190  0.1546  0.2173 -0.4939
 8467SOL    HW137037   1.834   2.155  14.281  0.3251 -0.5549 -0.2371
 8467SOL    HW237038   1.927   2.187  14.170  1.1321 -0.8494 -0.0171
 8468SOL     OW37039   0.323   1.300   5.325 -0.2061 -0.2683 -0.0230
 8468SOL    HW137040   0.391   1.246   5.285 -1.3153 -1.5782 -0.1307
 8468SOL    HW237041   0.250   1.273   5.271  0.6002  0.3876 -1.4360
 8469SOL     OW37042   3.487   0.871   5.138  0.2958 -0.1446  0.5769
 8469SOL    HW137043   3.461   0.784   5.107  1.8439  0.0248 -1.1995
 8469SOL    HW237044   3.446   0.872   5.224 -2.5880  0.3392 -0.7824
 8470SOL     OW37045   2.525   0.961  15.049 -0.6468 -0.2846 -0.2723
 8470SOL    HW137046   2.520   0.872  15.084 -1.9554 -1.0165 -2.3201
 8470SOL    HW237047   2.501   1.004  15.131  2.0858 -0.4337  0.6022
 8471SOL     OW37048   2.513   2.285   8.822 -0.7003 -0.1402 -0.1679
 8471SOL    HW137049   2.599   2.326   8.828  0.5879 -2.9078  0.3442
 8471SOL    HW237050   2.473   2.319   8.902 -1.2572  0.4990 -0.7173
 8472SOL     OW37051   2.565   2.225   4.299 -0.2905  0.1133  0.1069
 8472SOL    HW137052   2.522   2.231   4.214 -0.2886 -3.1269 -0.1375
 8472SOL    HW237053   2.626   2.157   4.269 -0.2108 -0.2570  1.1135
 8473SOL     OW37054   3.887   3.291  10.837  0.4797 -0.0222  0.3499
 8473SOL    HW137055   3.960   3.277  10.777  1.4468  0.8127  1.3158
 8473SOL    HW237056   3.913   3.371  10.884  1.1163 -0.5178  0.8382
 8474SOL     OW37057   2.901   4.172   2.512 -0.4298  0.2854 -0.2507
 8474SOL    HW137058   2.911   4.195   2.605 -0.3534 -0.8530  0.0297
 8474SOL    HW237059   2.972   4.217   2.467  0.1580 -0.4296 -0.0557
 8475SOL     OW37060   4.042   3.456   3.315  0.5701  0.3907 -0.4815
 8475SOL    HW137061   4.039   3.464   3.219 -2.7424 -1.8214 -0.5588
 8475SOL    HW237062   4.137   3.445   3.323  0.4010 -1.3849 -0.7773
 8476SOL     OW37063   2.222   4.458   9.860 -0.1001 -0.5177 -0.0857
 8476SOL    HW137064   2.217   4.454   9.764 -1.4430  0.7893 -0.0673
 8476SOL    HW237065   2.167   4.386   9.892  0.3413 -1.4878 -1.5254
 8477SOL     OW37066   0.087   4.738   1.798 -0.0770  0.0450  0.1539
 8477SOL    HW137067   0.012   4.694   1.759 -0.2369  0.6028 -0.1742
 8477SOL    HW237068   0.071   0.010   1.892 -2.5340  1.2254 -0.4090
 8478SOL     OW37069   3.033   1.784   5.108  0.4872 -0.3787  0.7066
 8478SOL    HW137070   3.103   1.848   5.120  0.3038  0.2061 -1.3062
 8478SOL    HW237071   2.960   1.846   5.109 -0.0330 -0.9652 -0.5104
 8479SOL     OW37072   2.202   0.571   0.305  0.1391 -0.4227  0.1177
 8479SOL    HW137073   2.237   0.491   0.266 -0.3951 -0.6201  0.0300
 8479SOL    HW237074   2.277   0.629   0.315 -0.4944  0.2373  1.0847
 8480SOL     OW37075   3.196   2.428   3.638 -0.2294 -0.0981 -0.0724
 8480SOL    HW137076   3.124   2.471   3.685  0.5086 -2.1751  2.9633
 8480SOL    HW237077   3.202   2.487   3.563 -0.2063  0.7587  0.6070
 8481SOL     OW37078   3.230   3.395   5.235  0.0255 -0.5681  0.2090
 8481SOL    HW137079   3.173   3.407   5.159 -0.0501 -0.1504  0.3340
 8481SOL    HW237080   3.256   3.485   5.255 -3.4654  0.9107 -2.0662
 8482SOL     OW37081   3.197   4.258  10.765  0.2217  0.5440  0.0936
 8482SOL    HW137082   3.134   4.237  10.834 -1.8544 -1.4356 -2.3695
 8482SOL    HW237083   3.237   4.171  10.753  1.6370  1.2881 -0.5485
 8483SOL     OW37084   0.315   2.829   5.920  0.0643  0.3559 -0.2366
 8483SOL    HW137085   0.375   2.766   5.879  1.3659  0.6589  1.2069
 8483SOL    HW237086   0.234   2.801   5.876  0.8739 -0.2462 -1.3506
 8484SOL     OW37087   2.132   2.321   2.102  0.2022 -0.2714  0.2889
 8484SOL    HW137088   2.119   2.307   2.008 -1.6053 -0.9824  0.6613
 8484SOL    HW237089   2.068   2.257   2.133 -0.1831  0.1752  0.4147
 8485SOL     OW37090   1.084   1.100   3.529  1.3484  0.0978 -0.0123
 8485SOL    HW137091   1.019   1.159   3.491  0.9920  0.5932  1.3414
 8485SOL    HW237092   1.038   1.062   3.604  2.7526 -0.3290  0.6375
 8486SOL     OW37093   1.206   2.012   1.821  0.0538 -0.4527  0.4198
 8486SOL    HW137094   1.126   2.053   1.789  1.6900  2.0801 -0.3540
 8486SOL    HW237095   1.196   1.970   1.907 -1.0663 -1.3107 -0.1317
 8487SOL     OW37096   0.140   0.203   8.813  0.1397  0.2013 -0.4014
 8487SOL    HW137097   0.159   0.291   8.782  3.0435 -0.6574 -1.0581
 8487SOL    HW237098   0.223   0.190   8.857  0.2031 -1.9840 -1.1846
 8488SOL     OW37099   0.723   2.528  11.503  0.1076 -0.5913  0.3938
 8488SOL    HW137100   0.684   2.588  11.440  0.8141 -1.1547 -0.5837
 8488SOL    HW237101   0.723   2.449  11.449  1.7118 -1.0997  1.1057
 8489SOL     OW37102   0.695   2.935  16.473  0.3864  0.8067  0.1049
 8489SOL    HW137103   0.775   2.946  16.524  0.1398  0.0291  0.6666
 8489SOL    HW237104   0.721   2.979  16.393  0.1737  0.8311  0.0507
 8490SOL     OW37105   0.938   2.792   3.192  0.4906  0.0026  0.3513
 8490SOL    HW137106   1.015   2.847   3.206  0.2704  0.7383 -1.2430
 8490SOL    HW237107   0.869   2.829   3.247  2.3162 -0.1011  2.6869
 8491SOL     OW37108   4.199   2.126  17.643  0.0003  0.1392 -0.1726
 8491SOL    HW137109   4.162   2.171  17.718  1.2655 -0.7305  0.9693
 8491SOL    HW237110   4.145   2.163  17.573  0.1920  1.8205  0.5733
 8492SOL     OW37111   1.884   0.332   4.934  0.1790  0.4602 -0.0120
 8492SOL    HW137112   1.913   0.295   5.018  3.2841  1.6701 -0.5680
 8492SOL    HW237113   1.844   0.260   4.885 -0.7413  1.0918 -0.1850
 8493SOL     OW37114   4.437   1.664   7.964 -0.0749 -0.1462  0.1325
 8493SOL    HW137115   4.441   1.601   7.892 -0.8805 -0.0777  0.0357
 8493SOL    HW237116   4.457   1.608   8.039  2.7410  0.3727 -0.2253
 8494SOL     OW37117   0.169   2.725  10.023 -0.4700  0.8343 -0.1275
 8494SOL    HW137118   0.156   2.650   9.965 -1.2539  1.3419 -0.6096
 8494SOL    HW237119   0.168   2.802   9.966  2.5726  1.3066  0.4132
 8495SOL     OW37120   2.939   2.286   3.815  0.3820  0.1164 -0.1588
 8495SOL    HW137121   2.983   2.290   3.899  0.0503 -1.1508  0.0873
 8495SOL    HW237122   2.973   2.205   3.776  0.2602  0.9879 -2.0953
 8496SOL     OW37123   4.216   4.054   5.619 -0.6574 -0.4629 -0.1308
 8496SOL    HW137124   4.210   3.994   5.693 -1.0697  0.2220  0.3898
 8496SOL    HW237125   4.156   4.007   5.561  1.5305 -3.4190 -0.0265
 8497SOL     OW37126   3.286   2.303   4.841 -0.0548 -0.0708  0.5841
 8497SOL    HW137127   3.222   2.359   4.799  1.0266  0.6177 -0.1450
 8497SOL    HW237128   3.258   2.214   4.819 -0.3753  0.2589 -0.3274
 8498SOL     OW37129   3.679   4.067   8.478  0.8538 -0.1340 -0.5328
 8498SOL    HW137130   3.702   3.979   8.450 -1.2872 -0.0672 -2.5201
 8498SOL    HW237131   3.744   4.118   8.431  1.5360  0.0858  0.6526
 8499SOL     OW37132   2.608   2.929   9.521 -0.0476 -0.2729 -0.3842
 8499SOL    HW137133   2.680   2.973   9.566 -1.0997  0.7004  0.3306
 8499SOL    HW237134   2.543   2.926   9.591 -1.1349 -0.5819 -1.4028
 8500SOL     OW37135   2.051   2.372  13.368  0.2107  0.4407 -0.6314
 8500SOL    HW137136   2.115   2.370  13.439  0.8319 -1.5989 -1.2247
 8500SOL    HW237137   2.039   2.466  13.358  0.7107  0.6159  0.4821
 8501SOL     OW37138   0.206   4.111   5.400 -0.1586 -0.7260 -0.5170
 8501SOL    HW137139   0.232   4.113   5.492 -0.2161 -0.7719 -0.4999
 8501SOL    HW237140   0.210   4.205   5.380  1.3896 -1.0056 -1.4824
 8502SOL     OW37141   3.066   4.546   6.099 -0.1116 -0.0650 -0.0862
 8502SOL    HW137142   3.055   4.453   6.118  0.7188 -0.3771 -1.1254
 8502SOL    HW237143   3.013   4.570   6.023  0.3174  0.0286 -0.3586
 8503SOL     OW37144   2.643   3.439   6.031 -0.3358 -0.0699 -0.6363
 8503SOL    HW137145   2.657   3.534   6.032  2.4253 -0.4691 -1.6189
 8503SOL    HW237146   2.664   3.419   5.940 -0.3949 -1.2891 -0.3853
 8504SOL     OW37147   1.473   3.536  13.301  0.7813  0.1818  0.4959
 8504SOL    HW137148   1.494   3.624  13.271  1.2129  0.4697  1.6583
 8504SOL    HW237149   1.500   3.538  13.393 -1.3872  0.5442  1.1427
 8505SOL     OW37150   1.602   3.229   7.445  0.0440  0.0328 -0.1034
 8505SOL    HW137151   1.671   3.285   7.481 -0.5825  0.0150  1.1492
 8505SOL    HW237152   1.574   3.197   7.531  0.1530 -2.1880 -0.8966
 8506SOL     OW37153   0.111   2.019  13.550  0.1655  0.1140  0.0609
 8506SOL    HW137154   0.070   2.077  13.614  0.4245  2.0977 -1.5910
 8506SOL    HW237155   0.117   1.936  13.597 -4.7683 -1.6191 -2.2495
 8507SOL     OW37156   2.527   4.112   6.592 -0.1367 -0.0164 -0.1749
 8507SOL    HW137157   2.606   4.165   6.603  0.0380 -0.2113 -0.4706
 8507SOL    HW237158   2.517   4.083   6.682  0.7544 -0.1947 -0.1336
 8508SOL     OW37159   0.142   2.548   3.619 -0.0377  0.1614  0.0821
 8508SOL    HW137160   0.215   2.536   3.679 -1.6764 -0.2664  1.9898
 8508SOL    HW237161   0.158   2.497   3.540 -0.3650  0.5256 -0.2222
 8509SOL     OW37162   3.533   3.298  14.769 -0.2247  0.1724  0.3125
 8509SOL    HW137163   3.488   3.220  14.803  0.7889  0.4408  2.2500
 8509SOL    HW237164   3.550   3.350  14.847 -0.6697  1.0541 -0.1838
 8510SOL     OW37165   0.470   0.370   4.712  0.2940  0.3086 -0.7847
 8510SOL    HW137166   0.479   0.284   4.752 -2.0023  1.5144  2.3220
 8510SOL    HW237167   0.432   0.344   4.627  2.7020 -0.9695 -1.4664
 8511SOL     OW37168   3.886   3.089  15.396 -0.6798  0.0366  0.1528
 8511SOL    HW137169   3.842   3.135  15.325 -0.7548 -2.1469 -1.2225
 8511SOL    HW237170   3.850   3.126  15.476  0.4556  0.3308  0.5271
 8512SOL     OW37171   1.607   1.401  15.580  0.4913  0.3009 -0.0239
 8512SOL    HW137172   1.680   1.433  15.526  0.3850  0.1652 -0.2504
 8512SOL    HW237173   1.635   1.423  15.669  0.9851 -0.7844  0.0915
 8513SOL     OW37174   0.460   0.104   8.887  0.8774 -0.6066  0.5134
 8513SOL    HW137175   0.523   0.176   8.886 -1.0935  1.1252 -1.0738
 8513SOL    HW237176   0.488   0.044   8.956  2.3623 -0.5703 -0.0743
 8514SOL     OW37177   4.363   4.309   5.072 -0.7383 -0.4637  0.5183
 8514SOL    HW137178   4.318   4.231   5.038 -0.6265 -0.8527  1.2733
 8514SOL    HW237179   4.429   4.273   5.131 -0.8121  0.8618  1.4155
 8515SOL     OW37180   1.847   2.589   0.123 -0.1237  0.0246  0.0839
 8515SOL    HW137181   1.901   2.530   0.070 -0.9052 -0.2991 -0.3472
 8515SOL    HW237182   1.833   2.534   0.200 -0.9254  0.5495  0.3073
 8516SOL     OW37183   2.628   3.280   7.640  0.1000  0.1306  0.8324
 8516SOL    HW137184   2.639   3.345   7.710 -2.1920 -1.2152  2.4326
 8516SOL    HW237185   2.717   3.251   7.618 -0.2042  0.9443 -1.4840
 8517SOL     OW37186   1.502   1.689  12.704 -0.3663  0.0686 -0.1774
 8517SOL    HW137187   1.598   1.686  12.705 -0.3606 -0.2884 -1.9517
 8517SOL    HW237188   1.469   1.602  12.724  0.1816 -0.3890 -1.2464
 8518SOL     OW37189   0.394   1.084  15.746 -0.4482  0.2033  0.1943
 8518SOL    HW137190   0.455   1.016  15.715 -2.7019 -1.2669 -1.0094
 8518SOL    HW237191   0.421   1.155  15.688 -0.9188  0.9388  0.8843
 8519SOL     OW37192   1.915   0.282  12.402  0.3051 -0.1581 -0.2877
 8519SOL    HW137193   1.942   0.225  12.474  1.1587 -0.3596 -0.7681
 8519SOL    HW237194   1.823   0.297  12.424 -0.0327  0.4887 -2.1712
 8520SOL     OW37195   0.586   0.288   4.293  0.1092 -0.2697  0.0566
 8520SOL    HW137196   0.511   0.305   4.236  0.7475  0.5678 -0.5254
 8520SOL    HW237197   0.564   0.352   4.361 -1.2040 -0.1574 -0.4873
 8521SOL     OW37198   4.736   4.432   2.995 -0.0342  0.1152 -0.3508
 8521SOL    HW137199   0.004   4.419   3.090  2.2054 -1.1416 -0.6703
 8521SOL    HW237200   4.699   4.519   2.982 -2.0202 -0.4498  1.5585
 8522SOL     OW37201   1.713   2.259   7.064 -0.1479 -0.5763  1.0208
 8522SOL    HW137202   1.653   2.197   7.025  0.2255 -0.2080 -0.1429
 8522SOL    HW237203   1.654   2.303   7.125  0.1401  2.6974 -0.9996
 8523SOL     OW37204   4.054   1.228   0.150  0.4494  0.0627 -0.2405
 8523SOL    HW137205   4.020   1.244   0.238 -0.1536  1.7672 -0.7947
 8523SOL    HW237206   4.045   1.316   0.115  4.0820  0.3428 -0.5262
 8524SOL     OW37207   4.412   2.438   5.649 -0.2741  0.5829 -0.1062
 8524SOL    HW137208   4.331   2.410   5.690 -0.4898  2.1721  0.5779
 8524SOL    HW237209   4.396   2.397   5.564 -0.1054 -0.9187  0.5869
 8525SOL     OW37210   0.910   3.771   2.997 -0.0478  0.1821 -0.1519
 8525SOL    HW137211   0.956   3.727   3.069 -3.8364  0.0546  2.1886
 8525SOL    HW237212   0.855   3.709   2.949  1.3148  0.5387 -2.1684
 8526SOL     OW37213   0.217   2.684   4.476 -0.0685 -0.3770 -0.3502
 8526SOL    HW137214   0.245   2.593   4.479 -0.7683 -0.5042  2.8638
 8526SOL    HW237215   0.172   2.691   4.392 -0.9882  2.2665  0.3630
 8527SOL     OW37216   3.236   3.789  10.605 -0.2253  0.8660 -0.0105
 8527SOL    HW137217   3.321   3.782  10.648  1.1443 -1.8997 -3.1685
 8527SOL    HW237218   3.251   3.746  10.520  2.1614  2.1583 -0.2517
 8528SOL     OW37219   0.409   4.527   6.982  0.0132 -0.1978  0.1715
 8528SOL    HW137220   0.418   4.553   6.891 -0.6239  0.4565  0.2996
 8528SOL    HW237221   0.457   4.599   7.022 -0.8609 -0.2777  1.3675
 8529SOL     OW37222   0.237   3.621   2.893 -0.0689  0.9155  0.6891
 8529SOL    HW137223   0.181   3.555   2.935 -1.4114  1.5580 -0.1054
 8529SOL    HW237224   0.293   3.568   2.836 -2.7711 -1.6564  0.4636
 8530SOL     OW37225   0.699   0.822  10.956  0.1330 -0.9493  0.5014
 8530SOL    HW137226   0.737   0.807  11.043  2.4480  0.4076 -0.2610
 8530SOL    HW237227   0.768   0.793  10.897  1.0178 -0.4462  1.2762
 8531SOL     OW37228   1.161   3.051  12.767 -0.2819 -0.2198  0.3577
 8531SOL    HW137229   1.071   3.064  12.798 -0.5616  0.0288 -0.5584
 8531SOL    HW237230   1.179   3.131  12.717  0.0711 -0.1631  0.5741
 8532SOL     OW37231   0.480   1.385   7.578  0.1453  0.3456  0.7423
 8532SOL    HW137232   0.561   1.343   7.550 -0.0300  0.2895  0.3057
 8532SOL    HW237233   0.434   1.403   7.496 -0.2991  3.4673  1.6759
 8533SOL     OW37234   0.952   0.253   7.399 -0.5173  0.5220  0.1798
 8533SOL    HW137235   0.910   0.246   7.485  1.4248 -0.3757  1.0713
 8533SOL    HW237236   0.892   0.198   7.349 -0.0056 -2.2431  2.5941
 8534SOL     OW37237   4.029   3.744   1.873 -0.7884  0.6441  0.5915
 8534SOL    HW137238   4.001   3.691   1.798 -0.8593  0.3940  0.7964
 8534SOL    HW237239   4.104   3.693   1.904 -0.3065 -1.4777 -3.9804
 8535SOL     OW37240   1.521   2.082  16.524  0.1609 -0.2850  0.1851
 8535SOL    HW137241   1.612   2.059  16.544 -0.2660  0.7959  3.2788
 8535SOL    HW237242   1.469   2.083  16.605  0.2702  0.4862  0.2424
 8536SOL     OW37243   1.559   0.114   9.120  0.3560  0.4224 -0.1897
 8536SOL    HW137244   1.649   0.137   9.142  0.6274 -0.9357  0.0886
 8536SOL    HW237245   1.510   0.155   9.191  1.9643  2.1728 -0.0941
 8537SOL     OW37246   4.199   1.667  13.188  0.4465  0.0617 -0.1007
 8537SOL    HW137247   4.278   1.613  13.181  0.3870 -0.0086 -0.2575
 8537SOL    HW237248   4.219   1.731  13.256 -0.8775 -1.2675  1.5430
 8538SOL     OW37249   4.484   0.208   5.935 -0.2976 -0.5200 -0.5604
 8538SOL    HW137250   4.473   0.119   5.968 -1.8449 -0.0748  0.1204
 8538SOL    HW237251   4.555   0.244   5.989 -0.1239 -0.8930 -0.5457
 8539SOL     OW37252   3.871   1.185   3.923 -0.1036 -0.6713  0.0252
 8539SOL    HW137253   3.781   1.205   3.948  0.0362 -2.1745  1.7093
 8539SOL    HW237254   3.855   1.122   3.852 -0.9233 -1.1635  0.6496
 8540SOL     OW37255   3.784   4.050  12.100  0.5398 -0.3695 -0.5211
 8540SOL    HW137256   3.778   3.968  12.050  0.0988 -0.5448 -0.1772
 8540SOL    HW237257   3.869   4.087  12.077  1.2487 -0.8150  1.3894
 8541SOL     OW37258   0.334   0.029   3.988  0.0408 -0.4552 -0.1382
 8541SOL    HW137259   0.376   4.686   4.013 -2.5263 -1.5736  0.5613
 8541SOL    HW237260   0.281   0.044   4.067  1.5022 -0.5903  0.8656
 8542SOL     OW37261   1.659   2.573   2.795 -0.7652  0.3570 -0.1458
 8542SOL    HW137262   1.629   2.601   2.881  0.8849  1.1236  0.1754
 8542SOL    HW237263   1.741   2.619   2.776  0.6298 -2.4018 -0.8437
 8543SOL     OW37264   4.467   4.254   7.596 -0.0507  0.3165  0.1214
 8543SOL    HW137265   4.538   4.232   7.656 -0.3894 -2.4490 -0.4948
 8543SOL    HW237266   4.465   4.172   7.547 -1.9046  0.2109  0.3847
 8544SOL     OW37267   3.800   4.502   6.172  0.1055 -0.8083 -0.2297
 8544SOL    HW137268   3.791   4.594   6.196  1.3857 -0.4340 -1.1207
 8544SOL    HW237269   3.855   4.510   6.093  0.6086 -2.7141 -0.0957
 8545SOL     OW37270   0.342   1.619   4.056  0.9546  0.8123  0.1447
 8545SOL    HW137271   0.275   1.622   3.988  2.6370  0.9696 -1.4930
 8545SOL    HW237272   0.285   1.606   4.132 -0.5518 -0.4266 -1.2067
 8546SOL     OW37273   1.499   1.450   5.134  0.8525 -0.2833  0.5163
 8546SOL    HW137274   1.584   1.438   5.178  0.0524 -4.4077  0.9759
 8546SOL    HW237275   1.473   1.534   5.173  1.6811  0.6511 -0.9549
 8547SOL     OW37276   3.243   4.225   0.354  0.0094  0.2016 -0.0398
 8547SOL    HW137277   3.337   4.209   0.362  0.2288  1.3727 -0.3342
 8547SOL    HW237278   3.225   4.137   0.320  0.0908  0.4795 -0.8052
 8548SOL     OW37279   4.671   4.324  10.249  0.2731  0.2452  0.1250
 8548SOL    HW137280   0.005   4.345  10.307 -0.3426 -0.3699  1.1292
 8548SOL    HW237281   4.698   4.361  10.165  0.5481  0.3369  0.2552
 8549SOL     OW37282   0.506   2.188   8.086  0.6663 -0.3638  0.4158
 8549SOL    HW137283   0.426   2.238   8.070  0.8403  0.2008  1.2649
 8549SOL    HW237284   0.472   2.115   8.139  0.2294  1.4915  2.7123
 8550SOL     OW37285   0.408   3.748   8.548 -0.1472  0.2264  0.6302
 8550SOL    HW137286   0.375   3.731   8.460  1.3576  1.7173 -0.2215
 8550SOL    HW237287   0.398   3.842   8.536  1.8797  0.0922 -2.1787
 8551SOL     OW37288   0.148   2.104   7.721 -0.2899 -0.1117 -0.6403
 8551SOL    HW137289   0.179   2.015   7.735  0.7741  0.2229 -0.8919
 8551SOL    HW237290   0.094   2.084   7.645 -0.5396 -1.5216 -0.0942
 8552SOL     OW37291   2.789   4.400   0.750  0.3798  0.0190  0.1584
 8552SOL    HW137292   2.866   4.348   0.774 -0.4013 -0.7650  0.9414
 8552SOL    HW237293   2.751   4.419   0.836 -0.0320 -1.0684  0.2128
 8553SOL     OW37294   2.435   1.920   0.470 -0.3745  0.2641 -0.7172
 8553SOL    HW137295   2.362   1.919   0.531  3.1741 -1.0017  3.4907
 8553SOL    HW237296   2.499   1.974   0.516  0.0058  0.3765 -1.3791
 8554SOL     OW37297   4.282   1.109   7.319  0.5458 -0.4963  0.1801
 8554SOL    HW137298   4.296   1.014   7.317  0.5740 -0.4592 -0.9346
 8554SOL    HW237299   4.187   1.105   7.307  0.4110 -1.3493  1.4556
 8555SOL     OW37300   3.990   0.608  11.094 -0.3054  0.1830 -0.2255
 8555SOL    HW137301   3.910   0.588  11.045 -1.2493  1.9317  0.5813
 8555SOL    HW237302   3.949   0.681  11.141 -0.3542  1.0404 -1.6039
 8556SOL     OW37303   3.408   1.939   6.209 -0.4124  0.1776  0.2293
 8556SOL    HW137304   3.385   1.878   6.279  1.6480 -3.1563 -1.9467
 8556SOL    HW237305   3.418   1.871   6.142 -0.4278 -0.8706  1.2815
 8557SOL     OW37306   3.154   4.032   7.206 -0.1167  0.5595  0.2322
 8557SOL    HW137307   3.158   4.126   7.188  0.0989  0.5922  0.4530
 8557SOL    HW237308   3.142   4.033   7.301  1.2713 -0.7928  0.4404
 8558SOL     OW37309   4.217   3.808   3.628  0.1071 -0.8441 -0.1516
 8558SOL    HW137310   4.152   3.750   3.588 -0.4536 -0.6902  0.5440
 8558SOL    HW237311   4.194   3.786   3.718 -1.0548  0.7836 -0.0511
 8559SOL     OW37312   4.431   2.799   8.847  0.0348  0.2688  0.9592
 8559SOL    HW137313   4.513   2.825   8.890  1.0833  0.6565 -1.2837
 8559SOL    HW237314   4.417   2.857   8.772 -0.3765  1.5018  1.9800
 8560SOL     OW37315   1.481   3.193  12.732 -0.0779  0.3673  0.4317
 8560SOL    HW137316   1.412   3.147  12.684  2.2416 -2.5602 -0.0850
 8560SOL    HW237317   1.541   3.123  12.756  0.3443  0.7910  0.6087
 8561SOL     OW37318   1.706   4.280  17.067 -0.3217 -0.3438  0.2794
 8561SOL    HW137319   1.659   4.247  16.991  0.4908  1.2383 -0.9106
 8561SOL    HW237320   1.799   4.269  17.046 -0.5835  1.4135 -1.7451
 8562SOL     OW37321   3.648   1.514   1.301  0.3727 -0.3126 -0.4646
 8562SOL    HW137322   3.683   1.486   1.216  0.5873  1.7113 -1.0488
 8562SOL    HW237323   3.650   1.609   1.293  4.7572 -0.6252 -2.8365
 8563SOL     OW37324   1.211   2.189   2.979 -0.1877  0.2001  0.3091
 8563SOL    HW137325   1.293   2.148   3.006 -0.6385 -0.6565  0.3497
 8563SOL    HW237326   1.194   2.254   3.048  0.2204  1.3533 -0.6658
 8564SOL     OW37327   2.050   2.024   2.101 -0.3769  0.3143  0.0255
 8564SOL    HW137328   1.966   1.976   2.099  1.5038 -3.0551  1.6648
 8564SOL    HW237329   2.041   2.064   2.187 -2.9039  0.7379 -0.4307
 8565SOL     OW37330   3.365   0.745  15.082  0.0361  0.1522  0.3693
 8565SOL    HW137331   3.327   0.731  15.168  0.3219 -0.5084  0.3936
 8565SOL    HW237332   3.368   0.653  15.053  0.5603  0.3102 -0.0895
 8566SOL     OW37333   3.518   1.714  16.529  0.5677 -0.0228 -0.1326
 8566SOL    HW137334   3.519   1.648  16.460 -0.4425  1.1648 -1.2814
 8566SOL    HW237335   3.600   1.689  16.572  0.9686 -1.4538 -1.7440
 8567SOL     OW37336   1.100   4.522   4.891  0.2447 -0.3636 -0.0710
 8567SOL    HW137337   1.049   4.572   4.954 -1.0330 -0.7483 -0.8064
 8567SOL    HW237338   1.155   4.586   4.844 -0.3296  0.6458  0.6498
 8568SOL     OW37339   4.464   3.511   6.224  0.5666  0.2038 -0.3964
 8568SOL    HW137340   4.530   3.579   6.234  2.5370 -1.8348  0.4308
 8568SOL    HW237341   4.523   3.440   6.199  0.1603 -0.9857  2.0046
 8569SOL     OW37342   1.042   3.903   6.308  0.4519  0.7160 -0.0959
 8569SOL    HW137343   1.055   3.882   6.401  1.0550 -3.2048 -1.0803
 8569SOL    HW237344   0.952   3.936   6.310  0.0733 -0.2271 -1.9401
 8570SOL     OW37345   0.737   0.078  10.963  0.0465 -0.0566 -0.5832
 8570SOL    HW137346   0.822   0.113  10.936 -0.2308  0.7411 -0.4287
 8570SOL    HW237347   0.676   0.142  10.925 -1.9123 -1.7036 -0.1952
 8571SOL     OW37348   0.554   1.343   3.066 -0.3854 -0.2140  0.1176
 8571SOL    HW137349   0.539   1.327   2.973 -1.4641  0.1430  0.2297
 8571SOL    HW237350   0.578   1.257   3.101 -5.3319 -1.4916  0.4073
 8572SOL     OW37351   2.780   3.268  14.083  0.0411  0.2462  0.8716
 8572SOL    HW137352   2.842   3.243  14.151 -1.1885  0.2282  1.9857
 8572SOL    HW237353   2.708   3.207  14.098  0.3554 -0.4683 -0.5883
 8573SOL     OW37354   1.261   1.098  12.950  0.1457 -0.3413 -0.1373
 8573SOL    HW137355   1.293   1.057  12.870  1.5388  0.6159 -0.0734
 8573SOL    HW237356   1.234   1.185  12.921  0.0966 -0.8363 -1.5520
 8574SOL     OW37357   0.497   4.670   9.124  0.1821  0.5603 -0.3127
 8574SOL    HW137358   0.552   4.622   9.186  0.0780 -0.8865 -1.3570
 8574SOL    HW237359   0.413   4.675   9.169  0.0402 -2.3509 -0.2660
 8575SOL     OW37360   2.493   4.066  10.652 -0.0867 -0.1631  0.2820
 8575SOL    HW137361   2.573   4.111  10.624 -0.5898  1.3524  1.2811
 8575SOL    HW237362   2.465   4.133  10.715  1.1165 -0.9017  1.6136
 8576SOL     OW37363   0.737   3.188   9.177  0.0520  0.4270  0.1359
 8576SOL    HW137364   0.752   3.100   9.145  1.5396  1.3046 -1.5749
 8576SOL    HW237365   0.819   3.198   9.224  0.5848  0.5342 -0.8160
 8577SOL     OW37366   2.455   3.983   7.788 -0.0068 -0.7452 -0.3858
 8577SOL    HW137367   2.389   4.052   7.787 -0.7377 -1.4399  0.6381
 8577SOL    HW237368   2.535   4.032   7.806  0.0052  0.4109 -3.5280
 8578SOL     OW37369   1.951   3.706   1.765  0.1267  0.0655  0.6343
 8578SOL    HW137370   1.942   3.719   1.860  1.7076  0.1278  0.7925
 8578SOL    HW237371   2.031   3.756   1.747 -0.0784  0.6733  1.3997
 8579SOL     OW37372   0.038   0.542  11.670  0.3588  0.3552 -0.0839
 8579SOL    HW137373   4.685   0.522  11.652  0.8681 -1.4589 -0.7234
 8579SOL    HW237374   0.027   0.599  11.746  1.7071  0.4761  0.0230
 8580SOL     OW37375   2.722   1.265   8.584  0.6157  0.1042  0.3091
 8580SOL    HW137376   2.708   1.314   8.665  1.7667 -0.4318  0.8392
 8580SOL    HW237377   2.721   1.173   8.613 -1.5833 -0.1468 -0.6070
 8581SOL     OW37378   4.736   2.825   4.246  0.0102  0.1216  0.2262
 8581SOL    HW137379   0.093   2.825   4.241  0.0136 -2.1612  0.5124
 8581SOL    HW237380   4.704   2.854   4.161 -0.9380 -1.8433 -0.0891
 8582SOL     OW37381   2.955   2.627   9.482 -0.1993  0.3982  0.2379
 8582SOL    HW137382   2.884   2.566   9.462 -0.3320  1.0639 -1.2753
 8582SOL    HW237383   3.019   2.606   9.414 -1.1015  2.1122 -1.1387
 8583SOL     OW37384   1.311   2.796   2.366 -0.5057 -0.0083  0.4697
 8583SOL    HW137385   1.404   2.810   2.349 -0.9382 -0.5123 -2.2756
 8583SOL    HW237386   1.287   2.874   2.417 -1.6982  0.2638 -0.5066
 8584SOL     OW37387   4.142   0.470   3.606  0.3255  0.0539  0.9034
 8584SOL    HW137388   4.114   0.459   3.697  2.2435  0.4381  1.5528
 8584SOL    HW237389   4.137   0.379   3.576 -2.3061  0.9841 -1.3238
 8585SOL     OW37390   1.881   2.233  15.313  0.4003  0.3591 -0.1319
 8585SOL    HW137391   1.898   2.160  15.372  2.8488  0.3601 -0.8400
 8585SOL    HW237392   1.962   2.243  15.263 -0.6137 -0.7552 -2.0045
 8586SOL     OW37393   0.771   0.286   3.208  0.0701  0.1491  0.4952
 8586SOL    HW137394   0.804   0.337   3.134  2.9002 -1.0910  0.9341
 8586SOL    HW237395   0.848   0.293   3.264  1.3514 -2.2367 -1.0062
 8587SOL     OW37396   1.002   2.365   3.370 -0.3784  0.0712 -0.3091
 8587SOL    HW137397   0.944   2.442   3.367  1.2912  1.3518  0.2125
 8587SOL    HW237398   1.043   2.378   3.456  0.2688  0.3028 -0.6547
 8588SOL     OW37399   1.581   2.075   6.209 -0.5404 -0.5277 -0.5378
 8588SOL    HW137400   1.601   2.120   6.127 -1.2044 -0.0526 -0.4345
 8588SOL    HW237401   1.612   1.986   6.188 -1.6639 -1.2509  0.8549
 8589SOL     OW37402   0.173   3.467  15.396 -0.2688 -0.0532 -0.2009
 8589SOL    HW137403   0.217   3.532  15.451 -2.0557  0.6300  0.4233
 8589SOL    HW237404   0.238   3.455  15.327 -0.5465 -1.4897 -0.2182
 8590SOL     OW37405   0.445   1.117   3.560  0.3413  0.3496 -0.1107
 8590SOL    HW137406   0.442   1.138   3.654 -1.9591  0.2635 -0.1748
 8590SOL    HW237407   0.512   1.048   3.569  0.4014  0.3709 -0.4173
 8591SOL     OW37408   1.373   3.220   1.875 -0.1133  0.2213 -0.4657
 8591SOL    HW137409   1.377   3.214   1.971  0.6234  4.0706 -0.2573
 8591SOL    HW237410   1.459   3.248   1.845  0.5930 -2.1454 -0.6255
 8592SOL     OW37411   3.716   0.601  17.284  0.0998  0.0148 -0.1462
 8592SOL    HW137412   3.714   0.693  17.310  0.9040  0.3873 -1.3871
 8592SOL    HW237413   3.800   0.582  17.328 -0.2396  1.4185  1.1206
 8593SOL     OW37414   3.366   4.619   4.672  0.0154 -0.3742  0.6774
 8593SOL    HW137415   3.304   4.628   4.600  0.2787  0.5200  0.5633
 8593SOL    HW237416   3.299   4.595   4.735 -2.0193 -0.6497 -1.5873
 8594SOL     OW37417   1.265   2.760  16.277  0.1861  0.2157  0.1976
 8594SOL    HW137418   1.254   2.674  16.235  0.1302  0.1631  0.3191
 8594SOL    HW237419   1.360   2.767  16.283  0.0692  2.2619 -0.3990
 8595SOL     OW37420   4.563   0.589   2.730 -0.1534 -0.3693  0.2038
 8595SOL    HW137421   4.619   0.537   2.672 -1.4592 -0.2482 -1.1488
 8595SOL    HW237422   4.502   0.631   2.670 -3.0070 -2.6648  1.4859
 8596SOL     OW37423   4.315   4.515   3.504  0.3018 -0.4361  0.0795
 8596SOL    HW137424   4.345   4.455   3.571 -1.6745 -0.9640  0.4805
 8596SOL    HW237425   4.391   4.562   3.470 -1.4629  2.1914 -0.3252
 8597SOL     OW37426   2.032   0.737   9.100 -0.7476 -0.3722  0.3035
 8597SOL    HW137427   2.093   0.811   9.101 -0.2521 -0.7443 -1.1683
 8597SOL    HW237428   1.975   0.766   9.029  1.1419  1.9870 -0.2723
 8598SOL     OW37429   4.476   1.455   7.741 -0.2452  0.2912  0.3508
 8598SOL    HW137430   4.502   1.363   7.747  0.6365  0.5030 -0.2444
 8598SOL    HW237431   4.483   1.457   7.645  2.6367 -0.7683  0.5562
 8599SOL     OW37432   1.616   3.236  17.343  0.8919  0.0657  0.2528
 8599SOL    HW137433   1.568   3.177  17.402  0.2747  0.1326 -0.1750
 8599SOL    HW237434   1.547   3.287  17.300  1.3759  1.7469  1.4562
 8600SOL     OW37435   4.602   3.978   6.334  0.4472  0.0988 -0.0559
 8600SOL    HW137436   4.672   4.040   6.351  0.4482  0.4124 -1.1862
 8600SOL    HW237437   4.647   3.895   6.320 -1.5319 -1.0051  0.0381
 8601SOL     OW37438   0.409   1.463   1.727 -0.4984  0.2414  0.0915
 8601SOL    HW137439   0.486   1.517   1.747 -0.1215 -0.2197 -0.1241
 8601SOL    HW237440   0.378   1.445   1.815  2.4459  1.2422  1.3269
 8602SOL     OW37441   1.689   2.321   3.858  0.1245 -0.7845 -0.2264
 8602SOL    HW137442   1.691   2.254   3.927  0.4170  0.2035  0.7158
 8602SOL    HW237443   1.618   2.373   3.896 -0.1676 -0.5005 -1.1772
 8603SOL     OW37444   3.393   0.305   4.595  0.3993  0.1532  0.0581
 8603SOL    HW137445   3.395   0.290   4.501  1.1312 -1.5786  0.3584
 8603SOL    HW237446   3.448   0.237   4.634 -2.2831 -1.8568  0.3245
 8604SOL     OW37447   2.925   4.484   4.925 -0.2509  0.1511 -0.1726
 8604SOL    HW137448   2.836   4.517   4.931 -0.0424  0.3846  1.6072
 8604SOL    HW237449   2.907   4.396   4.958 -0.6982  0.5751  0.6971
 8605SOL     OW37450   2.864   1.519  14.473  0.2417 -0.0170  0.2076
 8605SOL    HW137451   2.788   1.573  14.450 -1.2468 -0.9459  2.9639
 8605SOL    HW237452   2.931   1.587  14.470  0.2237 -0.0805 -1.4260
 8606SOL     OW37453   2.251   4.009   3.961 -0.2134  0.2962  0.2541
 8606SOL    HW137454   2.313   4.082   3.958 -0.7889  0.6707 -2.3074
 8606SOL    HW237455   2.168   4.051   3.939 -0.3637 -0.9293 -1.5878
 8607SOL     OW37456   4.022   3.007  17.288  0.4519  0.2444  0.4734
 8607SOL    HW137457   3.968   2.958  17.227  0.7974 -0.7941  1.0092
 8607SOL    HW237458   4.109   2.995  17.249  1.1706  1.2681  1.7541
 8608SOL     OW37459   1.909   3.249   7.300 -0.1025  0.4905 -0.2170
 8608SOL    HW137460   1.962   3.215   7.372  0.3708 -0.3046 -0.9408
 8608SOL    HW237461   1.982   3.305   7.274  0.1399  1.1334  1.9048
 8609SOL     OW37462   4.716   2.164   6.406 -0.0082 -0.4613 -0.0742
 8609SOL    HW137463   4.626   2.177   6.375 -0.0026 -0.7541 -0.2155
 8609SOL    HW237464   0.035   2.198   6.337 -1.4646 -3.1241 -2.6296
 8610SOL     OW37465   1.187   3.224  14.791 -0.0187  0.6805  0.8401
 8610SOL    HW137466   1.101   3.197  14.758 -0.3393 -1.0041  3.0734
 8610SOL    HW237467   1.173   3.317  14.807 -1.5647  0.1636  2.5353
 8611SOL     OW37468   1.525   1.571   2.792 -0.0679  0.3095 -0.6720
 8611SOL    HW137469   1.434   1.595   2.778 -0.3073 -0.4313 -0.3779
 8611SOL    HW237470   1.546   1.512   2.719 -2.9078 -1.8314  0.2531
 8612SOL     OW37471   2.908   0.532   7.520  0.1260  0.5314 -0.5057
 8612SOL    HW137472   2.892   0.468   7.450 -1.0895  0.1051  0.1670
 8612SOL    HW237473   2.937   0.474   7.590  0.0348  1.7964  0.5687
 8613SOL     OW37474   1.161   3.252   2.675  0.0887 -0.4399  0.4201
 8613SOL    HW137475   1.099   3.298   2.618 -1.4815 -0.7859  1.8720
 8613SOL    HW237476   1.105   3.207   2.738  0.8865 -1.0787  0.6854
 8614SOL     OW37477   1.224   2.208   6.109  0.0061  0.7700  0.0060
 8614SOL    HW137478   1.273   2.241   6.034  1.7927 -1.1347  0.3353
 8614SOL    HW237479   1.204   2.118   6.081 -1.3144  1.4782 -1.3305
 8615SOL     OW37480   3.583   3.445   8.120 -0.0340  0.2727  0.4238
 8615SOL    HW137481   3.525   3.369   8.111  2.3211 -1.5123  0.2468
 8615SOL    HW237482   3.673   3.418   8.104 -0.4721 -1.0217  0.1526
 8616SOL     OW37483   0.809   2.065   6.044  0.0597  0.1923 -0.0940
 8616SOL    HW137484   0.900   2.037   6.034  0.7605  1.0205  3.9282
 8616SOL    HW237485   0.770   1.985   6.008  1.4604  1.2190 -3.8823
 8617SOL     OW37486   1.307   1.437   4.625  0.4300 -0.0991  0.2324
 8617SOL    HW137487   1.308   1.484   4.708  1.7170 -0.9151  0.6687
 8617SOL    HW237488   1.354   1.488   4.559 -0.8402  0.1321 -0.4973
 8618SOL     OW37489   2.070   1.806   2.800 -0.7374  0.4264 -0.7750
 8618SOL    HW137490   2.118   1.806   2.883  0.4324 -1.1748 -1.4441
 8618SOL    HW237491   2.130   1.763   2.738  0.2677 -0.0641  0.5529
 8619SOL     OW37492   1.876   4.284  13.936  0.1725  0.3496 -0.6148
 8619SOL    HW137493   1.825   4.351  13.891  0.1043  0.6073 -0.1627
 8619SOL    HW237494   1.877   4.214  13.871  4.6693 -0.6059  0.4995
 8620SOL     OW37495   1.473   1.599   7.590  0.1214  0.6160 -0.0385
 8620SOL    HW137496   1.403   1.559   7.642 -0.8876  2.0126 -0.3231
 8620SOL    HW237497   1.532   1.530   7.558 -1.7147 -0.9058 -0.1866
 8621SOL     OW37498   3.681   1.110   2.352 -0.1184 -0.1149 -0.4186
 8621SOL    HW137499   3.613   1.147   2.408 -0.1165  1.0309 -1.1586
 8621SOL    HW237500   3.697   1.025   2.392 -0.8340 -0.7631 -1.5045
 8622SOL     OW37501   2.057   1.706  12.387 -0.0048  0.0562  0.3034
 8622SOL    HW137502   2.072   1.681  12.296 -1.6584 -1.2384  0.3690
 8622SOL    HW237503   2.132   1.659  12.423  1.1070  1.6786  0.1347
 8623SOL     OW37504   2.527   0.495  10.526 -0.4777  0.2648 -0.4810
 8623SOL    HW137505   2.463   0.531  10.464 -0.3437  0.0643 -0.7356
 8623SOL    HW237506   2.518   0.541  10.609  0.7895 -1.0583  0.3863
 8624SOL     OW37507   4.717   1.398   5.967  0.0619 -0.4473  0.0619
 8624SOL    HW137508   4.660   1.475   5.959  0.5697 -0.3417 -2.3839
 8624SOL    HW237509   0.008   1.376   5.879  2.4670  2.4890  0.1432
 8625SOL     OW37510   3.517   3.729  14.797  0.6047  0.4636  0.0645
 8625SOL    HW137511   3.471   3.669  14.738  0.7304 -0.5329  0.9969
 8625SOL    HW237512   3.441   3.778  14.828  0.1019 -0.4100  0.1935
 8626SOL     OW37513   1.525   2.504   2.247 -0.2114 -0.1831  0.1778
 8626SOL    HW137514   1.475   2.460   2.178 -1.7362 -1.1157  1.8647
 8626SOL    HW237515   1.455   2.529   2.308  0.7733  2.7070  0.1008
 8627SOL     OW37516   0.423   1.018   2.530 -0.1645  0.6450  0.2466
 8627SOL    HW137517   0.395   0.937   2.573  0.7326  0.3701  0.3144
 8627SOL    HW237518   0.362   1.021   2.456  1.7281 -1.0792 -1.3944
 8628SOL     OW37519   0.124   3.748   6.479 -0.9212  0.1323  0.0487
 8628SOL    HW137520   0.195   3.764   6.417 -0.9463  1.3232  0.3268
 8628SOL    HW237521   0.142   3.657   6.502 -3.4697 -0.9845 -2.3603
 8629SOL     OW37522   2.306   2.681  14.396 -0.3497 -0.1016  0.1920
 8629SOL    HW137523   2.348   2.607  14.352 -3.7023 -1.4853 -0.7011
 8629SOL    HW237524   2.266   2.719  14.318 -0.1842  1.2599  0.7771
 8630SOL     OW37525   1.696   3.430   8.015 -0.1461  0.0662  0.3516
 8630SOL    HW137526   1.602   3.438   7.997  0.3038  0.5663 -1.7377
 8630SOL    HW237527   1.722   3.383   7.936  0.9986  0.0199  0.7489
 8631SOL     OW37528   1.221   4.486   7.414 -0.6824 -0.2619  0.0024
 8631SOL    HW137529   1.162   4.558   7.393 -2.9581 -2.3526 -0.7827
 8631SOL    HW237530   1.211   4.447   7.327  1.6370 -0.5657 -0.1448
 8632SOL     OW37531   0.731   2.811   1.459 -0.3262  0.6712 -0.1718
 8632SOL    HW137532   0.808   2.867   1.447 -0.2262  1.1640  2.8335
 8632SOL    HW237533   0.667   2.870   1.420  0.2789 -0.2181 -2.5131
 8633SOL     OW37534   1.838   2.104   6.489 -0.3213 -0.0031  0.4764
 8633SOL    HW137535   1.884   2.138   6.566  0.5384  0.2540 -0.1533
 8633SOL    HW237536   1.903   2.119   6.421 -0.4666 -0.4131  0.2462
 8634SOL     OW37537   2.329   3.459   2.194 -0.6371 -0.3182  0.5362
 8634SOL    HW137538   2.396   3.425   2.254 -1.7355 -1.3750  1.1749
 8634SOL    HW237539   2.254   3.405   2.221  0.7354 -2.0444  0.9031
 8635SOL     OW37540   3.845   1.517   2.359  0.1116 -0.1391 -0.1313
 8635SOL    HW137541   3.812   1.594   2.406  1.3193  1.2062 -1.4941
 8635SOL    HW237542   3.807   1.448   2.413  0.2752  0.6327  0.9861
 8636SOL     OW37543   4.135   3.583   7.983  0.1470  0.2935  0.0831
 8636SOL    HW137544   4.114   3.500   8.027  0.9788 -1.5759 -3.0473
 8636SOL    HW237545   4.177   3.642   8.046 -0.1302  0.0835  0.4706
 8637SOL     OW37546   0.286   2.539   4.136  0.5433 -0.5468  0.7036
 8637SOL    HW137547   0.276   2.444   4.138  0.9538 -0.5372  2.8258
 8637SOL    HW237548   0.214   2.564   4.078  0.5195 -1.2420  0.4301
 8638SOL     OW37549   2.648   3.963   8.274 -0.0620  0.4194  0.6286
 8638SOL    HW137550   2.595   3.906   8.219  1.1552  0.4596 -0.5932
 8638SOL    HW237551   2.584   4.034   8.282 -0.3767  0.0701  1.1579
 8639SOL     OW37552   4.626   0.136   8.849 -0.5567  0.0442 -0.0113
 8639SOL    HW137553   4.708   0.173   8.817 -0.3430  0.0631  0.5515
 8639SOL    HW237554   4.656   0.078   8.919 -0.8569  0.1442  0.1976
 8640SOL     OW37555   1.499   0.988   8.708  0.2658 -0.4143 -0.0012
 8640SOL    HW137556   1.466   1.069   8.745  0.7117  0.0240 -0.5641
 8640SOL    HW237557   1.535   1.008   8.621 -1.2470  0.6568 -0.3810
 8641SOL     OW37558   1.823   0.085   4.827 -0.4092  0.3814  0.1198
 8641SOL    HW137559   1.762   0.028   4.873  0.9602 -0.7950  0.4831
 8641SOL    HW237560   1.898   0.025   4.829 -0.1293  0.7484  0.7872
 8642SOL     OW37561   2.477   4.231   2.030 -0.5625 -0.3108  0.0280
 8642SOL    HW137562   2.542   4.216   1.962  0.4082  0.6468  0.7381
 8642SOL    HW237563   2.398   4.236   1.976  1.2736  2.7033 -2.4203
 8643SOL     OW37564   3.926   1.882  11.722  0.5580 -0.0228  0.7574
 8643SOL    HW137565   3.884   1.843  11.798 -0.6289 -1.7303 -0.7632
 8643SOL    HW237566   4.009   1.904  11.764 -0.0736 -0.9126  2.4797
 8644SOL     OW37567   2.940   4.246   7.469 -0.6604 -0.2296  0.3171
 8644SOL    HW137568   3.023   4.285   7.440  0.7648 -1.6867  2.4153
 8644SOL    HW237569   2.956   4.153   7.487  0.5244  0.1662  1.3298
 8645SOL     OW37570   3.797   1.914  13.275  0.3279 -0.5731 -0.6037
 8645SOL    HW137571   3.882   1.895  13.316  0.4094 -0.0897 -0.5495
 8645SOL    HW237572   3.740   1.908  13.352  0.9549  1.5111  0.0209
 8646SOL     OW37573   1.432   0.596   2.760  0.3080 -0.1182  0.4392
 8646SOL    HW137574   1.437   0.505   2.731  1.1470  0.2737 -0.6766
 8646SOL    HW237575   1.435   0.585   2.855  1.6852 -0.0687  0.4109
 8647SOL     OW37576   0.093   4.622   1.475 -0.7017 -0.2389 -0.3782
 8647SOL    HW137577   0.113   4.714   1.491  1.2627 -0.8206  0.5475
 8647SOL    HW237578   0.156   4.571   1.525  0.2975 -0.2410 -1.6112
 8648SOL     OW37579   0.509   2.129   2.459  0.0847 -0.3474  0.0591
 8648SOL    HW137580   0.420   2.108   2.428 -0.0910  0.4346  0.0416
 8648SOL    HW237581   0.564   2.053   2.441  1.2673  0.5325 -0.0386
 8649SOL     OW37582   1.951   3.535   6.678 -0.4829 -0.0751  0.1009
 8649SOL    HW137583   1.927   3.623   6.707 -0.1315 -0.5203  1.6999
 8649SOL    HW237584   1.939   3.550   6.584 -0.5439 -3.4540 -0.4120
 8650SOL     OW37585   2.125   0.525   0.641  0.8933  0.3305 -1.1111
 8650SOL    HW137586   2.129   0.615   0.608 -1.4335  0.9333  0.2837
 8650SOL    HW237587   2.199   0.528   0.703 -0.2136  1.6318  0.1564
 8651SOL     OW37588   4.556   1.886  10.277  0.5517 -0.3215 -0.5459
 8651SOL    HW137589   4.627   1.821  10.281  0.9531  0.0551 -1.5514
 8651SOL    HW237590   4.605   1.967  10.261 -1.0854  0.6674 -0.5082
 8652SOL     OW37591   2.863   3.392   8.785 -0.4657  0.6170  0.3360
 8652SOL    HW137592   2.893   3.305   8.761  0.4073  1.0070  0.0269
 8652SOL    HW237593   2.857   3.393   8.881  0.4072 -1.0806  0.4036
 8653SOL     OW37594   3.532   1.712   4.335  0.3432 -0.0853 -0.4541
 8653SOL    HW137595   3.586   1.634   4.323 -0.0880 -0.3259 -0.7936
 8653SOL    HW237596   3.515   1.742   4.246  0.4674 -0.2536 -0.5354
 8654SOL     OW37597   2.888   0.794   7.804  0.1442  0.4628 -0.3806
 8654SOL    HW137598   2.929   0.817   7.721  0.7935  0.6461 -0.0051
 8654SOL    HW237599   2.897   0.882   7.840 -0.2147  1.4550 -2.7192
 8655SOL     OW37600   1.744   3.957   5.722  0.4390  0.0231  0.3197
 8655SOL    HW137601   1.654   3.988   5.718 -0.0846 -1.6414 -0.9248
 8655SOL    HW237602   1.804   4.030   5.740 -0.3240  0.4468  1.1433
 8656SOL     OW37603   1.024   3.694  12.571 -0.1895 -0.2200 -0.4894
 8656SOL    HW137604   1.046   3.675  12.480  0.6090  1.8262 -0.7107
 8656SOL    HW237605   1.027   3.607  12.611  0.1781  0.2611  0.5322
 8657SOL     OW37606   1.159   2.160   7.769 -0.0674  0.3449  0.0666
 8657SOL    HW137607   1.238   2.185   7.816 -0.1969 -0.9907  1.0053
 8657SOL    HW237608   1.106   2.232   7.803  2.0389  1.4409  0.9979
 8658SOL     OW37609   2.036   1.064   8.949  0.2865  0.2653  0.1330
 8658SOL    HW137610   2.027   1.079   8.855  1.8733  2.7735  0.3523
 8658SOL    HW237611   1.945   1.053   8.977 -0.0175  2.5904  0.1204
 8659SOL     OW37612   1.580   1.594   4.674  0.2643  0.2382  0.3053
 8659SOL    HW137613   1.519   1.656   4.714  0.4963 -0.4483  1.7145
 8659SOL    HW237614   1.583   1.525   4.740 -1.9098  1.1079  1.3238
 8660SOL     OW37615   1.177   2.485  16.220 -0.5117  0.7077 -0.0110
 8660SOL    HW137616   1.093   2.439  16.228 -0.5804  0.8783  0.2404
 8660SOL    HW237617   1.170   2.506  16.127  1.5566 -2.1588 -0.8089
 8661SOL     OW37618   2.879   4.613   2.001  0.1226 -0.4905 -0.2179
 8661SOL    HW137619   2.947   4.677   2.024 -0.9473  0.9519 -1.1018
 8661SOL    HW237620   2.883   4.550   2.073 -0.8766 -1.0516 -0.6474
 8662SOL     OW37621   4.138   3.377   5.186  0.0716 -0.0598  0.3190
 8662SOL    HW137622   4.043   3.388   5.195  0.1399 -0.1287  1.1256
 8662SOL    HW237623   4.145   3.364   5.092 -3.0022 -0.1390  0.0934
 8663SOL     OW37624   4.579   3.244   7.032 -0.0004  0.3378  0.5120
 8663SOL    HW137625   4.641   3.216   6.964 -0.9208  2.6866 -1.2895
 8663SOL    HW237626   4.610   3.182   7.098 -1.4940 -0.8911  0.0465
 8664SOL     OW37627   1.366   1.973   8.538 -0.7614  0.0782 -0.4967
 8664SOL    HW137628   1.318   1.940   8.613  0.8130  2.0147  1.3733
 8664SOL    HW237629   1.288   2.004   8.492 -0.9930  3.4904  2.2175
 8665SOL     OW37630   3.410   0.625   5.025 -0.4506  0.2365  0.1913
 8665SOL    HW137631   3.415   0.678   4.945  1.5826 -2.1876 -1.3047
 8665SOL    HW237632   3.389   0.543   4.980  0.8992 -0.2428  0.4372
 8666SOL     OW37633   1.773   4.290   3.035  0.3553  0.0443  0.2128
 8666SOL    HW137634   1.772   4.385   3.031  0.2236  0.0493  0.3471
 8666SOL    HW237635   1.683   4.265   3.054 -0.2578  1.3785 -1.0031
 8667SOL     OW37636   2.597   3.800  12.522  0.3310 -0.0970  0.1258
 8667SOL    HW137637   2.528   3.846  12.474 -1.3476 -0.3954  2.2379
 8667SOL    HW237638   2.616   3.867  12.588  1.9661  0.9724 -1.4450
 8668SOL     OW37639   3.798   0.883   7.308 -0.4710  0.5813 -0.0897
 8668SOL    HW137640   3.758   0.857   7.391 -0.9279  1.8162  0.0953
 8668SOL    HW237641   3.852   0.805   7.303 -0.5368  0.3912  2.0024
 8669SOL     OW37642   1.324   4.099  14.474 -0.5272 -0.1783 -0.2159
 8669SOL    HW137643   1.307   4.159  14.401 -0.9337 -0.5806 -0.4539
 8669SOL    HW237644   1.329   4.008  14.445  0.7324  0.0256 -0.6447
 8670SOL     OW37645   2.725   0.529   5.146 -0.0475 -0.0632 -0.1384
 8670SOL    HW137646   2.793   0.517   5.080  1.1893 -0.4730  1.1836
 8670SOL    HW237647   2.665   0.462   5.114  0.2185  0.0439 -0.8492
 8671SOL     OW37648   4.624   2.632   3.578  0.2900 -0.0510 -0.2374
 8671SOL    HW137649   4.624   2.661   3.487 -0.6572 -0.7647 -0.4720
 8671SOL    HW237650   4.716   2.607   3.584 -0.3153 -2.7971 -2.4077
 8672SOL     OW37651   4.353   1.914   4.560  0.4913  0.2402  0.1977
 8672SOL    HW137652   4.350   2.009   4.558 -1.4715  0.1400 -0.6607
 8672SOL    HW237653   4.264   1.884   4.542  0.7039  0.8679 -1.8759
 8673SOL     OW37654   2.295   1.361   8.566  0.2398 -0.1754 -0.2820
 8673SOL    HW137655   2.370   1.406   8.526  0.8593 -1.4531 -0.5634
 8673SOL    HW237656   2.237   1.344   8.493 -3.2491  0.4448  2.3435
 8674SOL     OW37657   1.192   0.996   3.994  0.5755 -0.3301 -0.3604
 8674SOL    HW137658   1.107   1.027   3.963 -0.1854 -2.0144  0.0359
 8674SOL    HW237659   1.251   1.059   3.953  0.5648  0.8749  1.4651
 8675SOL     OW37660   3.918   3.152   1.959 -0.2022 -0.5636  0.4346
 8675SOL    HW137661   3.878   3.213   2.021 -0.0493 -0.0326  0.0065
 8675SOL    HW237662   3.959   3.207   1.893 -1.2545  0.8754  0.9841
 8676SOL     OW37663   4.556   0.340   4.623 -0.5752  0.0415 -0.4650
 8676SOL    HW137664   4.509   0.421   4.643 -1.0087  0.1322 -1.8918
 8676SOL    HW237665   4.562   0.344   4.528  0.5601 -1.7598 -0.4835
 8677SOL     OW37666   3.983   2.011  12.409  0.2878  0.1285  0.0011
 8677SOL    HW137667   3.894   2.046  12.416 -0.2580 -0.8748 -1.9364
 8677SOL    HW237668   3.963   1.918  12.410  1.7450 -0.1848 -0.2430
 8678SOL     OW37669   2.015   2.526   5.130  0.6429  0.7091 -0.7042
 8678SOL    HW137670   2.060   2.592   5.183 -0.3827 -0.7845  1.9689
 8678SOL    HW237671   2.018   2.451   5.189 -2.4882  1.6738  0.6606
 8679SOL     OW37672   4.131   3.682   9.422 -0.1054  0.0544 -0.3721
 8679SOL    HW137673   4.147   3.599   9.377 -0.3209 -0.8265  1.1752
 8679SOL    HW237674   4.178   3.662   9.503  1.2263  0.6217 -1.0016
 8680SOL     OW37675   0.864   4.541   4.233  0.0990 -0.3168  0.0999
 8680SOL    HW137676   0.817   4.476   4.286 -2.7849  1.1667 -0.6655
 8680SOL    HW237677   0.818   4.620   4.262  0.3697  0.3408 -1.2465
 8681SOL     OW37678   1.447   1.224   7.569 -0.3222 -0.1518 -0.2228
 8681SOL    HW137679   1.392   1.159   7.525 -0.9948  0.8502 -0.8463
 8681SOL    HW237680   1.523   1.169   7.591  0.2709  0.9834  0.5166
 8682SOL     OW37681   2.008   1.289  12.170  0.7067 -0.0597 -0.0382
 8682SOL    HW137682   1.969   1.310  12.255 -0.9921 -0.0787 -0.8092
 8682SOL    HW237683   2.093   1.264  12.207  0.6533  0.9378  0.7471
 8683SOL     OW37684   3.555   3.773   8.734 -0.6690  0.2840  0.2043
 8683SOL    HW137685   3.489   3.834   8.703 -3.3151 -1.7189  1.8697
 8683SOL    HW237686   3.521   3.685   8.716 -0.7161  0.6718 -1.5779
 8684SOL     OW37687   0.376   2.664  14.520  0.3176 -0.0822  0.7601
 8684SOL    HW137688   0.465   2.674  14.486 -0.1475  1.3233 -0.0421
 8684SOL    HW237689   0.388   2.575  14.554 -4.7899 -2.6603 -4.1732
 8685SOL     OW37690   3.656   0.349   3.576  0.6110  0.1381 -0.1244
 8685SOL    HW137691   3.693   0.410   3.513 -0.7653  0.4487 -0.6336
 8685SOL    HW237692   3.563   0.369   3.569  1.1919  2.8874  0.2189
 8686SOL     OW37693   4.047   1.845   3.963 -0.6017 -0.1495  0.2831
 8686SOL    HW137694   4.119   1.847   3.900 -0.4770 -0.1595  0.4260
 8686SOL    HW237695   4.055   1.760   4.005  0.7940 -0.0972  0.1304
 8687SOL     OW37696   2.252   0.905   5.989  0.4549  0.1757 -0.8225
 8687SOL    HW137697   2.290   0.856   5.916 -1.3116 -0.0330 -1.5894
 8687SOL    HW237698   2.213   0.978   5.941  2.7003  0.5339 -2.1554
 8688SOL     OW37699   3.199   4.660  13.707  0.4461  0.5073 -0.5511
 8688SOL    HW137700   3.260   4.687  13.776 -0.9570  0.6412  0.6520
 8688SOL    HW237701   3.141   4.733  13.687  0.7362  0.8984  0.0421
 8689SOL     OW37702   4.326   3.764   5.365  0.2077 -0.4288  0.1973
 8689SOL    HW137703   4.269   3.706   5.315  1.7019  1.1132 -3.2926
 8689SOL    HW237704   4.414   3.733   5.344  0.8323  1.0514  0.6106
 8690SOL     OW37705   2.819   1.124   6.737 -0.3281  0.3862  0.2293
 8690SOL    HW137706   2.869   1.120   6.818  1.5687  1.1742 -0.8813
 8690SOL    HW237707   2.748   1.063   6.753 -0.4678  0.3590 -0.4797
 8691SOL     OW37708   1.343   4.028   4.344  0.3738 -0.1812  0.1445
 8691SOL    HW137709   1.280   4.011   4.274 -1.1184  1.4415  1.0768
 8691SOL    HW237710   1.341   4.124   4.342  0.4919 -0.1375  2.0155
 8692SOL     OW37711   2.549   0.364   1.364  0.2263  0.5162 -0.7533
 8692SOL    HW137712   2.510   0.450   1.347 -0.7615  0.5936  1.8844
 8692SOL    HW237713   2.481   0.322   1.417 -1.3960  1.4118 -2.1078
 8693SOL     OW37714   3.403   1.336  11.985 -0.1318 -0.1771 -0.3626
 8693SOL    HW137715   3.345   1.265  11.959  0.2880 -0.3740 -0.7372
 8693SOL    HW237716   3.369   1.406  11.929 -2.0683 -1.8450 -1.2592
 8694SOL     OW37717   2.176   0.599  11.622  0.6678  0.7018 -0.0415
 8694SOL    HW137718   2.111   0.534  11.651  1.3386 -0.1551 -0.4455
 8694SOL    HW237719   2.263   0.558  11.625 -0.7887 -2.4057 -0.3430
 8695SOL     OW37720   4.396   2.567  11.129  0.4416  0.0994  0.3509
 8695SOL    HW137721   4.465   2.514  11.090  0.7897 -0.0097  1.1238
 8695SOL    HW237722   4.321   2.524  11.087 -0.1967  1.9181 -0.3661
 8696SOL     OW37723   2.837   0.404   0.198  0.0500  0.5773  0.5082
 8696SOL    HW137724   2.905   0.467   0.173  1.8115 -1.7399 -0.5042
 8696SOL    HW237725   2.839   0.355   0.116 -0.0447  1.2439  0.1093
 8697SOL     OW37726   1.611   3.745   8.734 -0.2722  0.5217 -0.3333
 8697SOL    HW137727   1.633   3.706   8.819 -1.7671  1.9510  0.7034
 8697SOL    HW237728   1.622   3.664   8.684  1.5578  0.5062  0.0963
 8698SOL     OW37729   3.493   0.504  11.152 -0.4623  0.0720 -0.6061
 8698SOL    HW137730   3.420   0.565  11.138 -0.4644  0.5978  1.7991
 8698SOL    HW237731   3.554   0.548  11.092  0.5466  0.9075  1.0326
 8699SOL     OW37732   3.309   2.416   5.135 -0.4144  0.5079  0.1409
 8699SOL    HW137733   3.288   2.353   5.066 -0.9407  0.5635  0.2512
 8699SOL    HW237734   3.366   2.357   5.185 -1.1391 -0.6858 -0.4574
 8700SOL     OW37735   1.239   3.286   7.549 -0.2452 -0.3369 -0.3267
 8700SOL    HW137736   1.179   3.226   7.505 -1.1453  1.0802 -1.0417
 8700SOL    HW237737   1.295   3.320   7.479 -1.7888  1.9455 -0.4514
 8701SOL     OW37738   4.403   1.486   7.183 -0.2023  0.0056  0.4198
 8701SOL    HW137739   4.425   1.571   7.145 -1.3450  0.6530  1.2065
 8701SOL    HW237740   4.336   1.455   7.123  1.3909  0.2634 -1.4932
 8702SOL     OW37741   0.484   0.879  15.590 -0.2818 -0.2022  0.1788
 8702SOL    HW137742   0.481   0.914  15.501  0.9578  0.9461  0.5936
 8702SOL    HW237743   0.501   0.787  15.568 -1.0366 -0.2383 -0.2778
 8703SOL     OW37744   0.505   3.405   2.207 -0.3713 -0.5229 -0.0204
 8703SOL    HW137745   0.463   3.403   2.293 -1.8591  0.2162 -0.7261
 8703SOL    HW237746   0.553   3.323   2.198  1.8376  0.5413  1.8756
 8704SOL     OW37747   3.148   4.265   4.010 -0.0163  0.6818  0.3287
 8704SOL    HW137748   3.056   4.276   3.984  0.4155  1.3321 -0.9245
 8704SOL    HW237749   3.163   4.173   4.033  1.4834  0.2031 -2.5966
 8705SOL     OW37750   2.464   3.628  13.598 -0.6483 -0.1685 -0.7561
 8705SOL    HW137751   2.533   3.563  13.612 -0.4667  0.1131 -0.3463
 8705SOL    HW237752   2.475   3.637  13.503 -1.4123  1.9280 -0.6347
 8706SOL     OW37753   4.639   4.514  11.560 -0.2419 -0.0609 -0.0201
 8706SOL    HW137754   4.704   4.550  11.499 -2.6220  3.1499 -0.6926
 8706SOL    HW237755   4.699   4.461  11.612  0.6219  2.2879  1.3725
 8707SOL     OW37756   3.893   1.769   7.575 -0.1561  0.1407  0.1408
 8707SOL    HW137757   3.944   1.825   7.634  0.5947 -0.4427  0.0481
 8707SOL    HW237758   3.961   1.762   7.509 -1.2893  0.9590 -1.1128
 8708SOL     OW37759   3.483   0.636   2.412 -0.4357  0.0047  0.0704
 8708SOL    HW137760   3.483   0.682   2.495  0.2978  1.6831 -0.8655
 8708SOL    HW237761   3.460   0.701   2.346 -0.1462  1.7665  1.7359
 8709SOL     OW37762   1.395   3.178   6.696 -0.0409  0.0187 -0.0572
 8709SOL    HW137763   1.406   3.083   6.692  1.3086  0.1913 -0.4348
 8709SOL    HW237764   1.302   3.176   6.674 -0.0775  1.1609 -0.0437
 8710SOL     OW37765   1.436   1.859   8.182 -0.5656  0.0034 -0.1327
 8710SOL    HW137766   1.377   1.926   8.214  2.6700  1.7120  2.2512
 8710SOL    HW237767   1.509   1.852   8.244 -0.8671 -0.8706  0.1182
 8711SOL     OW37768   2.716   4.451  16.751  0.0466 -0.2225  0.1755
 8711SOL    HW137769   2.649   4.413  16.807 -0.7775  0.4802 -0.3223
 8711SOL    HW237770   2.791   4.437  16.808 -0.4149 -0.0996  0.8086
 8712SOL     OW37771   1.719   4.435   4.496  0.1804  0.8099 -0.7187
 8712SOL    HW137772   1.792   4.442   4.558 -0.0445 -1.2902 -0.2343
 8712SOL    HW237773   1.729   4.364   4.433 -1.6869  0.2679 -0.4021
 8713SOL     OW37774   2.300   0.865   6.992  0.4409 -0.1773  0.1465
 8713SOL    HW137775   2.239   0.904   7.055  0.5418 -0.9100  0.6915
 8713SOL    HW237776   2.381   0.863   7.043  0.7706 -3.0247 -0.4801
 8714SOL     OW37777   1.004   4.452   0.005 -0.0824  0.1024 -0.0931
 8714SOL    HW137778   0.938   4.383   0.005  0.1147 -0.0729  2.7329
 8714SOL    HW237779   1.087   4.408  17.736  1.3809  2.0329  1.5438
 8715SOL     OW37780   1.491   2.276  16.845  0.9292  0.8465  0.0852
 8715SOL    HW137781   1.449   2.200  16.804 -1.3432  1.4045  1.3920
 8715SOL    HW237782   1.532   2.241  16.924 -1.3243  0.6515  1.1779
 8716SOL     OW37783   0.899   1.673   0.099  0.9625 -0.4589 -0.4960
 8716SOL    HW137784   0.821   1.712   0.060  1.6354  2.5333  1.1479
 8716SOL    HW237785   0.935   1.752   0.137 -1.4199  0.8639 -0.9689
 8717SOL     OW37786   4.718   0.256   7.483  0.2585 -0.0566  0.3169
 8717SOL    HW137787   4.636   0.253   7.533 -0.5983 -2.4747 -1.2677
 8717SOL    HW237788   4.683   0.269   7.395  0.8445 -3.7496 -0.4447
 8718SOL     OW37789   2.596   0.754  14.551 -0.0918  0.2081  0.2296
 8718SOL    HW137790   2.644   0.811  14.611 -0.3843  0.8289 -0.1294
 8718SOL    HW237791   2.669   0.753  14.489 -0.6896 -1.1640 -0.4503
 8719SOL     OW37792   2.564   0.844   7.113 -0.0943 -0.2660 -0.0905
 8719SOL    HW137793   2.638   0.865   7.170  0.9004  0.3389 -1.5895
 8719SOL    HW237794   2.570   0.749   7.109 -0.7578 -0.2955 -0.4431
 8720SOL     OW37795   1.717   3.665   1.621  0.0637 -0.5956 -0.6079
 8720SOL    HW137796   1.652   3.627   1.680 -0.4048 -0.6099 -1.1310
 8720SOL    HW237797   1.794   3.644   1.674  0.4493  1.2595 -0.4496
 8721SOL     OW37798   2.603   0.966   5.535 -0.0957  0.4031 -0.3697
 8721SOL    HW137799   2.545   0.891   5.518  0.6365 -0.4427  0.8488
 8721SOL    HW237800   2.551   1.034   5.578  0.1299  0.6559 -0.4998
 8722SOL     OW37801   0.867   2.354   9.792 -0.2429 -0.2243 -0.8483
 8722SOL    HW137802   0.950   2.366   9.838 -0.3422  1.0428 -1.0061
 8722SOL    HW237803   0.836   2.444   9.787  0.3932  0.0558  0.2154
 8723SOL     OW37804   3.006   1.601  17.328  0.0213 -0.2099  0.4730
 8723SOL    HW137805   2.993   1.641  17.242 -0.6794 -0.5164  0.4316
 8723SOL    HW237806   3.083   1.655  17.345  0.5191 -0.5895 -0.5544
 8724SOL     OW37807   2.785   0.218  11.143  0.2886  0.4950  0.1173
 8724SOL    HW137808   2.720   0.261  11.088 -1.3878 -2.6421 -0.3817
 8724SOL    HW237809   2.865   0.245  11.098  0.1294 -0.7689 -0.9362
 8725SOL     OW37810   4.325   3.162   4.398 -0.3408  0.0338  0.5812
 8725SOL    HW137811   4.242   3.118   4.378 -1.0300  1.1806  0.9635
 8725SOL    HW237812   4.299   3.249   4.425  1.6594  0.4716  1.1343
 8726SOL     OW37813   3.298   2.184   9.978 -0.3920  0.0835 -0.5389
 8726SOL    HW137814   3.286   2.261   9.923 -2.4894 -0.4155 -0.8084
 8726SOL    HW237815   3.333   2.113   9.924 -0.8218 -0.4220 -0.1660
 8727SOL     OW37816   4.057   1.856   8.129 -0.4714 -0.4964  0.2784
 8727SOL    HW137817   4.108   1.857   8.210  0.6503  2.1100 -0.4807
 8727SOL    HW237818   4.093   1.782   8.080  0.3471  1.6924 -2.4286
 8728SOL     OW37819   4.635   4.734   5.815 -0.2804  0.2342 -0.6650
 8728SOL    HW137820   4.556   4.703   5.860 -0.4070 -0.0496 -1.0903
 8728SOL    HW237821   4.654   4.653   5.768  1.2616  0.8068 -1.0282
 8729SOL     OW37822   2.793   2.388   9.649  0.0116 -0.5608  0.2586
 8729SOL    HW137823   2.888   2.378   9.649 -0.0512 -1.2291 -2.8001
 8729SOL    HW237824   2.779   2.376   9.555  1.1397 -2.9720  0.3983
 8730SOL     OW37825   3.389   1.532   8.044  0.2395  0.0001  0.0085
 8730SOL    HW137826   3.369   1.514   7.952  4.1708  0.5125 -0.9224
 8730SOL    HW237827   3.328   1.605   8.060  2.1043  1.4727  0.3588
 8731SOL     OW37828   3.450   4.275   1.945 -0.0881  0.1900 -0.0860
 8731SOL    HW137829   3.359   4.273   1.917 -0.1576 -0.1380  0.1748
 8731SOL    HW237830   3.439   4.241   2.034 -1.0168  0.9567  0.0904
 8732SOL     OW37831   1.993   0.528  10.856  0.1713 -0.3305 -0.7825
 8732SOL    HW137832   2.021   0.618  10.870 -0.6771 -0.2651  0.5078
 8732SOL    HW237833   1.904   0.530  10.891  0.6896 -0.8989  0.6053
 8733SOL     OW37834   3.195   1.232  16.547  0.0543 -0.0459 -0.0640
 8733SOL    HW137835   3.140   1.309  16.559  0.2034  0.2058 -0.9969
 8733SOL    HW237836   3.171   1.183  16.625  2.9125  0.2912  1.0363
 8734SOL     OW37837   0.567   0.521   6.492 -0.0896  0.7374 -0.4924
 8734SOL    HW137838   0.525   0.501   6.575 -0.0597  1.4539 -0.2994
 8734SOL    HW237839   0.497   0.530   6.427 -1.2463  3.6697  1.1245
 8735SOL     OW37840   1.006   4.109  15.574  0.6140  0.0830  0.1832
 8735SOL    HW137841   1.094   4.108  15.536  0.2327  1.1156 -0.7214
 8735SOL    HW237842   0.955   4.136  15.498  0.0405 -0.4806  0.3734
 8736SOL     OW37843   3.555   0.620   4.264 -0.3533  0.4511 -0.6233
 8736SOL    HW137844   3.529   0.684   4.330 -0.2996  0.8351 -0.9709
 8736SOL    HW237845   3.641   0.590   4.293  0.7854  1.5301 -2.8747
 8737SOL     OW37846   2.120   1.182   6.198  0.5934 -0.2072 -0.3184
 8737SOL    HW137847   2.173   1.195   6.120 -1.1335 -1.5252 -1.7088
 8737SOL    HW237848   2.187   1.134   6.247 -0.9593 -1.5164  0.5411
 8738SOL     OW37849   2.368   3.565   5.231 -0.3583  0.0091  0.6858
 8738SOL    HW137850   2.281   3.526   5.230 -0.1858 -0.4132  2.2435
 8738SOL    HW237851   2.420   3.489   5.204  1.1810  1.1875  0.3238
 8739SOL     OW37852   1.324   0.781  14.159 -0.3638 -0.0469 -0.3271
 8739SOL    HW137853   1.246   0.729  14.139 -0.3333 -0.1395 -0.2100
 8739SOL    HW237854   1.325   0.830  14.077  1.6890 -0.4259 -0.5291
 8740SOL     OW37855   3.599   2.648   4.148  0.3656 -0.8419 -0.2531
 8740SOL    HW137856   3.617   2.724   4.204 -0.7667 -0.1941 -0.7608
 8740SOL    HW237857   3.645   2.670   4.067 -0.4667  1.3884 -0.1193
 8741SOL     OW37858   0.411   1.334   4.288  0.5088  0.7322 -0.3644
 8741SOL    HW137859   0.357   1.300   4.217  1.6965  1.1645 -1.4781
 8741SOL    HW237860   0.360   1.413   4.307 -0.0914  0.6703 -1.7096
 8742SOL     OW37861   3.035   2.524   2.812 -0.3436 -0.8329 -1.1096
 8742SOL    HW137862   3.002   2.475   2.737  1.3969 -3.0358 -0.4138
 8742SOL    HW237863   3.032   2.465   2.887  0.7338 -0.1509 -0.5271
 8743SOL     OW37864   3.541   2.267   7.057 -0.1098  0.3580  0.2460
 8743SOL    HW137865   3.600   2.317   7.113 -0.2146  0.4290  0.2929
 8743SOL    HW237866   3.524   2.335   6.992 -1.1853 -0.2405 -0.0942
 8744SOL     OW37867   2.244   4.515   5.464 -0.1272  0.2482  0.4412
 8744SOL    HW137868   2.230   4.421   5.451 -0.6122  0.7958 -2.9885
 8744SOL    HW237869   2.195   4.549   5.390  0.8625 -2.8410 -1.6294
 8745SOL     OW37870   0.400   1.799   4.753  0.2078 -0.1035 -0.2965
 8745SOL    HW137871   0.386   1.891   4.775  1.0491  0.2789 -1.3551
 8745SOL    HW237872   0.380   1.757   4.837 -0.2296 -1.5599 -1.1344
 8746SOL     OW37873   2.744   1.506  12.681 -0.1541 -0.2064  0.6903
 8746SOL    HW137874   2.798   1.449  12.735  0.0400 -1.0000 -0.3444
 8746SOL    HW237875   2.807   1.535  12.614 -0.0013 -1.8626  0.1225
 8747SOL     OW37876   3.241   1.145  11.853  0.5663  0.1287 -0.2649
 8747SOL    HW137877   3.179   1.075  11.872  1.4788 -0.6435 -0.1744
 8747SOL    HW237878   3.175   1.215  11.856  0.1075 -0.3254  0.2247
 8748SOL     OW37879   0.525   2.135   1.498 -0.3235 -0.0226  0.3091
 8748SOL    HW137880   0.569   2.194   1.436  0.3111  1.1892  1.9039
 8748SOL    HW237881   0.432   2.141   1.479 -0.5503  0.7525  1.7018
 8749SOL     OW37882   1.314   1.614   8.197 -0.4573  0.9771  0.8585
 8749SOL    HW137883   1.269   1.641   8.278 -0.3872 -1.0623  1.5647
 8749SOL    HW237884   1.355   1.700   8.183  0.7747  0.1356 -0.6969
 8750SOL     OW37885   3.200   0.419   8.630 -0.3226  0.1322 -0.0789
 8750SOL    HW137886   3.243   0.333   8.632  1.7360  1.1759  0.8163
 8750SOL    HW237887   3.187   0.439   8.537  0.4721  0.7062 -0.0735
 8751SOL     OW37888   1.972   0.436   3.132  0.2805 -1.1253  0.5076
 8751SOL    HW137889   1.988   0.385   3.211  0.1664  0.5160  1.5971
 8751SOL    HW237890   2.016   0.518   3.156 -2.2266 -0.2013  1.9258
 8752SOL     OW37891   4.537   3.921   1.865 -0.1624  0.0339 -0.1270
 8752SOL    HW137892   4.601   3.948   1.931 -0.6406 -1.0220  0.7738
 8752SOL    HW237893   4.578   3.965   1.791 -0.5221  1.6908  0.6528
 8753SOL     OW37894   4.273   3.054  10.167  0.1283 -0.2034 -0.3415
 8753SOL    HW137895   4.213   3.009  10.227 -0.5792  1.9629  0.5828
 8753SOL    HW237896   4.256   2.999  10.090 -1.2822 -1.3470  0.7811
 8754SOL     OW37897   4.493   1.506   1.408  0.2346 -0.6008  0.3611
 8754SOL    HW137898   4.461   1.546   1.489  0.9306  0.2770  0.2124
 8754SOL    HW237899   4.410   1.498   1.362  0.5848  2.5685 -0.8126
 8755SOL     OW37900   2.362   2.726  12.853 -0.0627  0.5221  0.4960
 8755SOL    HW137901   2.436   2.753  12.799  1.0245 -1.2134  1.1238
 8755SOL    HW237902   2.302   2.685  12.790  1.4195  1.4434 -1.5043
 8756SOL     OW37903   1.218   4.267  14.274 -0.3259 -0.6524 -0.1675
 8756SOL    HW137904   1.253   4.243  14.188  1.3536 -0.8704  0.5775
 8756SOL    HW237905   1.124   4.253  14.262 -0.1654 -1.8424 -0.0412
 8757SOL     OW37906   0.605   2.397   3.945  0.8753 -0.0069  0.0978
 8757SOL    HW137907   0.561   2.334   4.001 -0.3227  0.2917 -0.5194
 8757SOL    HW237908   0.694   2.407   3.980  2.0478 -0.4254 -2.6944
 8758SOL     OW37909   1.373   4.571   5.442 -0.1137  0.1985 -0.1184
 8758SOL    HW137910   1.337   4.483   5.449  2.0656 -0.6903 -0.0492
 8758SOL    HW237911   1.401   4.562   5.351  0.4023 -0.8532  0.1455
 8759SOL     OW37912   0.641   1.553   2.295 -0.7708  0.5590  0.1853
 8759SOL    HW137913   0.589   1.476   2.274  1.0152  0.2388 -2.9798
 8759SOL    HW237914   0.601   1.576   2.379  0.8458 -2.3194  1.7540
 8760SOL     OW37915   0.842   1.082   2.582 -0.1906  0.5617  0.4967
 8760SOL    HW137916   0.783   1.027   2.531 -0.4070  2.1852 -1.0168
 8760SOL    HW237917   0.913   1.102   2.520 -1.2665  1.2511 -0.5061
 8761SOL     OW37918   3.580   4.260   5.832  0.1858 -0.3136  0.1927
 8761SOL    HW137919   3.621   4.270   5.918  0.2166  1.7236 -0.0677
 8761SOL    HW237920   3.636   4.194   5.791 -0.2023 -0.5171 -0.0176
 8762SOL     OW37921   1.689   2.068  16.911  0.4026  0.1296  0.0493
 8762SOL    HW137922   1.611   2.022  16.880  0.5688 -0.1397  0.0302
 8762SOL    HW237923   1.728   2.006  16.972  0.5878  1.0094  0.8271
 8763SOL     OW37924   1.279   2.955   8.088  0.4952 -0.1576 -0.1027
 8763SOL    HW137925   1.290   2.878   8.032 -1.9514 -0.4738 -0.1291
 8763SOL    HW237926   1.256   2.910   8.169 -0.3713  0.3744 -0.0562
 8764SOL     OW37927   3.788   3.159  17.185 -0.7144 -0.4223  0.3416
 8764SOL    HW137928   3.822   3.188  17.269 -1.7215 -0.3965  0.7368
 8764SOL    HW237929   3.812   3.237  17.134 -1.0513 -1.6432 -1.6892
 8765SOL     OW37930   1.828   0.525   8.013 -0.0561  0.2113  0.2159
 8765SOL    HW137931   1.908   0.523   8.066  0.6764  0.3016 -0.8891
 8765SOL    HW237932   1.761   0.491   8.072 -0.1446  0.7684  0.4303
 8766SOL     OW37933   2.562   2.394   6.779 -0.6620 -0.4154 -0.1699
 8766SOL    HW137934   2.562   2.333   6.706  1.9092 -0.8144  0.1463
 8766SOL    HW237935   2.623   2.459   6.743 -3.7037  2.0683 -0.9049
 8767SOL     OW37936   0.354   4.071   6.707  0.1350  0.0973  0.4706
 8767SOL    HW137937   0.303   4.148   6.733 -0.3563  0.9471 -3.0211
 8767SOL    HW237938   0.303   3.997   6.739  0.6555 -0.3356  0.2913
 8768SOL     OW37939   1.751   4.115   6.592 -0.4641  0.7098 -0.5298
 8768SOL    HW137940   1.840   4.095   6.564 -1.0530 -3.0237  0.2593
 8768SOL    HW237941   1.702   4.035   6.575  1.1226 -0.1843 -0.8659
 8769SOL     OW37942   2.927   0.541   5.369 -0.6618 -0.5316  0.1079
 8769SOL    HW137943   2.927   0.452   5.406  0.4834  0.0473  1.5064
 8769SOL    HW237944   2.845   0.539   5.320 -0.6788 -2.4264  0.2092
 8770SOL     OW37945   3.145   1.439   1.718  0.0034 -0.2144 -0.1904
 8770SOL    HW137946   3.118   1.433   1.627  0.2536 -1.2110 -0.1920
 8770SOL    HW237947   3.235   1.405   1.716  0.1824  0.2524 -0.1394
 8771SOL     OW37948   3.990   4.566   4.382 -0.3934  0.4889  0.7684
 8771SOL    HW137949   3.974   4.558   4.476  1.7048  0.7718  1.1434
 8771SOL    HW237950   3.929   4.635   4.356 -0.6171  0.7390  1.9417
 8772SOL     OW37951   3.896   4.293  15.592  0.2011  0.1993  0.2984
 8772SOL    HW137952   3.820   4.240  15.614  0.1916  0.0940  0.0067
 8772SOL    HW237953   3.875   4.328  15.506  1.3746  1.1931  0.4049
 8773SOL     OW37954   1.923   2.174   5.497 -0.0250  0.0437 -0.2465
 8773SOL    HW137955   1.982   2.229   5.445  1.7107 -0.2738  1.3920
 8773SOL    HW237956   1.942   2.086   5.465 -1.9986  0.2320 -1.9476
 8774SOL     OW37957   1.291   2.341  15.041  0.0304 -0.4297  0.2759
 8774SOL    HW137958   1.202   2.305  15.042  0.0723 -0.5660 -0.6892
 8774SOL    HW237959   1.342   2.260  15.048  1.8642  0.7434  0.3572
 8775SOL     OW37960   0.034   2.587   0.170  0.2272  0.6834  0.8131
 8775SOL    HW137961   0.107   2.588   0.232  1.1230 -0.5302 -0.1910
 8775SOL    HW237962   4.707   2.625   0.227 -1.4012 -0.2847 -0.4042
 8776SOL     OW37963   3.859   2.689   7.661  0.6236 -0.1801 -0.2676
 8776SOL    HW137964   3.869   2.606   7.707 -0.2204 -0.3696 -0.4175
 8776SOL    HW237965   3.767   2.683   7.634  0.2571  2.4905  0.3869
 8777SOL     OW37966   4.603   0.895   2.876 -0.5340 -0.2171  0.2913
 8777SOL    HW137967   4.553   0.896   2.958  1.3909  2.6333  1.4159
 8777SOL    HW237968   4.600   0.801   2.857  1.2331 -0.6215  1.9594
 8778SOL     OW37969   2.650   4.203   7.770 -0.1476  0.4551  0.0786
 8778SOL    HW137970   2.621   4.229   7.682  0.2275  0.7212  0.0352
 8778SOL    HW237971   2.729   4.151   7.753 -2.0634 -2.1693 -0.7837
 8779SOL     OW37972   4.654   1.120   9.170  0.1711  0.0404 -0.3358
 8779SOL    HW137973   0.001   1.084   9.145  1.3063  1.7283  1.0742
 8779SOL    HW237974   4.656   1.098   9.263 -0.2220 -2.2191 -0.8630
 8780SOL     OW37975   3.890   2.462   5.712 -0.3199 -0.1849 -0.4308
 8780SOL    HW137976   3.796   2.444   5.706 -0.7853  2.1809  0.0236
 8780SOL    HW237977   3.921   2.390   5.657  2.0246  1.0146 -0.6548
 8781SOL     OW37978   4.524   3.590  14.228 -0.1561  0.4542  0.1075
 8781SOL    HW137979   4.533   3.617  14.137  0.7715 -3.1116 -0.8417
 8781SOL    HW237980   4.601   3.630  14.267  0.5262  0.3330 -1.1258
 8782SOL     OW37981   3.130   2.494   4.315  0.5208  0.7685 -0.1520
 8782SOL    HW137982   3.172   2.533   4.238  0.2163 -0.4300 -0.9334
 8782SOL    HW237983   3.202   2.468   4.373  0.1397 -1.4465 -0.6770
 8783SOL     OW37984   4.437   3.530   5.819 -0.4142 -0.2608  0.3383
 8783SOL    HW137985   4.370   3.504   5.882  0.7427  0.7890  1.9984
 8783SOL    HW237986   4.506   3.468   5.843  0.4205  0.2841 -0.6327
 8784SOL     OW37987   0.185   0.153   9.725 -0.1279 -0.0360  0.0951
 8784SOL    HW137988   0.279   0.155   9.705 -0.2627 -0.1136 -0.5531
 8784SOL    HW237989   0.147   0.172   9.639  0.2784  0.0986 -0.0567
 8785SOL     OW37990   2.930   2.166   4.855  0.2795  0.0850  0.2263
 8785SOL    HW137991   2.981   2.235   4.899  3.1144 -2.6304  1.1983
 8785SOL    HW237992   2.990   2.095   4.835  0.0302 -0.0102 -0.1777
 8786SOL     OW37993   2.205   1.092   5.386  0.4941  0.0446 -0.4679
 8786SOL    HW137994   2.139   1.134   5.442  0.2152 -0.7538 -0.1919
 8786SOL    HW237995   2.198   1.153   5.313  1.6548 -1.0228 -1.4905
 8787SOL     OW37996   1.267   0.370   6.711 -0.1928 -0.2395  0.5140
 8787SOL    HW137997   1.286   0.367   6.617 -1.8939  3.5239  0.0255
 8787SOL    HW237998   1.262   0.278   6.736 -0.7721 -1.3495 -3.6246
 8788SOL     OW37999   4.299   3.500   8.452  0.7828  0.6160 -0.5953
 8788SOL    HW138000   4.307   3.580   8.401  1.6176  2.1105  1.8884
 8788SOL    HW238001   4.381   3.453   8.433  0.2944 -0.5950  0.2988
 8789SOL     OW38002   2.394   3.283   4.498 -0.2974 -0.6047  0.5527
 8789SOL    HW138003   2.349   3.317   4.420 -1.0774 -0.0376  1.2490
 8789SOL    HW238004   2.423   3.194   4.476  2.2207  0.8195 -1.8285
 8790SOL     OW38005   4.650   0.080   3.864  0.2293 -0.2072 -0.6690
 8790SOL    HW138006   4.682   4.730   3.850  0.6990 -0.3622  1.4607
 8790SOL    HW238007   4.555   0.067   3.856  0.1208  0.6428 -0.7477
 8791SOL     OW38008   0.790   0.106  13.443  0.4648 -0.2318 -0.1793
 8791SOL    HW138009   0.809   0.186  13.492 -0.4249  0.5423 -1.1035
 8791SOL    HW238010   0.770   0.140  13.356 -0.2037 -0.4677 -0.1234
 8792SOL     OW38011   2.919   2.444  11.094  0.2052 -0.0408  0.1799
 8792SOL    HW138012   2.899   2.533  11.064 -1.5723 -0.1349  1.1088
 8792SOL    HW238013   2.987   2.424  11.029 -0.0369  2.0439 -0.7246
 8793SOL     OW38014   3.946   1.582   5.218 -0.1251  0.6166  0.2951
 8793SOL    HW138015   4.021   1.631   5.183  3.5726 -5.8655 -0.8448
 8793SOL    HW238016   3.997   1.518   5.267  0.1479 -1.4135 -2.6504
 8794SOL     OW38017   4.521   0.348  12.069 -0.4038 -0.3667  0.0436
 8794SOL    HW138018   4.591   0.284  12.054  0.3136  0.0682  1.4996
 8794SOL    HW238019   4.463   0.340  11.994  0.6898 -0.7708 -0.7600
 8795SOL     OW38020   3.307   2.384   0.670  0.1240 -0.7076  0.2357
 8795SOL    HW138021   3.340   2.459   0.620  1.8608 -1.0116  0.9435
 8795SOL    HW238022   3.324   2.416   0.759  1.0602  0.0475 -0.2144
 8796SOL     OW38023   3.968   1.289  14.144 -0.2013 -0.0818 -0.0667
 8796SOL    HW138024   4.044   1.289  14.201 -0.3781 -1.0945  0.1634
 8796SOL    HW238025   3.952   1.202  14.108 -3.7588  0.1393  0.9875
 8797SOL     OW38026   1.794   4.536   5.544 -0.6822  0.1008 -0.2482
 8797SOL    HW138027   1.850   4.557   5.618 -1.4272  1.7949 -0.1837
 8797SOL    HW238028   1.832   4.453   5.514 -0.3472  0.6531 -1.3643
 8798SOL     OW38029   2.257   4.655   8.069 -0.5877  0.0881 -0.3969
 8798SOL    HW138030   2.189   4.691   8.126 -0.8401 -1.2891  0.1671
 8798SOL    HW238031   2.313   4.611   8.133  0.7664  0.0487 -1.6151
 8799SOL     OW38032   4.449   1.196   4.281 -0.2688  1.1646  0.2279
 8799SOL    HW138033   4.510   1.125   4.299 -0.0489  0.3862 -3.5920
 8799SOL    HW238034   4.427   1.178   4.189  2.4447  0.0499 -0.2103
 8800SOL     OW38035   2.273   0.840   4.793  0.2387  0.2545 -0.0232
 8800SOL    HW138036   2.219   0.765   4.770  1.0159 -0.0966 -0.7141
 8800SOL    HW238037   2.255   0.852   4.887 -0.3616 -0.1307 -0.0895
 8801SOL     OW38038   3.709   2.661  12.199 -0.7084 -0.6971 -0.1134
 8801SOL    HW138039   3.803   2.650  12.193 -0.6911 -1.0460  0.7806
 8801SOL    HW238040   3.687   2.605  12.273 -0.9611  0.9042  1.0330
 8802SOL     OW38041   0.390   0.604  16.574  0.0977  0.1953  0.5823
 8802SOL    HW138042   0.317   0.598  16.636 -2.0527 -0.1231 -1.9919
 8802SOL    HW238043   0.460   0.558  16.621  0.4561  0.8556  0.6874
 8803SOL     OW38044   1.255   1.221   2.151  0.1094  0.1798  0.1314
 8803SOL    HW138045   1.179   1.268   2.183 -0.9236 -0.2359 -1.6814
 8803SOL    HW238046   1.314   1.228   2.226 -3.1173  1.4902  2.5204
 8804SOL     OW38047   3.962   2.057   2.277 -0.1390  0.3295 -0.0836
 8804SOL    HW138048   4.010   1.997   2.333 -0.4827  2.5714  2.6081
 8804SOL    HW238049   3.921   1.992   2.220  1.1850  0.0894 -0.7763
 8805SOL     OW38050   2.206   3.673  13.705 -0.1843 -0.0625  0.0656
 8805SOL    HW138051   2.201   3.768  13.719  3.9707  0.6113 -3.0460
 8805SOL    HW238052   2.295   3.661  13.674  0.6958  2.8256  1.4391
 8806SOL     OW38053   0.355   3.180  17.239  0.7509  0.7328 -0.3419
 8806SOL    HW138054   0.438   3.189  17.193 -0.1160 -1.2343 -2.3224
 8806SOL    HW238055   0.354   3.259  17.294  0.7394  2.0160 -2.1830
 8807SOL     OW38056   0.752   0.908   4.660  0.6072  0.3600 -0.7933
 8807SOL    HW138057   0.737   0.999   4.686  2.3013  0.8863 -1.6229
 8807SOL    HW238058   0.731   0.866   4.743 -3.2819  0.2771 -1.8555
 8808SOL     OW38059   3.190   2.713   3.165 -0.4104 -0.6013  0.3937
 8808SOL    HW138060   3.232   2.777   3.108 -1.0555 -2.4032 -2.1165
 8808SOL    HW238061   3.182   2.632   3.114 -0.6130 -1.3829  1.6493
 8809SOL     OW38062   3.927   1.206   8.364 -0.4176 -0.4547 -0.4384
 8809SOL    HW138063   3.959   1.288   8.327 -0.8416  0.7278  1.8227
 8809SOL    HW238064   3.863   1.240   8.427  0.6018  2.6605 -1.1340
 8810SOL     OW38065   4.556   4.136   5.155  0.3704  0.2687 -0.3383
 8810SOL    HW138066   4.561   4.044   5.182 -0.4018  1.1635  2.8673
 8810SOL    HW238067   4.637   4.167   5.196 -0.2050  1.3800 -0.0438
 8811SOL     OW38068   2.129   3.066   6.948 -0.1574 -0.0658  0.3451
 8811SOL    HW138069   2.105   2.985   6.903  1.2546 -0.2962  0.0076
 8811SOL    HW238070   2.160   3.030   7.031 -1.2231  0.1979  0.8695
 8812SOL     OW38071   2.848   0.801  13.041  0.0857  0.2486 -0.2363
 8812SOL    HW138072   2.804   0.810  12.956  0.0123 -0.1956 -0.2471
 8812SOL    HW238073   2.858   0.706  13.040 -0.3467  0.2028 -0.3519
 8813SOL     OW38074   0.825   0.738  15.040  0.2581  0.4411 -0.3542
 8813SOL    HW138075   0.796   0.758  15.129 -0.8375 -0.8620 -0.4087
 8813SOL    HW238076   0.846   0.645  15.050 -3.2732 -0.1904  1.4590
 8814SOL     OW38077   4.157   3.494   0.942  0.4029 -0.1132 -0.0977
 8814SOL    HW138078   4.076   3.534   0.909 -0.1344  0.7687  2.2199
 8814SOL    HW238079   4.195   3.576   0.974  0.9983 -0.4007 -0.0709
 8815SOL     OW38080   4.111   2.221   3.974 -0.0633  0.1816  0.2634
 8815SOL    HW138081   4.157   2.254   3.897  3.7718 -0.6546  2.2272
 8815SOL    HW238082   4.176   2.232   4.043 -0.0959  0.8076  0.1958
 8816SOL     OW38083   1.215   0.629   1.753 -1.0369  0.4155  0.4585
 8816SOL    HW138084   1.237   0.550   1.704  0.3611  0.5676  0.8468
 8816SOL    HW238085   1.161   0.605   1.829  0.0133  0.2964  1.1733
 8817SOL     OW38086   2.245   3.712   1.516 -0.2632 -0.0899 -0.1604
 8817SOL    HW138087   2.161   3.758   1.516 -1.1390 -1.6647 -1.5715
 8817SOL    HW238088   2.229   3.647   1.447  0.5222 -1.2547  0.7638
 8818SOL     OW38089   3.706   1.354   2.527  0.6253  0.0668  0.5091
 8818SOL    HW138090   3.660   1.270   2.535 -0.4301  0.7156  1.3088
 8818SOL    HW238091   3.788   1.338   2.573  0.6755 -0.2628  0.3029
 8819SOL     OW38092   1.530   0.574   3.879  0.7251 -0.9250  0.5576
 8819SOL    HW138093   1.449   0.577   3.930  0.8304 -1.1863  0.7373
 8819SOL    HW238094   1.527   0.657   3.830 -2.4111 -0.3794  1.6426
 8820SOL     OW38095   0.456   4.320   8.159  0.4815  0.0309  0.1046
 8820SOL    HW138096   0.442   4.239   8.111  0.2837 -1.7657  3.2225
 8820SOL    HW238097   0.451   4.275   8.243 -1.2503  1.1890  0.6131
 8821SOL     OW38098   4.732   0.229   4.962 -0.4206  0.5550  0.4622
 8821SOL    HW138099   0.045   0.282   4.902 -1.5199 -0.0997 -1.0780
 8821SOL    HW238100   4.657   0.204   4.908 -0.5619 -0.4781  1.1269
 8822SOL     OW38101   2.543   0.687   6.310  0.3632  0.3010 -0.4677
 8822SOL    HW138102   2.609   0.756   6.307  1.6415 -0.9091 -0.2580
 8822SOL    HW238103   2.468   0.737   6.278  2.2151  2.4062 -1.4810
 8823SOL     OW38104   0.281   0.151   5.676 -0.3537  0.0306 -0.0846
 8823SOL    HW138105   0.362   0.202   5.678 -2.0408  2.7107 -0.3187
 8823SOL    HW238106   0.222   0.221   5.649  1.3571 -0.5374 -5.1972
 8824SOL     OW38107   0.648   2.458   6.905 -0.7044  0.9466 -0.0670
 8824SOL    HW138108   0.727   2.498   6.941  0.6148 -1.5471 -0.2204
 8824SOL    HW238109   0.621   2.381   6.955 -1.3190  0.2786 -1.4491
 8825SOL     OW38110   1.713   3.365   0.545  0.3699 -0.3329 -0.3393
 8825SOL    HW138111   1.690   3.422   0.472  0.4140  1.2995  0.9177
 8825SOL    HW238112   1.628   3.322   0.558 -0.6543  1.4536 -1.0486
 8826SOL     OW38113   2.819   3.917   9.151  0.2679  0.0518 -0.4492
 8826SOL    HW138114   2.765   3.925   9.230  0.9760  1.6360 -0.1258
 8826SOL    HW238115   2.808   4.000   9.105 -2.6467  0.2802  0.6487
 8827SOL     OW38116   3.889   4.552   2.549  0.1764 -0.7720  0.9013
 8827SOL    HW138117   3.982   4.532   2.534 -0.3394 -0.3847 -2.8942
 8827SOL    HW238118   3.882   4.529   2.642  1.3485 -0.4493  1.0677
 8828SOL     OW38119   0.147   2.469   8.546  0.3393  0.1670  0.0286
 8828SOL    HW138120   0.117   2.512   8.627 -0.7968 -1.2082  0.3445
 8828SOL    HW238121   0.203   2.538   8.512  3.3859 -1.6247  1.4579
 8829SOL     OW38122   0.771   0.568  16.310 -0.0295 -0.1954  0.7195
 8829SOL    HW138123   0.767   0.657  16.344  1.4656  0.4038 -0.6492
 8829SOL    HW238124   0.830   0.527  16.373  0.6983 -1.9368 -1.0946
 8830SOL     OW38125   4.399   1.800   0.658 -0.4826  0.1711 -0.4427
 8830SOL    HW138126   4.408   1.750   0.577 -0.5075  2.7570 -2.0765
 8830SOL    HW238127   4.395   1.739   0.731 -0.3305  1.9042  1.0207
 8831SOL     OW38128   1.291   0.609   3.193  0.1061 -0.3830  0.3085
 8831SOL    HW138129   1.371   0.653   3.164 -0.7712  0.8281 -0.2657
 8831SOL    HW238130   1.312   0.599   3.286  0.0768  2.3444  0.5965
 8832SOL     OW38131   4.205   1.734  11.402  0.1413 -0.1694  0.1638
 8832SOL    HW138132   4.216   1.827  11.425  0.0042  0.1364 -1.0400
 8832SOL    HW238133   4.255   1.691  11.471  1.2586  1.4138  0.3469
 8833SOL     OW38134   2.386   0.468  11.683 -0.3174  0.1576  0.4119
 8833SOL    HW138135   2.372   0.385  11.728 -0.4972 -0.2776 -0.4547
 8833SOL    HW238136   2.458   0.499  11.737 -2.0439  2.5361  1.3514
 8834SOL     OW38137   1.961   4.410  11.985  0.3304  0.5071 -0.5314
 8834SOL    HW138138   1.991   4.497  12.013  1.0393  0.5002 -1.2850
 8834SOL    HW238139   2.036   4.356  12.010  1.5709  0.6693 -3.8876
 8835SOL     OW38140   3.789   2.685   0.397 -0.6884  0.5972 -0.2416
 8835SOL    HW138141   3.709   2.736   0.389 -1.8269 -0.9090  1.3560
 8835SOL    HW238142   3.851   2.746   0.358 -0.9143 -0.3732 -2.1339
 8836SOL     OW38143   0.698   4.632  13.566  0.0979 -0.5026  1.2957
 8836SOL    HW138144   0.638   4.585  13.508 -1.5387  1.5637  1.3411
 8836SOL    HW238145   0.721   4.713  13.521  1.6187 -0.2010  2.6030
 8837SOL     OW38146   4.020   0.555   3.159 -0.3661 -0.5181  0.2609
 8837SOL    HW138147   3.946   0.498   3.179 -2.0177  1.8836  0.9514
 8837SOL    HW238148   4.088   0.509   3.209 -1.1998 -1.2464  0.7447
 8838SOL     OW38149   2.988   0.962   2.450 -0.1995  0.5419  0.2600
 8838SOL    HW138150   3.016   0.872   2.470 -0.0039  0.5470  0.0163
 8838SOL    HW238151   2.926   0.948   2.378  0.6157  0.4294 -0.4168
 8839SOL     OW38152   1.653   1.179   1.967 -0.2272  0.1540  0.1734
 8839SOL    HW138153   1.572   1.195   1.919  0.2575  0.0483 -0.6805
 8839SOL    HW238154   1.725   1.193   1.906  0.5587  2.6256  1.6305
 8840SOL     OW38155   0.361   2.247   2.959 -0.0163  0.0007  0.0105
 8840SOL    HW138156   0.451   2.230   2.933 -0.8025 -2.4509 -1.1638
 8840SOL    HW238157   0.330   2.156   2.957  0.5727 -0.2432  1.8215
 8841SOL     OW38158   1.451   0.903  15.882 -0.3483  0.2343  0.2208
 8841SOL    HW138159   1.436   0.967  15.951 -0.3700  0.7954 -0.3108
 8841SOL    HW238160   1.543   0.919  15.864 -0.3415 -0.9986 -0.8451
 8842SOL     OW38161   3.409   3.596  14.596 -0.5703  0.0124  0.2600
 8842SOL    HW138162   3.492   3.617  14.554 -0.8081 -1.8277 -1.1311
 8842SOL    HW238163   3.367   3.538  14.532  0.8205  1.8755 -2.3365
 8843SOL     OW38164   3.681   4.261  17.099  0.2458 -0.2827 -0.5171
 8843SOL    HW138165   3.637   4.337  17.059 -1.2055 -1.2890 -0.8188
 8843SOL    HW238166   3.719   4.232  17.016  2.4540  0.1643  0.3414
 8844SOL     OW38167   0.226   2.979  17.406 -0.1119  0.0824  0.4618
 8844SOL    HW138168   0.224   2.925  17.327  1.1732  1.7911 -0.7478
 8844SOL    HW238169   0.249   3.065  17.370 -2.7715 -0.0131 -1.4720
 8845SOL     OW38170   3.410   0.732   7.433 -0.6414 -0.6818 -0.3984
 8845SOL    HW138171   3.435   0.646   7.466  0.3139 -0.2584  0.0103
 8845SOL    HW238172   3.317   0.722   7.415 -1.0576 -0.4493  1.5553
 8846SOL     OW38173   1.410   1.744   4.013  0.0670  0.3067 -0.1278
 8846SOL    HW138174   1.353   1.697   3.953  0.9231 -1.5430  0.4925
 8846SOL    HW238175   1.488   1.751   3.958  0.6249  0.3318  0.6622
 8847SOL     OW38176   2.828   3.229  10.487 -0.0583 -0.0961 -0.2845
 8847SOL    HW138177   2.855   3.291  10.555  0.6748  0.6429 -1.2486
 8847SOL    HW238178   2.915   3.211  10.450  0.1778  3.0450 -1.2749
 8848SOL     OW38179   1.695   2.868  10.619 -0.1065 -0.2938 -0.4529
 8848SOL    HW138180   1.711   2.800  10.554 -0.9307 -0.9980  0.0735
 8848SOL    HW238181   1.600   2.854  10.629  0.2961 -1.8305  1.2881
 8849SOL     OW38182   0.756   4.112   7.018 -0.1966 -0.0320 -0.1918
 8849SOL    HW138183   0.708   4.192   6.999  0.2581  0.6860  1.6766
 8849SOL    HW238184   0.832   4.159   7.053  0.2974 -0.6309 -0.4672
 8850SOL     OW38185   3.621   0.823   0.466 -0.2582 -0.2193  0.1276
 8850SOL    HW138186   3.713   0.847   0.460 -0.4028 -0.1453 -1.7780
 8850SOL    HW238187   3.584   0.872   0.539  0.1988  2.2468 -1.2919
 8851SOL     OW38188   0.264   2.421   4.506  0.5061  0.1475 -0.8294
 8851SOL    HW138189   0.258   2.334   4.467 -0.4882 -0.1760  0.0474
 8851SOL    HW238190   0.354   2.426   4.538  1.0014  1.8173 -2.4960
 8852SOL     OW38191   2.482   3.533  10.120  0.0872 -0.2699  0.6312
 8852SOL    HW138192   2.575   3.520  10.139  0.8801 -1.2142 -3.7781
 8852SOL    HW238193   2.474   3.624  10.148  1.4822  0.5588 -1.6445
 8853SOL     OW38194   0.150   2.727   2.403 -0.3931  0.2282  0.4724
 8853SOL    HW138195   0.215   2.744   2.335 -1.9923 -2.0471 -1.6226
 8853SOL    HW238196   0.182   2.643   2.437 -0.9648 -0.5143 -0.8447
 8854SOL     OW38197   0.442   2.431  14.634  0.4347 -0.7266  0.1480
 8854SOL    HW138198   0.521   2.381  14.609  0.1540 -1.0546 -0.0954
 8854SOL    HW238199   0.394   2.359  14.675  2.2652 -2.7573 -1.2339
 8855SOL     OW38200   2.162   0.066  11.838  0.1777  0.3872  0.3124
 8855SOL    HW138201   2.076   0.109  11.835 -0.3067 -0.6249 -0.3535
 8855SOL    HW238202   2.154   4.732  11.900 -1.7203  1.0192  0.8156
 8856SOL     OW38203   3.283   1.635  11.468  0.2920  0.0097 -0.1726
 8856SOL    HW138204   3.315   1.588  11.391  0.5462  0.4321 -0.3286
 8856SOL    HW238205   3.289   1.725  11.435  0.9831  0.4629  1.1803
 8857SOL     OW38206   4.564   2.280   0.881 -0.0392  0.2528 -0.1997
 8857SOL    HW138207   4.484   2.302   0.832  0.2848  2.9556  0.4862
 8857SOL    HW238208   4.588   2.197   0.840 -3.9906 -0.0799 -1.9249
 8858SOL     OW38209   1.811   3.893   9.152  0.0578  0.4693 -0.4333
 8858SOL    HW138210   1.814   3.985   9.125  2.5923  0.6346  0.3892
 8858SOL    HW238211   1.815   3.837   9.074  3.3685 -1.0173  0.8493
 8859SOL     OW38212   3.855   4.109   6.697 -0.0249  0.2646  0.0921
 8859SOL    HW138213   3.934   4.056   6.710 -0.2927 -0.5490 -1.4749
 8859SOL    HW238214   3.846   4.148   6.784 -1.3902 -0.8535  0.4738
 8860SOL     OW38215   2.308   1.811   1.764  0.0651 -0.3802 -0.2283
 8860SOL    HW138216   2.324   1.875   1.833  0.1337 -0.4951 -0.1374
 8860SOL    HW238217   2.245   1.867   1.719 -0.3984 -1.3105 -0.7513
 8861SOL     OW38218   0.539   1.854   1.852  0.1265  0.0293  0.3836
 8861SOL    HW138219   0.574   1.845   1.941  0.2133 -0.1851  0.3282
 8861SOL    HW238220   0.574   1.773   1.814  0.7692 -0.8140  2.7164
 8862SOL     OW38221   0.070   1.937   0.613 -0.2400  0.3967 -0.1441
 8862SOL    HW138222   0.079   1.990   0.692  1.9951 -0.3292  0.0981
 8862SOL    HW238223   0.014   1.993   0.559  0.7085  1.5543  0.0770
 8863SOL     OW38224   1.245   1.482   6.184  0.0330 -0.3027  0.0674
 8863SOL    HW138225   1.339   1.491   6.173  0.0740 -1.9712 -0.9066
 8863SOL    HW238226   1.229   1.477   6.279 -1.4154  2.6322 -0.0105
 8864SOL     OW38227   0.600   4.607   3.193 -0.2948  0.8668  0.4166
 8864SOL    HW138228   0.622   4.669   3.262  2.0425 -1.6659  1.9490
 8864SOL    HW238229   0.614   4.522   3.236  2.3020  0.1877 -1.8046
 8865SOL     OW38230   1.264   4.488  12.798  0.3565 -0.0902  0.3639
 8865SOL    HW138231   1.249   4.525  12.885  2.7426  1.0787  0.2994
 8865SOL    HW238232   1.200   4.529  12.740 -0.2362 -1.0382  0.3600
 8866SOL     OW38233   3.786   1.453   3.555 -0.4919 -0.0274  0.0702
 8866SOL    HW138234   3.856   1.493   3.606 -0.5319 -0.1962  0.2607
 8866SOL    HW238235   3.777   1.522   3.490  4.0780  0.6971  0.2072
 8867SOL     OW38236   0.736   4.358  12.286  0.7758 -0.1032 -0.3611
 8867SOL    HW138237   0.792   4.391  12.215  0.5814  0.9768 -0.0128
 8867SOL    HW238238   0.787   4.277  12.290 -0.3992 -0.8424 -0.3877
 8868SOL     OW38239   4.049   1.809   6.241 -0.1385 -0.0494  0.1421
 8868SOL    HW138240   4.077   1.817   6.332  0.5063  2.8377 -0.3162
 8868SOL    HW238241   3.955   1.796   6.259  0.2678 -2.2236  0.6810
 8869SOL     OW38242   4.069   3.625   9.152 -0.1379  0.1121 -0.1142
 8869SOL    HW138243   4.023   3.682   9.090  3.0489  0.6616 -1.9380
 8869SOL    HW238244   4.016   3.641   9.230  1.0068 -1.4548  0.9808
 8870SOL     OW38245   0.530   3.697   7.617 -0.4508  0.0381 -0.4195
 8870SOL    HW138246   0.512   3.676   7.709  0.7453 -0.9136 -0.4046
 8870SOL    HW238247   0.468   3.634   7.579 -0.3896 -1.1997  1.5392
 8871SOL     OW38248   4.421   2.159   1.591  0.0032  0.1042 -0.0703
 8871SOL    HW138249   4.444   2.109   1.513  1.2753  0.3439  0.1460
 8871SOL    HW238250   4.454   2.247   1.571  0.1867 -0.0486 -0.4513
 8872SOL     OW38251   2.197   2.486   6.983  0.5457  0.0265  0.2342
 8872SOL    HW138252   2.125   2.425   7.000 -0.2786  0.5651 -1.3876
 8872SOL    HW238253   2.166   2.565   7.028  0.3414  0.3071 -0.4044
 8873SOL     OW38254   2.448   2.018   9.210 -0.0834  0.3912 -0.1449
 8873SOL    HW138255   2.491   1.938   9.179 -0.4787  0.8259 -1.8075
 8873SOL    HW238256   2.353   2.003   9.200 -0.0685  0.0288  0.2346
 8874SOL     OW38257   3.669   4.348   4.917 -0.2921 -0.3430 -0.2645
 8874SOL    HW138258   3.670   4.440   4.890 -0.1096 -0.2516  0.0558
 8874SOL    HW238259   3.577   4.325   4.907 -0.2529 -0.6824  0.1559
 8875SOL     OW38260   3.916   4.541   5.925  0.2812 -0.3378 -0.0227
 8875SOL    HW138261   3.977   4.612   5.944 -1.1863  1.1669 -0.9725
 8875SOL    HW238262   3.963   4.484   5.865 -0.4463 -2.0530  1.0464
 8876SOL     OW38263   3.899   1.867   9.199  0.2575 -0.0803 -0.3201
 8876SOL    HW138264   3.850   1.943   9.231  0.8643 -0.1082  0.6882
 8876SOL    HW238265   3.956   1.898   9.128  0.9575 -0.8786 -0.1108
 8877SOL     OW38266   4.104   2.446  12.157 -0.3196  0.4753 -0.1296
 8877SOL    HW138267   4.037   2.401  12.209  0.7518 -2.0474 -0.9616
 8877SOL    HW238268   4.067   2.534  12.152  0.4498  0.8492  0.7602
 8878SOL     OW38269   4.557   1.883   4.987 -0.3884  0.5777  0.6005
 8878SOL    HW138270   4.496   1.957   4.994  0.2964  1.3728 -2.0443
 8878SOL    HW238271   4.501   1.814   4.950  0.5284 -0.2718  0.8162
 8879SOL     OW38272   2.529   3.005   6.792  0.5207 -0.0572  0.1328
 8879SOL    HW138273   2.433   3.004   6.796  0.5680  0.3850  1.3579
 8879SOL    HW238274   2.550   3.086   6.839 -0.2111  0.4970 -0.4865
 8880SOL     OW38275   2.826   3.260   3.071 -0.4366 -0.2270  0.2582
 8880SOL    HW138276   2.759   3.326   3.089 -0.5139 -0.4786  0.9007
 8880SOL    HW238277   2.840   3.223   3.159  0.7162 -0.2481  0.0742
 8881SOL     OW38278   3.632   2.928   3.308  0.1874  0.9571 -0.0969
 8881SOL    HW138279   3.705   2.957   3.253  1.6820 -0.0607  1.3420
 8881SOL    HW238280   3.682   2.904   3.386 -0.9025 -1.4812 -0.1465
 8882SOL     OW38281   2.633   4.399  12.168 -0.7257 -0.1559  0.0919
 8882SOL    HW138282   2.557   4.458  12.158 -1.4694 -1.1169  0.0550
 8882SOL    HW238283   2.592   4.316  12.193 -2.1600  1.4852  3.1636
 8883SOL     OW38284   2.738   1.778  14.739 -0.5019 -0.5274  0.1399
 8883SOL    HW138285   2.763   1.700  14.788  0.5893 -0.1555  0.1561
 8883SOL    HW238286   2.643   1.773  14.753 -0.4003 -1.5417  0.4531
 8884SOL     OW38287   1.691   1.008  10.969  0.0546  0.3848  0.0523
 8884SOL    HW138288   1.772   1.034  11.013 -0.4915  0.3291  1.1003
 8884SOL    HW238289   1.713   0.920  10.937  0.3690  0.8773 -1.0472
 8885SOL     OW38290   2.621   1.791   4.970 -0.0756 -0.6438  0.2594
 8885SOL    HW138291   2.624   1.727   4.898 -0.2584 -0.3461 -0.0154
 8885SOL    HW238292   2.528   1.808   4.959 -0.2610 -0.6658  1.8174
 8886SOL     OW38293   3.874   4.417   7.883  0.1284  0.0361 -0.2397
 8886SOL    HW138294   3.932   4.362   7.830  0.9352 -1.2588  1.9566
 8886SOL    HW238295   3.944   4.476   7.913  0.1725 -0.8279  1.3462
 8887SOL     OW38296   1.661   2.538   5.421 -0.1093  0.0857 -0.3143
 8887SOL    HW138297   1.574   2.533   5.463 -0.3517 -2.0923 -1.0848
 8887SOL    HW238298   1.659   2.627   5.384 -0.8403 -0.3324 -1.2796
 8888SOL     OW38299   1.722   3.728  13.158  0.2318  0.4493 -0.0090
 8888SOL    HW138300   1.679   3.688  13.083 -1.8453  0.5925  1.0789
 8888SOL    HW238301   1.659   3.800  13.160  0.4154  0.6429 -1.9003
 8889SOL     OW38302   0.096   1.212  12.338 -0.3062  0.7226 -0.0406
 8889SOL    HW138303   0.164   1.148  12.357  0.8118  2.1341  0.6575
 8889SOL    HW238304   0.092   1.190  12.245  0.6828  0.0110  0.0876
 8890SOL     OW38305   3.800   3.840   8.383  0.6437  0.2833  0.0041
 8890SOL    HW138306   3.839   3.753   8.395  4.3318  2.0501  0.8609
 8890SOL    HW238307   3.788   3.826   8.289  1.5489  0.8422 -0.1959
 8891SOL     OW38308   0.837   0.807  15.527 -0.2292 -0.3651 -0.3206
 8891SOL    HW138309   0.926   0.840  15.537 -1.3970  2.0745  2.0890
 8891SOL    HW238310   0.834   0.747  15.602  0.6044  0.4243  0.3420
 8892SOL     OW38311   2.786   2.357  17.590  0.0537  0.3647  0.0000
 8892SOL    HW138312   2.701   2.315  17.606 -0.0238  0.4860 -0.0893
 8892SOL    HW238313   2.842   2.318  17.658 -1.3419 -0.2421  0.8066
 8893SOL     OW38314   3.282   3.207   7.407  0.3872  0.1070  0.2745
 8893SOL    HW138315   3.313   3.176   7.492  0.5308 -0.8292 -0.1265
 8893SOL    HW238316   3.219   3.138   7.385  3.3694 -1.6767 -2.7101
 8894SOL     OW38317   3.625   2.584   8.393  0.0094 -0.4355 -0.6992
 8894SOL    HW138318   3.706   2.536   8.408  0.9384  0.9338 -1.3833
 8894SOL    HW238319   3.639   2.661   8.448  1.4972 -2.7821  2.1853
 8895SOL     OW38320   0.885   0.713   6.676  0.0152 -0.1025 -0.0731
 8895SOL    HW138321   0.956   0.775   6.694 -0.5010  0.1780  1.0235
 8895SOL    HW238322   0.817   0.758   6.727 -0.5888  1.0782 -1.9147
 8896SOL     OW38323   0.977   2.989  16.093 -0.2421 -0.0759 -0.3721
 8896SOL    HW138324   0.974   2.904  16.139  0.3107  0.8348  1.3519
 8896SOL    HW238325   0.960   2.974  16.000 -0.6132 -0.7552 -0.1985
 8897SOL     OW38326   0.997   1.940  16.453  0.3355  0.5610 -0.4127
 8897SOL    HW138327   1.033   1.874  16.513 -0.3052 -1.1763 -1.9607
 8897SOL    HW238328   1.052   2.017  16.468 -0.7465  1.3870 -0.7415
 8898SOL     OW38329   4.461   0.055   0.886  0.3229 -0.0515 -0.0073
 8898SOL    HW138330   4.462   0.069   0.791 -3.1369 -0.8311 -0.1578
 8898SOL    HW238331   4.386   4.736   0.899 -0.4844  0.5146 -2.0968
 8899SOL     OW38332   3.009   2.845  10.807 -0.2091 -0.4736  0.1806
 8899SOL    HW138333   2.942   2.897  10.763  0.0350  0.0614  0.4478
 8899SOL    HW238334   3.082   2.900  10.781 -0.0335 -1.6765 -1.8015
 8900SOL     OW38335   2.205   2.028   9.107 -0.1058 -0.3262  0.6608
 8900SOL    HW138336   2.187   2.065   9.021 -1.7663  0.8694  1.4889
 8900SOL    HW238337   2.159   2.091   9.163  0.8317  0.2136  0.8231
 8901SOL     OW38338   4.732   0.483   6.892 -0.1749 -0.1116 -0.6949
 8901SOL    HW138339   4.651   0.483   6.941 -1.3463 -0.7547 -2.6356
 8901SOL    HW238340   0.046   0.541   6.947 -1.0279 -2.0799  2.1568
 8902SOL     OW38341   1.910   0.824   4.804 -0.1669  0.3605  0.1376
 8902SOL    HW138342   1.846   0.885   4.768  1.2912  0.5961 -2.0401
 8902SOL    HW238343   1.861   0.747   4.830 -0.5757  0.3625 -0.6280
 8903SOL     OW38344   3.393   3.069   5.969  0.1295 -0.2472  0.7570
 8903SOL    HW138345   3.299   3.070   5.984  0.1991  4.0607  0.8700
 8903SOL    HW238346   3.405   3.003   5.900 -1.8219 -0.3821  0.5546
 8904SOL     OW38347   0.156   4.175   7.423 -0.3185  0.3323 -0.2729
 8904SOL    HW138348   0.078   4.127   7.396 -2.1530  3.2370 -0.2053
 8904SOL    HW238349   0.192   4.115   7.488 -1.4481 -0.2861 -0.2136
 8905SOL     OW38350   2.263   1.537   5.864 -0.1106 -0.1174  0.2363
 8905SOL    HW138351   2.177   1.496   5.853 -0.3839  0.5813 -0.2421
 8905SOL    HW238352   2.317   1.505   5.792  2.9039  1.8803  1.6314
 8906SOL     OW38353   1.318   0.193   7.220 -0.1715 -0.2398  0.0597
 8906SOL    HW138354   1.341   0.263   7.281 -0.4576 -1.7917  1.9444
 8906SOL    HW238355   1.229   0.222   7.201 -0.6791 -1.4045  0.6514
 8907SOL     OW38356   0.420   0.224   8.187 -0.3113 -0.0967  0.0969
 8907SOL    HW138357   0.412   0.285   8.113 -2.2176  1.5104  1.6280
 8907SOL    HW238358   0.339   0.172   8.185  0.7756 -1.7668 -0.1907
 8908SOL     OW38359   2.512   0.720  15.167  0.3958 -0.3414 -0.4226
 8908SOL    HW138360   2.555   0.650  15.118  0.4627 -0.7890  0.2679
 8908SOL    HW238361   2.517   0.673  15.251  0.0770  0.1681 -0.1184
 8909SOL     OW38362   1.914   2.173  16.807  0.3233 -0.4138 -0.0482
 8909SOL    HW138363   1.830   2.154  16.849 -0.0917  1.7254  0.1119
 8909SOL    HW238364   1.887   2.244  16.749  0.2188 -0.7060 -0.3540
 8910SOL     OW38365   2.197   1.963   5.716 -0.0767  0.2107 -0.1723
 8910SOL    HW138366   2.116   1.959   5.768  0.9213  1.9399  1.4966
 8910SOL    HW238367   2.242   1.887   5.753 -1.2744 -0.4046  0.0269
 8911SOL     OW38368   2.809   4.434  11.034  0.1324  0.2695 -0.0794
 8911SOL    HW138369   2.715   4.440  11.021 -0.0759 -1.0460  0.8037
 8911SOL    HW238370   2.837   4.511  10.985  0.5608 -0.0235 -0.2943
 8912SOL     OW38371   1.497   4.463   7.908  0.2653  0.2545 -0.5072
 8912SOL    HW138372   1.480   4.556   7.898  0.6674  0.4013  0.1993
 8912SOL    HW238373   1.534   4.453   7.995  2.7334 -0.0682 -1.5917
 8913SOL     OW38374   1.093   2.623   0.961  0.0654  0.2848 -0.2987
 8913SOL    HW138375   1.090   2.688   0.890 -0.8895  1.6068  0.9536
 8913SOL    HW238376   1.161   2.571   0.919 -0.2675 -0.4786  0.1113
 8914SOL     OW38377   4.537   3.651   1.909 -0.2704 -0.0013  0.7254
 8914SOL    HW138378   4.569   3.665   1.820 -1.3214  0.5284  0.4288
 8914SOL    HW238379   4.533   3.742   1.940 -0.5506  0.2359 -0.0109
 8915SOL     OW38380   2.502   0.004  11.807 -0.2080 -0.1785 -0.8441
 8915SOL    HW138381   2.589   0.044  11.809  0.3086 -1.3835  0.5112
 8915SOL    HW238382   2.506   4.670  11.745 -0.7521  0.3717 -1.5211
 8916SOL     OW38383   1.024   1.080   6.216 -0.0852 -0.4881 -0.0802
 8916SOL    HW138384   1.118   1.097   6.219 -0.0115 -1.0960  1.0476
 8916SOL    HW238385   1.004   1.165   6.177 -2.6749 -0.5187  1.1919
 8917SOL     OW38386   3.308   4.449   4.122  0.0189  0.1405  0.4547
 8917SOL    HW138387   3.307   4.416   4.212  0.4057 -2.4107 -0.4630
 8917SOL    HW238388   3.241   4.389   4.090  1.3378 -0.1129 -1.8527
 8918SOL     OW38389   2.734   1.593   0.784 -0.3297 -0.1551  0.5775
 8918SOL    HW138390   2.794   1.661   0.755  1.5028 -0.8178  2.7774
 8918SOL    HW238391   2.752   1.592   0.878 -1.3451  0.2663  0.7766
 8919SOL     OW38392   3.462   2.307   6.575 -0.6979 -0.1612 -0.0686
 8919SOL    HW138393   3.468   2.328   6.482  0.8297  1.1868  0.3433
 8919SOL    HW238394   3.369   2.283   6.567 -0.9307  0.3132  1.1693
 8920SOL     OW38395   0.574   4.070  11.412  0.6062  0.6510 -0.4729
 8920SOL    HW138396   0.571   3.989  11.464 -0.6117  1.7043  1.0882
 8920SOL    HW238397   0.574   4.028  11.326 -0.5975 -0.0145 -0.1516
 8921SOL     OW38398   1.212   3.812   5.408  0.4422  0.0245  0.3515
 8921SOL    HW138399   1.287   3.755   5.393 -1.0879 -2.0471  0.5963
 8921SOL    HW238400   1.182   3.832   5.320  0.3308 -2.3107 -0.1416
 8922SOL     OW38401   1.049   3.144   7.421  0.0294 -0.4535  0.0442
 8922SOL    HW138402   1.010   3.075   7.474 -0.7831  0.0647  0.1202
 8922SOL    HW238403   1.056   3.088   7.343 -1.6762  1.6873 -1.6487
 8923SOL     OW38404   0.997   1.429   0.096 -0.4046 -0.0843 -0.3574
 8923SOL    HW138405   1.065   1.466   0.040  0.7764 -2.4158 -0.4703
 8923SOL    HW238406   0.956   1.513   0.118 -0.0059 -0.8860  3.5201
 8924SOL     OW38407   0.174   2.968   9.848  0.4060 -0.6845 -0.0866
 8924SOL    HW138408   0.119   2.967   9.769 -0.4313 -0.2657  0.4873
 8924SOL    HW238409   0.106   2.998   9.907 -2.4678 -0.1582 -3.6322
 8925SOL     OW38410   3.628   1.990   2.082 -0.0096 -0.0373 -0.2653
 8925SOL    HW138411   3.675   2.072   2.064 -0.0566  0.1367  0.4006
 8925SOL    HW238412   3.697   1.923   2.079 -0.0811 -0.0349 -2.1321
 8926SOL     OW38413   2.075   2.373  15.168  0.3378  0.0918 -0.1241
 8926SOL    HW138414   2.162   2.382  15.130  1.1802 -0.8176  1.6311
 8926SOL    HW238415   2.022   2.434  15.117  2.1761  1.4824 -0.3568
 8927SOL     OW38416   1.238   0.514   4.377 -0.0228  0.4109  0.3350
 8927SOL    HW138417   1.242   0.430   4.332 -1.7447  0.0633  0.8022
 8927SOL    HW238418   1.326   0.547   4.361 -0.6757  1.1763 -1.6589
 8928SOL     OW38419   0.302   4.561   4.593  0.2246  0.0923 -1.0798
 8928SOL    HW138420   0.248   4.482   4.602  0.6270 -0.1516 -0.8369
 8928SOL    HW238421   0.281   4.597   4.679  1.1888 -0.5969 -0.5575
 8929SOL     OW38422   3.016   1.908   4.788 -0.0918  0.4927  0.1492
 8929SOL    HW138423   2.940   1.852   4.804  0.4190 -0.3033 -0.2241
 8929SOL    HW238424   3.030   1.906   4.694  2.1108  2.0969  0.4477
 8930SOL     OW38425   2.290   4.421   7.601  0.5429 -0.5769  0.0598
 8930SOL    HW138426   2.250   4.432   7.687 -0.2998  0.9044 -0.5115
 8930SOL    HW238427   2.246   4.487   7.547  0.5129 -1.0005 -0.4374
 8931SOL     OW38428   2.500   2.486  11.999  0.2481 -0.8632  0.4278
 8931SOL    HW138429   2.594   2.487  11.979 -0.0947 -2.6466 -1.2287
 8931SOL    HW238430   2.468   2.468  11.911  0.4117  0.3455  0.1153
 8932SOL     OW38431   0.524   3.243   7.251  0.0415 -0.1801 -0.3865
 8932SOL    HW138432   0.598   3.303   7.265  0.1496 -0.8160  1.9035
 8932SOL    HW238433   0.501   3.212   7.339 -0.2766 -0.3690 -0.5408
 8933SOL     OW38434   2.094   3.222  12.167  0.5045  0.5786  0.5659
 8933SOL    HW138435   2.184   3.196  12.148  1.0004  2.2711  0.5909
 8933SOL    HW238436   2.097   3.208  12.262  0.6569  0.2850  0.5158
 8934SOL     OW38437   1.446   0.313   4.241  0.3606  0.8630 -0.0241
 8934SOL    HW138438   1.459   0.398   4.200 -0.9946  1.1809  0.1959
 8934SOL    HW238439   1.486   0.331   4.325 -1.5350 -0.9559  1.2708
 8935SOL     OW38440   4.145   0.630   2.339  0.1874 -0.9586 -0.1987
 8935SOL    HW138441   4.101   0.705   2.300  1.0530  0.0560  0.7614
 8935SOL    HW238442   4.209   0.605   2.273  0.4966 -1.8674  0.4400
 8936SOL     OW38443   2.909   1.685   0.345 -0.3142 -0.0516 -0.1662
 8936SOL    HW138444   2.911   1.639   0.262  0.1669  0.6157 -0.5303
 8936SOL    HW238445   2.826   1.731   0.342  1.1234  2.5335 -0.4394
 8937SOL     OW38446   4.179   4.396   5.409 -0.0176  0.1405 -0.0037
 8937SOL    HW138447   4.274   4.388   5.406  0.0145 -0.2879  2.0414
 8937SOL    HW238448   4.144   4.310   5.386  1.0233  0.3571 -2.4023
 8938SOL     OW38449   3.812   3.011   6.053  0.5186 -0.1023  1.1567
 8938SOL    HW138450   3.732   3.050   6.089 -0.7994 -3.5922  1.9441
 8938SOL    HW238451   3.849   3.080   5.998  1.6110 -1.6691 -0.0424
 8939SOL     OW38452   4.212   2.047   5.642 -0.5285 -0.3685 -0.0774
 8939SOL    HW138453   4.219   2.136   5.676 -0.1873 -0.0353 -1.0286
 8939SOL    HW238454   4.305   2.024   5.638  0.0625  1.4131  3.0556
 8940SOL     OW38455   1.582   3.144   2.693 -0.1380 -0.0656 -0.4338
 8940SOL    HW138456   1.665   3.186   2.714 -0.8670  1.8145 -1.1852
 8940SOL    HW238457   1.526   3.206   2.740  2.2745 -0.4305  2.8202
 8941SOL     OW38458   0.786   2.926   9.059 -0.4781  0.3732 -0.5672
 8941SOL    HW138459   0.755   2.925   8.968 -0.6188 -1.6304 -0.5060
 8941SOL    HW238460   0.721   2.868   9.098  0.5813 -0.9526 -0.7724
 8942SOL     OW38461   1.771   1.932   7.904 -0.2103  0.0722  0.1474
 8942SOL    HW138462   1.733   1.846   7.889  0.0111  0.0150 -0.0873
 8942SOL    HW238463   1.707   1.982   7.955 -1.5963 -0.7313 -0.8304
 8943SOL     OW38464   3.542   3.108   4.411 -0.3467  0.1587 -0.1500
 8943SOL    HW138465   3.572   3.185   4.458 -0.7670 -0.2751  0.8204
 8943SOL    HW238466   3.448   3.123   4.425 -0.0487  0.1103  1.9024
 8944SOL     OW38467   4.307   0.600   2.104  0.3372  0.3887  0.1519
 8944SOL    HW138468   4.282   0.665   2.038  0.4123  0.5400  0.2728
 8944SOL    HW238469   4.273   0.523   2.059 -3.6852  1.4552  1.4208
 8945SOL     OW38470   2.642   4.686  11.251  0.4352  0.0998 -0.4078
 8945SOL    HW138471   2.599   0.030  11.274 -0.3595  0.0303 -1.6121
 8945SOL    HW238472   2.727   4.716  11.220 -0.0018 -0.9017 -2.6052
 8946SOL     OW38473   0.975   3.280   6.771  0.1507  0.1407 -0.0347
 8946SOL    HW138474   1.035   3.227   6.718  0.1402  1.2116 -1.1153
 8946SOL    HW238475   1.021   3.364   6.767  0.7881 -0.1024  2.0524
 8947SOL     OW38476   1.869   4.204  10.898 -0.5963  0.4373  0.1517
 8947SOL    HW138477   1.961   4.215  10.920 -0.6631  1.3127 -0.0194
 8947SOL    HW238478   1.837   4.253  10.973  2.1121  1.5176  0.6125
 8948SOL     OW38479   2.934   4.241   4.269 -0.8343 -0.3878 -0.3861
 8948SOL    HW138480   2.908   4.150   4.279  1.2673 -1.2886 -3.0229
 8948SOL    HW238481   3.028   4.224   4.270 -0.7685 -0.0844 -1.1836
 8949SOL     OW38482   3.921   2.605   0.876  0.1127 -0.5582  0.4048
 8949SOL    HW138483   3.974   2.684   0.883 -2.0377  0.9007  0.1570
 8949SOL    HW238484   3.867   2.622   0.798  2.0195  0.8671 -0.5886
 8950SOL     OW38485   2.322   0.519  17.749 -0.7199 -0.6528  0.0351
 8950SOL    HW138486   2.388   0.577   0.034  0.3185  0.5232 -3.5596
 8950SOL    HW238487   2.318   0.446   0.057 -2.2042  0.6100  1.4225
 8951SOL     OW38488   1.833   2.928   2.878  0.5805  0.0783 -0.1140
 8951SOL    HW138489   1.848   2.840   2.844 -1.6320 -1.2617  2.3457
 8951SOL    HW238490   1.833   2.988   2.804 -2.3009 -0.2558 -0.4138
 8952SOL     OW38491   4.643   2.734   0.368 -0.9066  0.2105 -0.2417
 8952SOL    HW138492   4.609   2.798   0.305 -0.8630 -0.5052 -0.9933
 8952SOL    HW238493   4.626   2.781   0.450 -0.6075  0.0696 -0.1016
 8953SOL     OW38494   3.739   3.413   6.293  0.1277  0.5630 -0.1635
 8953SOL    HW138495   3.675   3.416   6.363 -0.2702  0.9893 -0.5521
 8953SOL    HW238496   3.738   3.505   6.266 -1.6816  0.1376 -1.5684
 8954SOL     OW38497   3.165   4.420  14.984  0.5101 -0.5568  0.5107
 8954SOL    HW138498   3.172   4.514  15.001 -0.1015 -0.5509  0.7075
 8954SOL    HW238499   3.078   4.414  14.945  1.0235 -1.4593 -0.4818
 8955SOL     OW38500   2.093   3.977  10.807  0.0635  0.5136 -0.1434
 8955SOL    HW138501   2.080   4.056  10.859 -0.1355 -0.2496  0.9785
 8955SOL    HW238502   2.178   3.950  10.842 -0.8048 -1.2706  0.5818
 8956SOL     OW38503   3.156   2.165   0.576 -0.7965  0.1804 -0.7920
 8956SOL    HW138504   3.202   2.158   0.492 -1.9975 -1.2186 -1.3324
 8956SOL    HW238505   3.206   2.241   0.605  1.1401 -1.0080 -1.0314
 8957SOL     OW38506   1.433   2.856   4.810 -0.1781 -0.2702  0.1535
 8957SOL    HW138507   1.350   2.882   4.770  0.6939  0.4864 -1.1591
 8957SOL    HW238508   1.485   2.879   4.733 -0.4846 -0.9922 -0.2651
 8958SOL     OW38509   0.725   3.585  12.669 -0.5046  0.3937  0.0846
 8958SOL    HW138510   0.799   3.584  12.729 -0.4146 -2.4408 -0.0669
 8958SOL    HW238511   0.724   3.679  12.652  1.3591  0.1547 -1.4733
 8959SOL     OW38512   0.682   3.566   4.001  0.5310 -0.1702  0.0871
 8959SOL    HW138513   0.624   3.619   4.057 -0.3519 -2.1143  1.0252
 8959SOL    HW238514   0.737   3.539   4.074  0.8290 -0.6252 -0.3114
 8960SOL     OW38515   4.361   3.178   8.221  0.5741 -1.0798  0.0161
 8960SOL    HW138516   4.415   3.243   8.266 -0.8276 -0.7374  1.2013
 8960SOL    HW238517   4.348   3.218   8.135 -0.3514 -0.5033  0.4204
 8961SOL     OW38518   1.646   1.263  12.041 -0.3161 -0.1666  0.0092
 8961SOL    HW138519   1.580   1.331  12.028  1.5055  1.5428 -0.2904
 8961SOL    HW238520   1.617   1.240  12.130  0.2571 -0.4706  0.1181
 8962SOL     OW38521   4.048   0.145  10.011  0.3331  0.0382  0.6526
 8962SOL    HW138522   3.961   0.110   9.992  0.7563  0.0820 -1.3648
 8962SOL    HW238523   4.040   0.238   9.988 -1.5683  0.0862  1.5188
 8963SOL     OW38524   0.658   1.577   1.713 -0.4249  0.0770  0.1432
 8963SOL    HW138525   0.722   1.579   1.642  0.3418 -0.2149  0.8319
 8963SOL    HW238526   0.717   1.597   1.785 -1.0752  1.1378  0.3847
 8964SOL     OW38527   4.734   4.677   4.686 -0.2365  0.6799 -0.8729
 8964SOL    HW138528   4.723   4.716   4.773 -0.9394  1.8288 -1.4768
 8964SOL    HW238529   0.008   4.583   4.701  2.1668  0.9264 -1.4174
 8965SOL     OW38530   2.641   3.259   8.009 -0.3072  0.3578  0.0449
 8965SOL    HW138531   2.706   3.328   7.999 -1.8096  1.6196 -0.9993
 8965SOL    HW238532   2.676   3.199   7.942 -0.3736  0.6219 -0.2293
 8966SOL     OW38533   1.312   3.442   8.470 -0.1470 -0.9325 -0.6593
 8966SOL    HW138534   1.355   3.466   8.388  0.3794 -0.3645 -0.2134
 8966SOL    HW238535   1.233   3.403   8.433 -1.9326  1.4403  0.6663
 8967SOL     OW38536   3.007   2.233   7.559  0.0418 -0.5144  0.0973
 8967SOL    HW138537   3.044   2.167   7.501 -0.4744  1.0367 -2.0110
 8967SOL    HW238538   2.914   2.220   7.539  0.5522 -2.4779 -0.9710
 8968SOL     OW38539   3.991   4.370   9.219 -0.5425  0.4316  0.5405
 8968SOL    HW138540   3.896   4.371   9.230 -0.8593 -0.0011 -2.1915
 8968SOL    HW238541   3.995   4.321   9.137  0.3410 -0.5985  1.2112
 8969SOL     OW38542   2.756   3.266   3.751  0.1837  0.2717  0.5495
 8969SOL    HW138543   2.700   3.229   3.683  1.5900  0.2711 -0.5977
 8969SOL    HW238544   2.836   3.218   3.729 -1.4476 -1.2595 -1.9500
 8970SOL     OW38545   0.027   2.871  16.106 -0.7444 -0.5057  0.0745
 8970SOL    HW138546   0.013   2.780  16.080 -3.5595  0.0584 -0.4349
 8970SOL    HW238547   0.017   2.912  16.020 -1.2199 -3.0155 -1.0642
 8971SOL     OW38548   3.202   3.397   9.416  0.2557 -0.1128 -0.3909
 8971SOL    HW138549   3.165   3.356   9.494  0.3041  2.1553  0.8528
 8971SOL    HW238550   3.166   3.485   9.427 -2.4478 -1.2894  0.1849
 8972SOL     OW38551   2.736   3.735  13.118 -0.0006 -0.1153 -0.4050
 8972SOL    HW138552   2.782   3.816  13.137 -2.5354  0.4977  3.1059
 8972SOL    HW238553   2.807   3.671  13.124 -2.0286 -2.4944 -1.6761
 8973SOL     OW38554   3.741   2.362   7.225  0.2931 -0.0808  0.2828
 8973SOL    HW138555   3.836   2.352   7.223 -0.0319 -3.1352  1.2686
 8973SOL    HW238556   3.726   2.377   7.318  1.8434 -2.3422  0.8768
 8974SOL     OW38557   1.202   2.617   1.551 -0.1569  0.1934  0.3164
 8974SOL    HW138558   1.121   2.627   1.501 -0.6278  0.8813  1.2208
 8974SOL    HW238559   1.187   2.591   1.642 -0.2025  2.9895  1.1039
 8975SOL     OW38560   2.052   2.116   3.071  0.3068  0.3777  0.1782
 8975SOL    HW138561   2.010   2.031   3.082  1.6581 -0.2647  0.3563
 8975SOL    HW238562   1.986   2.163   3.122 -0.7688  3.0093 -3.5579
 8976SOL     OW38563   0.520   1.422  15.215 -0.2140 -0.1727  0.4553
 8976SOL    HW138564   0.564   1.413  15.299  0.8003  2.8942  0.2407
 8976SOL    HW238565   0.597   1.431  15.158  0.3798 -0.2199  1.2532
 8977SOL     OW38566   0.637   3.579   5.779 -0.3886 -0.6488  0.0951
 8977SOL    HW138567   0.566   3.618   5.830  0.4354 -0.8633  1.4157
 8977SOL    HW238568   0.579   3.572   5.704  1.5627 -2.6651 -1.2252
 8978SOL     OW38569   0.852   4.084   4.302 -0.0717 -0.7188 -0.6351
 8978SOL    HW138570   0.946   4.085   4.284 -0.3070  0.4469 -1.7633
 8978SOL    HW238571   0.848   4.161   4.359 -0.4302 -1.1401 -0.0901
 8979SOL     OW38572   1.930   1.158  12.503  0.0831  0.1419 -0.0456
 8979SOL    HW138573   1.887   1.096  12.561  0.4941  0.0039  0.1094
 8979SOL    HW238574   1.935   1.098  12.429  1.3701  0.9004 -0.5653
 8980SOL     OW38575   3.056   3.794   4.934  0.0708  0.0372 -0.1975
 8980SOL    HW138576   3.020   3.799   4.846  0.3373  0.4240 -0.2851
 8980SOL    HW238577   3.143   3.754   4.922 -0.5651 -0.8248 -1.8161
 8981SOL     OW38578   2.502   3.491   0.042  0.7351  0.4217 -1.1294
 8981SOL    HW138579   2.426   3.549   0.033  1.0732  0.7072 -2.1752
 8981SOL    HW238580   2.563   3.526  17.730  0.1171  0.9691 -1.4219
 8982SOL     OW38581   1.848   4.164   2.043 -0.5747 -0.1736 -0.4022
 8982SOL    HW138582   1.878   4.255   2.044 -0.3610 -0.2486  0.2078
 8982SOL    HW238583   1.756   4.186   2.026 -0.0541  3.2355  1.1834
 8983SOL     OW38584   2.768   0.000  16.008 -0.0369  0.9226  0.5369
 8983SOL    HW138585   2.702   4.728  15.940  0.8690  0.6903 -0.3071
 8983SOL    HW238586   2.796   0.090  15.988 -1.1509  0.6608 -2.2389
 8984SOL     OW38587   4.211   3.798   2.752 -0.1495  0.8381 -0.4291
 8984SOL    HW138588   4.202   3.766   2.842  0.1473 -0.6166 -0.9072
 8984SOL    HW238589   4.303   3.776   2.736  0.0163  0.2396  1.4089
 8985SOL     OW38590   0.769   4.585   8.785  0.2068  0.3702 -0.3807
 8985SOL    HW138591   0.817   4.560   8.864  0.3565  0.6457 -0.3876
 8985SOL    HW238592   0.805   4.527   8.718  1.3349  0.2502  0.3227
 8986SOL     OW38593   3.399   0.861   2.888 -0.5016  0.2826 -0.0496
 8986SOL    HW138594   3.307   0.842   2.908 -1.3954  1.5880 -2.8729
 8986SOL    HW238595   3.405   0.938   2.945  1.1182  1.0512 -1.2685
 8987SOL     OW38596   3.858   0.726   0.166 -0.1449 -0.1191  0.0443
 8987SOL    HW138597   3.866   0.738   0.071  1.2845 -1.7649 -0.0595
 8987SOL    HW238598   3.827   0.635   0.160 -0.7767  0.0351  1.1617
 8988SOL     OW38599   3.286   0.102  14.753 -0.0384 -0.2793 -0.3397
 8988SOL    HW138600   3.261   0.192  14.777 -1.4469 -0.9337  0.6354
 8988SOL    HW238601   3.245   0.086  14.668 -1.4042 -1.5025  0.5595
 8989SOL     OW38602   0.571   2.200   9.860 -0.3613  0.7054  0.6642
 8989SOL    HW138603   0.556   2.290   9.832 -0.2472  0.5437  0.0852
 8989SOL    HW238604   0.587   2.163   9.773  0.4059  1.1895  0.5968
 8990SOL     OW38605   4.189   1.206   2.968 -0.4155 -0.5093  0.2001
 8990SOL    HW138606   4.117   1.194   3.030  2.1952  0.8601  3.5377
 8990SOL    HW238607   4.217   1.114   2.971 -1.3831 -0.7964  0.5428
 8991SOL     OW38608   2.395   4.398   9.025  0.2534  0.0645  0.0282
 8991SOL    HW138609   2.321   4.351   8.985 -1.3434  0.3219  2.6818
 8991SOL    HW238610   2.356   4.485   9.023  0.1675  0.0251 -0.0263
 8992SOL     OW38611   2.790   2.497   5.310 -0.2363 -0.3473 -0.0869
 8992SOL    HW138612   2.871   2.528   5.270 -0.7075 -1.5689 -1.9867
 8992SOL    HW238613   2.830   2.455   5.386  0.2829 -2.7237 -1.6706
 8993SOL     OW38614   3.660   0.285  12.808  0.5884  0.4957 -0.7779
 8993SOL    HW138615   3.566   0.297  12.825  1.1329  0.8191  1.9829
 8993SOL    HW238616   3.674   0.321  12.721  3.0425  0.9572 -0.1918
 8994SOL     OW38617   3.261   0.041   7.596  0.4585  0.2613 -0.1189
 8994SOL    HW138618   3.297   0.004   7.677  1.0224  2.7627  0.7954
 8994SOL    HW238619   3.326   0.016   7.530  2.0781  0.0661  1.5542
 8995SOL     OW38620   2.268   3.293   9.362  0.0813 -0.2506 -0.0362
 8995SOL    HW138621   2.257   3.294   9.457 -1.0895 -0.6755 -0.1652
 8995SOL    HW238622   2.320   3.213   9.350  0.0128 -0.1810 -0.8541
 8996SOL     OW38623   4.671   0.518   2.274  0.1536  0.3418  0.2978
 8996SOL    HW138624   0.022   0.488   2.289 -0.5553 -2.0338 -0.1483
 8996SOL    HW238625   4.674   0.538   2.180 -1.2329  0.5911  0.2994
 8997SOL     OW38626   0.295   2.939   6.649  0.2196 -0.5853 -0.3328
 8997SOL    HW138627   0.254   2.985   6.576 -1.8754 -0.6148  0.8418
 8997SOL    HW238628   0.375   2.991   6.646 -0.2106 -0.0378 -2.4570
 8998SOL     OW38629   2.010   4.633   4.853  0.0559 -0.3208  0.9835
 8998SOL    HW138630   1.979   4.569   4.918  1.7864 -1.3901  0.7703
 8998SOL    HW238631   2.102   4.638   4.877 -0.4152 -1.5464  3.0529
 8999SOL     OW38632   3.752   3.111   8.871  0.5833  0.2361  0.0311
 8999SOL    HW138633   3.783   3.031   8.913 -1.5620 -0.1984  0.7687
 8999SOL    HW238634   3.832   3.163   8.880  0.6842 -0.1708  1.5134
 9000SOL     OW38635   3.331   0.110   9.020  0.4175  0.1848  0.1792
 9000SOL    HW138636   3.265   0.150   9.078 -2.2064 -2.4179 -1.0196
 9000SOL    HW238637   3.349   0.176   8.953  0.6150  1.4835  1.5094
 9001SOL     OW38638   1.820   0.740   2.910 -0.1095  0.2732  0.2925
 9001SOL    HW138639   1.772   0.821   2.894 -0.4597 -0.3586 -1.8623
 9001SOL    HW238640   1.885   0.752   2.840 -0.4574 -1.4561 -0.3405
 9002SOL     OW38641   4.024   2.618   1.145 -0.2632  0.3147 -0.0433
 9002SOL    HW138642   4.090   2.646   1.081 -0.0132  0.1047  0.1256
 9002SOL    HW238643   3.948   2.590   1.094 -0.9752  0.5529  0.8864
 9003SOL     OW38644   2.078   3.994   5.984  0.2754 -0.3068 -0.0797
 9003SOL    HW138645   1.994   3.950   5.971  0.3042  0.0992 -1.5592
 9003SOL    HW238646   2.109   4.013   5.896  1.5721  0.6466  0.5800
 9004SOL     OW38647   1.069   0.080   3.251 -0.5830  0.7132 -0.5008
 9004SOL    HW138648   1.015   0.154   3.278  1.9423  2.5838 -0.5666
 9004SOL    HW238649   1.151   0.123   3.224 -1.4020  2.3756 -0.3271
 9005SOL     OW38650   3.033   1.381   2.299  0.1911  0.1220  0.1446
 9005SOL    HW138651   2.944   1.389   2.334  0.3679  0.3374  0.5458
 9005SOL    HW238652   3.013   1.414   2.212 -1.7930  0.4481  0.7106
 9006SOL     OW38653   4.267   2.240   7.449 -0.1560  0.6068  0.2483
 9006SOL    HW138654   4.255   2.147   7.430 -0.8033  0.7560 -0.0859
 9006SOL    HW238655   4.215   2.282   7.381 -0.8126 -1.4182 -0.4946
 9007SOL     OW38656   0.754   1.778   3.305 -0.3810  0.1192  0.2864
 9007SOL    HW138657   0.674   1.823   3.332  0.1212  0.9517  0.3737
 9007SOL    HW238658   0.721   1.688   3.309 -1.3273  0.4610  0.0751
 9008SOL     OW38659   2.820   4.024  11.046  0.6914 -0.5103 -0.0121
 9008SOL    HW138660   2.775   4.042  11.128  1.7222 -1.4583  0.7623
 9008SOL    HW238661   2.814   3.929  11.044 -2.0819 -0.3304 -0.3359
 9009SOL     OW38662   4.468   0.105   6.993 -0.0365  0.1488  0.0140
 9009SOL    HW138663   4.537   0.172   6.996  0.6746 -0.5960  0.0248
 9009SOL    HW238664   4.472   0.094   6.899 -0.9772  4.2642 -0.5322
 9010SOL     OW38665   4.237   3.046   1.831  0.2860 -0.6520  0.0501
 9010SOL    HW138666   4.314   3.024   1.778 -0.2920 -1.7924 -0.3153
 9010SOL    HW238667   4.209   2.956   1.847 -0.5348 -0.7057 -1.7221
 9011SOL     OW38668   0.959   1.869   7.266  0.7682  0.2981  0.0579
 9011SOL    HW138669   0.951   1.820   7.184  0.1388  0.9814 -0.2842
 9011SOL    HW238670   1.011   1.806   7.316  0.6460  0.1547  0.0013
 9012SOL     OW38671   3.929   3.465   2.763  0.6815 -0.3361  0.0412
 9012SOL    HW138672   3.836   3.487   2.761  0.4983 -1.0674  0.3501
 9012SOL    HW238673   3.961   3.533   2.705  0.3075 -0.1819  0.0151
 9013SOL     OW38674   3.113   4.457  10.404 -0.4401 -0.5932 -0.0560
 9013SOL    HW138675   3.104   4.548  10.433  1.1783  0.2600 -2.2290
 9013SOL    HW238676   3.207   4.446  10.386 -0.7266  0.6587 -2.2449
 9014SOL     OW38677   2.462   3.749   1.703  0.3084  0.0583 -0.3039
 9014SOL    HW138678   2.493   3.833   1.670  0.8071 -1.1144 -2.7940
 9014SOL    HW238679   2.399   3.720   1.637  0.2917  0.6143 -0.5290
 9015SOL     OW38680   0.073   4.448   4.436  0.1064  0.5619 -0.6395
 9015SOL    HW138681   4.728   4.416   4.469 -0.0146 -1.1876 -2.6335
 9015SOL    HW238682   0.061   4.542   4.431 -1.4537  0.4736  1.4840
 9016SOL     OW38683   4.248   4.362  15.981 -0.4235  0.0306  0.4322
 9016SOL    HW138684   4.207   4.439  16.021  1.5785  2.0535 -1.3584
 9016SOL    HW238685   4.207   4.368  15.894 -0.2585 -1.7719  0.2299
 9017SOL     OW38686   3.876   3.866   7.132 -0.1536 -0.1392  0.4056
 9017SOL    HW138687   3.841   3.859   7.221  1.5162  1.0617  1.1419
 9017SOL    HW238688   3.919   3.783   7.113  0.3553  0.5122 -1.2843
 9018SOL     OW38689   4.681   3.153  17.595  0.2417  0.2438  0.0165
 9018SOL    HW138690   0.034   3.149  17.620  0.3855 -0.3641 -0.6075
 9018SOL    HW238691   4.694   3.238  17.553  0.3104  0.0420 -0.3694
 9019SOL     OW38692   1.666   1.733   1.720  0.6594 -0.0766 -0.4008
 9019SOL    HW138693   1.596   1.744   1.784  1.3741  1.1424  0.1675
 9019SOL    HW238694   1.710   1.815   1.741  0.7027 -0.2129  0.0328
 9020SOL     OW38695   1.254   4.669   2.934  0.1614 -0.3761  0.1826
 9020SOL    HW138696   1.240   4.635   3.022  1.6602 -0.2689  0.4486
 9020SOL    HW238697   1.192   4.614   2.886  0.0312  0.1541 -0.2630
 9021SOL     OW38698   2.971   4.644   2.538  0.3358  0.5919  0.3833
 9021SOL    HW138699   2.961   4.685   2.624 -1.7352  2.3055 -0.6879
 9021SOL    HW238700   3.066   4.634   2.546  0.2630 -1.3212 -1.3179
 9022SOL     OW38701   2.047   2.128   8.750 -0.1697  0.1074 -0.1708
 9022SOL    HW138702   1.995   2.118   8.829 -1.5950  0.3657 -1.0827
 9022SOL    HW238703   1.995   2.075   8.690  1.7006  0.5834 -2.2413
 9023SOL     OW38704   2.386   2.272   5.392  0.6036 -0.4947  0.2257
 9023SOL    HW138705   2.463   2.215   5.396  0.6174 -0.6460 -1.8947
 9023SOL    HW238706   2.363   2.270   5.485  0.4433  1.7559  0.2281
 9024SOL     OW38707   3.966   1.006   0.622 -0.5099  0.0603  0.0797
 9024SOL    HW138708   3.915   1.035   0.547 -1.3551 -0.2597  0.5307
 9024SOL    HW238709   3.965   0.911   0.608  1.4107  0.2044 -1.1349
 9025SOL     OW38710   1.905   4.729   9.391  0.1573  0.2571 -0.8017
 9025SOL    HW138711   1.912   4.709   9.484  1.1959 -1.1192 -1.1778
 9025SOL    HW238712   1.881   4.644   9.354  2.5913 -0.7313 -0.1139
 9026SOL     OW38713   3.944   2.236   5.563  0.6142 -0.3591  0.1402
 9026SOL    HW138714   3.959   2.175   5.490  0.7324 -0.9981  0.6987
 9026SOL    HW238715   3.943   2.175   5.637 -2.2172  1.8825  1.9198
 9027SOL     OW38716   3.801   4.369  11.040 -0.4869  0.6513 -0.3817
 9027SOL    HW138717   3.765   4.285  11.010 -0.1369  0.4177 -0.1420
 9027SOL    HW238718   3.843   4.338  11.121 -3.2633  2.0586  1.6052
 9028SOL     OW38719   4.619   1.969   4.639  0.1253 -0.5517 -0.0533
 9028SOL    HW138720   4.556   2.042   4.637 -1.4094 -1.9004 -1.6001
 9028SOL    HW238721   4.557   1.899   4.658  0.8978 -0.3657  3.0909
 9029SOL     OW38722   3.148   0.003   1.042 -0.0123  0.0846  0.0476
 9029SOL    HW138723   3.197   0.037   1.116 -0.7849  0.2883  0.4678
 9029SOL    HW238724   3.196   4.668   1.006  1.3092  0.9303  0.1034
 9030SOL     OW38725   3.788   0.882  10.936  0.3607  0.0090  0.6865
 9030SOL    HW138726   3.744   0.914  10.857  0.4717 -0.6611  0.3566
 9030SOL    HW238727   3.877   0.904  10.907  0.1910 -1.9693 -1.3690
 9031SOL     OW38728   3.389   2.177   3.982  0.6226 -0.5222 -0.8228
 9031SOL    HW138729   3.309   2.201   4.029  1.0133 -0.7871 -0.0273
 9031SOL    HW238730   3.362   2.094   3.942  0.6121 -1.2261  0.6571
 9032SOL     OW38731   3.749   3.958   4.675  0.3720  0.1406 -0.3985
 9032SOL    HW138732   3.718   3.867   4.669  2.0451 -0.3913 -0.7667
 9032SOL    HW238733   3.834   3.950   4.633  0.3527  1.1432 -0.6313
 9033SOL     OW38734   3.326   3.012   6.681  0.7095 -0.2954 -0.0571
 9033SOL    HW138735   3.360   3.050   6.601  2.4936 -0.3234  0.6862
 9033SOL    HW238736   3.364   2.924   6.679  0.8270 -0.3706  4.2476
 9034SOL     OW38737   4.672   2.925   5.433  0.1188  0.1802 -0.5867
 9034SOL    HW138738   4.624   2.852   5.474 -0.8945  0.3578 -1.4521
 9034SOL    HW238739   4.595   2.980   5.450  1.2208  1.4963  0.1468
 9035SOL     OW38740   1.246   1.587  11.998 -0.7734 -0.0113 -0.3249
 9035SOL    HW138741   1.337   1.561  12.007 -1.0123 -0.9807 -0.8035
 9035SOL    HW238742   1.242   1.660  12.061  2.4710 -0.2341  0.1220
 9036SOL     OW38743   2.665   3.676   1.900  0.5524 -0.4378  0.0218
 9036SOL    HW138744   2.612   3.691   1.822 -0.9493  3.1388  1.7355
 9036SOL    HW238745   2.597   3.704   1.961  1.3174  2.8560 -0.6725
 9037SOL     OW38746   1.298   0.318   9.589 -0.0500 -0.2313  0.1562
 9037SOL    HW138747   1.226   0.310   9.651  0.4069 -0.8091  0.6108
 9037SOL    HW238748   1.251   0.299   9.507  0.9094 -3.6437  0.4072
 9038SOL     OW38749   1.254   0.961   1.048  0.2895  0.0864 -0.0817
 9038SOL    HW138750   1.330   0.982   1.102 -0.7698 -0.3099  1.5656
 9038SOL    HW238751   1.184   1.022   1.071  0.5379  0.8424 -1.3122
 9039SOL     OW38752   0.938   3.073   8.385 -0.2283  0.0397  0.0239
 9039SOL    HW138753   0.997   3.068   8.460 -1.1612 -0.9228  0.6705
 9039SOL    HW238754   0.956   2.994   8.334  1.3579 -0.1576  0.8908
 9040SOL     OW38755   0.604   2.139  13.390  0.1919  0.0958 -0.0113
 9040SOL    HW138756   0.613   2.230  13.418 -2.3475  0.2500  0.2835
 9040SOL    HW238757   0.584   2.093  13.472 -2.8317  1.1215 -0.1919
 9041SOL     OW38758   0.660   2.379   0.239 -0.1039  0.1967 -0.0121
 9041SOL    HW138759   0.664   2.287   0.263  3.0636  0.2116 -0.6054
 9041SOL    HW238760   0.739   2.397   0.189 -1.6185 -1.1831 -2.8955
 9042SOL     OW38761   0.649   3.858   8.192  0.0493  0.4352 -0.4478
 9042SOL    HW138762   0.570   3.857   8.138 -1.2326 -0.5094  1.4548
 9042SOL    HW238763   0.663   3.763   8.193  1.7758  0.6957  0.3732
 9043SOL     OW38764   2.637   1.326   5.439  0.1431 -0.1290 -0.0008
 9043SOL    HW138765   2.683   1.339   5.521  0.0249 -3.7541  0.6037
 9043SOL    HW238766   2.664   1.243   5.400  1.3661  0.4741 -0.4542
 9044SOL     OW38767   3.010   1.567   3.334 -0.0067 -0.0764 -0.5403
 9044SOL    HW138768   3.020   1.542   3.426 -0.0624  1.3321 -0.1596
 9044SOL    HW238769   3.058   1.649   3.326  1.8995 -1.0409  0.8382
 9045SOL     OW38770   1.880   3.531   2.660  0.5054  0.2425  0.5265
 9045SOL    HW138771   1.853   3.622   2.663  1.2500  0.4927 -0.1740
 9045SOL    HW238772   1.928   3.525   2.578  0.9254 -0.8820  0.8493
 9046SOL     OW38773   0.563   1.607   4.277  0.3391 -0.2101  0.0429
 9046SOL    HW138774   0.648   1.595   4.235  0.3537  2.9666 -0.8859
 9046SOL    HW238775   0.496   1.569   4.220 -0.0991 -0.0205  0.4242
 9047SOL     OW38776   2.874   2.469   1.993 -0.4167 -0.0012  0.5470
 9047SOL    HW138777   2.850   2.393   2.046  1.4689 -0.3664  0.8886
 9047SOL    HW238778   2.809   2.529   2.030  1.0093  1.5668  0.5498
 9048SOL     OW38779   2.897   4.357  12.727 -0.2602 -0.0933  0.5713
 9048SOL    HW138780   2.929   4.321  12.810 -1.1720  1.7893  1.7610
 9048SOL    HW238781   2.802   4.358  12.740 -0.3712 -2.9462  0.0016
 9049SOL     OW38782   1.739   4.708   8.579 -0.4075  0.1359 -0.0810
 9049SOL    HW138783   1.698   0.047   8.540 -0.7382 -0.1102 -0.2222
 9049SOL    HW238784   1.660   4.657   8.591 -0.2174 -0.0999  0.1574
 9050SOL     OW38785   2.038   2.285   5.728  0.0793 -0.2727 -0.4183
 9050SOL    HW138786   2.006   2.375   5.715 -0.4138 -0.5279 -0.9585
 9050SOL    HW238787   1.973   2.238   5.677  2.2302 -0.7113 -2.7742
 9051SOL     OW38788   3.856   4.613  11.177  0.2102 -0.0092 -0.0661
 9051SOL    HW138789   3.846   4.528  11.134  0.6232  0.0999 -0.3754
 9051SOL    HW238790   3.852   4.675  11.104  0.3065 -2.6701 -2.3308
 9052SOL     OW38791   2.442   0.730   2.447  0.2805 -0.0899  0.4279
 9052SOL    HW138792   2.534   0.730   2.473  0.3694  0.3486  0.0993
 9052SOL    HW238793   2.416   0.638   2.436 -1.7642  0.4578  0.6120
 9053SOL     OW38794   0.862   3.470  12.238  0.3617  0.0647  0.2632
 9053SOL    HW138795   0.907   3.554  12.233  1.4525 -0.6700 -2.0184
 9053SOL    HW238796   0.935   3.416  12.209  1.6192  0.5832  2.4204
 9054SOL     OW38797   1.377   1.808   6.223  0.4029  0.0992 -0.3084
 9054SOL    HW138798   1.351   1.899   6.239  0.7797  0.1495  0.0280
 9054SOL    HW238799   1.405   1.795   6.314 -0.8469 -0.3401  0.0068
 9055SOL     OW38800   4.551   0.776   7.176  0.3680  1.1542 -0.1635
 9055SOL    HW138801   4.495   0.737   7.108 -0.4196  0.4944  0.8569
 9055SOL    HW238802   4.523   0.739   7.260 -0.9645  0.5192 -0.8926
 9056SOL     OW38803   3.020   2.269  15.051  0.6278  0.1099 -0.9932
 9056SOL    HW138804   2.986   2.267  14.961 -0.6953  0.4613 -0.5076
 9056SOL    HW238805   2.952   2.323  15.092 -0.8852 -3.2066  0.8916
 9057SOL     OW38806   1.404   0.118   0.319  0.6008  0.2036 -0.4554
 9057SOL    HW138807   1.488   0.132   0.274 -0.0745 -3.0935 -2.7394
 9057SOL    HW238808   1.347   0.184   0.280  1.4339 -0.1520 -2.3222
 9058SOL     OW38809   1.605   1.046   0.584  0.1853  0.3580 -0.2555
 9058SOL    HW138810   1.626   0.982   0.652 -2.8522 -1.7512 -1.2663
 9058SOL    HW238811   1.571   1.121   0.633 -0.4471  0.3209 -0.6289
 9059SOL     OW38812   0.817   1.025  10.665  0.0311  0.0286 -0.3691
 9059SOL    HW138813   0.742   0.969  10.647 -0.6089  1.1329 -1.1057
 9059SOL    HW238814   0.879   1.005  10.594  1.4132  0.0611  0.8158
 9060SOL     OW38815   0.427   0.091  13.299 -0.8174  0.4974 -0.0201
 9060SOL    HW138816   0.365   0.058  13.364  0.8466 -1.5279  0.5244
 9060SOL    HW238817   0.400   0.183  13.299 -1.9743  0.1664  0.5084
 9061SOL     OW38818   2.908   4.537   7.620  0.1813  0.1858 -0.0217
 9061SOL    HW138819   2.937   4.627   7.633 -2.5184  1.1326 -0.5258
 9061SOL    HW238820   2.855   4.554   7.543  2.8266  0.5727 -1.7652
 9062SOL     OW38821   4.681   0.429  16.757 -0.4166  0.1367  0.0222
 9062SOL    HW138822   4.613   0.496  16.762 -1.3748 -0.9296  1.5305
 9062SOL    HW238823   4.628   0.350  16.750 -2.6748  1.5665  0.8350
 9063SOL     OW38824   1.893   1.726  16.463  0.0230 -0.1142  0.5260
 9063SOL    HW138825   1.956   1.675  16.515  0.3277  0.7792  1.0241
 9063SOL    HW238826   1.834   1.657  16.431  0.8653 -1.1030  1.0974
 9064SOL     OW38827   0.576   1.549   3.282 -0.4343 -0.1732 -0.2822
 9064SOL    HW138828   0.528   1.497   3.346  1.9570 -0.3532  1.3395
 9064SOL    HW238829   0.561   1.496   3.203 -0.5165 -0.7846  0.1379
 9065SOL     OW38830   2.677   1.370   9.349  0.4217  0.3534  0.5370
 9065SOL    HW138831   2.720   1.355   9.264 -2.4015 -0.6928 -0.7099
 9065SOL    HW238832   2.678   1.278   9.377  0.9121  0.1829 -0.0132
 9066SOL     OW38833   0.932   3.837   8.386 -1.0422 -0.1085  0.3452
 9066SOL    HW138834   1.023   3.864   8.393 -0.1677 -2.3830 -2.1414
 9066SOL    HW238835   0.957   3.745   8.374 -3.4992 -0.8193  0.6074
 9067SOL     OW38836   1.068   2.485   7.386  0.1154  0.1857  0.0842
 9067SOL    HW138837   1.018   2.446   7.314 -1.1151 -0.4915  1.2938
 9067SOL    HW238838   1.007   2.551   7.419 -0.5645 -1.2439  1.7358
 9068SOL     OW38839   1.365   2.514   4.797  0.2158 -0.1328 -0.0166
 9068SOL    HW138840   1.281   2.469   4.802  0.9850 -1.4731  0.6605
 9068SOL    HW238841   1.332   2.599   4.829  0.0035 -0.2882  0.1754
 9069SOL     OW38842   1.997   3.229   5.564  0.4143 -0.0460 -0.2552
 9069SOL    HW138843   2.052   3.308   5.562 -0.7717  0.7340 -2.1456
 9069SOL    HW238844   1.937   3.265   5.499  1.3795 -0.7670 -1.5542
 9070SOL     OW38845   2.973   3.078  13.153  0.1598  0.4221  0.5399
 9070SOL    HW138846   2.991   3.120  13.069 -1.8151  1.9579  0.8849
 9070SOL    HW238847   3.047   3.017  13.153 -1.5364 -1.6156 -0.4059
 9071SOL     OW38848   4.480   4.692   0.612  0.3409  0.3527 -0.0014
 9071SOL    HW138849   4.480   4.697   0.517  0.4328 -1.1688 -0.0690
 9071SOL    HW238850   4.542   4.620   0.615  0.4616  0.5120  1.2518
 9072SOL     OW38851   4.124   0.986  11.158 -0.1292  0.1998  0.0393
 9072SOL    HW138852   4.175   0.936  11.094  0.8915 -0.3738  1.2809
 9072SOL    HW238853   4.117   1.070  11.114  2.2257  0.1582 -0.4314
 9073SOL     OW38854   3.739   2.058   4.013  0.0774 -0.6884  0.5998
 9073SOL    HW138855   3.816   2.064   4.069  0.1371 -0.3103  0.4749
 9073SOL    HW238856   3.726   2.145   3.975  2.5232  0.0557  1.4892
 9074SOL     OW38857   1.853   1.677   2.927 -0.0498 -0.1310 -0.2044
 9074SOL    HW138858   1.937   1.722   2.924 -0.7364  1.1022 -0.7560
 9074SOL    HW238859   1.797   1.731   2.872  0.5000  1.5960  0.9473
 9075SOL     OW38860   2.702   1.489   7.727  0.3857 -0.0693  0.4508
 9075SOL    HW138861   2.664   1.479   7.814 -1.2602  3.2075  0.1240
 9075SOL    HW238862   2.625   1.464   7.675 -0.9521 -0.3429  2.5788
 9076SOL     OW38863   0.558   3.110   7.632  0.5339  0.2115  0.1101
 9076SOL    HW138864   0.462   3.102   7.629  0.8014 -3.4342  1.8754
 9076SOL    HW238865   0.584   3.200   7.653 -1.5091  0.7604  0.3608
 9077SOL     OW38866   0.211   4.605   2.183  0.5295 -0.5080  0.1795
 9077SOL    HW138867   0.218   4.529   2.241 -1.3313 -1.8268 -1.3481
 9077SOL    HW238868   0.271   4.583   2.112  0.5979 -1.1838  0.4469
 9078SOL     OW38869   0.364   3.960  17.333  0.3492 -0.3007  0.8377
 9078SOL    HW138870   0.357   3.887  17.395 -1.2797 -1.2843 -0.4910
 9078SOL    HW238871   0.288   4.013  17.357 -0.8113 -1.2553 -0.6654
 9079SOL     OW38872   1.000   4.035   3.567 -0.1864 -0.4000 -0.1441
 9079SOL    HW138873   0.908   4.061   3.571 -0.3391 -0.9768  0.1218
 9079SOL    HW238874   0.994   3.954   3.516 -2.9811  0.6583 -1.5073
 9080SOL     OW38875   2.503   1.098   9.960 -0.1094 -0.3441 -0.6112
 9080SOL    HW138876   2.492   1.178  10.011 -2.1950 -0.8967 -0.1998
 9080SOL    HW238877   2.485   1.030  10.026  1.8281 -1.4944 -1.2707
 9081SOL     OW38878   1.191   0.955   7.161  0.4386 -0.1025  0.1790
 9081SOL    HW138879   1.244   0.977   7.085 -1.6649 -0.1083 -1.3165
 9081SOL    HW238880   1.114   1.006   7.134  1.4396  0.6794 -1.1796
 9082SOL     OW38881   2.631   0.584   0.908 -0.0284 -0.5565 -0.5258
 9082SOL    HW138882   2.631   0.629   0.992 -0.2570 -0.5644 -0.5222
 9082SOL    HW238883   2.681   0.505   0.928 -1.5234 -1.0830  1.1258
 9083SOL     OW38884   3.377   3.974   2.781 -0.1694  0.0886  0.5808
 9083SOL    HW138885   3.449   3.923   2.744 -1.8433 -0.6396 -1.6280
 9083SOL    HW238886   3.390   4.066   2.758  0.2368  0.3307  1.7682
 9084SOL     OW38887   4.145   2.149   0.346  0.1717 -0.1651 -0.8089
 9084SOL    HW138888   4.224   2.170   0.295  0.2609 -2.4012 -1.5770
 9084SOL    HW238889   4.185   2.108   0.422 -1.0750  0.6699  0.2961
 9085SOL     OW38890   2.567   3.257   6.226 -0.2199 -0.2931 -0.1924
 9085SOL    HW138891   2.528   3.205   6.156 -0.1651  1.2285 -1.3748
 9085SOL    HW238892   2.581   3.336   6.174  0.7618  0.1735  0.7854
 9086SOL     OW38893   1.837   0.471   8.317  0.3852 -0.3797 -0.2366
 9086SOL    HW138894   1.802   0.404   8.377  1.7187  0.4753  1.4714
 9086SOL    HW238895   1.906   0.419   8.275  1.4892 -0.8059  2.0832
 9087SOL     OW38896   2.570   1.069   2.018  0.0276 -0.0557  0.7667
 9087SOL    HW138897   2.611   1.073   1.932  1.2214  0.2233  1.3488
 9087SOL    HW238898   2.514   1.147   2.015  0.5935  0.3951  1.6134
 9088SOL     OW38899   1.673   2.558  12.718  0.3789  0.3987 -0.3328
 9088SOL    HW138900   1.740   2.531  12.781  1.1204 -0.5281 -1.5089
 9088SOL    HW238901   1.690   2.504  12.640 -0.8107  0.4219 -0.6030
 9089SOL     OW38902   0.753   3.761   3.323  0.3794  0.0233 -0.0754
 9089SOL    HW138903   0.700   3.824   3.274  1.4600 -0.2751 -1.6198
 9089SOL    HW238904   0.691   3.732   3.390 -0.5481  0.6513 -0.6675
 9090SOL     OW38905   4.721   2.207   4.427 -0.2201  0.7013  0.4422
 9090SOL    HW138906   4.628   2.209   4.404 -0.0856  1.5958 -0.0178
 9090SOL    HW238907   4.733   2.112   4.416 -1.1563  0.8829 -2.0942
 9091SOL     OW38908   1.976   0.202   8.890  0.2877 -0.2417  0.0571
 9091SOL    HW138909   1.944   0.117   8.857  1.2440 -1.0213  1.1327
 9091SOL    HW238910   1.955   0.193   8.983  1.3550  0.1026  0.3317
 9092SOL     OW38911   4.695   1.699   2.482 -0.2105  0.0082 -0.0624
 9092SOL    HW138912   4.603   1.708   2.458 -0.2072 -0.1737 -0.1434
 9092SOL    HW238913   4.738   1.675   2.399 -1.9664 -3.1843 -0.0438
 9093SOL     OW38914   3.085   0.879   1.535  0.0625 -0.1112 -0.1046
 9093SOL    HW138915   3.024   0.945   1.568  1.2226  0.7401  0.3479
 9093SOL    HW238916   3.107   0.829   1.613  0.1132  0.5788  0.3218
 9094SOL     OW38917   4.425   2.505   9.587  0.1832  0.4249 -0.1927
 9094SOL    HW138918   4.452   2.510   9.679  0.1206  1.8119 -0.2593
 9094SOL    HW238919   4.440   2.595   9.560  3.8605  0.3003  1.4457
 9095SOL     OW38920   2.380   3.599   3.867  0.0766  0.3796 -0.4149
 9095SOL    HW138921   2.382   3.689   3.900  0.5702 -0.6188  2.2691
 9095SOL    HW238922   2.413   3.604   3.777 -1.2503 -0.5626 -0.9637
 9096SOL     OW38923   3.596   4.511   1.896 -0.3513 -0.5128  0.5166
 9096SOL    HW138924   3.672   4.454   1.887  0.5356  0.5601  1.2563
 9096SOL    HW238925   3.530   4.441   1.902 -0.8698 -0.1573 -1.0688
 9097SOL     OW38926   2.234   0.166   8.256  0.1630 -0.4015 -0.1929
 9097SOL    HW138927   2.302   0.164   8.323  1.9690 -1.3956 -2.0581
 9097SOL    HW238928   2.182   0.089   8.282 -2.1593  1.3486  0.3414
 9098SOL     OW38929   4.227   2.145   7.769  0.2156  0.6301 -0.4638
 9098SOL    HW138930   4.252   2.216   7.829 -0.3023  0.6995 -0.3324
 9098SOL    HW238931   4.304   2.145   7.711 -0.1189 -0.2086 -0.9069
 9099SOL     OW38932   0.962   2.277   6.298 -0.1519  0.1184 -0.1554
 9099SOL    HW138933   0.922   2.361   6.275  1.6571  1.1615  0.5099
 9099SOL    HW238934   1.016   2.260   6.220 -0.1706 -0.4976 -0.0348
 9100SOL     OW38935   0.667   3.653   0.109 -0.1078  0.1913 -0.2883
 9100SOL    HW138936   0.617   3.673   0.187 -2.5876 -0.7442 -1.6344
 9100SOL    HW238937   0.732   3.589   0.137 -0.6111  0.4461  1.4130
 9101SOL     OW38938   1.381   1.916  13.219  0.3460  0.6418  0.0079
 9101SOL    HW138939   1.384   1.868  13.137  0.6363  0.4309  0.1422
 9101SOL    HW238940   1.469   1.899  13.254  0.9338  2.5982 -0.5350
 9102SOL     OW38941   1.351   1.417   7.754 -0.3225  0.6381  0.4282
 9102SOL    HW138942   1.408   1.342   7.736  0.3768  0.9133  1.4841
 9102SOL    HW238943   1.267   1.370   7.759  0.6455 -0.9832  1.4087
 9103SOL     OW38944   3.917   0.393   3.460 -0.0041 -0.1720 -0.0042
 9103SOL    HW138945   4.000   0.366   3.421  0.0270 -1.7951  1.1753
 9103SOL    HW238946   3.962   0.460   3.512 -2.2096 -0.0978  1.8365
 9104SOL     OW38947   2.984   1.466   8.825 -0.1632  0.2901  0.4273
 9104SOL    HW138948   3.079   1.477   8.825 -0.3076  1.5508 -0.6529
 9104SOL    HW238949   2.948   1.553   8.806  0.5734  0.3236 -0.8341
 9105SOL     OW38950   0.229   1.225   8.124 -0.0573 -0.0824  0.0836
 9105SOL    HW138951   0.293   1.215   8.195 -1.8385  0.4698  1.7565
 9105SOL    HW238952   0.187   1.139   8.118  4.3021 -2.2914  0.4717
 9106SOL     OW38953   4.461   1.319  14.633 -0.1341  0.4229  0.4404
 9106SOL    HW138954   4.409   1.321  14.713 -0.1298 -0.0907  0.4551
 9106SOL    HW238955   4.479   1.408  14.605 -2.8560  1.4383  1.8981
 9107SOL     OW38956   2.494   1.372   7.331  0.2865  0.7365  0.0915
 9107SOL    HW138957   2.405   1.347   7.353  1.0652 -1.9404  0.1464
 9107SOL    HW238958   2.509   1.433   7.403  1.0495 -1.5219  1.8228
 9108SOL     OW38959   1.323   2.969   2.999 -0.3814 -0.5778 -0.2566
 9108SOL    HW138960   1.240   3.011   2.978  0.1983  0.0709 -1.2656
 9108SOL    HW238961   1.334   3.020   3.079  0.4094 -3.3643  1.4320
 9109SOL     OW38962   4.486   2.468   2.441 -0.5568 -0.0415  0.0346
 9109SOL    HW138963   4.499   2.536   2.375  1.0995  0.0332  0.4261
 9109SOL    HW238964   4.572   2.461   2.482 -1.3855 -0.6794  1.6436
 9110SOL     OW38965   3.297   3.575   3.006 -0.1655 -0.2601  0.3930
 9110SOL    HW138966   3.221   3.626   2.979 -0.4935 -0.5036  0.8495
 9110SOL    HW238967   3.255   3.498   3.046 -0.5172 -0.0652  0.3978
 9111SOL     OW38968   0.842   2.694   3.478 -0.4869  0.0539  0.3134
 9111SOL    HW138969   0.824   2.626   3.542  1.5361 -1.4765 -0.7557
 9111SOL    HW238970   0.928   2.722   3.507  1.2045 -1.9529 -2.8048
 9112SOL     OW38971   3.934   3.616   8.337  0.4411  0.4192  0.1371
 9112SOL    HW138972   3.981   3.535   8.358  2.5804  1.8014  0.7072
 9112SOL    HW238973   3.896   3.585   8.255 -0.4640 -2.1512  1.5105
 9113SOL     OW38974   0.294   3.151   1.419  0.3045  0.1201 -0.3744
 9113SOL    HW138975   0.266   3.118   1.504 -2.3843  0.6951 -1.0087
 9113SOL    HW238976   0.207   3.156   1.378 -0.1778  0.4215  0.6739
 9114SOL     OW38977   2.016   2.183   3.816  0.4325  0.9311  0.1659
 9114SOL    HW138978   2.099   2.197   3.770 -1.8965 -0.2511 -4.4434
 9114SOL    HW238979   1.964   2.261   3.799 -1.6918 -1.0650 -2.4259
 9115SOL     OW38980   2.184   0.914   7.969  0.3864 -0.0071  0.1329
 9115SOL    HW138981   2.256   0.865   8.008  0.3360  0.6148  1.0103
 9115SOL    HW238982   2.170   0.984   8.032 -0.1639  0.3245 -0.3606
 9116SOL     OW38983   2.547   0.792   4.511  0.0811 -0.2484  0.2464
 9116SOL    HW138984   2.576   0.748   4.591  0.3965  0.9070  0.7623
 9116SOL    HW238985   2.471   0.740   4.487 -0.0393 -0.2370  0.6115
 9117SOL     OW38986   4.127   0.655   7.521 -0.0053  0.4242  0.4541
 9117SOL    HW138987   4.123   0.727   7.584 -0.7740  0.5082  0.3058
 9117SOL    HW238988   4.039   0.645   7.485  1.0613 -0.6596 -1.8542
 9118SOL     OW38989   0.787   4.598   7.200 -0.2490  0.2886  0.1716
 9118SOL    HW138990   0.714   4.635   7.149 -1.5194 -2.8008 -0.2451
 9118SOL    HW238991   0.781   4.658   7.274  0.1082 -1.6359  1.7579
 9119SOL     OW38992   3.570   2.798   4.623  0.5339  0.3721 -0.5027
 9119SOL    HW138993   3.578   2.741   4.699  1.7253  0.7132 -0.3661
 9119SOL    HW238994   3.476   2.818   4.617  0.4977 -1.1834 -4.6872
 9120SOL     OW38995   4.056   3.267   3.763 -0.1147  0.3067 -0.2004
 9120SOL    HW138996   3.983   3.255   3.702  0.6408 -1.0580 -0.8439
 9120SOL    HW238997   4.031   3.203   3.830 -1.3619  2.9687  1.9179
 9121SOL     OW38998   1.643   2.686   3.085 -0.3209 -0.3303  0.1164
 9121SOL    HW138999   1.690   2.767   3.107 -0.3860 -0.0773 -0.6912
 9121SOL    HW239000   1.578   2.686   3.155  1.2460  0.3349  1.5942
 9122SOL     OW39001   3.482   3.917   2.249  0.2987 -0.5866  0.2258
 9122SOL    HW139002   3.465   4.008   2.226  1.5965 -0.3163  0.3252
 9122SOL    HW239003   3.442   3.868   2.177  0.5651 -0.5878  0.0784
 9123SOL     OW39004   2.357   1.452  13.482  0.1910 -0.0923 -0.6549
 9123SOL    HW139005   2.386   1.374  13.436 -3.0768 -0.8744 -1.4157
 9123SOL    HW239006   2.359   1.521  13.415  0.9183  0.6529  0.1399
 9124SOL     OW39007   2.157   4.350   8.811  0.5415 -0.8124  0.0460
 9124SOL    HW139008   2.169   4.319   8.722  0.7401 -0.4135 -0.0692
 9124SOL    HW239009   2.066   4.326   8.828  1.0702 -3.7646 -1.3750
 9125SOL     OW39010   1.476   0.581   6.378  0.2765 -0.3031 -0.0859
 9125SOL    HW139011   1.557   0.562   6.425  0.8931  0.2314 -0.9359
 9125SOL    HW239012   1.447   0.663   6.416 -1.2990 -0.3346 -1.2187
 9126SOL     OW39013   1.211   1.588   3.900  0.3838  0.1978  0.0793
 9126SOL    HW139014   1.185   1.505   3.941  0.1639  1.5674  2.6785
 9126SOL    HW239015   1.133   1.641   3.916 -0.2049 -0.0669 -1.9868
 9127SOL     OW39016   1.480   3.292   5.859  0.0066 -0.1339  0.2000
 9127SOL    HW139017   1.447   3.355   5.923  2.4446  1.0138  0.3246
 9127SOL    HW239018   1.418   3.221   5.870  0.5850 -0.4867  1.2244
 9128SOL     OW39019   0.605   0.364   7.953 -0.0162  0.1128  0.6817
 9128SOL    HW139020   0.564   0.445   7.983  0.2100 -0.3317  2.2012
 9128SOL    HW239021   0.525   0.325   7.917  0.9085 -1.9914  0.8941
 9129SOL     OW39022   0.670   3.000  12.770  0.7494 -0.2806  0.0929
 9129SOL    HW139023   0.731   2.929  12.750  0.1466 -0.5086 -0.9456
 9129SOL    HW239024   0.729   3.046  12.829  0.3558  0.3792 -0.0271
 9130SOL     OW39025   4.255   2.261  15.090  0.6390 -0.5640  0.1335
 9130SOL    HW139026   4.307   2.201  15.144  0.7611 -0.6623 -0.0955
 9130SOL    HW239027   4.167   2.255  15.129  0.4846  0.1178 -0.1081
 9131SOL     OW39028   4.259   2.780   0.679  0.2687 -0.2728 -0.0606
 9131SOL    HW139029   4.191   2.739   0.627  1.2877 -0.6670 -1.0802
 9131SOL    HW239030   4.214   2.865   0.686 -0.7471 -0.6573 -1.8709
 9132SOL     OW39031   4.038   1.077   4.110  0.6851 -0.1942 -0.0081
 9132SOL    HW139032   3.965   1.108   4.056  0.9882 -2.5433 -1.7855
 9132SOL    HW239033   3.998   1.071   4.197 -1.7364  0.6729 -1.0800
 9133SOL     OW39034   0.459   0.513  16.809 -0.0239  0.2205  0.1486
 9133SOL    HW139035   0.365   0.497  16.805  0.1798 -1.2705  1.6747
 9133SOL    HW239036   0.473   0.493  16.901  1.6777 -2.1870 -0.6393
 9134SOL     OW39037   4.011   2.041   6.443 -0.6441 -0.4238 -0.1400
 9134SOL    HW139038   3.951   2.115   6.432  0.2526 -0.0501 -2.4165
 9134SOL    HW239039   3.951   1.975   6.480  1.2110 -1.5946  0.7586
 9135SOL     OW39040   1.189   1.907   4.198 -0.0217  0.4955 -0.3040
 9135SOL    HW139041   1.284   1.919   4.199  0.1070 -0.3001 -1.7805
 9135SOL    HW239042   1.164   1.941   4.112  0.0909 -0.5606 -0.7528
 9136SOL     OW39043   1.936   4.330   7.911 -0.6220 -0.2203 -0.3104
 9136SOL    HW139044   1.929   4.239   7.883 -0.6299 -0.8824  1.8805
 9136SOL    HW239045   1.856   4.344   7.963  0.4451 -1.4485  1.6466
 9137SOL     OW39046   0.025   0.216   5.733  0.4231 -0.0957  0.6737
 9137SOL    HW139047   4.707   0.277   5.686  1.7733  0.1109 -0.7007
 9137SOL    HW239048   4.708   0.141   5.755 -0.2655  0.2383  0.0699
 9138SOL     OW39049   1.870   3.665   6.972 -0.3040 -0.1793  0.3879
 9138SOL    HW139050   1.884   3.741   7.029  3.4433 -0.4984 -0.1083
 9138SOL    HW239051   1.956   3.625   6.968 -1.0712 -1.9995  2.4052
 9139SOL     OW39052   1.754   0.133   1.101 -0.0674  0.1557  0.2242
 9139SOL    HW139053   1.783   0.221   1.077 -1.0194  0.2787 -0.4954
 9139SOL    HW239054   1.671   0.150   1.146 -0.3979 -0.9684  0.0432
 9140SOL     OW39055   0.326   0.707   3.984 -0.1222 -0.2424  0.1089
 9140SOL    HW139056   0.263   0.720   4.055  1.4827 -0.1890  1.5358
 9140SOL    HW239057   0.311   0.778   3.921  0.5279  0.4341  0.7074
 9141SOL     OW39058   0.470   1.735   9.856 -0.7970  0.1156 -0.0893
 9141SOL    HW139059   0.551   1.763   9.812 -1.7569 -0.3734 -2.1517
 9141SOL    HW239060   0.503   1.648   9.879  1.4825  0.9643 -0.0889
 9142SOL     OW39061   0.091   4.177   6.997  0.0575 -0.0340 -0.3999
 9142SOL    HW139062   0.143   4.200   6.921  1.1659 -1.1913  0.0110
 9142SOL    HW239063   0.112   4.247   7.059  0.9251  0.1900 -0.9512
 9143SOL     OW39064   3.100   4.285   2.332 -0.2019 -0.2006  0.2025
 9143SOL    HW139065   3.099   4.214   2.267  3.4887 -0.6314  0.6093
 9143SOL    HW239066   3.032   4.345   2.303 -0.3409 -0.6097 -0.3151
 9144SOL     OW39067   1.506   4.176   8.621 -0.2735  0.5011  0.5094
 9144SOL    HW139068   1.587   4.227   8.615  0.1060 -0.2152 -0.3836
 9144SOL    HW239069   1.493   4.198   8.714 -0.4746  1.9378  0.1307
 9145SOL     OW39070   3.797   0.583   5.463 -0.8724  0.7861  0.1144
 9145SOL    HW139071   3.892   0.590   5.458 -0.5961 -2.7925  0.2308
 9145SOL    HW239072   3.767   0.600   5.373  0.9754 -0.4512 -0.7220
 9146SOL     OW39073   0.510   4.529   6.243  0.1312  0.6096  0.2240
 9146SOL    HW139074   0.422   4.524   6.281 -0.2479 -0.5485 -0.8017
 9146SOL    HW239075   0.535   4.620   6.255 -0.9664  0.9057  0.2359
 9147SOL     OW39076   0.626   4.265   5.784  0.4415 -0.1088 -0.3895
 9147SOL    HW139077   0.717   4.292   5.788  0.5390 -0.5657  0.7126
 9147SOL    HW239078   0.592   4.322   5.854  1.4420 -0.4447  0.3703
 9148SOL     OW39079   3.245   4.275   4.341  0.0370  0.0381 -0.2606
 9148SOL    HW139080   3.251   4.329   4.420  1.2333 -0.6580  0.1259
 9148SOL    HW239081   3.305   4.208   4.374 -1.5167 -1.2890 -0.1389
 9149SOL     OW39082   1.316   0.824   1.585  0.0109  0.2488 -0.1097
 9149SOL    HW139083   1.369   0.866   1.653 -0.5208 -1.3177  1.2556
 9149SOL    HW239084   1.283   0.754   1.641  0.6293  0.1821  0.1624
 9150SOL     OW39085   0.312   4.545   8.055  0.0152 -0.6420 -0.6158
 9150SOL    HW139086   0.350   4.460   8.075 -1.3191 -1.1627 -0.2576
 9150SOL    HW239087   0.222   4.520   8.033 -1.3772  2.5655  1.3727
 9151SOL     OW39088   4.187   3.981  15.128  0.7308  0.1791 -0.0455
 9151SOL    HW139089   4.236   4.059  15.104 -0.9480  1.3019  0.1206
 9151SOL    HW239090   4.223   3.922  15.062  1.2358  2.6347 -1.9494
 9152SOL     OW39091   0.233   2.132   3.744  0.0868  0.0773  0.0955
 9152SOL    HW139092   0.191   2.171   3.820 -3.4893 -4.0810  0.2295
 9152SOL    HW239093   0.283   2.060   3.782 -1.5646  0.0852  2.2150
 9153SOL     OW39094   0.575   2.126   1.128 -0.1376 -0.2995 -0.6347
 9153SOL    HW139095   0.563   2.058   1.194 -2.9428  1.0997  0.3008
 9153SOL    HW239096   0.616   2.194   1.182 -1.1239 -0.8047  0.7550
 9154SOL     OW39097   0.060   3.277   3.529 -0.0736 -0.0991  0.3146
 9154SOL    HW139098   4.727   3.303   3.471  0.5310 -0.6723 -0.7029
 9154SOL    HW239099   0.093   3.189   3.508  0.7325  0.2389  0.1497
 9155SOL     OW39100   0.754   4.254   2.087 -0.3592 -0.4795  0.1748
 9155SOL    HW139101   0.668   4.294   2.073 -1.8187 -2.9426  2.2357
 9155SOL    HW239102   0.741   4.160   2.071  0.0099 -0.4929 -0.0505
 9156SOL     OW39103   0.454   1.051   4.506  0.0410  0.5378 -0.0122
 9156SOL    HW139104   0.433   0.977   4.563 -1.2482  0.6883 -0.3103
 9156SOL    HW239105   0.373   1.066   4.459  0.1992 -2.5877 -1.2827
 9157SOL     OW39106   1.589   0.788   3.495  0.8387 -0.0985  0.0388
 9157SOL    HW139107   1.571   0.694   3.502 -2.1127  0.1528 -4.0573
 9157SOL    HW239108   1.499   0.813   3.477  0.9524 -0.3726 -0.8801
 9158SOL     OW39109   4.594   2.835   6.921  0.6864 -0.4435  0.1024
 9158SOL    HW139110   4.682   2.867   6.907  1.5150 -2.5029  0.6098
 9158SOL    HW239111   4.549   2.874   6.846 -1.3572  1.7090  2.4274
 9159SOL     OW39112   3.590   1.565  15.852 -0.5944 -0.1805  0.1622
 9159SOL    HW139113   3.634   1.481  15.846  0.2663  0.4672 -2.2645
 9159SOL    HW239114   3.629   1.610  15.777 -0.2416  0.0062  0.4590
 9160SOL     OW39115   0.781   2.537   3.268  0.0965 -0.5362 -0.4701
 9160SOL    HW139116   0.831   2.607   3.311 -1.1031 -0.0822  0.1877
 9160SOL    HW239117   0.727   2.589   3.208  0.5193 -1.1104 -1.3333
 9161SOL     OW39118   4.663   3.738  12.235  0.1698  0.3089 -0.0257
 9161SOL    HW139119   4.596   3.762  12.299  0.6207 -1.6938  1.1911
 9161SOL    HW239120   4.682   3.826  12.201 -0.3882  0.1478 -0.7355
 9162SOL     OW39121   2.919   0.075   7.610  0.5876  0.0974 -0.4223
 9162SOL    HW139122   2.863   0.134   7.661  0.5285  0.0613 -0.4455
 9162SOL    HW239123   3.002   0.118   7.628  1.4807 -1.9662  0.3691
 9163SOL     OW39124   2.289   0.192   0.935 -0.6305  0.0690 -0.2416
 9163SOL    HW139125   2.224   0.179   1.003 -1.7476 -0.0147 -1.3380
 9163SOL    HW239126   2.371   0.211   0.981 -1.1399 -1.5822  1.3214
 9164SOL     OW39127   4.235   4.152  10.443 -0.1300 -0.3977 -0.4393
 9164SOL    HW139128   4.297   4.157  10.371  0.2025 -2.3396 -0.2839
 9164SOL    HW239129   4.288   4.118  10.515  2.2110  0.5328 -1.7267
 9165SOL     OW39130   1.618   1.543   8.250  0.2341 -0.3096 -0.3195
 9165SOL    HW139131   1.603   1.533   8.156  0.6654  0.7272 -0.5026
 9165SOL    HW239132   1.600   1.636   8.266  0.6616  0.1224 -2.2373
 9166SOL     OW39133   3.398   0.370  12.871  0.3079  0.2854 -0.3548
 9166SOL    HW139134   3.360   0.457  12.859  0.2648  0.1962 -0.8688
 9166SOL    HW239135   3.416   0.377  12.965  0.8467  0.1586 -0.4507
 9167SOL     OW39136   2.308   3.884   1.053  0.0829 -0.5068 -0.6473
 9167SOL    HW139137   2.314   3.973   1.017 -1.6485  0.0273  0.3787
 9167SOL    HW239138   2.226   3.904   1.098  0.7960 -0.2248  0.5369
 9168SOL     OW39139   2.285   4.179   0.937  0.1563  0.3472 -0.3586
 9168SOL    HW139140   2.331   4.244   0.883  0.9863 -1.3756 -1.7130
 9168SOL    HW239141   2.194   4.208   0.936  0.0971  0.1217 -1.3244
 9169SOL     OW39142   0.378   4.646   0.348  0.4293 -0.1939  0.4946
 9169SOL    HW139143   0.333   4.716   0.395  0.1096  0.9972 -1.6119
 9169SOL    HW239144   0.345   4.566   0.391  0.5113  0.2312  1.3571
 9170SOL     OW39145   3.678   4.453   7.050 -0.2230  0.1278 -0.1477
 9170SOL    HW139146   3.702   4.385   6.987 -2.1405  0.2107 -0.9708
 9170SOL    HW239147   3.754   4.511   7.038 -0.4749  0.6387  0.7469
 9171SOL     OW39148   3.816   2.476  16.573  0.0597 -0.2033 -0.6215
 9171SOL    HW139149   3.800   2.493  16.480 -0.9434 -0.6298 -0.5274
 9171SOL    HW239150   3.777   2.554  16.613 -0.5962 -1.9899  2.2263
 9172SOL     OW39151   1.955   0.953  12.785 -0.2057  0.0249 -0.2737
 9172SOL    HW139152   1.949   0.977  12.878 -0.0850  0.8888 -0.4937
 9172SOL    HW239153   1.880   0.896  12.773  0.2448 -0.5773 -0.2502
 9173SOL     OW39154   1.636   1.376   2.644 -0.3025 -0.0445 -0.2270
 9173SOL    HW139155   1.653   1.326   2.564  0.8941  1.2049 -0.7341
 9173SOL    HW239156   1.564   1.325   2.681  0.2037  1.7253  3.1521
 9174SOL     OW39157   1.997   3.584   5.417  0.4809 -0.2854 -0.3007
 9174SOL    HW139158   2.021   3.552   5.505  0.0608  3.3651  1.1268
 9174SOL    HW239159   1.914   3.629   5.429  0.9672  0.2689  1.0422
 9175SOL     OW39160   0.176   0.979   5.346  0.5238 -0.1399  0.1958
 9175SOL    HW139161   0.176   1.032   5.266 -1.2772  1.5840  1.3352
 9175SOL    HW239162   0.268   0.961   5.367  1.3803  2.9056 -0.8335
 9176SOL     OW39163   0.853   0.738  16.020  0.0648 -0.0140 -0.4762
 9176SOL    HW139164   0.794   0.678  16.065 -0.7860  0.2325 -1.2691
 9176SOL    HW239165   0.924   0.748  16.084  0.2065  2.0076 -0.9356
 9177SOL     OW39166   0.047   2.935  16.825 -0.5571  0.6437 -0.2213
 9177SOL    HW139167   0.102   2.971  16.895 -0.7588 -2.6886  1.6543
 9177SOL    HW239168   0.106   2.946  16.751 -1.7878 -1.1444 -1.4625
 9178SOL     OW39169   0.799   4.396   9.021  0.0331  0.6435  0.5342
 9178SOL    HW139170   0.704   4.387   9.023  0.1943 -1.2822 -0.8318
 9178SOL    HW239171   0.825   4.311   9.058  0.3746  0.2523 -0.5908
 9179SOL     OW39172   1.432   4.350  11.726 -0.2655  0.7510  0.1450
 9179SOL    HW139173   1.497   4.405  11.682 -0.1884  0.9545  0.5192
 9179SOL    HW239174   1.441   4.389  11.813  1.8184  2.4796 -0.8556
 9180SOL     OW39175   0.477   2.723   7.191  0.3550  0.2265  0.2977
 9180SOL    HW139176   0.416   2.775   7.242 -0.9023 -0.3088 -0.6419
 9180SOL    HW239177   0.456   2.634   7.219  0.0306  0.5406  1.0293
 9181SOL     OW39178   2.194   0.208   4.892  0.5078 -0.1597  0.2740
 9181SOL    HW139179   2.113   0.206   4.841 -0.8504  1.5934  2.3808
 9181SOL    HW239180   2.204   0.299   4.920  0.4538 -0.7707  2.2530
 9182SOL     OW39181   1.291   0.352   8.672 -0.1992  0.3048  0.1789
 9182SOL    HW139182   1.259   0.399   8.595  3.1865 -0.8209 -1.8941
 9182SOL    HW239183   1.359   0.291   8.643  1.0717 -0.0135  3.8918
 9183SOL     OW39184   4.522   1.271   3.111 -0.3863 -0.1045  0.0520
 9183SOL    HW139185   4.608   1.308   3.087 -1.5504  2.2148 -0.5733
 9183SOL    HW239186   4.488   1.283   3.022 -0.8476 -0.1671  0.2214
 9184SOL     OW39187   3.528   4.140   5.531  0.3728 -0.7147  0.1320
 9184SOL    HW139188   3.583   4.081   5.582 -1.1397  0.3865  3.0599
 9184SOL    HW239189   3.465   4.172   5.596  1.4446 -0.0405  0.8300
 9185SOL     OW39190   1.272   4.181   8.048 -0.0600  0.2277  0.1834
 9185SOL    HW139191   1.342   4.167   7.985  1.1246  0.0096  1.5544
 9185SOL    HW239192   1.219   4.247   8.003  0.0227 -2.3025 -3.5551
 9186SOL     OW39193   1.531   4.038   2.318 -0.4277 -0.0032  0.3741
 9186SOL    HW139194   1.618   4.056   2.353 -0.9269  0.5720  1.3252
 9186SOL    HW239195   1.482   4.017   2.397  1.4824 -1.9200  1.0658
 9187SOL     OW39196   4.654   0.771   6.796  0.3978  0.1321  0.0503
 9187SOL    HW139197   4.701   0.694   6.827 -1.3019 -0.2874  1.6247
 9187SOL    HW239198   4.722   0.832   6.767  1.4434 -1.8242 -1.5639
 9188SOL     OW39199   3.964   3.463   1.955 -0.3989  0.3587  0.6415
 9188SOL    HW139200   3.903   3.509   2.014 -0.6935  0.3201  0.3643
 9188SOL    HW239201   4.044   3.495   1.999  1.1267 -0.9119 -1.2431
 9189SOL     OW39202   0.532   0.771   4.144  0.2923  0.2266  0.0888
 9189SOL    HW139203   0.612   0.752   4.094  0.0890  0.8079 -0.4566
 9189SOL    HW239204   0.462   0.733   4.090  1.3706 -1.1536 -0.3338
 9190SOL     OW39205   2.463   1.507   7.571 -0.0884  0.4960  0.1804
 9190SOL    HW139206   2.511   1.589   7.584  1.5518 -0.1484 -1.7580
 9190SOL    HW239207   2.372   1.516   7.601 -0.1392  0.3420  0.0751
 9191SOL     OW39208   0.323   1.543   5.192 -0.6813 -0.2625  0.2009
 9191SOL    HW139209   0.315   1.470   5.253  1.0025 -0.6156 -0.0035
 9191SOL    HW239210   0.328   1.495   5.110  0.9012  1.0284 -0.4643
 9192SOL     OW39211   3.670   4.508  10.854 -0.5303  0.0693  0.0207
 9192SOL    HW139212   3.738   4.571  10.876 -0.7187 -0.1691  1.3245
 9192SOL    HW239213   3.698   4.440  10.916  0.2444 -0.7625 -1.2528
 9193SOL     OW39214   3.600   1.492   2.153  0.1714 -0.4147 -0.0840
 9193SOL    HW139215   3.643   1.448   2.079 -0.0202 -0.8990  0.0908
 9193SOL    HW239216   3.665   1.522   2.216  0.2244  0.1660 -0.4158
 9194SOL     OW39217   0.896   3.461   7.451  0.1826 -0.0950  0.2992
 9194SOL    HW139218   0.928   3.373   7.473  2.4885  0.7621  0.4530
 9194SOL    HW239219   0.972   3.513   7.478  0.1105  0.2896 -0.2272
 9195SOL     OW39220   2.339   3.707  17.731  0.0808  0.3503 -0.1768
 9195SOL    HW139221   2.348   3.737   0.068  2.6425 -0.3862 -0.1802
 9195SOL    HW239222   2.252   3.735  17.704  0.0490 -1.0709 -1.5207
 9196SOL     OW39223   1.532   2.612   0.246  0.0907  0.3172 -0.7663
 9196SOL    HW139224   1.614   2.579   0.281 -0.4981 -0.3700 -0.0164
 9196SOL    HW239225   1.556   2.616   0.154  0.7103  0.3643 -0.6010
 9197SOL     OW39226   1.447   3.743   5.318  0.1792 -0.1454  0.4260
 9197SOL    HW139227   1.509   3.720   5.249  0.2528  0.7406  0.2053
 9197SOL    HW239228   1.475   3.833   5.330  2.2000 -0.3921 -2.3428
 9198SOL     OW39229   4.214   2.089   0.868  0.2803  0.4597  0.1250
 9198SOL    HW139230   4.294   2.078   0.815  0.6334 -0.6612  0.8908
 9198SOL    HW239231   4.227   2.029   0.942  0.7773  0.4786  0.0567
 9199SOL     OW39232   2.598   4.127   9.133  0.5509 -0.4106  0.6098
 9199SOL    HW139233   2.597   4.214   9.173 -0.8621 -0.0011 -0.3227
 9199SOL    HW239234   2.573   4.072   9.208  1.4458 -0.8304  0.5993
 9200SOL     OW39235   1.211   3.934   9.603  0.2887  0.6124 -0.6026
 9200SOL    HW139236   1.206   3.865   9.669 -1.1957 -1.3733 -2.7985
 9200SOL    HW239237   1.306   3.940   9.609  0.2840  0.4938 -0.3962
 9201SOL     OW39238   3.378   0.553   6.134  0.0104 -0.6442  0.5847
 9201SOL    HW139239   3.467   0.534   6.104  0.1830  0.6904  0.2673
 9201SOL    HW239240   3.389   0.552   6.229 -1.9388  3.1599  0.8464
 9202SOL     OW39241   3.334   2.940   5.060 -0.2505 -0.7393  0.7354
 9202SOL    HW139242   3.403   2.890   5.104  1.0321 -0.9992 -1.5606
 9202SOL    HW239243   3.357   2.953   4.968 -1.1651  0.6221  0.6998
 9203SOL     OW39244   4.421   0.267  16.672 -0.5280 -0.1444  0.0827
 9203SOL    HW139245   4.401   0.246  16.580  0.6510 -1.5502  0.1329
 9203SOL    HW239246   4.401   0.360  16.661  0.1693 -0.3028 -2.5690
 9204SOL     OW39247   2.682   0.104   0.220 -0.1919  0.2170 -0.4060
 9204SOL    HW139248   2.646   0.016   0.232  2.0778 -0.9237 -2.0390
 9204SOL    HW239249   2.775   0.086   0.229 -0.3347 -0.5846 -0.5829
 9205SOL     OW39250   0.192   2.492   0.707  0.4363  0.5628 -0.1653
 9205SOL    HW139251   0.170   2.421   0.647  2.3036 -0.7033  0.6137
 9205SOL    HW239252   0.107   2.510   0.746  0.5696 -1.7030  1.1981
 9206SOL     OW39253   3.389   1.385  11.699  0.1457  0.2813 -0.3631
 9206SOL    HW139254   3.463   1.417  11.647 -0.1053 -1.5182 -1.8662
 9206SOL    HW239255   3.341   1.467  11.707 -2.3005 -1.1806 -0.0423
 9207SOL     OW39256   1.237   4.344   9.932 -0.1096  0.0606 -0.0479
 9207SOL    HW139257   1.250   4.342  10.026  1.0988  0.2812 -0.2115
 9207SOL    HW239258   1.275   4.431   9.921 -0.5460  0.0910 -1.3452
 9208SOL     OW39259   4.034   1.975   6.887  0.6097 -0.1729  0.1993
 9208SOL    HW139260   3.961   2.024   6.924  0.7196 -2.5791  3.5974
 9208SOL    HW239261   3.989   1.921   6.822  0.8227 -1.4058  1.0756
 9209SOL     OW39262   4.394   4.144   1.674 -0.0172 -0.0795 -0.2836
 9209SOL    HW139263   4.376   4.202   1.749 -0.1263 -3.0766  1.9803
 9209SOL    HW239264   4.340   4.066   1.687 -0.9103  0.2453 -1.9769
 9210SOL     OW39265   2.763   1.601  16.586 -0.4085  0.4756 -0.0257
 9210SOL    HW139266   2.792   1.537  16.521 -0.6398 -0.4077  0.7408
 9210SOL    HW239267   2.744   1.544  16.661  1.0702  1.5351  1.1507
 9211SOL     OW39268   1.429   2.926   7.646 -0.5797 -0.1699 -0.9313
 9211SOL    HW139269   1.476   2.872   7.582 -1.1897 -0.5850 -1.0181
 9211SOL    HW239270   1.478   3.007   7.664 -1.3989  0.4483 -1.5038
 9212SOL     OW39271   3.168   3.876   7.923 -0.0705  0.1054  0.0241
 9212SOL    HW139272   3.161   3.971   7.913  0.9804  0.0397 -1.4710
 9212SOL    HW239273   3.246   3.872   7.979 -1.3031 -0.1166  1.7161
 9213SOL     OW39274   2.441   2.864   9.722  0.0262  0.3332 -0.1645
 9213SOL    HW139275   2.403   2.848   9.809  0.6386 -2.0508 -0.3546
 9213SOL    HW239276   2.355   2.886   9.684 -0.7961  0.8437  1.9840
 9214SOL     OW39277   2.061   4.460  11.494  0.0147 -0.7618 -0.4765
 9214SOL    HW139278   2.152   4.490  11.497 -0.3290  0.3058 -0.8451
 9214SOL    HW239279   2.019   4.535  11.452  1.2304  1.1534  1.7377
 9215SOL     OW39280   0.519   2.412   5.741  0.3148  0.3316 -0.2458
 9215SOL    HW139281   0.611   2.420   5.713 -0.1792  0.6682 -1.8098
 9215SOL    HW239282   0.496   2.329   5.700 -0.7245  0.5535 -0.0959
 9216SOL     OW39283   1.129   0.382   6.184 -0.6660 -0.0502  0.4441
 9216SOL    HW139284   1.196   0.370   6.117  0.5552 -2.3241  2.1005
 9216SOL    HW239285   1.062   0.323   6.151 -0.5058 -1.1159  2.0638
 9217SOL     OW39286   0.957   2.928  16.535  0.0528 -0.0483  0.4103
 9217SOL    HW139287   1.042   2.944  16.495  0.9437  1.3726  2.8413
 9217SOL    HW239288   0.996   2.918  16.622  0.8278  1.1001  0.1901
 9218SOL     OW39289   3.794   1.297   2.827  0.5785 -0.1894  0.2344
 9218SOL    HW139290   3.841   1.372   2.864  0.5963  0.3320 -0.8327
 9218SOL    HW239291   3.865   1.251   2.782 -0.5542 -0.2951 -1.4248
 9219SOL     OW39292   4.698   1.373   4.252 -0.0166 -0.2672  0.0078
 9219SOL    HW139293   4.654   1.406   4.331 -1.7903  1.0091 -1.5022
 9219SOL    HW239294   4.625   1.333   4.205  0.2534  1.2814 -1.7528
 9220SOL     OW39295   2.840   2.784  11.319 -0.0671  0.0227  0.4941
 9220SOL    HW139296   2.849   2.879  11.311  0.2940  0.0866  1.6286
 9220SOL    HW239297   2.867   2.753  11.233 -0.5026  0.9396  0.0218
 9221SOL     OW39298   3.364   1.098   1.626 -0.5976  0.8173 -0.3927
 9221SOL    HW139299   3.354   1.007   1.654  1.3721 -0.1861 -2.9341
 9221SOL    HW239300   3.301   1.096   1.555 -1.0751  0.9482  0.0255
 9222SOL     OW39301   1.429   2.939   5.839  0.2140 -0.3489  0.8665
 9222SOL    HW139302   1.479   2.988   5.774  0.7681  1.5056  2.7196
 9222SOL    HW239303   1.504   2.890   5.875  1.2866  0.8565  0.2567
 9223SOL     OW39304   3.235   2.937   2.696  0.0437  0.0131  0.3647
 9223SOL    HW139305   3.255   2.857   2.744 -0.0243 -1.6180 -2.2934
 9223SOL    HW239306   3.139   2.945   2.704  0.1993  1.2586  1.1053
 9224SOL     OW39307   1.324   4.222  12.812 -0.6252  0.0690  0.1308
 9224SOL    HW139308   1.344   4.245  12.721 -1.1498  1.4400  0.3546
 9224SOL    HW239309   1.293   4.309  12.837 -2.3877 -0.4062 -0.3749
 9225SOL     OW39310   2.732   2.826   6.878  0.1071 -0.4412  0.2791
 9225SOL    HW139311   2.686   2.901   6.840  1.1169  0.1885  0.3024
 9225SOL    HW239312   2.655   2.779   6.910 -0.0007 -0.0004  0.6604
 9226SOL     OW39313   4.081   2.614   5.811 -0.1477  0.2138 -0.1691
 9226SOL    HW139314   4.054   2.579   5.896  0.1645 -0.6973 -0.4456
 9226SOL    HW239315   4.007   2.580   5.760  0.1289  1.6065 -1.5126
 9227SOL     OW39316   4.000   1.135   6.598 -0.0607 -0.4578  0.4448
 9227SOL    HW139317   3.992   1.091   6.682 -2.4390 -0.3350  0.2942
 9227SOL    HW239318   3.973   1.218   6.636 -1.3033 -2.0515  3.0816
 9228SOL     OW39319   3.784   2.034   3.058  0.0806  0.2365  0.5285
 9228SOL    HW139320   3.701   2.063   3.019  0.9110  3.0136  0.8375
 9228SOL    HW239321   3.770   2.070   3.145  1.0634 -0.3143  0.9154
 9229SOL     OW39322   1.152   0.016  10.435  0.8392 -0.0500  0.0262
 9229SOL    HW139323   1.116   0.076  10.369 -0.4370 -0.1204  0.6693
 9229SOL    HW239324   1.231   4.723  10.392  0.4673  0.7385 -1.2399
 9230SOL     OW39325   4.513   4.071   4.830 -0.0517  0.5769 -1.0729
 9230SOL    HW139326   4.468   4.149   4.797 -1.4336  0.6251  0.9322
 9230SOL    HW239327   4.458   4.054   4.907 -1.0030 -1.5543 -2.2136
 9231SOL     OW39328   0.103   1.159  10.089 -0.6281 -0.4966 -0.6144
 9231SOL    HW139329   0.143   1.116  10.013 -0.6593  0.8066 -1.3547
 9231SOL    HW239330   0.092   1.087  10.151 -1.7827 -1.8692 -2.4322
 9232SOL     OW39331   1.243   1.397  12.248 -0.3596 -0.4085 -0.5296
 9232SOL    HW139332   1.338   1.404  12.254 -0.2655 -2.2934  0.2360
 9232SOL    HW239333   1.230   1.487  12.218  0.4295  0.3930  1.5517
 9233SOL     OW39334   2.928   3.149   2.121 -0.2263 -0.0785  0.2991
 9233SOL    HW139335   2.978   3.166   2.042  0.8368  0.0759  1.0064
 9233SOL    HW239336   2.955   3.057   2.128 -1.3370 -0.6135 -2.4889
 9234SOL     OW39337   2.111   2.194   6.025  0.2304 -0.6167 -0.1242
 9234SOL    HW139338   2.081   2.180   6.115 -0.5115  2.5952  0.1223
 9234SOL    HW239339   2.031   2.218   5.979  1.7213 -1.3710 -3.1205
 9235SOL     OW39340   3.115   0.569   3.773  0.2145  0.2210 -0.3199
 9235SOL    HW139341   3.108   0.504   3.703 -1.0390 -0.6053  0.5656
 9235SOL    HW239342   3.088   0.648   3.727  0.1276  0.6460  0.4532
 9236SOL     OW39343   1.216   1.625  15.783  0.1216  0.0431  0.1151
 9236SOL    HW139344   1.276   1.662  15.719 -1.5655  0.5723 -1.1534
 9236SOL    HW239345   1.179   1.557  15.726 -2.7590  1.6166  0.0876
 9237SOL     OW39346   2.420   4.188   9.574 -0.6004 -0.4849 -0.2646
 9237SOL    HW139347   2.498   4.234   9.544  0.1194 -1.9362 -0.5681
 9237SOL    HW239348   2.445   4.107   9.531 -1.1150  0.0342 -1.5640
 9238SOL     OW39349   3.089   0.804   7.133 -0.2331  0.1087  0.5522
 9238SOL    HW139350   3.081   0.751   7.212  1.3440  1.1518  1.4093
 9238SOL    HW239351   3.182   0.794   7.113 -0.3242 -0.2268  0.3070
 9239SOL     OW39352   3.418   3.525   0.920  0.1615  0.0581 -0.2734
 9239SOL    HW139353   3.360   3.592   0.884 -0.4129  0.3674  1.2453
 9239SOL    HW239354   3.412   3.539   1.015 -1.2316  2.7151 -0.7702
 9240SOL     OW39355   3.985   4.057   4.522 -0.0044  0.3638 -0.0092
 9240SOL    HW139356   4.052   4.096   4.579  1.2616 -1.4640 -0.2246
 9240SOL    HW239357   3.948   4.134   4.479  1.6032  1.4648  0.5544
 9241SOL     OW39358   4.328   3.441   7.828 -0.1111  0.3490  0.1639
 9241SOL    HW139359   4.333   3.466   7.736  1.2835 -1.7669 -0.3418
 9241SOL    HW239360   4.269   3.508   7.862 -1.3918 -0.4696 -0.4637
 9242SOL     OW39361   1.478   2.647   9.015 -0.3611 -0.1889  0.2632
 9242SOL    HW139362   1.453   2.707   9.086 -0.5847 -1.3639  1.1727
 9242SOL    HW239363   1.433   2.565   9.033 -0.8224 -0.0703 -0.3403
 9243SOL     OW39364   2.352   2.220   0.560  0.3160 -0.2775  0.0369
 9243SOL    HW139365   2.296   2.194   0.486 -1.3497 -1.9098  1.8768
 9243SOL    HW239366   2.427   2.261   0.517 -0.2915  0.1484 -0.6144
 9244SOL     OW39367   3.077   4.102   4.778  0.5802  0.9677  0.1490
 9244SOL    HW139368   3.016   4.152   4.831  0.3219  0.9476 -0.1267
 9244SOL    HW239369   3.027   4.084   4.698  0.2378  0.6943  0.4273
 9245SOL     OW39370   3.541   3.378   3.779  1.0554  0.0094  0.6665
 9245SOL    HW139371   3.490   3.431   3.840  1.4180  1.0655  0.0432
 9245SOL    HW239372   3.530   3.415   3.691  1.9421 -0.6470  0.2832
 9246SOL     OW39373   0.552   1.941   3.676  0.1299 -0.7262 -0.3227
 9246SOL    HW139374   0.557   2.037   3.682 -0.5300 -0.7035 -0.1112
 9246SOL    HW239375   0.545   1.917   3.584  0.6739  0.0480 -0.5661
 9247SOL     OW39376   4.564   0.075   6.564  0.1171  0.2789 -0.8422
 9247SOL    HW139377   4.556   0.134   6.639  1.6550 -0.7557  0.1579
 9247SOL    HW239378   4.478   0.035   6.577  0.7506  0.1336  3.0784
 9248SOL     OW39379   2.787   1.130   5.346  0.3652 -0.0542  0.1756
 9248SOL    HW139380   2.851   1.090   5.404 -1.5825  0.3412  2.6173
 9248SOL    HW239381   2.766   1.060   5.284 -0.0869  0.1716  0.0714
 9249SOL     OW39382   4.464   0.890  14.495 -0.1682  0.2957  0.2764
 9249SOL    HW139383   4.403   0.871  14.423 -0.4432  2.3971 -0.0425
 9249SOL    HW239384   4.405   0.899  14.570 -0.8938  1.1098 -0.3828
 9250SOL     OW39385   4.458   3.963   7.481 -0.6469  0.7740 -0.3174
 9250SOL    HW139386   4.425   3.876   7.455 -0.7351  1.1148 -1.3692
 9250SOL    HW239387   4.461   3.958   7.576 -0.6413 -0.6064 -0.3834
 9251SOL     OW39388   3.427   0.488  13.998 -0.9057  0.6475 -0.5063
 9251SOL    HW139389   3.443   0.576  13.963  0.1831 -0.2240 -2.2037
 9251SOL    HW239390   3.343   0.494  14.044 -0.7299 -2.4488  0.2254
 9252SOL     OW39391   0.253   4.513   6.343  0.1940 -0.2808  0.0755
 9252SOL    HW139392   0.184   4.512   6.410 -1.4665  0.5288 -1.6499
 9252SOL    HW239393   0.207   4.512   6.260 -0.4312  0.0807  0.4116
 9253SOL     OW39394   3.008   3.023   8.845 -0.5700 -0.0884 -0.3122
 9253SOL    HW139395   2.943   3.038   8.777 -0.1147 -2.7036 -1.3284
 9253SOL    HW239396   2.989   3.100   8.899  0.5271 -0.5870  0.7780
 9254SOL     OW39397   4.333   3.090  10.442  0.1446  0.4305 -0.5981
 9254SOL    HW139398   4.367   3.179  10.438 -0.4155  0.6396 -0.7267
 9254SOL    HW239399   4.329   3.065  10.350  0.6511  1.8676 -1.0021
 9255SOL     OW39400   2.082   3.783   3.942 -0.4471  0.2396 -0.4266
 9255SOL    HW139401   2.022   3.857   3.937 -0.0976  0.4055 -2.1329
 9255SOL    HW239402   2.166   3.829   3.948  0.3509 -1.2420 -0.1791
 9256SOL     OW39403   4.131   1.304   6.125  0.6236 -0.4286  0.1621
 9256SOL    HW139404   4.157   1.293   6.216  0.6212  0.1915  0.2370
 9256SOL    HW239405   4.096   1.218   6.104 -1.0550  0.6824 -1.6706
 9257SOL     OW39406   0.356   1.861  11.740  0.0804 -0.0822 -0.4325
 9257SOL    HW139407   0.434   1.910  11.713  0.9120 -0.6645  0.9313
 9257SOL    HW239408   0.408   1.798  11.790  1.0020  0.9623 -0.0892
 9258SOL     OW39409   1.881   1.968   6.960  0.1262  0.0239  0.0482
 9258SOL    HW139410   1.966   2.001   6.991  0.6073 -1.5812  0.4635
 9258SOL    HW239411   1.855   1.899   7.020  0.5429 -0.6692 -0.5668
 9259SOL     OW39412   0.429   2.357   1.844 -0.6555  0.3477  0.7091
 9259SOL    HW139413   0.407   2.264   1.840  0.9442 -0.1042  2.0511
 9259SOL    HW239414   0.356   2.394   1.894 -0.5229 -0.4034  1.4580
 9260SOL     OW39415   2.093   3.545  11.745  0.0457  0.2262  0.5985
 9260SOL    HW139416   2.061   3.633  11.762 -1.0863  0.1519 -1.1954
 9260SOL    HW239417   2.058   3.490  11.816  1.0213  0.2707  1.1224
 9261SOL     OW39418   0.421   3.412   8.052 -0.1619  0.4709 -0.0066
 9261SOL    HW139419   0.348   3.360   8.085 -2.0243  1.4348 -2.5985
 9261SOL    HW239420   0.487   3.346   8.031  0.1417  1.7398 -3.0148
 9262SOL     OW39421   0.446   0.710   7.346 -0.0259 -0.3537  0.0205
 9262SOL    HW139422   0.497   0.629   7.344 -0.0343 -0.4082  1.5346
 9262SOL    HW239423   0.464   0.751   7.262 -0.1293 -0.5357 -0.0892
 9263SOL     OW39424   3.679   4.668   5.488  0.5486  0.6023 -0.4011
 9263SOL    HW139425   3.772   4.671   5.509  0.3444  1.9688  0.2864
 9263SOL    HW239426   3.642   4.614   5.558 -0.2574  0.1981 -1.1374
 9264SOL     OW39427   3.026   3.814   3.886  0.2272 -0.1308  0.3439
 9264SOL    HW139428   2.950   3.857   3.848  2.1686  0.7767 -2.4561
 9264SOL    HW239429   3.082   3.891   3.878  0.2062  0.1070  2.4908
 9265SOL     OW39430   4.623   4.507   7.821  0.5956 -0.0435  0.3440
 9265SOL    HW139431   4.716   4.486   7.816  0.2143 -1.7811  0.2780
 9265SOL    HW239432   4.622   4.597   7.789  2.2114 -0.6441 -1.3717
 9266SOL     OW39433   3.414   0.339   8.852  0.1472  0.0409 -0.4933
 9266SOL    HW139434   3.465   0.419   8.860 -1.3693  1.1536 -1.7962
 9266SOL    HW239435   3.489   0.281   8.841 -1.2282 -1.7967 -0.1454
 9267SOL     OW39436   1.454   0.092   1.803  0.1282  0.3403 -0.3664
 9267SOL    HW139437   1.504   0.154   1.749  1.1114 -0.0412  0.1167
 9267SOL    HW239438   1.375   0.146   1.809 -0.1204 -0.1096  0.3714
 9268SOL     OW39439   0.316   2.244  14.838  1.0650  0.6207 -0.3021
 9268SOL    HW139440   0.252   2.312  14.858 -2.0976 -2.3691 -0.2864
 9268SOL    HW239441   0.265   2.201  14.769 -0.2089  0.3951  0.7948
 9269SOL     OW39442   3.544   2.891  13.888 -0.1011  0.5371  0.0552
 9269SOL    HW139443   3.525   2.797  13.895  3.5422 -0.1870  0.3159
 9269SOL    HW239444   3.640   2.897  13.893 -0.1234  0.6600  0.3295
 9270SOL     OW39445   0.212   2.053   5.805  0.3233 -0.1710  0.5993
 9270SOL    HW139446   0.186   1.972   5.759 -0.6518  0.0615  0.7337
 9270SOL    HW239447   0.304   2.038   5.826  0.3642 -2.0994 -0.8749
 9271SOL     OW39448   1.412   2.023  15.811 -0.6264 -0.1713 -0.3028
 9271SOL    HW139449   1.421   2.023  15.906  0.5652  0.8133 -0.4113
 9271SOL    HW239450   1.454   2.106  15.787  2.9347 -1.6985  0.5552
 9272SOL     OW39451   2.872   4.142   8.030  0.0386 -0.1726 -0.0854
 9272SOL    HW139452   2.789   4.157   8.076  0.9434  0.9505  1.1724
 9272SOL    HW239453   2.873   4.050   8.055  0.2525 -0.2226 -0.2797
 9273SOL     OW39454   3.459   1.470   6.179  0.3993  0.0694 -0.2205
 9273SOL    HW139455   3.538   1.478   6.126  1.1387 -1.7712  0.6073
 9273SOL    HW239456   3.459   1.376   6.196  0.3891  0.0786 -0.1700
 9274SOL     OW39457   0.567   3.594   8.216 -0.4270  1.0436 -0.0204
 9274SOL    HW139458   0.641   3.549   8.256 -2.2983  0.2668  2.5797
 9274SOL    HW239459   0.539   3.538   8.144  1.3505  0.3872 -0.1920
 9275SOL     OW39460   0.997   1.852  12.012  0.2934 -0.0861  0.2853
 9275SOL    HW139461   1.090   1.832  12.028  0.2422 -1.3321 -0.9504
 9275SOL    HW239462   0.981   1.885  12.100 -0.2588 -2.8207  1.2160
 9276SOL     OW39463   3.725   0.005  10.236  0.4378  0.1966  0.7424
 9276SOL    HW139464   3.711   4.681  10.166  1.1265 -1.8460  2.4601
 9276SOL    HW239465   3.642   0.048  10.254  1.3433  3.1366 -1.9996
 9277SOL     OW39466   3.201   1.141   2.346 -0.8869 -0.2522 -0.2062
 9277SOL    HW139467   3.154   1.224   2.337  0.3212  0.3885 -0.5774
 9277SOL    HW239468   3.139   1.084   2.391 -1.7201  1.0552  0.3099
 9278SOL     OW39469   1.991   3.794  11.902  0.1738  0.0933  0.1776
 9278SOL    HW139470   1.958   3.738  11.972  0.3657 -1.5418 -1.0426
 9278SOL    HW239471   1.911   3.828  11.860  1.5494 -0.8620 -3.2350
 9279SOL     OW39472   0.156   3.782  13.755 -0.0070  0.2990 -0.3649
 9279SOL    HW139473   0.165   3.780  13.660  0.0260  0.3876 -0.3644
 9279SOL    HW239474   0.132   3.690  13.754  2.9328 -0.4828 -0.7854
 9280SOL     OW39475   1.623   3.840   9.338 -0.1146 -0.1527 -0.3883
 9280SOL    HW139476   1.571   3.920   9.333 -0.2827 -0.3621 -1.9800
 9280SOL    HW239477   1.680   3.852   9.262  0.8326  2.5228  0.7432
 9281SOL     OW39478   3.609   1.657   2.735  0.4395  0.2310 -0.4429
 9281SOL    HW139479   3.610   1.705   2.818 -0.8494  2.7781 -1.9197
 9281SOL    HW239480   3.703   1.649   2.720  0.1835 -0.4870 -1.7106
 9282SOL     OW39481   3.536   1.700   8.852 -0.3643 -0.1322 -0.2423
 9282SOL    HW139482   3.553   1.619   8.804  0.2066 -0.0705 -0.1426
 9282SOL    HW239483   3.442   1.710   8.835 -0.6361 -0.0008  1.3808
 9283SOL     OW39484   1.862   0.738  11.703  0.8350 -0.5015 -0.2521
 9283SOL    HW139485   1.852   0.734  11.798  3.8006  0.5115  0.1143
 9283SOL    HW239486   1.771   0.723  11.679  1.2961 -1.2425 -1.5834
 9284SOL     OW39487   3.256   1.591   3.838  0.8142 -0.2658 -0.7838
 9284SOL    HW139488   3.309   1.517   3.811 -0.4042 -1.0482 -1.0479
 9284SOL    HW239489   3.279   1.655   3.770 -1.9256  1.6964  0.1063
 9285SOL     OW39490   0.685   4.007  12.907  0.6967 -0.0556 -0.3304
 9285SOL    HW139491   0.754   3.941  12.893 -0.5239 -0.9425 -2.2292
 9285SOL    HW239492   0.695   4.026  13.000  1.8986  0.6534 -0.6077
 9286SOL     OW39493   0.285   4.412   7.368  0.5421  0.0537 -0.1187
 9286SOL    HW139494   0.376   4.381   7.366  0.8334  0.9115 -0.0749
 9286SOL    HW239495   0.245   4.330   7.397 -0.0935 -0.8558 -3.5763
 9287SOL     OW39496   0.511   0.985  15.350  0.1817 -0.2199 -0.8112
 9287SOL    HW139497   0.571   0.922  15.310 -0.1585 -1.7350  1.0745
 9287SOL    HW239498   0.442   0.997  15.284  1.3669 -1.0534 -2.1917
 9288SOL     OW39499   3.044   3.166   6.735  0.5767  0.8997 -0.9404
 9288SOL    HW139500   3.106   3.117   6.681  3.3277  1.8459  1.3495
 9288SOL    HW239501   3.003   3.220   6.668  0.6928 -0.4414 -2.0997
 9289SOL     OW39502   0.342   2.691   5.531  0.4332  0.3338 -0.3300
 9289SOL    HW139503   0.384   2.725   5.610  1.5927  0.1571 -0.8687
 9289SOL    HW239504   0.299   2.613   5.566  1.2493 -0.7322 -1.7222
 9290SOL     OW39505   0.591   3.185   3.983  0.2559  0.0704 -0.0503
 9290SOL    HW139506   0.632   3.230   4.057  1.1916  1.0040 -1.1415
 9290SOL    HW239507   0.667   3.188   3.925 -1.0509 -1.5628 -1.8546
 9291SOL     OW39508   4.735   0.526   3.351  0.0125  0.2866  0.1528
 9291SOL    HW139509   0.049   0.592   3.395 -0.5767  0.4674  0.5803
 9291SOL    HW239510   0.015   0.456   3.414  0.2497  0.0352 -0.1963
 9292SOL     OW39511   1.560   3.514   6.169  0.6851 -0.3958 -0.3922
 9292SOL    HW139512   1.476   3.497   6.125  0.1534 -0.1921  0.5343
 9292SOL    HW239513   1.542   3.601   6.206 -0.8083 -1.0197  0.3342
 9293SOL     OW39514   0.197   4.384   5.383  0.1096 -0.4302  0.5571
 9293SOL    HW139515   0.266   4.376   5.448 -0.7584  0.1914  1.5608
 9293SOL    HW239516   0.148   4.455   5.426  0.2903 -1.6031  2.7087
 9294SOL     OW39517   0.716   2.129   5.723 -0.1623  0.2972  0.5777
 9294SOL    HW139518   0.782   2.060   5.718 -0.9396 -0.4489  0.6096
 9294SOL    HW239519   0.758   2.189   5.784 -0.6966 -1.5431  2.7572
 9295SOL     OW39520   2.536   3.190   2.083 -0.9212 -0.0296  0.2143
 9295SOL    HW139521   2.515   3.253   2.152  1.9606 -0.0158  1.0696
 9295SOL    HW239522   2.473   3.221   2.017 -2.3119 -0.4912  1.3078
 9296SOL     OW39523   3.969   1.520   2.967 -0.5483 -0.0062 -0.4579
 9296SOL    HW139524   4.064   1.522   2.960 -0.4745  1.2671  0.8998
 9296SOL    HW239525   3.950   1.474   3.049 -1.5759 -1.1739 -1.3566
 9297SOL     OW39526   0.091   0.328   4.732 -0.2404 -0.4342  0.4999
 9297SOL    HW139527   0.128   0.415   4.714  1.1498 -0.7828  1.6232
 9297SOL    HW239528   0.004   0.320   4.693 -0.5481  2.5789  0.5125
 9298SOL     OW39529   2.879   0.049  10.147  0.6518  0.5530 -0.9116
 9298SOL    HW139530   2.917   0.019  10.230 -0.4511  0.5909 -0.3807
 9298SOL    HW239531   2.805   4.726  10.154 -0.1819  1.4485 -1.8997
 9299SOL     OW39532   4.027   3.165   5.649  0.1093  0.4269 -0.7169
 9299SOL    HW139533   4.035   3.102   5.577  0.0591 -0.9081  0.4454
 9299SOL    HW239534   4.047   3.249   5.606 -1.3666  1.0353 -0.2060
 9300SOL     OW39535   3.865   4.091  13.472 -0.5259  0.0795  0.2206
 9300SOL    HW139536   3.793   4.033  13.498  0.3499 -1.6367 -1.1792
 9300SOL    HW239537   3.937   4.031  13.495 -0.5864  1.1397  3.1395
 9301SOL     OW39538   3.631   4.498   0.603  0.2717  0.0829 -0.4028
 9301SOL    HW139539   3.625   4.584   0.646  2.4177 -0.9998  2.0412
 9301SOL    HW239540   3.720   4.502   0.569  0.9190  1.0162  1.4355
 9302SOL     OW39541   0.471   1.156  11.152 -0.6254 -0.0761 -0.2165
 9302SOL    HW139542   0.511   1.092  11.212  1.2900  1.6927  0.3847
 9302SOL    HW239543   0.530   1.137  11.079  0.1471 -0.7773  0.5803
 9303SOL     OW39544   2.818   0.229   3.543  0.1569  0.5381 -0.0216
 9303SOL    HW139545   2.778   0.229   3.457  0.6459 -0.7442 -0.2568
 9303SOL    HW239546   2.774   0.150   3.574 -0.5054  1.1771  0.6615
 9304SOL     OW39547   0.180   2.699   0.420  0.2663  0.1882  0.0334
 9304SOL    HW139548   0.193   2.793   0.409 -1.2177  0.3387 -0.4649
 9304SOL    HW239549   0.085   2.694   0.433  0.4848 -1.4620  1.0596
 9305SOL     OW39550   1.200   0.916   3.327  0.4803 -0.5378  0.6603
 9305SOL    HW139551   1.157   0.920   3.242  0.1368 -1.9439  0.7744
 9305SOL    HW239552   1.142   0.978   3.371 -1.4054 -2.6317  1.0936
 9306SOL     OW39553   0.356   0.721   6.653 -0.0475  0.3477  0.0547
 9306SOL    HW139554   0.439   0.767   6.661  1.2076 -1.7031 -1.4864
 9306SOL    HW239555   0.368   0.710   6.559 -1.1535 -0.3252 -0.0052
 9307SOL     OW39556   0.947   2.957   6.730  0.0136 -0.3400 -0.1153
 9307SOL    HW139557   0.893   2.907   6.790  0.5944 -1.0673 -0.2023
 9307SOL    HW239558   0.878   2.995   6.676  0.4677  0.4558 -0.1324
 9308SOL     OW39559   1.560   0.820   3.784  0.3191 -0.3964  0.0425
 9308SOL    HW139560   1.563   0.827   3.689 -0.0203 -0.7801  0.0016
 9308SOL    HW239561   1.553   0.907   3.823 -0.1749 -0.7037  0.6296
 9309SOL     OW39562   1.907   0.080  12.195  0.1120 -0.1711  0.1133
 9309SOL    HW139563   1.838   0.041  12.249  0.8022 -0.6252  0.6715
 9309SOL    HW239564   1.908   0.167  12.235  1.7490 -1.0813  2.0372
 9310SOL     OW39565   0.721   3.720   7.921  0.0082  0.1449 -0.1698
 9310SOL    HW139566   0.733   3.631   7.887  3.5023  0.3754  0.5113
 9310SOL    HW239567   0.797   3.722   7.980 -0.7420 -0.9457  0.8478
 9311SOL     OW39568   0.591   3.546  12.949 -0.2080  0.0333  0.5573
 9311SOL    HW139569   0.524   3.479  12.961 -1.0429  0.3865 -2.2259
 9311SOL    HW239570   0.546   3.596  12.881 -2.6080 -1.9874  0.6741
 9312SOL     OW39571   1.160   4.378   2.802 -0.2580 -0.1444  0.5669
 9312SOL    HW139572   1.150   4.453   2.743 -1.6306  0.4927  1.5871
 9312SOL    HW239573   1.070   4.345   2.799 -0.6407  1.1898 -2.6438
 9313SOL     OW39574   0.957   4.676   1.388 -0.0414 -0.1750  0.4158
 9313SOL    HW139575   1.026   4.614   1.364  0.6239  1.1001 -0.9356
 9313SOL    HW239576   0.912   4.682   1.304  1.9865 -5.7702 -1.0748
 9314SOL     OW39577   4.107   3.734  12.043 -0.1958 -0.0012  0.0129
 9314SOL    HW139578   4.014   3.747  12.057 -0.2694 -0.9965  0.4701
 9314SOL    HW239579   4.104   3.638  12.043  0.0079 -0.0044  1.8946
 9315SOL     OW39580   1.296   4.486   2.317 -0.3838  0.3718 -0.6281
 9315SOL    HW139581   1.292   4.485   2.412 -1.4015 -0.2240 -0.6808
 9315SOL    HW239582   1.211   4.445   2.300 -0.3305  0.5331 -1.3156
 9316SOL     OW39583   2.489   0.305   7.870 -0.3549  0.6164 -0.2028
 9316SOL    HW139584   2.530   0.318   7.956  1.5721 -0.4286 -0.9593
 9316SOL    HW239585   2.440   0.224   7.882  1.0634 -0.4107 -1.3332
 9317SOL     OW39586   3.203   0.125   3.562  0.0587 -0.0560  0.8003
 9317SOL    HW139587   3.226   0.090   3.648 -1.4789 -2.4820  0.2349
 9317SOL    HW239588   3.119   0.083   3.542 -0.9866  2.5385 -0.2408
 9318SOL     OW39589   1.798   0.953   9.072 -0.4465 -0.2093  0.0084
 9318SOL    HW139590   1.793   0.899   9.150  0.5243  0.7936  0.7600
 9318SOL    HW239591   1.741   0.915   9.005 -0.0385 -1.4037  0.3568
 9319SOL     OW39592   1.838   0.900  14.015  0.3606 -0.0839 -0.1548
 9319SOL    HW139593   1.746   0.925  14.028  1.2231  3.6669 -1.3521
 9319SOL    HW239594   1.884   0.949  14.083 -1.1898  0.3498  0.5922
 9320SOL     OW39595   4.144   2.360  15.870 -0.3453 -0.0517 -0.0698
 9320SOL    HW139596   4.176   2.441  15.910  1.8704 -0.8674 -0.1473
 9320SOL    HW239597   4.202   2.300  15.917 -0.1517 -0.6690 -1.0861
 9321SOL     OW39598   2.138   2.042   4.889 -0.0818 -0.0252  0.0784
 9321SOL    HW139599   2.115   2.135   4.880  0.9683  0.2661  0.3634
 9321SOL    HW239600   2.161   2.020   4.799 -0.6639  0.4477 -0.1893
 9322SOL     OW39601   0.089   1.291   2.786 -0.3023  0.5525 -0.3683
 9322SOL    HW139602   0.001   1.266   2.758  0.4273 -1.7727 -0.6353
 9322SOL    HW239603   0.096   1.375   2.741 -2.5654  0.8699 -0.0858
 9323SOL     OW39604   4.277   3.558  17.457 -0.1496  0.6577  0.1740
 9323SOL    HW139605   4.327   3.631  17.419  1.0385  0.2703  0.9843
 9323SOL    HW239606   4.340   3.490  17.431 -0.4984  0.1944  0.5488
 9324SOL     OW39607   0.129   3.208   0.808 -0.7991 -0.1751 -0.4550
 9324SOL    HW139608   0.147   3.117   0.830 -2.0250 -0.3972 -0.3617
 9324SOL    HW239609   0.158   3.254   0.887  0.5721  0.9753 -1.6259
 9325SOL     OW39610   0.685   3.446   7.295 -0.0863 -0.0983 -0.8361
 9325SOL    HW139611   0.638   3.528   7.310 -0.1956 -0.3253  0.0314
 9325SOL    HW239612   0.762   3.455   7.352  1.7938 -0.4500 -3.3224
 9326SOL     OW39613   4.279   2.218   3.732 -0.0111  0.1778 -0.3037
 9326SOL    HW139614   4.355   2.274   3.744 -0.9367  1.3575  0.0786
 9326SOL    HW239615   4.281   2.201   3.638  0.8464  0.5828 -0.3559
 9327SOL     OW39616   1.717   1.579  17.244 -0.4361  0.1810  0.3589
 9327SOL    HW139617   1.702   1.529  17.163  0.7170  2.6996 -1.4232
 9327SOL    HW239618   1.701   1.509  17.307  0.8606  1.0362  1.6300
 9328SOL     OW39619   1.069   1.557   6.868 -0.0839 -0.6298  0.4418
 9328SOL    HW139620   1.079   1.650   6.889  1.3049 -0.2581 -1.9283
 9328SOL    HW239621   1.143   1.525   6.920  0.3731  0.7710  0.6541
 9329SOL     OW39622   1.685   1.207   6.834 -0.3781 -0.1017  0.2312
 9329SOL    HW139623   1.761   1.203   6.775  0.6931 -2.5962  1.7806
 9329SOL    HW239624   1.629   1.278   6.802  0.3546 -0.2101 -1.3233
 9330SOL     OW39625   3.432   3.197   5.655 -0.0434 -0.3333 -0.0122
 9330SOL    HW139626   3.450   3.254   5.729  0.0738 -0.0555 -0.2575
 9330SOL    HW239627   3.512   3.147   5.636  1.1494  1.7719 -0.5067
 9331SOL     OW39628   1.960   1.495  12.818 -0.2944  0.1125 -0.2352
 9331SOL    HW139629   1.920   1.409  12.805 -1.9291  1.1693 -2.1889
 9331SOL    HW239630   2.021   1.480  12.745 -0.7502 -0.9268 -0.4041
 9332SOL     OW39631   4.030   2.535   2.499 -0.3054  0.6597  0.6401
 9332SOL    HW139632   4.028   2.528   2.595 -4.7357 -1.2941  0.3812
 9332SOL    HW239633   3.936   2.534   2.482  0.0435 -0.7260 -1.1249
 9333SOL     OW39634   0.815   2.502   3.657  0.6011  0.0229  0.4516
 9333SOL    HW139635   0.824   2.425   3.714 -0.5266 -1.3566 -1.2137
 9333SOL    HW239636   0.751   2.554   3.706 -2.1628 -0.6088 -2.4746
 9334SOL     OW39637   0.018   2.138  16.740  0.7531  0.0037 -0.2167
 9334SOL    HW139638   0.045   2.216  16.788 -0.1822 -0.3983  0.9565
 9334SOL    HW239639   4.697   2.175  16.675  0.9630 -0.4929 -0.6927
 9335SOL     OW39640   0.407   3.536   7.457  0.0837  0.1553 -0.5473
 9335SOL    HW139641   0.416   3.445   7.429 -0.7941  0.3898 -1.5543
 9335SOL    HW239642   0.314   3.546   7.438 -0.1735  1.8411  1.5120
 9336SOL     OW39643   4.005   1.815  11.237 -0.6984  0.3289 -0.5055
 9336SOL    HW139644   4.081   1.782  11.285  0.5974  0.3075 -2.5527
 9336SOL    HW239645   3.994   1.743  11.175  0.9040  0.2614 -0.7315
 9337SOL     OW39646   1.823   2.429   8.317  0.7637  0.3901 -0.6836
 9337SOL    HW139647   1.873   2.349   8.302 -0.7082 -1.0490  2.1189
 9337SOL    HW239648   1.764   2.396   8.385  1.2843 -0.0834 -0.4653
 9338SOL     OW39649   1.634   0.011   9.534 -0.3906 -0.3299  0.3211
 9338SOL    HW139650   1.729   0.027   9.531 -0.9308  2.7306 -0.0818
 9338SOL    HW239651   1.633   4.675   9.474  0.8349 -0.1576  0.0796
 9339SOL     OW39652   1.918   0.149  11.921  0.5685 -0.5476  0.7961
 9339SOL    HW139653   1.830   0.159  11.956 -0.0242  1.1465 -1.1895
 9339SOL    HW239654   1.970   0.182  11.994  1.7550 -2.7639  0.9729
 9340SOL     OW39655   1.425   3.138   4.317  0.1800  0.5359  0.0948
 9340SOL    HW139656   1.519   3.122   4.315  0.0616 -0.3385  1.7160
 9340SOL    HW239657   1.436   3.229   4.343 -0.2116  0.0508  2.0315
 9341SOL     OW39658   2.828   1.404   4.946 -0.7722  0.2594  0.7921
 9341SOL    HW139659   2.852   1.448   5.028  1.8371  0.0660  0.1232
 9341SOL    HW239660   2.755   1.347   4.972 -0.9870  0.1858  0.0196
 9342SOL     OW39661   1.480   3.693   3.859  0.6030 -0.2890 -0.0941
 9342SOL    HW139662   1.516   3.761   3.915  1.6180  0.7284 -1.9490
 9342SOL    HW239663   1.523   3.702   3.773  0.2118 -0.0915 -0.2641
 9343SOL     OW39664   1.873   0.550   1.835 -0.3112  0.2853  0.0256
 9343SOL    HW139665   1.819   0.622   1.803 -1.3559 -1.0731 -1.2883
 9343SOL    HW239666   1.813   0.476   1.838 -1.1096  0.9259 -0.3491
 9344SOL     OW39667   1.138   2.943   9.327  0.3631 -0.5852 -0.0100
 9344SOL    HW139668   1.089   3.015   9.367  0.6682  0.5051 -1.5586
 9344SOL    HW239669   1.102   2.952   9.238  1.3547  1.1620 -0.2377
 9345SOL     OW39670   4.596   1.286   7.520  0.2424 -0.3168 -0.0320
 9345SOL    HW139671   4.609   1.377   7.494 -1.2205 -0.2608 -0.5805
 9345SOL    HW239672   4.666   1.241   7.473  0.9048 -0.2980  0.9423
 9346SOL     OW39673   0.959   1.149   3.910 -0.6140  0.1627 -0.2267
 9346SOL    HW139674   0.881   1.195   3.939 -1.4586 -0.6680 -1.1931
 9346SOL    HW239675   0.931   1.097   3.835 -1.2031  0.7960 -0.4343
 9347SOL     OW39676   1.064   2.075   2.138  0.1142  0.0453 -0.5366
 9347SOL    HW139677   1.067   2.044   2.228  0.1829  0.8142 -0.2708
 9347SOL    HW239678   1.035   1.995   2.094  1.0431 -0.2857 -0.5493
 9348SOL     OW39679   1.931   0.953  11.571 -0.5382 -0.2510 -0.8138
 9348SOL    HW139680   1.912   1.028  11.627  0.1626 -0.0442 -0.8519
 9348SOL    HW239681   1.915   0.878  11.629 -2.2924  0.7872  0.0482
 9349SOL     OW39682   4.656   0.272   8.482 -0.1429  0.0207  0.2794
 9349SOL    HW139683   4.713   0.319   8.543  0.2294  2.0400 -1.6448
 9349SOL    HW239684   4.721   0.247   8.416 -1.7980  0.3407 -1.4641
 9350SOL     OW39685   1.620   0.358   8.126 -0.0722 -0.1848 -0.6832
 9350SOL    HW139686   1.569   0.336   8.048  0.3487 -0.3147 -0.9267
 9350SOL    HW239687   1.567   0.423   8.172 -0.7338 -2.6798  2.1329
 9351SOL     OW39688   2.443   0.709   0.446 -0.4562  0.7528  0.5570
 9351SOL    HW139689   2.519   0.710   0.505  0.5329 -0.4031 -0.6778
 9351SOL    HW239690   2.465   0.637   0.387  0.1150  1.5927 -0.2615
 9352SOL     OW39691   3.581   0.942   0.729 -0.6583  0.0445  0.2721
 9352SOL    HW139692   3.664   0.975   0.764 -1.3481  0.9700  1.0193
 9352SOL    HW239693   3.524   1.018   0.737  0.9279  0.9175  3.4378
 9353SOL     OW39694   3.719   2.288  11.603  0.1184 -0.1560  0.1398
 9353SOL    HW139695   3.809   2.268  11.630 -0.4527 -0.6044  1.7046
 9353SOL    HW239696   3.672   2.225  11.658  0.4753 -0.4023  0.1644
 9354SOL     OW39697   4.275   0.233   3.774  0.0134  0.1642 -0.4812
 9354SOL    HW139698   4.226   0.238   3.692 -1.3390 -1.2908  0.2522
 9354SOL    HW239699   4.326   0.152   3.763  0.9023  0.2965  2.8160
 9355SOL     OW39700   1.935   4.450   4.675 -0.0827  0.6201 -0.0115
 9355SOL    HW139701   2.019   4.425   4.638 -0.4948  0.9940 -1.2309
 9355SOL    HW239702   1.956   4.530   4.723  1.2853 -1.2189  2.4560
 9356SOL     OW39703   1.977   3.393  11.962 -0.4022  0.6168  0.0594
 9356SOL    HW139704   2.013   3.344  12.036  0.3149  0.0136 -0.6758
 9356SOL    HW239705   1.939   3.464  12.012 -2.7746 -1.1224  0.7106
 9357SOL     OW39706   3.528   3.239  16.125 -0.0862  0.2088  0.6919
 9357SOL    HW139707   3.609   3.242  16.175  1.1361 -0.9709 -1.2113
 9357SOL    HW239708   3.500   3.330  16.137  0.3129  0.4588 -0.2398
 9358SOL     OW39709   2.356   0.382   0.217  0.3462  0.1034 -0.0502
 9358SOL    HW139710   2.435   0.382   0.271  1.7028 -2.9061 -2.1148
 9358SOL    HW239711   2.344   0.290   0.194 -0.3758  0.3902 -0.8149
 9359SOL     OW39712   1.417   1.631   4.451 -0.3390 -0.3592 -0.0954
 9359SOL    HW139713   1.447   1.606   4.364  0.3295  1.6793 -0.4475
 9359SOL    HW239714   1.488   1.614   4.513 -0.3275  0.1379  0.0259
 9360SOL     OW39715   1.593   1.998   6.989  0.8468 -0.1356 -0.0295
 9360SOL    HW139716   1.610   1.965   7.077 -0.3604  0.7176  0.5210
 9360SOL    HW239717   1.684   1.999   6.958  0.4985 -0.8424 -1.0893
 9361SOL     OW39718   1.472   3.055   6.181 -0.0856  0.2730  0.4530
 9361SOL    HW139719   1.495   3.124   6.243  2.6263  0.2380 -0.4873
 9361SOL    HW239720   1.444   2.983   6.237  0.3206  0.8270  1.3673
 9362SOL     OW39721   1.386   4.243   3.413 -0.0605 -1.0317 -0.2131
 9362SOL    HW139722   1.297   4.214   3.435 -0.7504  2.7308  2.0543
 9362SOL    HW239723   1.381   4.330   3.453 -0.7205 -0.1790 -2.1073
 9363SOL     OW39724   0.149   3.381   7.517  0.2515  0.0232  0.5085
 9363SOL    HW139725   0.137   3.475   7.506 -0.0144  0.0166  0.7249
 9363SOL    HW239726   0.059   3.353   7.501  0.0644  1.1013 -0.3652
 9364SOL     OW39727   1.836   0.606   6.040 -0.4456 -0.3950 -0.7323
 9364SOL    HW139728   1.920   0.624   6.081 -0.7224  1.0411 -0.7946
 9364SOL    HW239729   1.786   0.571   6.114  0.9366 -1.7927 -0.4562
 9365SOL     OW39730   0.051   0.881  14.824 -0.1914 -0.4369  0.4353
 9365SOL    HW139731   0.112   0.820  14.782  1.8133 -0.7642  3.8095
 9365SOL    HW239732   0.090   0.958  14.784  1.3844 -2.0389 -1.0872
 9366SOL     OW39733   4.017   1.347   2.647 -0.6093  0.4334 -0.4877
 9366SOL    HW139734   4.103   1.327   2.684  1.0421  1.1289 -3.9217
 9366SOL    HW239735   4.027   1.299   2.564 -1.2948 -2.6124  1.1959
 9367SOL     OW39736   4.626   0.284   0.151  0.0950  0.2272 -0.5883
 9367SOL    HW139737   4.581   0.363   0.180 -0.4551 -0.1559 -0.3947
 9367SOL    HW239738   4.713   0.320   0.133  0.1940 -1.0246 -2.6200
 9368SOL     OW39739   0.775   0.173   6.282 -0.1032  0.4994  0.1061
 9368SOL    HW139740   0.720   0.111   6.331 -0.9320  0.9952 -0.1912
 9368SOL    HW239741   0.783   0.244   6.345  2.3681  0.5776 -0.3082
 9369SOL     OW39742   0.942   0.980  12.236 -0.8052 -0.8486  0.7005
 9369SOL    HW139743   0.937   0.942  12.324  0.9336  0.0444  1.1821
 9369SOL    HW239744   0.867   1.038  12.225 -0.4909 -0.4117  0.9092
 9370SOL     OW39745   3.104   3.179   1.257 -0.0731  0.1547  0.3330
 9370SOL    HW139746   3.196   3.174   1.233  0.4711 -1.1449  2.7336
 9370SOL    HW239747   3.107   3.228   1.340 -2.1246 -0.8602  1.0064
 9371SOL     OW39748   1.873   1.422   1.525 -0.3446 -0.0956 -0.3427
 9371SOL    HW139749   1.964   1.450   1.519 -0.2641 -0.3667 -0.4134
 9371SOL    HW239750   1.841   1.469   1.602 -0.0004  1.1391 -0.9636
 9372SOL     OW39751   4.019   1.675  10.941 -0.3721 -0.5017 -0.0584
 9372SOL    HW139752   3.982   1.640  10.860 -1.6990  0.2477  0.2235
 9372SOL    HW239753   4.105   1.634  10.946  0.1623  0.7154  0.8756
 9373SOL     OW39754   2.281   2.021   3.752  0.4795 -0.1677 -0.3426
 9373SOL    HW139755   2.254   1.983   3.668  0.0441  1.1748 -0.8017
 9373SOL    HW239756   2.309   2.107   3.723 -0.3811  0.8219  1.8248
 9374SOL     OW39757   3.364   0.817   1.667 -0.2549 -0.8939 -0.2423
 9374SOL    HW139758   3.406   0.759   1.603 -0.7240 -1.2878 -0.1913
 9374SOL    HW239759   3.373   0.775   1.752 -0.8032 -0.7619 -0.1234
 9375SOL     OW39760   3.975   2.484   3.588  0.6847  0.1990  0.0462
 9375SOL    HW139761   4.069   2.497   3.603  1.4543 -3.2411 -1.7064
 9375SOL    HW239762   3.979   2.424   3.513 -1.0653  1.5917 -1.1585
 9376SOL     OW39763   1.053   4.215   3.863  0.2480 -0.0067 -0.6980
 9376SOL    HW139764   1.074   4.126   3.834 -0.2696  0.1135 -1.4471
 9376SOL    HW239765   1.003   4.202   3.943  1.1665  1.0460  0.0581
 9377SOL     OW39766   2.139   4.611   1.789 -0.0601 -0.2681 -0.2157
 9377SOL    HW139767   2.103   4.621   1.877  0.5602 -1.3798  0.1618
 9377SOL    HW239768   2.155   4.518   1.805  1.3934  0.0792  0.4153
 9378SOL     OW39769   0.935   0.417   5.711  0.4406  0.1690  0.0914
 9378SOL    HW139770   0.886   0.460   5.641 -0.5557 -0.6069  0.3213
 9378SOL    HW239771   1.010   0.477   5.720  0.3012 -0.0231  2.6281
 9379SOL     OW39772   3.003   2.591  14.017  0.0535  0.2254  0.7315
 9379SOL    HW139773   3.009   2.496  14.005  0.3724  0.0980  1.9383
 9379SOL    HW239774   2.908   2.603  14.024  0.0402  0.5606 -0.0281
 9380SOL     OW39775   2.302   4.591   4.586  0.2322 -0.2532  0.6816
 9380SOL    HW139776   2.383   4.558   4.625  1.0850  0.8788 -0.1218
 9380SOL    HW239777   2.260   4.509   4.560 -0.1539 -0.1123  0.8556
 9381SOL     OW39778   2.743   2.809  10.276 -0.2590  0.2862 -0.0060
 9381SOL    HW139779   2.688   2.838  10.348 -1.6248  0.8890 -1.2961
 9381SOL    HW239780   2.675   2.788  10.212 -2.0941  1.9182  1.4392
 9382SOL     OW39781   3.261   2.540   7.234 -0.2094  0.3699 -0.1124
 9382SOL    HW139782   3.344   2.508   7.271 -0.1460 -1.0669 -1.5019
 9382SOL    HW239783   3.222   2.590   7.305  3.0050  1.2150  1.0873
 9383SOL     OW39784   1.690   3.700   5.169  0.0779 -0.2527  0.2122
 9383SOL    HW139785   1.741   3.636   5.118  0.5552  1.3421 -1.3140
 9383SOL    HW239786   1.730   3.783   5.144 -1.1585  0.0321 -0.8237
 9384SOL     OW39787   1.737   0.063   5.638  0.2893 -0.3156  0.2624
 9384SOL    HW139788   1.649   0.100   5.642  0.4879  0.1144  0.6314
 9384SOL    HW239789   1.719   4.708   5.627 -0.9739  0.0373 -0.7443
 9385SOL     OW39790   3.143   3.438  17.384 -0.0440  0.1705 -0.4699
 9385SOL    HW139791   3.163   3.346  17.370  0.8628  0.3229 -0.1377
 9385SOL    HW239792   3.208   3.478  17.326 -0.6042  2.0812  0.2092
 9386SOL     OW39793   0.374   0.644  12.171 -0.1448  0.2511  0.2053
 9386SOL    HW139794   0.379   0.634  12.075 -4.6467  0.1268 -0.0224
 9386SOL    HW239795   0.339   0.559  12.197  0.9384 -0.3842 -0.3623
 9387SOL     OW39796   3.901   4.575   0.628 -0.3412 -0.5519 -0.2851
 9387SOL    HW139797   3.903   4.668   0.603 -0.3180 -0.6664 -0.7160
 9387SOL    HW239798   3.995   4.562   0.634 -0.2728 -0.2312 -0.6530
 9388SOL     OW39799   3.892   1.247   5.116 -0.1837  0.4057 -0.5320
 9388SOL    HW139800   3.882   1.312   5.047 -0.1978  1.1748  0.1969
 9388SOL    HW239801   3.803   1.224   5.142  0.0846  1.0765  0.9363
 9389SOL     OW39802   1.078   3.157   5.484 -0.3958 -0.7224 -0.0154
 9389SOL    HW139803   1.148   3.164   5.419 -0.8870 -0.4521 -0.5170
 9389SOL    HW239804   1.074   3.253   5.490  2.6512 -0.6992  1.7418
 9390SOL     OW39805   4.165   1.536  10.286 -0.6487 -0.1504 -0.5952
 9390SOL    HW139806   4.221   1.611  10.271  0.1110 -0.2134  1.8722
 9390SOL    HW239807   4.218   1.472  10.239  1.5197  0.8416  0.5416
 9391SOL     OW39808   2.705   2.652   8.355  0.4202  0.1028 -0.0642
 9391SOL    HW139809   2.699   2.593   8.280  2.5712 -0.5054  0.2624
 9391SOL    HW239810   2.764   2.606   8.415  2.1716  2.3538 -0.0322
 9392SOL     OW39811   2.654   2.410   2.690  0.1234  0.2949 -0.0936
 9392SOL    HW139812   2.654   2.322   2.652 -2.3906 -0.2232  1.0698
 9392SOL    HW239813   2.573   2.441   2.649  1.4267  1.4459 -1.7507
 9393SOL     OW39814   4.285   4.317  10.058 -0.0850  0.0265  0.2694
 9393SOL    HW139815   4.204   4.367  10.048 -0.1288 -0.0700  0.1549
 9393SOL    HW239816   4.268   4.232  10.018  0.3269  0.1817 -0.2292
 9394SOL     OW39817   1.034   4.138   2.416 -0.5547  0.2827 -0.1561
 9394SOL    HW139818   1.098   4.068   2.425 -1.1173 -0.3075 -0.7533
 9394SOL    HW239819   0.960   4.109   2.470  0.9615 -0.2311  1.6507
 9395SOL     OW39820   0.040   0.345   1.457 -0.0553  0.1531  0.5779
 9395SOL    HW139821   0.051   0.361   1.550 -1.2046 -0.5160  0.8386
 9395SOL    HW239822   0.106   0.276   1.451 -0.5111 -0.2274 -0.1447
 9396SOL     OW39823   3.237   3.669   4.076 -0.0464  0.7753 -0.3928
 9396SOL    HW139824   3.160   3.713   4.041 -0.4827  1.0486  0.9493
 9396SOL    HW239825   3.211   3.632   4.160 -0.3180  2.5685  0.2980
 9397SOL     OW39826   3.336   2.909   4.233 -0.3784 -0.1276  0.3299
 9397SOL    HW139827   3.400   2.977   4.252 -0.6844  0.5622 -1.1312
 9397SOL    HW239828   3.313   2.934   4.143  1.9971  0.5555 -0.0808
 9398SOL     OW39829   3.862   2.825   5.823  0.4618 -0.1284 -0.3220
 9398SOL    HW139830   3.941   2.816   5.877 -0.3866 -3.3846  0.4155
 9398SOL    HW239831   3.811   2.752   5.859  0.6008 -0.2674 -0.4046
 9399SOL     OW39832   0.446   3.443   3.798  1.1787 -0.4019 -0.0937
 9399SOL    HW139833   0.503   3.470   3.871  2.1351  0.3958 -1.1382
 9399SOL    HW239834   0.370   3.499   3.812  0.7432 -1.1614  0.5568
 9400SOL     OW39835   4.234   1.282   8.009 -0.0389  0.1426 -0.6929
 9400SOL    HW139836   4.254   1.306   7.918  1.7460 -0.6220 -0.5128
 9400SOL    HW239837   4.144   1.314   8.009  0.0558  0.3918  0.2187
 9401SOL     OW39838   4.131   0.989   5.041  0.4251 -0.3038  0.0771
 9401SOL    HW139839   4.114   0.917   5.101 -1.5010  0.0067 -0.1127
 9401SOL    HW239840   4.040   1.007   5.018  0.5159 -1.3261 -1.1030
 9402SOL     OW39841   2.073   2.149   7.931  0.4561 -0.0337 -0.1620
 9402SOL    HW139842   2.090   2.069   7.880 -4.7078 -0.3944 -1.3512
 9402SOL    HW239843   2.071   2.105   8.016  0.9751 -0.1986 -0.2348
 9403SOL     OW39844   0.883   1.279   7.287  0.0754  0.1801  0.6842
 9403SOL    HW139845   0.905   1.212   7.222  0.9662  0.0621  1.1001
 9403SOL    HW239846   0.946   1.345   7.256  1.1797 -0.9344  0.5546
 9404SOL     OW39847   1.462   1.924   4.290  0.1384 -0.3355 -0.2073
 9404SOL    HW139848   1.437   1.909   4.381  1.5715 -0.3843  0.1732
 9404SOL    HW239849   1.553   1.894   4.292  0.5117  0.6184 -2.6552
 9405SOL     OW39850   0.493   3.284   9.255  0.8151 -0.2505 -0.3254
 9405SOL    HW139851   0.531   3.365   9.289  1.2860 -1.7116  2.6593
 9405SOL    HW239852   0.571   3.236   9.227  0.4918 -0.4284 -0.9267
 9406SOL     OW39853   4.642   1.231   5.033  0.4150  0.1353 -0.2986
 9406SOL    HW139854   4.610   1.233   4.943  2.7295 -4.0297 -1.2178
 9406SOL    HW239855   4.605   1.145   5.052  0.9927 -0.0123  0.1694
 9407SOL     OW39856   0.791   0.669   8.541 -0.1362  0.0285  1.0602
 9407SOL    HW139857   0.846   0.631   8.472 -0.5537  0.1616  0.6534
 9407SOL    HW239858   0.850   0.698   8.610  1.5683  0.1126 -0.4291
 9408SOL     OW39859   3.074   3.166  11.988  0.4704  0.5520 -1.0410
 9408SOL    HW139860   3.063   3.226  11.914 -2.2837  0.0574 -1.0229
 9408SOL    HW239861   3.136   3.105  11.946  0.5945 -0.5831  0.7910
 9409SOL     OW39862   4.622   0.574   4.151  0.2557 -0.0750  0.4282
 9409SOL    HW139863   4.660   0.490   4.178  0.9444  0.4433  1.0446
 9409SOL    HW239864   4.540   0.566   4.200 -1.2879 -0.4659 -2.1480
 9410SOL     OW39865   3.208   3.350   8.552 -0.1801  0.0922  0.0260
 9410SOL    HW139866   3.207   3.300   8.634  0.8413  0.0527  0.0138
 9410SOL    HW239867   3.247   3.291   8.487 -0.0561 -0.6250  0.7572
 9411SOL     OW39868   4.142   2.495   3.021  0.1930 -0.1887 -0.4737
 9411SOL    HW139869   4.160   2.410   3.061  1.0004  0.0086 -0.4160
 9411SOL    HW239870   4.136   2.556   3.095  0.8674 -1.9266  0.9965
 9412SOL     OW39871   2.866   4.608   8.873  0.3067  0.7173 -0.0120
 9412SOL    HW139872   2.921   4.673   8.915 -0.8176  2.3433 -1.0659
 9412SOL    HW239873   2.781   4.652   8.880 -0.8648 -0.9638 -3.3225
 9413SOL     OW39874   2.558   2.925   3.446 -0.0815  0.1397 -0.4633
 9413SOL    HW139875   2.613   2.868   3.500  1.5239  1.0122 -1.1941
 9413SOL    HW239876   2.480   2.922   3.501  1.4858  0.7567  1.7985
 9414SOL     OW39877   3.749   2.243  12.932  0.2215 -0.4496 -0.1983
 9414SOL    HW139878   3.817   2.223  12.996 -0.9708 -2.2881  0.5014
 9414SOL    HW239879   3.706   2.158  12.921  0.5577 -0.1124 -4.3016
 9415SOL     OW39880   1.945   3.801   0.096 -0.4569  0.1777  0.4973
 9415SOL    HW139881   1.973   3.847   0.175 -0.9981  0.9066  0.2702
 9415SOL    HW239882   1.850   3.808   0.112 -0.4480 -0.5104  0.8585
 9416SOL     OW39883   1.965   1.845  16.233 -0.3420 -0.6152  0.3079
 9416SOL    HW139884   1.926   1.789  16.300 -2.1399 -0.5020 -0.6405
 9416SOL    HW239885   1.907   1.834  16.158 -1.9106 -1.9566  1.7289
 9417SOL     OW39886   1.878   0.633   9.442 -0.1585  0.3180 -0.4039
 9417SOL    HW139887   1.970   0.661   9.445  0.7657 -2.7560  0.6720
 9417SOL    HW239888   1.880   0.550   9.491 -0.7024  1.0963  0.9273
 9418SOL     OW39889   3.962   2.128  14.675 -0.1686 -0.4769  0.0272
 9418SOL    HW139890   3.967   2.220  14.648 -0.9479 -1.1452 -2.3551
 9418SOL    HW239891   3.997   2.135  14.764 -0.3993 -0.5594  0.1232
 9419SOL     OW39892   0.320   3.322   7.768 -0.0955 -0.1904 -0.3486
 9419SOL    HW139893   0.401   3.373   7.773 -1.9899  2.6265  1.2106
 9419SOL    HW239894   0.289   3.353   7.683  0.5437 -1.4414 -1.0409
 9420SOL     OW39895   0.200   3.771  12.029  0.3281 -0.8736 -0.1263
 9420SOL    HW139896   0.139   3.841  12.051 -1.4165 -1.6228 -2.5596
 9420SOL    HW239897   0.283   3.818  12.034 -0.1859 -0.2169  2.3230
 9421SOL     OW39898   4.464   0.027   7.719  0.2884 -0.0535  0.1252
 9421SOL    HW139899   4.458   4.710   7.641 -0.0402 -0.1547  0.2235
 9421SOL    HW239900   4.415   4.715   7.784 -0.1400 -0.3841 -0.4468
 9422SOL     OW39901   0.874   1.027   3.704  0.0601  0.0170 -0.1572
 9422SOL    HW139902   0.928   0.948   3.702  0.3977  0.2622 -0.5603
 9422SOL    HW239903   0.804   1.007   3.642 -0.6359  1.9809 -0.0078
 9423SOL     OW39904   3.805   2.832   3.533 -0.1826  0.0291 -0.0846
 9423SOL    HW139905   3.764   2.752   3.566 -2.8371 -0.5622 -4.7465
 9423SOL    HW239906   3.895   2.803   3.521  0.0308  0.0019  1.6091
 9424SOL     OW39907   1.334   2.580   9.306  0.5766  0.2129  0.1337
 9424SOL    HW139908   1.379   2.663   9.320  2.1349 -0.3499 -1.4799
 9424SOL    HW239909   1.400   2.519   9.340  1.1551  2.8352  3.7146
 9425SOL     OW39910   0.384   2.239   0.099 -0.0815  0.0026 -0.1731
 9425SOL    HW139911   0.469   2.237   0.054  0.3226  0.9501  0.5666
 9425SOL    HW239912   0.336   2.277   0.026 -0.7728  2.2626  1.4733
 9426SOL     OW39913   3.670   1.396  16.061 -0.7920 -0.6694  0.0381
 9426SOL    HW139914   3.641   1.484  16.035  1.5196  0.7039  2.1451
 9426SOL    HW239915   3.588   1.352  16.082 -0.8925  0.0596  1.1711
 9427SOL     OW39916   3.746   2.603   3.667  0.1272 -0.2486  0.2769
 9427SOL    HW139917   3.829   2.564   3.641  0.2829  1.1880 -1.4067
 9427SOL    HW239918   3.699   2.538   3.615 -2.2193  2.0160 -0.4439
 9428SOL     OW39919   1.906   2.328   7.289 -0.2222  0.3186  0.2911
 9428SOL    HW139920   1.982   2.371   7.249  0.5350  0.2118  1.6009
 9428SOL    HW239921   1.849   2.310   7.215 -0.3445 -1.7451  0.8866
 9429SOL     OW39922   1.787   4.653   6.988  0.2990  0.0193  0.1219
 9429SOL    HW139923   1.830   4.721   7.040  1.3006  0.7963 -1.7539
 9429SOL    HW239924   1.704   4.642   7.036 -0.4747  0.8842 -1.0045
 9430SOL     OW39925   1.929   0.450  12.047 -0.0641 -0.2350 -0.2986
 9430SOL    HW139926   1.945   0.469  12.139  2.4434 -1.2562 -0.5283
 9430SOL    HW239927   1.921   0.537  12.007  1.3354 -0.4535 -1.0648
 9431SOL     OW39928   2.340   1.662   4.953  0.1317 -0.1745  0.9755
 9431SOL    HW139929   2.348   1.753   4.981 -0.7392  0.3552 -0.4897
 9431SOL    HW239930   2.261   1.672   4.900 -0.9125 -0.7101  2.4112
 9432SOL     OW39931   1.921   3.093   2.673 -0.0707 -0.1424  0.7919
 9432SOL    HW139932   1.904   3.119   2.583  0.0814 -0.8099  0.5644
 9432SOL    HW239933   1.861   3.155   2.714  2.1422  2.9493 -0.6455
 9433SOL     OW39934   0.375   4.651  11.535 -0.1123 -0.3473 -0.0236
 9433SOL    HW139935   0.378   0.000  11.572 -1.5497 -0.8035  1.1672
 9433SOL    HW239936   0.455   4.615  11.573 -1.1339 -1.0510  1.4458
 9434SOL     OW39937   0.784   2.496   4.780 -0.4892 -0.6282  0.3538
 9434SOL    HW139938   0.844   2.544   4.837 -0.4065 -0.3705  0.0491
 9434SOL    HW239939   0.829   2.500   4.696 -0.1149 -2.7734  0.4591
 9435SOL     OW39940   4.514   1.539   7.439  0.0981 -0.4065  0.2024
 9435SOL    HW139941   4.471   1.526   7.355  0.1121 -2.2593  0.4861
 9435SOL    HW239942   4.471   1.615   7.478  0.9522  0.1510  0.0597
 9436SOL     OW39943   2.168   2.709   5.825 -0.6615  0.4366  0.5534
 9436SOL    HW139944   2.103   2.778   5.834 -0.5057  0.6293  0.2074
 9436SOL    HW239945   2.217   2.709   5.907  1.0132 -3.0302 -0.4428
 9437SOL     OW39946   4.608   3.547   3.669 -0.4875 -0.0533 -0.2691
 9437SOL    HW139947   4.628   3.601   3.593 -1.2841 -0.4894 -0.7909
 9437SOL    HW239948   4.554   3.608   3.720  0.1412  0.7769 -0.6052
 9438SOL     OW39949   4.621   1.866   5.299 -0.0639  0.0116  0.4225
 9438SOL    HW139950   4.679   1.822   5.237  0.4274  2.4825 -0.8402
 9438SOL    HW239951   4.557   1.797   5.316  0.1819 -0.0345  1.1647
 9439SOL     OW39952   2.528   0.003  13.339 -0.0922  0.6198  0.1167
 9439SOL    HW139953   2.463   4.719  13.272 -1.0438  1.3940  0.7778
 9439SOL    HW239954   2.548   4.659  13.382 -2.4897 -0.4983 -0.9042
 9440SOL     OW39955   0.772   1.079   6.040  0.2234 -0.6666  0.1797
 9440SOL    HW139956   0.850   1.050   6.088  0.4691  0.9009  0.7239
 9440SOL    HW239957   0.712   1.006   6.054 -0.7901  0.1869  0.3081
 9441SOL     OW39958   1.717   0.847  12.212  0.0112 -0.1150  0.4087
 9441SOL    HW139959   1.646   0.807  12.162  0.0859  1.3737 -0.8858
 9441SOL    HW239960   1.746   0.924  12.164 -0.8206 -0.0897 -0.0394
 9442SOL     OW39961   1.949   0.213   3.294  0.8657 -0.5130  0.1882
 9442SOL    HW139962   1.914   0.222   3.382  1.6297 -1.6274  0.6050
 9442SOL    HW239963   1.918   0.126   3.269 -0.1841  0.4272 -1.8064
 9443SOL     OW39964   0.642   0.856   8.361  0.1686  0.3026 -0.3793
 9443SOL    HW139965   0.733   0.878   8.342  1.0108 -1.0685  2.1055
 9443SOL    HW239966   0.644   0.806   8.443 -0.9521 -1.3427 -1.3568
 9444SOL     OW39967   2.344   1.369   6.887  0.5313 -0.2280  0.0391
 9444SOL    HW139968   2.300   1.444   6.928  2.7163  0.6303  0.8295
 9444SOL    HW239969   2.414   1.423   6.851  0.4078 -0.8459 -1.1006
 9445SOL     OW39970   2.924   3.551  16.625 -0.4655  0.3586 -0.3117
 9445SOL    HW139971   2.871   3.626  16.653  0.6732  0.8875  0.4476
 9445SOL    HW239972   2.985   3.598  16.568  0.2013  0.0860  0.1784
 9446SOL     OW39973   1.196   0.735   6.550  0.0759 -0.6131  0.4520
 9446SOL    HW139974   1.264   0.761   6.488  0.0825 -0.4199  0.5425
 9446SOL    HW239975   1.132   0.710   6.482 -1.0297  2.1881  0.4768
 9447SOL     OW39976   3.824   3.900   5.872 -0.0372  0.2340  0.0225
 9447SOL    HW139977   3.806   3.952   5.794  1.1831  0.3491 -0.1871
 9447SOL    HW239978   3.733   3.877   5.891 -0.2288  0.6987 -0.3349
 9448SOL     OW39979   1.590   3.300   7.065  0.5376 -0.0496  0.4155
 9448SOL    HW139980   1.602   3.385   7.023 -1.1799  0.7158  1.4707
 9448SOL    HW239981   1.677   3.262   7.056  0.1195 -0.9132  0.0416
 9449SOL     OW39982   1.893   1.263  14.040 -0.5436 -0.2259  0.0618
 9449SOL    HW139983   1.854   1.306  14.116  1.0096  1.5792 -0.1780
 9449SOL    HW239984   1.928   1.186  14.083 -0.2983 -1.0285 -1.5777
 9450SOL     OW39985   1.194   3.914   2.435 -0.4468 -0.2250  0.1489
 9450SOL    HW139986   1.260   3.924   2.504 -0.5191  1.2720 -0.0077
 9450SOL    HW239987   1.166   3.823   2.449 -0.8904 -0.2932 -1.2113
 9451SOL     OW39988   3.305   2.111   1.381 -0.2170  0.4807  0.0024
 9451SOL    HW139989   3.278   2.095   1.471 -1.9058  0.4816 -0.5102
 9451SOL    HW239990   3.226   2.122   1.329  0.1056 -0.1491 -0.6157
 9452SOL     OW39991   2.977   2.642   6.647  0.1686 -0.3138 -0.1244
 9452SOL    HW139992   3.003   2.682   6.564  2.4854 -2.3360 -0.3680
 9452SOL    HW239993   2.992   2.721   6.699 -0.9647  0.0276 -0.3311
 9453SOL     OW39994   3.300   1.531  15.342 -0.4870  0.2255  0.2235
 9453SOL    HW139995   3.319   1.543  15.435  2.0141 -0.0275 -0.2473
 9453SOL    HW239996   3.384   1.513  15.300 -0.5412 -0.4730  0.4197
 9454SOL     OW39997   0.979   3.883   6.587  0.1603  0.6614 -0.5104
 9454SOL    HW139998   1.047   3.874   6.653 -0.2372  1.2893 -0.0037
 9454SOL    HW239999   0.913   3.835   6.637  2.0028 -0.1471  1.1433
 9455SOL     OW40000   0.675   2.088   0.205  0.2057 -0.3135 -0.4397
 9455SOL    HW140001   0.675   2.106   0.111 -0.8753  0.7410 -0.2266
 9455SOL    HW240002   0.660   1.993   0.203 -0.4706 -0.1651 -2.6809
 9456SOL     OW40003   3.498   0.229   3.175 -0.2612 -0.5261 -1.0323
 9456SOL    HW140004   3.445   0.151   3.190  0.4855 -0.7868  0.2175
 9456SOL    HW240005   3.577   0.200   3.220 -0.1586 -0.4316 -1.1522
 9457SOL     OW40006   0.236   2.101   4.541  0.0873 -0.1520 -0.0869
 9457SOL    HW140007   0.150   2.143   4.535 -0.2963 -0.6775  1.5948
 9457SOL    HW240008   0.268   2.120   4.629  1.2996 -2.3671 -0.0573
 9458SOL     OW40009   0.433   3.122   8.846  0.1766  0.6577 -0.3735
 9458SOL    HW140010   0.515   3.172   8.841  1.4457 -1.3384  0.2781
 9458SOL    HW240011   0.420   3.109   8.940 -2.3258  2.2844 -0.5027
 9459SOL     OW40012   0.852   3.184   6.395  0.3280 -0.2824  0.1783
 9459SOL    HW140013   0.804   3.188   6.313  1.1032  0.0042 -0.2659
 9459SOL    HW240014   0.855   3.278   6.417  1.5929 -0.0352 -1.0674
 9460SOL     OW40015   2.868   4.243   6.895  0.0884  0.5107 -0.3272
 9460SOL    HW140016   2.825   4.233   6.980 -2.4927 -2.1192 -1.9280
 9460SOL    HW240017   2.952   4.205   6.918  0.0622  1.1883  0.8865
 9461SOL     OW40018   1.369   2.646   8.106 -0.0339 -0.6065  0.2770
 9461SOL    HW140019   1.453   2.601   8.105  0.4591  0.3419 -1.2023
 9461SOL    HW240020   1.325   2.619   8.025  2.0582  0.5345 -1.2514
 9462SOL     OW40021   2.710   2.696  16.361 -0.6220 -0.0133  0.3267
 9462SOL    HW140022   2.788   2.747  16.340  0.2422 -1.4678  0.0137
 9462SOL    HW240023   2.643   2.760  16.383 -0.2953  0.6960 -0.7579
 9463SOL     OW40024   1.234   3.533   2.102  0.0228 -0.2680  0.3002
 9463SOL    HW140025   1.156   3.585   2.122 -0.4299 -1.5901  1.9872
 9463SOL    HW240026   1.190   3.467   2.047 -1.0965  0.9654 -0.2879
 9464SOL     OW40027   2.686   2.766  12.190 -0.3051 -0.1124  0.1542
 9464SOL    HW140028   2.747   2.758  12.263 -1.3694  1.4566  1.2018
 9464SOL    HW240029   2.743   2.755  12.113 -1.5553  0.1418 -0.8185
 9465SOL     OW40030   0.738   1.774  14.045 -0.0784 -0.4890 -0.6318
 9465SOL    HW140031   0.724   1.692  14.093  1.0193 -1.0922 -1.3541
 9465SOL    HW240032   0.646   1.800  14.037 -0.8909 -2.7823  1.1092
 9466SOL     OW40033   2.145   3.113   4.991 -0.8521 -0.0873  0.3112
 9466SOL    HW140034   2.104   3.094   4.906 -0.2324 -2.5136  0.5414
 9466SOL    HW240035   2.195   3.033   5.008  0.0345 -0.1939 -2.7069
 9467SOL     OW40036   1.735   3.560   4.592 -0.4530  0.3191 -0.5266
 9467SOL    HW140037   1.771   3.575   4.505  1.0849 -2.0803 -0.3006
 9467SOL    HW240038   1.804   3.521   4.645 -0.6881  0.8054  0.1378
 9468SOL     OW40039   3.088   2.824  12.884 -0.8407  0.2866  0.6440
 9468SOL    HW140040   3.142   2.900  12.863  2.7631 -1.7553  2.5734
 9468SOL    HW240041   3.076   2.836  12.978 -0.8423  2.0161  0.4232
 9469SOL     OW40042   3.877   1.272   0.930 -0.2411 -0.0406 -0.0468
 9469SOL    HW140043   3.890   1.360   0.893  4.0762 -0.1796  1.0986
 9469SOL    HW240044   3.965   1.233   0.933  0.1799  0.9688  0.6625
 9470SOL     OW40045   2.230   3.055   4.609 -0.0169 -0.0667  0.1546
 9470SOL    HW140046   2.161   2.993   4.634  1.4660 -2.5833 -1.9688
 9470SOL    HW240047   2.296   3.007   4.657 -0.5781 -0.6048  0.3892
 9471SOL     OW40048   0.053   2.712   3.328 -0.1176 -0.5122 -0.1937
 9471SOL    HW140049   0.032   2.704   3.235  1.2293 -0.2364 -0.5253
 9471SOL    HW240050   0.132   2.659   3.336 -0.3014 -0.9284 -1.1270
 9472SOL     OW40051   0.520   1.913   2.658  0.0185 -0.7137 -0.5590
 9472SOL    HW140052   0.592   1.917   2.595 -1.3625  0.8195 -2.0497
 9472SOL    HW240053   0.444   1.903   2.601 -0.7480 -1.0068  0.5156
 9473SOL     OW40054   4.137   0.493  11.839 -0.1933  0.1868  0.1192
 9473SOL    HW140055   4.176   0.561  11.784  0.1224  0.3537  0.5503
 9473SOL    HW240056   4.047   0.526  11.842 -0.0407  0.6601 -0.4770
 9474SOL     OW40057   2.360   3.021   3.688 -0.4834  0.8693 -0.1750
 9474SOL    HW140058   2.330   2.935   3.660  1.7475 -0.2393  0.8752
 9474SOL    HW240059   2.279   3.053   3.729 -0.6754  0.2532 -0.0668
 9475SOL     OW40060   1.174   2.684   8.402  0.2066 -0.3405 -0.3746
 9475SOL    HW140061   1.252   2.648   8.362  0.9192 -0.2049  0.9062
 9475SOL    HW240062   1.138   2.743   8.335 -2.4846 -0.6154  0.8119
 9476SOL     OW40063   1.887   1.919   9.817 -0.2101  0.0604 -0.7911
 9476SOL    HW140064   1.950   1.991   9.825  1.1471 -1.3835  1.7491
 9476SOL    HW240065   1.805   1.964   9.800 -0.6165 -0.9051 -1.3655
 9477SOL     OW40066   3.510   3.684  10.298 -0.4251 -0.1587  0.3456
 9477SOL    HW140067   3.424   3.725  10.311  0.4039  1.5676  0.3784
 9477SOL    HW240068   3.492   3.592  10.317  1.0783 -1.0455 -2.5281
 9478SOL     OW40069   3.792   4.143   5.657  0.6795 -0.3119  0.0690
 9478SOL    HW140070   3.881   4.164   5.684  0.3059 -0.4483  1.4211
 9478SOL    HW240071   3.790   4.195   5.577  1.0566  1.3013  1.1264
 9479SOL     OW40072   1.771   0.771  13.032 -0.7119 -0.2347 -0.6066
 9479SOL    HW140073   1.721   0.836  12.983 -2.2234 -1.8623 -1.2203
 9479SOL    HW240074   1.745   0.686  12.995 -0.8282  0.2418 -1.6167
 9480SOL     OW40075   0.645   0.694   2.711 -0.1245 -0.4015 -0.0166
 9480SOL    HW140076   0.720   0.697   2.771 -1.7335 -2.1292  2.1049
 9480SOL    HW240077   0.686   0.648   2.638 -2.6689 -1.7041 -0.6034
 9481SOL     OW40078   2.306   3.090   2.511  0.5445 -0.3056 -0.3801
 9481SOL    HW140079   2.376   3.064   2.571  1.5313  2.2293 -0.4392
 9481SOL    HW240080   2.232   3.048   2.555  1.4292 -1.6703 -0.1859
 9482SOL     OW40081   1.947   4.018   3.891 -0.2694 -0.6073 -0.4984
 9482SOL    HW140082   1.876   4.032   3.827 -1.6421 -1.6850  0.7956
 9482SOL    HW240083   1.971   4.111   3.889 -0.6073 -0.5090  0.2673
 9483SOL     OW40084   3.415   2.811   2.182  0.0860  0.2022  0.3447
 9483SOL    HW140085   3.422   2.744   2.250  1.3187 -1.8146 -1.7588
 9483SOL    HW240086   3.385   2.881   2.240 -1.1208 -0.6862  0.8062
 9484SOL     OW40087   0.424   3.177   1.800  0.0039  0.2156  0.0191
 9484SOL    HW140088   0.369   3.255   1.802  0.9557  0.8719  0.4289
 9484SOL    HW240089   0.484   3.199   1.871 -2.3042  0.8167  1.7955
 9485SOL     OW40090   2.359   0.872  14.539  0.1920  0.1491  0.1918
 9485SOL    HW140091   2.440   0.823  14.521 -0.3801 -0.8741  0.4081
 9485SOL    HW240092   2.326   0.813  14.607 -2.1262  3.4068  1.8711
 9486SOL     OW40093   3.132   3.285  14.734 -0.3417 -0.3230 -0.0358
 9486SOL    HW140094   3.225   3.273  14.718  0.0712 -0.3840  2.3977
 9486SOL    HW240095   3.125   3.261  14.827 -1.7497  2.1221  0.4851
 9487SOL     OW40096   2.895   2.320   7.784  0.5654 -0.3816 -0.0086
 9487SOL    HW140097   2.966   2.339   7.846  0.1633 -1.7766  0.8676
 9487SOL    HW240098   2.946   2.284   7.711  0.3425 -0.3591 -0.1757
 9488SOL     OW40099   1.837   4.188   5.034  0.0999  0.1877 -0.3089
 9488SOL    HW140100   1.805   4.172   5.122 -0.4836 -1.5493 -0.8339
 9488SOL    HW240101   1.921   4.142   5.036  1.1693  2.3087  2.0788
 9489SOL     OW40102   0.719   1.211   8.896 -0.3125  0.1074  0.8395
 9489SOL    HW140103   0.799   1.158   8.890 -1.1094 -0.7926 -1.9010
 9489SOL    HW240104   0.676   1.179   8.975 -1.8495  0.7083  0.2429
 9490SOL     OW40105   4.148   4.278   4.656  0.0708 -0.6035  0.2262
 9490SOL    HW140106   4.094   4.344   4.612 -0.5997 -1.7849 -0.7274
 9490SOL    HW240107   4.116   4.276   4.746  0.1024  0.5321  0.2654
 9491SOL     OW40108   1.844   4.538  13.705 -0.3254 -0.1558 -0.0774
 9491SOL    HW140109   1.856   4.610  13.766 -5.3550  0.6790 -0.1455
 9491SOL    HW240110   1.752   4.541  13.680  0.2453  0.1740 -2.1067
 9492SOL     OW40111   0.843   1.591   4.614  0.2298 -0.3364  0.9349
 9492SOL    HW140112   0.749   1.570   4.619 -0.3509  1.5498 -2.3015
 9492SOL    HW240113   0.848   1.678   4.653  0.6459 -0.5718  1.4072
 9493SOL     OW40114   1.983   1.837   1.797 -0.0075 -0.1759 -0.0924
 9493SOL    HW140115   1.946   1.924   1.780 -1.1843 -0.9409 -1.5046
 9493SOL    HW240116   1.969   1.791   1.715 -2.1011 -1.6674  1.1001
 9494SOL     OW40117   4.084   0.284  17.629 -0.1892  0.0559 -0.2950
 9494SOL    HW140118   4.165   0.308  17.673 -0.1795 -1.3470  0.4695
 9494SOL    HW240119   4.108   0.307  17.539 -2.0317  0.1501 -0.7743
 9495SOL     OW40120   3.486   1.375  10.850  0.7400  0.0963  0.1052
 9495SOL    HW140121   3.547   1.409  10.917  1.2451 -1.3552  0.3836
 9495SOL    HW240122   3.429   1.448  10.826 -0.0439 -0.6939 -0.4104
 9496SOL     OW40123   4.396   1.767  16.020 -0.1263 -0.0306 -0.2961
 9496SOL    HW140124   4.436   1.715  16.090 -2.4344 -3.7316 -1.7299
 9496SOL    HW240125   4.432   1.721  15.945  1.9760 -1.3951  1.5570
 9497SOL     OW40126   3.571   1.889   0.995  0.4222  0.8027  0.1717
 9497SOL    HW140127   3.519   1.898   1.076 -3.3017 -0.8215 -2.0322
 9497SOL    HW240128   3.545   1.964   0.943  1.4868  0.9976 -0.0644
 9498SOL     OW40129   3.526   1.306   8.916 -0.1982  0.4233 -0.4066
 9498SOL    HW140130   3.568   1.257   8.845 -1.0956 -2.1060  0.7960
 9498SOL    HW240131   3.584   1.382   8.923  2.1362 -1.3950  0.1895
 9499SOL     OW40132   1.420   0.195  16.675  0.1469  0.2339  0.1000
 9499SOL    HW140133   1.420   0.288  16.656 -0.5611  0.3949  0.8955
 9499SOL    HW240134   1.503   0.168  16.636 -0.6265 -1.7601 -0.1843
 9500SOL     OW40135   4.043   2.537  11.853 -0.5724 -0.1761  0.4226
 9500SOL    HW140136   4.070   2.524  11.944 -1.3563 -0.1625  0.6548
 9500SOL    HW240137   4.119   2.525  11.796 -1.9326 -0.2178 -1.3925
 9501SOL     OW40138   3.367   2.961   1.716  0.5672  0.4407 -0.4974
 9501SOL    HW140139   3.387   2.917   1.799  2.9376 -0.8011 -1.7330
 9501SOL    HW240140   3.447   2.956   1.664  0.0946 -0.8673 -1.1202
 9502SOL     OW40141   3.926   0.791   7.940  0.0901  0.0399 -0.4437
 9502SOL    HW140142   3.975   0.869   7.914  1.5050 -1.1606 -1.3586
 9502SOL    HW240143   3.940   0.787   8.035  1.5727 -0.3100 -0.6759
 9503SOL     OW40144   3.615   2.526   5.830  0.4950 -0.0469 -0.2912
 9503SOL    HW140145   3.595   2.434   5.812  0.1956 -0.1718  0.6601
 9503SOL    HW240146   3.532   2.561   5.863 -0.2449 -1.0072 -1.1326
 9504SOL     OW40147   2.793   3.912   7.133  0.2023 -0.6421  0.0077
 9504SOL    HW140148   2.709   3.894   7.175 -0.9327  2.8663 -0.8030
 9504SOL    HW240149   2.842   3.861   7.197  0.3414 -0.7135 -0.1570
 9505SOL     OW40150   1.252   1.635   2.769 -0.1965 -0.1143 -0.4135
 9505SOL    HW140151   1.170   1.646   2.719  0.0316 -1.1796 -1.0289
 9505SOL    HW240152   1.216   1.607   2.853 -1.0577  0.5732 -0.5530
 9506SOL     OW40153   1.303   2.336   7.403 -0.0972  0.2848 -0.2363
 9506SOL    HW140154   1.317   2.372   7.490  0.7407 -0.0058 -0.2518
 9506SOL    HW240155   1.221   2.377   7.374  0.3119  0.2685 -1.4393
 9507SOL     OW40156   2.381   3.109  10.361  0.2658 -0.2762 -0.6950
 9507SOL    HW140157   2.437   3.176  10.400 -0.5463 -0.8133  1.4024
 9507SOL    HW240158   2.351   3.072  10.444 -1.1321  0.1145 -1.0209
 9508SOL     OW40159   0.333   0.897   6.235  0.3515  0.5325 -0.3672
 9508SOL    HW140160   0.257   0.854   6.198  1.0896 -2.1168  1.2394
 9508SOL    HW240161   0.311   0.991   6.237 -0.0034  0.4735 -1.5216
 9509SOL     OW40162   1.955   0.182   2.293  0.5462  0.0626  0.0357
 9509SOL    HW140163   2.035   0.146   2.332 -1.2649 -1.1494  2.6493
 9509SOL    HW240164   1.892   0.111   2.305  0.2835  0.2342 -0.3235
 9510SOL     OW40165   3.963   3.968   5.472  0.0535 -0.2223  0.0047
 9510SOL    HW140166   3.999   4.046   5.430 -0.7509  0.7787  1.1703
 9510SOL    HW240167   3.882   4.002   5.509  0.0886 -0.9805  0.7997
 9511SOL     OW40168   2.128   1.073   4.666 -0.2349 -0.1721 -0.8217
 9511SOL    HW140169   2.101   1.098   4.755 -0.8492  0.7357 -1.2586
 9511SOL    HW240170   2.143   0.982   4.689  0.9405  0.2726  0.1469
 9512SOL     OW40171   2.276   4.612  10.066 -0.0185 -0.4934 -0.3925
 9512SOL    HW140172   2.264   4.549   9.995  0.4479  1.7463 -2.4557
 9512SOL    HW240173   2.217   4.681  10.036 -1.0597 -1.6506 -1.0625
 9513SOL     OW40174   0.167   0.407   5.884 -0.4650 -0.1887  0.1609
 9513SOL    HW140175   0.129   0.337   5.831  0.3415  0.4898 -1.3173
 9513SOL    HW240176   0.089   0.462   5.892  0.3847  1.1481 -0.6900
 9514SOL     OW40177   4.631   2.605   2.737 -0.0481  0.2041  0.6495
 9514SOL    HW140178   4.594   2.567   2.816  0.4074 -1.1950  0.1950
 9514SOL    HW240179   4.656   2.526   2.689  0.4232  0.6954  0.0814
 9515SOL     OW40180   3.460   3.421   7.412  0.1403 -0.4196  0.0952
 9515SOL    HW140181   3.394   3.353   7.398 -0.6577  0.9758 -3.1067
 9515SOL    HW240182   3.421   3.509   7.416 -2.5666 -1.5977 -0.4950
 9516SOL     OW40183   4.059   2.398   7.988 -0.5158 -0.2336  0.4982
 9516SOL    HW140184   4.065   2.317   8.039  1.4167  0.1608  0.8973
 9516SOL    HW240185   4.083   2.473   8.041 -2.1047  0.4773  0.2209
 9517SOL     OW40186   3.687   0.370   6.809 -0.3571  0.0222  0.3818
 9517SOL    HW140187   3.626   0.319   6.756 -1.0579 -1.6895  2.8237
 9517SOL    HW240188   3.700   0.297   6.869  2.0331  1.3236  1.4635
 9518SOL     OW40189   3.263   4.460   8.231 -0.2463  0.2029 -0.1165
 9518SOL    HW140190   3.304   4.544   8.250 -0.3790  0.1707  0.3031
 9518SOL    HW240191   3.278   4.458   8.136  1.4004  0.3926  0.1342
 9519SOL     OW40192   3.645   3.656   3.875  0.0782 -0.1250 -0.1539
 9519SOL    HW140193   3.578   3.689   3.934 -1.1366 -0.7367 -1.1827
 9519SOL    HW240194   3.590   3.624   3.804 -1.3239  2.6362 -0.2964
 9520SOL     OW40195   2.373   1.458   5.410 -0.1317 -0.1149  0.1655
 9520SOL    HW140196   2.390   1.435   5.501  1.1257  0.8476  0.1726
 9520SOL    HW240197   2.461   1.467   5.374  0.0055  2.6273  1.1833
 9521SOL     OW40198   2.466   3.613   6.294 -0.5545 -0.9217  0.1643
 9521SOL    HW140199   2.551   3.625   6.336  0.3218 -2.4336 -1.1760
 9521SOL    HW240200   2.422   3.691   6.328 -0.0857  0.0320 -1.4219
 9522SOL     OW40201   0.422   0.290  15.357 -0.3219 -0.4996  0.0964
 9522SOL    HW140202   0.456   0.212  15.400  1.4592 -0.6892 -1.6421
 9522SOL    HW240203   0.351   0.330  15.407  1.0804  2.8599 -0.5862
 9523SOL     OW40204   1.359   4.270   2.965 -0.0334 -0.0296  0.5079
 9523SOL    HW140205   1.300   4.303   3.033 -1.3356 -0.7760 -0.2569
 9523SOL    HW240206   1.316   4.300   2.884  1.5071  0.3797 -0.1595
 9524SOL     OW40207   1.987   4.519   1.439  0.3378  0.2882 -0.0764
 9524SOL    HW140208   1.959   4.476   1.358  1.1937  2.0822 -1.3080
 9524SOL    HW240209   2.033   4.443   1.474 -0.0624  0.2115  0.2754
 9525SOL     OW40210   3.917   0.199   7.188 -0.6201  0.0264  0.2787
 9525SOL    HW140211   3.997   0.189   7.137  0.0355 -0.3839  1.3852
 9525SOL    HW240212   3.939   0.154   7.270 -1.0730 -0.4535  0.1386
 9526SOL     OW40213   1.911   0.630   1.198 -0.4578  0.0528 -0.1651
 9526SOL    HW140214   1.901   0.634   1.103  1.1467 -0.5677 -0.3480
 9526SOL    HW240215   1.841   0.688   1.227  1.9551  2.8481  0.0469
 9527SOL     OW40216   3.074   2.633   1.285  0.0792 -0.1421  0.3058
 9527SOL    HW140217   3.069   2.726   1.261 -2.0731 -0.6589 -1.2561
 9527SOL    HW240218   3.046   2.637   1.377 -0.2061 -1.0106  0.2515
 9528SOL     OW40219   3.299   4.282   8.433  0.0113  0.5884 -0.2341
 9528SOL    HW140220   3.371   4.323   8.481 -1.1057  1.4814  0.6772
 9528SOL    HW240221   3.319   4.320   8.347 -0.3005  0.6360 -0.2823
 9529SOL     OW40222   0.943   3.647   8.047  0.3100 -0.4046 -0.1973
 9529SOL    HW140223   1.017   3.706   8.061 -0.0962 -0.3715  1.8034
 9529SOL    HW240224   0.993   3.565   8.043 -0.0815 -0.6452 -0.1734
 9530SOL     OW40225   0.687   1.261   3.927  0.1374 -0.0342  0.2832
 9530SOL    HW140226   0.614   1.322   3.918 -0.0659 -0.1365  1.2909
 9530SOL    HW240227   0.654   1.173   3.948 -0.8093  0.0617 -0.7922
 9531SOL     OW40228   3.076   2.558   5.253  0.3105 -0.3182 -0.4321
 9531SOL    HW140229   3.143   2.491   5.258  0.1137 -0.5230 -0.5384
 9531SOL    HW240230   3.104   2.611   5.178  1.5930 -0.7446 -0.2345
 9532SOL     OW40231   2.862   3.148  14.866 -0.7107  0.3360 -0.1237
 9532SOL    HW140232   2.819   3.107  14.791  2.7914 -1.0771 -1.3981
 9532SOL    HW240233   2.932   3.083  14.865  0.6108  1.7483  0.7532
 9533SOL     OW40234   3.037   4.164  10.955 -0.0614 -0.1118 -0.2358
 9533SOL    HW140235   3.071   4.196  11.039 -2.6637  0.6148  0.5609
 9533SOL    HW240236   2.954   4.126  10.984  0.2014 -1.4840 -1.2939
 9534SOL     OW40237   0.778   4.543   6.585  0.3615  0.1516 -0.1210
 9534SOL    HW140238   0.870   4.519   6.580  0.1151 -0.9063  0.6822
 9534SOL    HW240239   0.740   4.472   6.635 -1.1699  0.2043 -1.2088
 9535SOL     OW40240   3.484   2.494   8.943 -0.6555 -0.0129  0.2163
 9535SOL    HW140241   3.567   2.446   8.947 -0.9740 -0.5957 -0.1811
 9535SOL    HW240242   3.436   2.452   9.014  0.6287 -1.5007  0.1906
 9536SOL     OW40243   2.011   1.014   7.373 -0.3215 -0.6555  0.3560
 9536SOL    HW140244   1.990   1.029   7.465 -1.4369 -2.9696  0.4719
 9536SOL    HW240245   1.966   1.090   7.335 -1.1985 -0.6292  1.4653
 9537SOL     OW40246   2.190   2.015   1.572  0.6463  0.0710  0.5725
 9537SOL    HW140247   2.125   2.082   1.553  1.3864  0.0965 -1.8311
 9537SOL    HW240248   2.128   1.945   1.592  0.6726 -0.1975 -0.3094
 9538SOL     OW40249   0.559   0.329   1.964  0.6331  0.0192  0.7860
 9538SOL    HW140250   0.592   0.278   1.890 -0.5456  1.0868 -0.4949
 9538SOL    HW240251   0.550   0.258   2.027  0.5246 -0.0941  0.6410
 9539SOL     OW40252   1.094   1.886   8.593 -0.5193  0.1180 -0.3475
 9539SOL    HW140253   1.059   1.839   8.668  2.1531 -0.6568  0.4184
 9539SOL    HW240254   1.019   1.923   8.547  0.0861  0.4614 -1.0652
 9540SOL     OW40255   0.434   3.566   6.087  0.0147  0.4947 -0.1059
 9540SOL    HW140256   0.450   3.626   6.160 -1.3439 -2.0531  2.2895
 9540SOL    HW240257   0.448   3.639   6.026  2.0568  0.0082 -0.2378
 9541SOL     OW40258   4.588   1.120   7.752  0.6051 -0.5216 -0.0567
 9541SOL    HW140259   4.556   1.143   7.665  1.4756  3.1536  0.5612
 9541SOL    HW240260   4.678   1.153   7.761  0.5950  0.1862 -2.4087
 9542SOL     OW40261   0.760   1.473  16.415  0.9361 -0.2417 -0.6037
 9542SOL    HW140262   0.761   1.532  16.490 -0.6357 -0.5719 -0.3323
 9542SOL    HW240263   0.807   1.536  16.361  0.3581 -0.8352 -1.7965
 9543SOL     OW40264   1.920   4.026   4.781  0.3447 -1.3234 -0.2323
 9543SOL    HW140265   1.930   3.933   4.761  1.5742 -1.8719  2.9275
 9543SOL    HW240266   1.828   4.041   4.761  0.5680 -2.0271 -1.8274
 9544SOL     OW40267   1.526   3.724   5.709 -0.2143 -0.6900 -0.6006
 9544SOL    HW140268   1.521   3.820   5.704 -2.2742 -0.7941 -0.3036
 9544SOL    HW240269   1.478   3.702   5.788  0.2134 -2.2779 -0.7970
 9545SOL     OW40270   2.991   4.351   1.481  0.0243 -0.5415  0.0876
 9545SOL    HW140271   3.069   4.406   1.472  0.3011 -0.9704 -0.1499
 9545SOL    HW240272   2.919   4.412   1.467 -0.0154 -0.5572  0.2158
 9546SOL     OW40273   2.541   3.869   7.255 -0.2122  0.4683  0.1652
 9546SOL    HW140274   2.548   3.862   7.351 -0.5393 -1.1623  0.0586
 9546SOL    HW240275   2.461   3.822   7.232  2.6383 -3.4891 -1.6334
 9547SOL     OW40276   0.712   2.790   5.863  0.1618 -0.1277  0.2775
 9547SOL    HW140277   0.736   2.820   5.775 -2.3070 -0.3355 -0.4882
 9547SOL    HW240278   0.700   2.877   5.901  1.7853 -0.4056  1.3833
 9548SOL     OW40279   2.245   3.213   3.497 -0.5669 -0.3561 -0.0440
 9548SOL    HW140280   2.266   3.149   3.565 -1.8394  0.3835  1.0418
 9548SOL    HW240281   2.178   3.270   3.535 -0.1261 -0.5157  0.9638
 9549SOL     OW40282   2.423   0.091   9.636  0.8808  0.1132 -0.0282
 9549SOL    HW140283   2.431   0.083   9.541  1.3324  1.0184 -0.0675
 9549SOL    HW240284   2.456   0.006   9.665  0.6249  0.4109  1.1383
 9550SOL     OW40285   0.473   2.487   7.315 -0.5447 -0.1074  0.4706
 9550SOL    HW140286   0.454   2.407   7.266  1.7846 -0.7678  0.6171
 9550SOL    HW240287   0.568   2.470   7.316 -0.4307  0.4336 -2.3803
 9551SOL     OW40288   4.433   4.220   4.328  0.1312  0.4861 -0.3803
 9551SOL    HW140289   4.407   4.223   4.236 -1.3208  0.0692  0.0067
 9551SOL    HW240290   4.385   4.138   4.344  0.5518  0.4670  0.7781
 9552SOL     OW40291   0.808   0.317   6.525 -0.0439 -0.0297 -0.0203
 9552SOL    HW140292   0.792   0.401   6.482 -0.9945 -0.7089 -0.9766
 9552SOL    HW240293   0.735   0.314   6.588 -0.0419 -1.2602 -0.0774
 9553SOL     OW40294   0.618   4.328   6.674  0.4264 -0.1621  0.1645
 9553SOL    HW140295   0.629   4.233   6.678 -0.5369 -0.2962 -0.2497
 9553SOL    HW240296   0.537   4.324   6.624  0.1732 -1.4780  0.6772
 9554SOL     OW40297   0.946   0.534   0.466 -0.1735 -0.2291 -0.1152
 9554SOL    HW140298   1.035   0.506   0.482  0.2083  1.6352  1.0676
 9554SOL    HW240299   0.960   0.587   0.388  1.8674  2.3794  2.0378
 9555SOL     OW40300   1.779   3.393   2.188  0.1627  0.5516 -0.1362
 9555SOL    HW140301   1.787   3.309   2.145 -2.2437  0.2450  0.0131
 9555SOL    HW240302   1.688   3.417   2.170  0.0622  0.8643  0.7769
 9556SOL     OW40303   2.530   0.561   7.368 -0.8642  0.3796 -0.3721
 9556SOL    HW140304   2.554   0.653   7.382  0.2420  0.0155  0.1084
 9556SOL    HW240305   2.573   0.545   7.284  0.9500  2.6620  0.1080
 9557SOL     OW40306   3.147   2.938   6.198 -0.1412  0.1903 -0.1999
 9557SOL    HW140307   3.110   2.972   6.117  1.1774  2.0788  0.0048
 9557SOL    HW240308   3.083   2.970   6.263 -3.5833 -1.8701 -2.5530
 9558SOL     OW40309   3.737   4.538   9.103  0.8098 -0.9636  0.1403
 9558SOL    HW140310   3.769   4.573   9.186 -0.1516  0.5910 -0.1488
 9558SOL    HW240311   3.734   4.444   9.123  1.0606 -1.2854 -1.2969
 9559SOL     OW40312   1.249   1.013  10.116 -0.1816  0.1734  0.5295
 9559SOL    HW140313   1.263   1.032  10.208  0.0548 -0.2527  0.5798
 9559SOL    HW240314   1.334   1.038  10.078 -0.2241 -2.0364 -1.0693
 9560SOL     OW40315   1.702   1.672  11.311 -0.4559 -0.0609 -0.0728
 9560SOL    HW140316   1.789   1.712  11.300  0.0526 -1.1447  0.0067
 9560SOL    HW240317   1.657   1.744  11.355  0.5221 -0.5154  1.6795
 9561SOL     OW40318   3.156   3.940   5.765 -0.0654  0.0242  0.1207
 9561SOL    HW140319   3.210   3.998   5.712  0.2662 -0.5498 -0.1712
 9561SOL    HW240320   3.101   3.894   5.702 -0.5051  1.4800 -0.5531
 9562SOL     OW40321   1.701   2.279   8.883  0.0620  0.2346  0.5687
 9562SOL    HW140322   1.779   2.277   8.939 -0.0073  0.2818  0.6656
 9562SOL    HW240323   1.731   2.348   8.823 -0.1172 -1.1944 -1.1660
 9563SOL     OW40324   2.956   1.446   2.036  0.0143 -0.1339 -0.7834
 9563SOL    HW140325   2.862   1.430   2.035 -0.0945  0.3510  1.1571
 9563SOL    HW240326   2.959   1.497   1.955  1.4733  2.1442  0.7023
 9564SOL     OW40327   1.016   3.518  16.202 -0.7471 -0.4149 -0.3175
 9564SOL    HW140328   0.926   3.546  16.216 -0.2857  0.5392  0.7544
 9564SOL    HW240329   0.996   3.437  16.155 -0.6564 -1.4538  1.4394
 9565SOL     OW40330   1.993   2.199  13.855 -0.3950  0.8243  0.1555
 9565SOL    HW140331   1.935   2.238  13.790 -0.5893 -1.0062 -0.7534
 9565SOL    HW240332   1.964   2.110  13.836  0.8857  0.4700 -0.0902
 9566SOL     OW40333   0.119   4.422  14.159 -0.0106 -1.1400  0.5263
 9566SOL    HW140334   0.201   4.467  14.179 -0.4357  0.0755 -0.5569
 9566SOL    HW240335   0.073   4.425  14.244  1.5815 -1.3223  1.3939
 9567SOL     OW40336   0.606   4.369   4.021 -0.4149 -0.2214 -0.1976
 9567SOL    HW140337   0.605   4.346   3.928  4.0814 -0.4711 -0.2021
 9567SOL    HW240338   0.685   4.317   4.036 -0.6263 -0.2355  0.8759
 9568SOL     OW40339   1.132   0.504   8.499 -0.1336 -0.7147  0.3343
 9568SOL    HW140340   1.168   0.552   8.425  1.8333 -2.2487  0.2662
 9568SOL    HW240341   1.051   0.474   8.459  1.7381 -1.7559 -2.6397
 9569SOL     OW40342   0.956   0.228   1.974  0.0768 -0.0830  0.1428
 9569SOL    HW140343   0.919   0.141   1.990  1.6060 -0.7318  0.2022
 9569SOL    HW240344   1.035   0.215   1.922  1.3519 -1.1373  2.3465
   4.73878   4.73878  17.75304
